Generated by Interchange
373
    1MOP     C1    1  -0.300  -0.502  -0.079
    1MOP     O1    2  -0.376  -0.540  -0.167
    1MOP     C2    3  -0.267  -0.359  -0.055
    1MOP     C3    4  -0.174  -0.319   0.041
    1MOP     C4    5  -0.150  -0.184   0.065
    1MOP     C5    6  -0.219  -0.085  -0.007
    1MOP     C6    7  -0.192   0.058   0.018
    1MOP     C7    8  -0.067   0.118  -0.007
    1MOP     C8    9  -0.049   0.254   0.024
    1MOP     C9   10  -0.151   0.332   0.080
    1MOP     O2   11  -0.116   0.461   0.106
    1MOP    C10   12  -0.213   0.544   0.170
    1MOP    C11   13  -0.274   0.273   0.103
    1MOP    C12   14  -0.295   0.138   0.072
    1MOP    C13   15   0.049   0.044  -0.061
    1MOP    C14   16   0.046  -0.019  -0.186
    1MOP    C15   17   0.157  -0.089  -0.233
    1MOP    C16   18   0.274  -0.094  -0.157
    1MOP    C17   19   0.281  -0.030  -0.032
    1MOP    C18   20   0.166   0.035   0.016
    1MOP    C19   21   0.410  -0.028   0.047
    1MOP     N1   22   0.403  -0.122   0.159
    1MOP    C20   23   0.445   0.115   0.090
    1MOP    C21   24  -0.312  -0.125  -0.104
    1MOP    C22   25  -0.335  -0.261  -0.129
    1MOP     H1   26  -0.119  -0.393   0.099
    1MOP     H2   27  -0.078  -0.155   0.141
    1MOP     H3   28   0.048   0.302   0.005
    1MOP     H4   29  -0.166   0.641   0.188
    1MOP     H5   30  -0.243   0.503   0.267
    1MOP     H6   31  -0.300   0.560   0.105
    1MOP     H7   32  -0.357   0.329   0.145
    1MOP     H8   33  -0.393   0.094   0.091
    1MOP     H9   34  -0.043  -0.013  -0.248
    1MOP    H10   35   0.152  -0.140  -0.329
    1MOP    H11   36   0.361  -0.147  -0.196
    1MOP    H12   37   0.167   0.081   0.114
    1MOP    H13   38   0.487  -0.067  -0.020
    1MOP    H14   39   0.311  -0.160   0.178
    1MOP    H15   40   0.365   0.163   0.147
    1MOP    H16   41   0.464   0.177   0.001
    1MOP    H17   42   0.534   0.121   0.153
    1MOP    H18   43  -0.366  -0.051  -0.162
    1MOP    H19   44  -0.408  -0.289  -0.205
    2MOP    C23   45   0.498  -0.179   0.240
    2MOP     O3   46   0.458  -0.264   0.321
    2MOP    C24   47   0.643  -0.143   0.239
    2MOP    C25   48   0.709  -0.074   0.137
    2MOP    C26   49   0.840  -0.031   0.151
    2MOP    C27   50   0.914  -0.061   0.266
    2MOP    C28   51   1.051  -0.009   0.278
    2MOP    C29   52   1.077   0.129   0.296
    2MOP    C30   53   1.211   0.174   0.289
    2MOP    C31   54   1.317   0.086   0.264
    2MOP     O4   55   1.439   0.145   0.253
    2MOP    C32   56   1.547   0.062   0.213
    2MOP    C33   57   1.290  -0.050   0.250
    2MOP    C34   58   1.159  -0.097   0.258
    2MOP    C35   59   0.969   0.228   0.317
    2MOP    C36   60   0.881   0.218   0.426
    2MOP    C37   61   0.779   0.312   0.445
    2MOP    C38   62   0.766   0.419   0.358
    2MOP    C39   63   0.856   0.435   0.251
    2MOP    C40   64   0.954   0.336   0.230
    2MOP    C41   65   0.859   0.564   0.171
    2MOP     N2   66   0.819   0.550   0.031
    2MOP    C42   67   0.999   0.627   0.182
    2MOP    C43   68   0.854  -0.139   0.365
    2MOP    C44   69   0.719  -0.179   0.352
    2MOP    H20   70   0.662  -0.048   0.044
    2MOP    H21   71   0.884   0.030   0.072
    2MOP    H22   72   1.234   0.279   0.303
    2MOP    H23   73   1.637   0.123   0.204
    2MOP    H24   74   1.528   0.017   0.115
    2MOP    H25   75   1.566  -0.015   0.288
    2MOP    H26   76   1.368  -0.123   0.232
    2MOP    H27   77   1.140  -0.203   0.243
    2MOP    H28   78   0.891   0.136   0.496
    2MOP    H29   79   0.711   0.302   0.529
    2MOP    H30   80   0.689   0.493   0.377
    2MOP    H31   81   1.022   0.346   0.146
    2MOP    H32   82   0.788   0.633   0.219
    2MOP    H33   83   0.896   0.576  -0.030
    2MOP    H34   84   1.078   0.562   0.143
    2MOP    H35   85   1.023   0.651   0.286
    2MOP    H36   86   1.006   0.719   0.124
    2MOP    H37   87   0.909  -0.166   0.454
    2MOP    H38   88   0.674  -0.236   0.432
    3MOP    C45   89   0.700   0.609  -0.009
    3MOP     O5   90   0.592   0.551  -0.009
    3MOP    C46   91   0.709   0.750  -0.058
    3MOP    C47   92   0.779   0.844   0.018
    3MOP    C48   93   0.790   0.976  -0.025
    3MOP    C49   94   0.728   1.018  -0.143
    3MOP    C50   95   0.741   1.160  -0.181
    3MOP    C51   96   0.866   1.217  -0.215
    3MOP    C52   97   0.874   1.357  -0.231
    3MOP    C53   98   0.762   1.439  -0.212
    3MOP     O6   99   0.787   1.573  -0.224
    3MOP    C54  100   0.677   1.660  -0.198
    3MOP    C55  101   0.639   1.381  -0.182
    3MOP    C56  102   0.629   1.243  -0.166
    3MOP    C57  103   0.991   1.137  -0.227
    3MOP    C58  104   1.005   1.034  -0.320
    3MOP    C59  105   1.124   0.961  -0.329
    3MOP    C60  106   1.233   0.994  -0.248
    3MOP    C61  107   1.223   1.099  -0.156
    3MOP    C62  108   1.100   1.166  -0.143
    3MOP    C63  109   1.346   1.149  -0.083
    3MOP     N3  110   1.341   1.136   0.063
    3MOP    C64  111   1.369   1.297  -0.122
    3MOP    C65  112   0.653   0.925  -0.217
    3MOP    C66  113   0.643   0.792  -0.174
    3MOP    H39  114   0.822   0.820   0.114
    3MOP    H40  115   0.846   1.046   0.036
    3MOP    H41  116   0.969   1.404  -0.256
    3MOP    H42  117   0.712   1.763  -0.209
    3MOP    H43  118   0.641   1.648  -0.095
    3MOP    H44  119   0.597   1.644  -0.270
    3MOP    H45  120   0.550   1.441  -0.166
    3MOP    H46  121   0.533   1.201  -0.136
    3MOP    H47  122   0.922   1.009  -0.387
    3MOP    H48  123   1.133   0.880  -0.401
    3MOP    H49  124   1.326   0.940  -0.260
    3MOP    H50  125   1.090   1.245  -0.069
    3MOP    H51  126   1.432   1.092  -0.119
    3MOP    H52  127   1.347   1.226   0.107
    3MOP    H53  128   1.285   1.361  -0.092
    3MOP    H54  129   1.383   1.307  -0.230
    3MOP    H55  130   1.456   1.340  -0.072
    3MOP    H56  131   0.602   0.956  -0.307
    3MOP    H57  132   0.583   0.721  -0.231
    4MOP    C67  133   1.428   1.045   0.123
    4MOP     O7  134   1.400   0.928   0.145
    4MOP    C68  135   1.560   1.100   0.166
    4MOP    C69  136   1.632   1.182   0.079
    4MOP    C70  137   1.757   1.232   0.114
    4MOP    C71  138   1.814   1.202   0.238
    4MOP    C72  139   1.948   1.256   0.268
    4MOP    C73  140   1.972   1.395   0.279
    4MOP    C74  141   2.106   1.439   0.292
    4MOP    C75  142   2.213   1.350   0.292
    4MOP     O8  143   2.337   1.408   0.301
    4MOP    C76  144   2.449   1.320   0.292
    4MOP    C77  145   2.188   1.214   0.281
    4MOP    C78  146   2.057   1.167   0.269
    4MOP    C79  147   1.864   1.496   0.271
    4MOP    C80  148   1.758   1.500   0.362
    4MOP    C81  149   1.656   1.595   0.350
    4MOP    C82  150   1.661   1.691   0.250
    4MOP    C83  151   1.768   1.693   0.159
    4MOP    C84  152   1.866   1.593   0.168
    4MOP    C85  153   1.787   1.812   0.066
    4MOP     N4  154   1.776   1.779  -0.077
    4MOP    C86  155   1.922   1.878   0.099
    4MOP    C87  156   1.744   1.117   0.325
    4MOP    C88  157   1.618   1.065   0.288
    4MOP    H58  158   1.597   1.204  -0.020
    4MOP    H59  159   1.810   1.296   0.044
    4MOP    H60  160   2.126   1.546   0.300
    4MOP    H61  161   2.540   1.380   0.298
    4MOP    H62  162   2.450   1.269   0.195
    4MOP    H63  163   2.450   1.249   0.375
    4MOP    H64  164   2.269   1.141   0.279
    4MOP    H65  165   2.041   1.060   0.255
    4MOP    H66  166   1.753   1.429   0.444
    4MOP    H67  167   1.573   1.596   0.421
    4MOP    H68  168   1.583   1.766   0.245
    4MOP    H69  169   1.948   1.592   0.097
    4MOP    H70  170   1.708   1.885   0.088
    4MOP    H71  171   1.860   1.809  -0.126
    4MOP    H72  172   2.007   1.812   0.077
    4MOP    H73  173   1.927   1.906   0.205
    4MOP    H74  174   1.940   1.969   0.041
    4MOP    H75  175   1.787   1.091   0.421
    4MOP    H76  176   1.567   0.996   0.355
    5MOP    C89  177   1.660   1.819  -0.143
    5MOP     O9  178   1.556   1.758  -0.141
    5MOP    C90  179   1.673   1.949  -0.218
    5MOP    C91  180   1.738   2.056  -0.157
    5MOP    C92  181   1.750   2.179  -0.220
    5MOP    C93  182   1.694   2.200  -0.347
    5MOP    C94  183   1.706   2.335  -0.406
    5MOP    C95  184   1.832   2.394  -0.436
    5MOP    C96  185   1.834   2.529  -0.477
    5MOP    C97  186   1.718   2.607  -0.485
    5MOP    O10  187   1.738   2.737  -0.522
    5MOP    C98  188   1.623   2.820  -0.528
    5MOP    C99  189   1.596   2.548  -0.454
    5MOP   C100  190   1.590   2.413  -0.416
    5MOP   C101  191   1.960   2.322  -0.420
    5MOP   C102  192   1.989   2.207  -0.495
    5MOP   C103  193   2.109   2.138  -0.476
    5MOP   C104  194   2.204   2.187  -0.386
    5MOP   C105  195   2.180   2.304  -0.314
    5MOP   C106  196   2.056   2.368  -0.328
    5MOP   C107  197   2.292   2.370  -0.235
    5MOP     N5  198   2.268   2.379  -0.091
    5MOP   C108  199   2.318   2.510  -0.296
    5MOP   C109  200   1.625   2.094  -0.407
    5MOP   C110  201   1.613   1.969  -0.343
    5MOP    H77  202   1.778   2.049  -0.057
    5MOP    H78  203   1.802   2.260  -0.169
    5MOP    H79  204   1.929   2.577  -0.502
    5MOP    H80  205   1.654   2.919  -0.563
    5MOP    H81  206   1.577   2.831  -0.429
    5MOP    H82  207   1.550   2.781  -0.600
    5MOP    H83  208   1.503   2.604  -0.456
    5MOP    H84  209   1.494   2.371  -0.389
    5MOP    H85  210   1.917   2.170  -0.567
    5MOP    H86  211   2.128   2.048  -0.532
    5MOP    H87  212   2.298   2.133  -0.375
    5MOP    H88  213   2.034   2.456  -0.268
    5MOP    H89  214   2.384   2.311  -0.250
    5MOP    H90  215   2.268   2.476  -0.060
    5MOP    H91  216   2.232   2.577  -0.281
    5MOP    H92  217   2.337   2.503  -0.404
    5MOP    H93  218   2.403   2.562  -0.252
    5MOP    H94  219   1.578   2.108  -0.504
    5MOP    H95  220   1.559   1.888  -0.390
    6MOP   C111  221   2.344   2.298  -0.007
    6MOP    O11  222   2.320   2.180   0.015
    6MOP   C112  223   2.464   2.364   0.055
    6MOP   C113  224   2.541   2.449  -0.023
    6MOP   C114  225   2.658   2.507   0.026
    6MOP   C115  226   2.703   2.479   0.155
    6MOP   C116  227   2.831   2.538   0.198
    6MOP   C117  228   2.853   2.678   0.201
    6MOP   C118  229   2.984   2.725   0.228
    6MOP   C119  230   3.091   2.637   0.249
    6MOP    O12  231   3.211   2.698   0.272
    6MOP   C120  232   3.324   2.612   0.288
    6MOP   C121  233   3.069   2.500   0.243
    6MOP   C122  234   2.940   2.452   0.219
    6MOP   C123  235   2.746   2.777   0.170
    6MOP   C124  236   2.628   2.785   0.245
    6MOP   C125  237   2.528   2.876   0.212
    6MOP   C126  238   2.544   2.963   0.104
    6MOP   C127  239   2.662   2.961   0.029
    6MOP   C128  240   2.761   2.866   0.062
    6MOP   C129  241   2.687   3.070  -0.073
    6MOP     N6  242   2.696   3.019  -0.210
    6MOP   C130  243   2.816   3.143  -0.030
    6MOP   C131  244   2.627   2.390   0.234
    6MOP   C132  245   2.508   2.332   0.184
    6MOP    H96  246   2.518   2.469  -0.126
    6MOP    H97  247   2.715   2.571  -0.040
    6MOP    H98  248   3.003   2.832   0.230
    6MOP    H99  249   3.412   2.675   0.306
    6MOP   H100  250   3.342   2.554   0.198
    6MOP   H101  251   3.312   2.547   0.376
    6MOP   H102  252   3.149   2.428   0.254
    6MOP   H103  253   2.926   2.344   0.210
    6MOP   H104  254   2.613   2.719   0.330
    6MOP   H105  255   2.438   2.881   0.272
    6MOP   H106  256   2.465   3.034   0.081
    6MOP   H107  257   2.853   2.863   0.003
    6MOP   H108  258   2.605   3.142  -0.070
    6MOP   H109  259   2.790   3.029  -0.248
    6MOP   H110  260   2.904   3.078  -0.034
    6MOP   H111  261   2.806   3.181   0.072
    6MOP   H112  262   2.842   3.229  -0.093
    6MOP   H113  263   2.660   2.364   0.334
    6MOP   H114  264   2.452   2.262   0.245
    7MOP   C133  265   2.597   3.056  -0.301
    7MOP    O13  266   2.486   3.004  -0.306
    7MOP   C134  267   2.630   3.170  -0.391
    7MOP   C135  268   2.698   3.279  -0.336
    7MOP   C136  269   2.724   3.394  -0.409
    7MOP   C137  270   2.680   3.405  -0.541
    7MOP   C138  271   2.701   3.533  -0.610
    7MOP   C139  272   2.829   3.590  -0.630
    7MOP   C140  273   2.837   3.721  -0.684
    7MOP   C141  274   2.722   3.794  -0.716
    7MOP    O14  275   2.746   3.919  -0.766
    7MOP   C142  276   2.631   3.998  -0.797
    7MOP   C143  277   2.597   3.737  -0.696
    7MOP   C144  278   2.586   3.608  -0.643
    7MOP   C145  279   2.954   3.522  -0.589
    7MOP   C146  280   2.992   3.398  -0.642
    7MOP   C147  281   3.108   3.333  -0.599
    7MOP   C148  282   3.190   3.393  -0.503
    7MOP   C149  283   3.157   3.518  -0.450
    7MOP   C150  284   3.038   3.580  -0.491
    7MOP   C151  285   3.256   3.590  -0.360
    7MOP     N7  286   3.205   3.613  -0.224
    7MOP   C152  287   3.294   3.724  -0.428
    7MOP   C153  288   2.610   3.297  -0.597
    7MOP   C154  289   2.584   3.180  -0.522
    7MOP   H115  290   2.726   3.282  -0.232
    7MOP   H116  291   2.775   3.476  -0.360
    7MOP   H117  292   2.934   3.768  -0.699
    7MOP   H118  293   2.666   4.095  -0.833
    7MOP   H119  294   2.571   4.016  -0.707
    7MOP   H120  295   2.572   3.952  -0.876
    7MOP   H121  296   2.505   3.791  -0.716
    7MOP   H122  297   2.487   3.568  -0.622
    7MOP   H123  298   2.930   3.350  -0.717
    7MOP   H124  299   3.135   3.236  -0.640
    7MOP   H125  300   3.281   3.342  -0.473
    7MOP   H126  301   3.009   3.676  -0.448
    7MOP   H127  302   3.347   3.530  -0.352
    7MOP   H128  303   3.191   3.711  -0.204
    7MOP   H129  304   3.208   3.792  -0.435
    7MOP   H130  305   3.333   3.706  -0.529
    7MOP   H131  306   3.370   3.781  -0.375
    7MOP   H132  307   2.572   3.304  -0.699
    7MOP   H133  308   2.524   3.101  -0.566
    8MOP   C155  309   3.265   3.542  -0.120
    8MOP    O15  310   3.241   3.424  -0.095
    8MOP   C156  311   3.367   3.616  -0.040
    8MOP   C157  312   3.450   3.707  -0.106
    8MOP   C158  313   3.555   3.770  -0.042
    8MOP   C159  314   3.584   3.743   0.092
    8MOP   C160  315   3.702   3.805   0.153
    8MOP   C161  316   3.722   3.945   0.160
    8MOP   C162  317   3.844   3.993   0.211
    8MOP   C163  318   3.947   3.907   0.250
    8MOP    O16  319   4.062   3.969   0.291
    8MOP   C164  320   4.168   3.884   0.333
    8MOP   C165  321   3.928   3.770   0.240
    8MOP   C166  322   3.806   3.719   0.194
    8MOP   C167  323   3.623   4.043   0.108
    8MOP   C168  324   3.492   4.050   0.158
    8MOP   C169  325   3.398   4.136   0.102
    8MOP   C170  326   3.434   4.220  -0.004
    8MOP   C171  327   3.565   4.218  -0.055
    8MOP   C172  328   3.658   4.130   0.002
    8MOP   C173  329   3.601   4.311  -0.170
    8MOP     N8  330   3.648   4.240  -0.287
    8MOP   C174  331   3.704   4.417  -0.128
    8MOP   C175  332   3.501   3.651   0.159
    8MOP   C176  333   3.393   3.588   0.094
    8MOP   H134  334   3.441   3.725  -0.211
    8MOP   H135  335   3.618   3.839  -0.099
    8MOP   H136  336   3.860   4.100   0.218
    8MOP   H137  337   4.254   3.947   0.361
    8MOP   H138  338   4.202   3.818   0.252
    8MOP   H139  339   4.139   3.825   0.421
    8MOP   H140  340   4.006   3.698   0.265
    8MOP   H141  341   3.795   3.611   0.185
    8MOP   H142  342   3.462   3.986   0.241
    8MOP   H143  343   3.296   4.138   0.140
    8MOP   H144  344   3.359   4.286  -0.046
    8MOP   H145  345   3.759   4.126  -0.038
    8MOP   H146  346   3.511   4.364  -0.201
    8MOP   H147  347   3.748   4.236  -0.307
    8MOP   H148  348   3.794   4.371  -0.087
    8MOP   H149  349   3.662   4.484  -0.052
    8MOP   H150  350   3.734   4.478  -0.213
    8MOP   H151  351   3.522   3.627   0.263
    8MOP   H152  352   3.332   3.516   0.148
    9CAP   C177  353  -0.277  -0.717   0.010
    9CAP    O17  354  -0.240  -0.580   0.014
    9CAP   H153  355  -0.367  -0.732   0.070
    9CAP   H154  356  -0.196  -0.776   0.055
    9CAP   H155  357  -0.292  -0.754  -0.092
   10CAP   C178  358   3.692   4.181  -0.734
   10CAP   C179  359   3.585   4.145  -0.629
   10CAP   C180  360   3.456   4.218  -0.667
   10CAP   C181  361   3.564   3.994  -0.629
   10CAP    O18  362   3.642   4.184  -0.501
   10CAP   C182  363   3.566   4.203  -0.390
   10CAP    O19  364   3.444   4.195  -0.383
   10CAP   H156  365   3.664   4.147  -0.834
   10CAP   H157  366   3.707   4.290  -0.738
   10CAP   H158  367   3.789   4.138  -0.708
   10CAP   H159  368   3.465   4.327  -0.653
   10CAP   H160  369   3.371   4.185  -0.606
   10CAP   H161  370   3.429   4.199  -0.771
   10CAP   H162  371   3.658   3.942  -0.610
   10CAP   H163  372   3.495   3.964  -0.548
   10CAP   H164  373   3.522   3.958  -0.724
  5.0000000  5.0000000  5.0000000
