Generated by Interchange
3367
    1pop_t    C    1   3.018   4.428   1.399
    1pop_t    O    2   3.084   4.383   1.491
    1pop_t    C    3   2.870   4.446   1.406
    1pop_t    C    4   2.795   4.499   1.300
    1pop_t    C    5   2.656   4.503   1.308
    1pop_t    C    6   2.588   4.455   1.422
    1pop_t    C    7   2.440   4.455   1.429
    1pop_t    C    8   2.364   4.338   1.453
    1pop_t    C    9   2.223   4.350   1.464
    1pop_t    C   10   2.158   4.473   1.449
    1pop_t    O   11   2.022   4.467   1.463
    1pop_t    C   12   1.950   4.590   1.450
    1pop_t    C   13   2.233   4.587   1.422
    1pop_t    C   14   2.372   4.578   1.413
    1pop_t    C   15   2.424   4.203   1.466
    1pop_t    C   16   2.405   4.125   1.581
    1pop_t    C   17   2.465   3.999   1.594
    1pop_t    C   18   2.547   3.947   1.493
    1pop_t    C   19   2.565   4.025   1.377
    1pop_t    C   20   2.504   4.150   1.364
    1pop_t    C   21   2.609   3.810   1.500
    1pop_t    N   22   2.692   3.793   1.619
    1pop_t    C   23   2.501   3.701   1.498
    1pop_t    C   24   2.665   4.406   1.529
    1pop_t    C   25   2.805   4.401   1.521
    1pop_t    H   26   2.844   4.534   1.210
    1pop_t    H   27   2.599   4.540   1.223
    1pop_t    H   28   2.163   4.261   1.482
    1pop_t    H   29   1.844   4.568   1.466
    1pop_t    H   30   1.962   4.631   1.349
    1pop_t    H   31   1.981   4.662   1.526
    1pop_t    H   32   2.187   4.684   1.409
    1pop_t    H   33   2.429   4.669   1.394
    1pop_t    H   34   2.343   4.162   1.662
    1pop_t    H   35   2.446   3.942   1.685
    1pop_t    H   36   2.628   3.988   1.296
    1pop_t    H   37   2.521   4.206   1.272
    1pop_t    H   38   2.674   3.794   1.412
    1pop_t    H   39   2.648   3.821   1.705
    1pop_t    H   40   2.545   3.601   1.496
    1pop_t    H   41   2.436   3.711   1.410
    1pop_t    H   42   2.438   3.706   1.588
    1pop_t    H   43   2.617   4.369   1.619
    1pop_t    H   44   2.861   4.359   1.603
    1pop_t    C   45   2.776   3.683   1.620
    1pop_t    O   46   2.849   3.655   1.525
    1pop_t    C   47   2.765   3.589   1.736
    1pop_t    C   48   2.674   3.607   1.841
    1pop_t    C   49   2.658   3.509   1.939
    1pop_t    C   50   2.733   3.390   1.936
    1pop_t    C   51   2.714   3.288   2.041
    1pop_t    C   52   2.679   3.153   2.013
    1pop_t    C   53   2.669   3.063   2.122
    1pop_t    C   54   2.690   3.103   2.254
    1pop_t    O   55   2.676   3.004   2.347
    1pop_t    C   56   2.699   3.039   2.483
    1pop_t    C   57   2.721   3.235   2.281
    1pop_t    C   58   2.733   3.326   2.175
    1pop_t    C   59   2.650   3.104   1.877
    1pop_t    C   60   2.722   2.997   1.821
    1pop_t    C   61   2.696   2.953   1.690
    1pop_t    C   62   2.599   3.015   1.611
    1pop_t    C   63   2.526   3.121   1.667
    1pop_t    C   64   2.551   3.164   1.798
    1pop_t    C   65   2.563   2.968   1.471
    1pop_t    N   66   2.678   2.967   1.383
    1pop_t    C   67   2.502   2.827   1.477
    1pop_t    C   68   2.824   3.373   1.831
    1pop_t    C   69   2.840   3.471   1.732
    1pop_t    H   70   2.610   3.695   1.848
    1pop_t    H   71   2.584   3.525   2.018
    1pop_t    H   72   2.642   2.959   2.103
    1pop_t    H   73   2.688   2.948   2.544
    1pop_t    H   74   2.625   3.111   2.518
    1pop_t    H   75   2.801   3.076   2.498
    1pop_t    H   76   2.737   3.272   2.381
    1pop_t    H   77   2.760   3.429   2.199
    1pop_t    H   78   2.799   2.947   1.879
    1pop_t    H   79   2.754   2.869   1.651
    1pop_t    H   80   2.449   3.172   1.609
    1pop_t    H   81   2.492   3.246   1.838
    1pop_t    H   82   2.489   3.036   1.428
    1pop_t    H   83   2.761   2.923   1.421
    1pop_t    H   84   2.469   2.795   1.377
    1pop_t    H   85   2.415   2.825   1.543
    1pop_t    H   86   2.574   2.753   1.513
    1pop_t    H   87   2.883   3.281   1.824
    1pop_t    H   88   2.908   3.452   1.649
    1pop_t    C   89   2.652   2.954   1.247
    1pop_t    O   90   2.565   3.020   1.191
    1pop_t    C   91   2.722   2.843   1.174
    1pop_t    C   92   2.808   2.753   1.237
    1pop_t    C   93   2.859   2.643   1.167
    1pop_t    C   94   2.824   2.620   1.033
    1pop_t    C   95   2.877   2.502   0.962
    1pop_t    C   96   2.795   2.404   0.900
    1pop_t    C   97   2.857   2.299   0.830
    1pop_t    C   98   2.996   2.286   0.822
    1pop_t    O   99   3.040   2.178   0.750
    1pop_t    C  100   3.181   2.160   0.740
    1pop_t    C  101   3.076   2.380   0.886
    1pop_t    C  102   3.017   2.486   0.954
    1pop_t    C  103   2.647   2.408   0.908
    1pop_t    C  104   2.567   2.411   0.792
    1pop_t    C  105   2.428   2.416   0.801
    1pop_t    C  106   2.363   2.419   0.925
    1pop_t    C  107   2.442   2.416   1.041
    1pop_t    C  108   2.581   2.409   1.032
    1pop_t    C  109   2.212   2.418   0.939
    1pop_t    N  110   2.149   2.529   0.869
    1pop_t    C  111   2.155   2.286   0.887
    1pop_t    C  112   2.738   2.711   0.971
    1pop_t    C  113   2.686   2.821   1.040
    1pop_t    H  114   2.836   2.762   1.341
    1pop_t    H  115   2.924   2.573   1.220
    1pop_t    H  116   2.795   2.223   0.781
    1pop_t    H  117   3.198   2.072   0.678
    1pop_t    H  118   3.225   2.140   0.838
    1pop_t    H  119   3.229   2.246   0.692
    1pop_t    H  120   3.184   2.374   0.885
    1pop_t    H  121   3.083   2.560   1.002
    1pop_t    H  122   2.614   2.410   0.694
    1pop_t    H  123   2.370   2.417   0.708
    1pop_t    H  124   2.396   2.418   1.139
    1pop_t    H  125   2.639   2.405   1.125
    1pop_t    H  126   2.185   2.427   1.045
    1pop_t    H  127   2.181   2.544   0.775
    1pop_t    H  128   2.046   2.281   0.902
    1pop_t    H  129   2.200   2.200   0.938
    1pop_t    H  130   2.173   2.274   0.779
    1pop_t    H  131   2.707   2.696   0.867
    1pop_t    H  132   2.615   2.887   0.991
    1pop_t    C  133   2.015   2.553   0.899
    1pop_t    O  134   1.974   2.555   1.014
    1pop_t    C  135   1.920   2.560   0.784
    1pop_t    C  136   1.958   2.537   0.652
    1pop_t    C  137   1.861   2.529   0.551
    1pop_t    C  138   1.725   2.544   0.579
    1pop_t    C  139   1.624   2.533   0.471
    1pop_t    C  140   1.516   2.440   0.475
    1pop_t    C  141   1.423   2.443   0.368
    1pop_t    C  142   1.435   2.531   0.260
    1pop_t    O  143   1.336   2.521   0.167
    1pop_t    C  144   1.344   2.610   0.055
    1pop_t    C  145   1.543   2.619   0.256
    1pop_t    C  146   1.636   2.620   0.361
    1pop_t    C  147   1.499   2.340   0.583
    1pop_t    C  148   1.381   2.334   0.659
    1pop_t    C  149   1.365   2.240   0.762
    1pop_t    C  150   1.467   2.148   0.792
    1pop_t    C  151   1.585   2.155   0.716
    1pop_t    C  152   1.600   2.248   0.613
    1pop_t    C  153   1.449   2.037   0.894
    1pop_t    N  154   1.424   2.086   1.029
    1pop_t    C  155   1.340   1.940   0.849
    1pop_t    C  156   1.687   2.567   0.712
    1pop_t    C  157   1.783   2.574   0.814
    1pop_t    H  158   2.061   2.520   0.623
    1pop_t    H  159   1.894   2.508   0.449
    1pop_t    H  160   1.340   2.373   0.368
    1pop_t    H  161   1.257   2.590  -0.008
    1pop_t    H  162   1.433   2.591  -0.005
    1pop_t    H  163   1.339   2.714   0.087
    1pop_t    H  164   1.557   2.689   0.175
    1pop_t    H  165   1.718   2.691   0.357
    1pop_t    H  166   1.300   2.404   0.638
    1pop_t    H  167   1.271   2.238   0.817
    1pop_t    H  168   1.667   2.085   0.736
    1pop_t    H  169   1.693   2.248   0.556
    1pop_t    H  170   1.544   1.981   0.899
    1pop_t    H  171   1.375   2.173   1.043
    1pop_t    H  172   1.327   1.857   0.920
    1pop_t    H  173   1.364   1.896   0.752
    1pop_t    H  174   1.243   1.989   0.842
    1pop_t    H  175   1.582   2.578   0.739
    1pop_t    H  176   1.751   2.588   0.917
    1pop_t    C  177   3.193   4.402   1.247
    1pop_t    O  178   3.063   4.456   1.275
    1pop_t    H  179   3.263   4.416   1.330
    1pop_t    H  180   3.233   4.452   1.158
    1pop_t    H  181   3.181   4.295   1.225
    1pop_t    C  182   1.535   1.654   1.120
    1pop_t    C  183   1.493   1.775   1.204
    1pop_t    C  184   1.357   1.744   1.268
    1pop_t    C  185   1.601   1.804   1.308
    1pop_t    O  186   1.484   1.884   1.109
    1pop_t    C  187   1.435   2.007   1.140
    1pop_t    O  188   1.401   2.044   1.251
    1pop_t    H  189   1.549   1.564   1.181
    1pop_t    H  190   1.459   1.632   1.043
    1pop_t    H  191   1.628   1.674   1.065
    1pop_t    H  192   1.280   1.731   1.191
    1pop_t    H  193   1.323   1.825   1.333
    1pop_t    H  194   1.362   1.653   1.328
    1pop_t    H  195   1.696   1.830   1.260
    1pop_t    H  196   1.574   1.889   1.372
    1pop_t    H  197   1.618   1.717   1.373
    2MOL1    Cl  198   4.416   0.273   2.825
    2MOL1     C  199   4.347   0.331   2.672
    2MOL1    Cl  200   4.172   0.304   2.669
    2MOL1    Cl  201   4.383   0.503   2.649
    2MOL1     H  202   4.392   0.275   2.590
    2MOL1    Cl  203   1.706   2.415   4.269
    2MOL1     C  204   1.776   2.537   4.377
    2MOL1    Cl  205   1.915   2.615   4.300
    2MOL1    Cl  206   1.654   2.657   4.422
    2MOL1     H  207   1.810   2.486   4.468
    2MOL1    Cl  208   1.756   2.121   1.008
    2MOL1     C  209   1.826   2.278   1.051
    2MOL1    Cl  210   1.982   2.256   1.133
    2MOL1    Cl  211   1.844   2.380   0.908
    2MOL1     H  212   1.758   2.328   1.121
    2MOL1    Cl  213   2.549   0.594   3.640
    2MOL1     C  214   2.582   0.620   3.812
    2MOL1    Cl  215   2.481   0.514   3.912
    2MOL1    Cl  216   2.754   0.592   3.847
    2MOL1     H  217   2.558   0.723   3.836
    2MOL1    Cl  218   2.271   1.818   2.673
    2MOL1     C  219   2.225   1.776   2.838
    2MOL1    Cl  220   2.049   1.755   2.850
    2MOL1    Cl  221   2.309   1.629   2.891
    2MOL1     H  222   2.255   1.857   2.904
    2MOL1    Cl  223   5.097   1.387   0.443
    2MOL1     C  224   5.025   1.275   0.559
    2MOL1    Cl  225   4.997   1.116   0.484
    2MOL1    Cl  226   5.129   1.258   0.702
    2MOL1     H  227   4.929   1.315   0.591
    2MOL1    Cl  228   2.951   0.765   2.739
    2MOL1     C  229   2.886   0.814   2.582
    2MOL1    Cl  230   2.966   0.724   2.451
    2MOL1    Cl  231   2.711   0.789   2.576
    2MOL1     H  232   2.906   0.920   2.568
    2MOL1    Cl  233   3.880   4.007   4.713
    2MOL1     C  234   3.779   4.026   4.857
    2MOL1    Cl  235   3.830   4.167   4.951
    2MOL1    Cl  236   3.608   4.040   4.812
    2MOL1     H  237   3.790   3.937   4.920
    2MOL1    Cl  238   0.848   4.194   3.625
    2MOL1     C  239   0.793   4.137   3.467
    2MOL1    Cl  240   0.828   3.965   3.447
    2MOL1    Cl  241   0.619   4.168   3.446
    2MOL1     H  242   0.847   4.192   3.389
    2MOL1    Cl  243   4.040   1.334   2.725
    2MOL1     C  244   3.911   1.321   2.603
    2MOL1    Cl  245   3.956   1.205   2.477
    2MOL1    Cl  246   3.758   1.274   2.679
    2MOL1     H  247   3.898   1.419   2.557
    2MOL1    Cl  248   5.017   2.992   4.428
    2MOL1     C  249   4.906   3.115   4.491
    2MOL1    Cl  250   4.738   3.062   4.474
    2MOL1    Cl  251   4.943   3.152   4.660
    2MOL1     H  252   4.920   3.206   4.432
    2MOL1    Cl  253   0.611   2.682   1.557
    2MOL1     C  254   0.577   2.811   1.441
    2MOL1    Cl  255   0.513   2.954   1.523
    2MOL1    Cl  256   0.723   2.852   1.349
    2MOL1     H  257   0.501   2.775   1.370
    2MOL1    Cl  258   1.548   1.957   2.436
    2MOL1     C  259   1.399   2.038   2.385
    2MOL1    Cl  260   1.430   2.144   2.247
    2MOL1    Cl  261   1.274   1.918   2.345
    2MOL1     H  262   1.363   2.099   2.468
    2MOL1    Cl  263   4.212   4.514   0.861
    2MOL1     C  264   4.294   4.427   0.730
    2MOL1    Cl  265   4.180   4.384   0.602
    2MOL1    Cl  266   4.427   4.524   0.665
    2MOL1     H  267   4.336   4.334   0.771
    2MOL1    Cl  268   2.663   5.135   3.818
    2MOL1     C  269   2.574   5.264   3.735
    2MOL1    Cl  270   2.676   5.340   3.612
    2MOL1    Cl  271   2.426   5.200   3.663
    2MOL1     H  272   2.547   5.340   3.809
    2MOL1    Cl  273   2.840   1.761   3.200
    2MOL1     C  274   2.927   1.847   3.072
    2MOL1    Cl  275   2.911   2.023   3.093
    2MOL1    Cl  276   3.098   1.800   3.070
    2MOL1     H  277   2.883   1.820   2.976
    2MOL1    Cl  278   0.585   2.991   4.935
    2MOL1     C  279   0.683   3.105   5.029
    2MOL1    Cl  280   0.847   3.114   4.964
    2MOL1    Cl  281   0.608   3.265   5.030
    2MOL1     H  282   0.688   3.069   5.132
    2MOL1    Cl  283   4.690   3.466   2.270
    2MOL1     C  284   4.582   3.535   2.147
    2MOL1    Cl  285   4.437   3.602   2.222
    2MOL1    Cl  286   4.667   3.659   2.053
    2MOL1     H  287   4.552   3.455   2.079
    2MOL1    Cl  288   5.296   3.741   5.099
    2MOL1     C  289   5.224   3.706   4.940
    2MOL1    Cl  290   5.112   3.570   4.952
    2MOL1    Cl  291   5.143   3.849   4.876
    2MOL1     H  292   5.305   3.678   4.872
    2MOL1    Cl  293   2.236   1.246   3.455
    2MOL1     C  294   2.137   1.110   3.511
    2MOL1    Cl  295   2.175   1.070   3.679
    2MOL1    Cl  296   1.964   1.148   3.493
    2MOL1     H  297   2.159   1.023   3.448
    2MOL1    Cl  298   1.543   1.881   2.755
    2MOL1     C  299   1.371   1.921   2.740
    2MOL1    Cl  300   1.277   1.836   2.864
    2MOL1    Cl  301   1.346   2.096   2.752
    2MOL1     H  302   1.336   1.888   2.642
    2MOL1    Cl  303   3.209   4.564   4.832
    2MOL1     C  304   3.085   4.683   4.875
    2MOL1    Cl  305   3.018   4.648   5.035
    2MOL1    Cl  306   3.151   4.847   4.869
    2MOL1     H  307   3.004   4.676   4.802
    2MOL1    Cl  308   2.545   2.413   2.041
    2MOL1     C  309   2.712   2.472   2.027
    2MOL1    Cl  310   2.801   2.376   1.908
    2MOL1    Cl  311   2.714   2.643   1.982
    2MOL1     H  312   2.760   2.461   2.124
    2MOL1    Cl  313   2.600   2.130   5.059
    2MOL1     C  314   2.739   2.026   5.097
    2MOL1    Cl  315   2.727   1.872   5.011
    2MOL1    Cl  316   2.891   2.109   5.056
    2MOL1     H  317   2.739   2.006   5.204
    2MOL1    Cl  318   5.021   0.137   1.232
    2MOL1     C  319   4.914   0.237   1.332
    2MOL1    Cl  320   4.977   0.402   1.345
    2MOL1    Cl  321   4.750   0.238   1.266
    2MOL1     H  322   4.911   0.193   1.433
    2MOL1    Cl  323   2.891   0.825   1.359
    2MOL1     C  324   3.053   0.818   1.288
    2MOL1    Cl  325   3.057   0.704   1.152
    2MOL1    Cl  326   3.105   0.979   1.235
    2MOL1     H  327   3.123   0.783   1.364
    2MOL1    Cl  328   4.113   3.303   1.865
    2MOL1     C  329   3.946   3.247   1.876
    2MOL1    Cl  330   3.901   3.216   2.044
    2MOL1    Cl  331   3.836   3.367   1.804
    2MOL1     H  332   3.937   3.154   1.820
    2MOL1    Cl  333   1.195   0.956   3.688
    2MOL1     C  334   1.032   0.888   3.703
    2MOL1    Cl  335   0.922   0.964   3.588
    2MOL1    Cl  336   1.036   0.712   3.680
    2MOL1     H  337   0.996   0.908   3.805
    2MOL1    Cl  338   0.605   5.028   4.167
    2MOL1     C  339   0.690   5.179   4.133
    2MOL1    Cl  340   0.715   5.199   3.958
    2MOL1    Cl  341   0.600   5.317   4.198
    2MOL1     H  342   0.788   5.176   4.181
    2MOL1    Cl  343   2.813   3.842   3.544
    2MOL1     C  344   2.819   3.673   3.490
    2MOL1    Cl  345   2.889   3.662   3.328
    2MOL1    Cl  346   2.910   3.574   3.605
    2MOL1     H  347   2.716   3.635   3.486
    2MOL1    Cl  348   0.221   0.873   2.634
    2MOL1     C  349   0.308   0.886   2.481
    2MOL1    Cl  350   0.424   1.020   2.485
    2MOL1    Cl  351   0.392   0.733   2.444
    2MOL1     H  352   0.236   0.905   2.402
    2MOL1    Cl  353   4.824   2.058   2.200
    2MOL1     C  354   4.972   1.994   2.128
    2MOL1    Cl  355   5.096   1.970   2.252
    2MOL1    Cl  356   4.939   1.842   2.043
    2MOL1     H  357   5.010   2.066   2.055
    2MOL1    Cl  358   1.278   3.374   2.329
    2MOL1     C  359   1.261   3.547   2.292
    2MOL1    Cl  360   1.416   3.614   2.239
    2MOL1    Cl  361   1.136   3.572   2.170
    2MOL1     H  362   1.231   3.598   2.384
    2MOL1    Cl  363   4.026   1.340   1.995
    2MOL1     C  364   3.875   1.419   2.041
    2MOL1    Cl  365   3.906   1.581   2.105
    2MOL1    Cl  366   3.764   1.427   1.903
    2MOL1     H  367   3.827   1.359   2.119
    2MOL1    Cl  368   0.932   2.352   2.255
    2MOL1     C  369   0.809   2.254   2.175
    2MOL1    Cl  370   0.862   2.086   2.160
    2MOL1    Cl  371   0.655   2.263   2.264
    2MOL1     H  372   0.793   2.294   2.075
    2MOL1    Cl  373   2.168   3.565   1.805
    2MOL1     C  374   2.120   3.729   1.756
    2MOL1    Cl  375   2.263   3.834   1.741
    2MOL1    Cl  376   2.030   3.725   1.604
    2MOL1     H  377   2.055   3.770   1.833
    2MOL1    Cl  378   1.124   4.643   1.077
    2MOL1     C  379   0.986   4.545   1.130
    2MOL1    Cl  380   1.041   4.410   1.231
    2MOL1    Cl  381   0.869   4.645   1.217
    2MOL1     H  382   0.937   4.504   1.041
    2MOL1    Cl  383   0.391   1.173   4.871
    2MOL1     C  384   0.258   1.284   4.833
    2MOL1    Cl  385   0.276   1.435   4.924
    2MOL1    Cl  386   0.252   1.317   4.659
    2MOL1     H  387   0.164   1.237   4.862
    2MOL1    Cl  388   1.283   3.812   4.642
    2MOL1     C  389   1.332   3.881   4.797
    2MOL1    Cl  390   1.495   3.949   4.786
    2MOL1    Cl  391   1.216   4.004   4.850
    2MOL1     H  392   1.334   3.801   4.871
    2MOL1    Cl  393   0.232   0.792   4.995
    2MOL1     C  394   0.319   0.728   4.855
    2MOL1    Cl  395   0.287   0.827   4.711
    2MOL1    Cl  396   0.494   0.722   4.887
    2MOL1     H  397   0.285   0.627   4.836
    2MOL1    Cl  398   1.181   4.173   2.191
    2MOL1     C  399   1.077   4.302   2.253
    2MOL1    Cl  400   0.921   4.238   2.306
    2MOL1    Cl  401   1.157   4.389   2.385
    2MOL1     H  402   1.059   4.373   2.171
    2MOL1    Cl  403   3.545   4.015   0.191
    2MOL1     C  404   3.692   4.111   0.167
    2MOL1    Cl  405   3.685   4.200   0.014
    2MOL1    Cl  406   3.717   4.222   0.303
    2MOL1     H  407   3.777   4.042   0.163
    2MOL1    Cl  408   1.488   1.428   1.363
    2MOL1     C  409   1.620   1.461   1.476
    2MOL1    Cl  410   1.655   1.318   1.575
    2MOL1    Cl  411   1.765   1.513   1.388
    2MOL1     H  412   1.589   1.542   1.542
    2MOL1    Cl  413   3.556   0.823   2.344
    2MOL1     C  414   3.494   0.661   2.311
    2MOL1    Cl  415   3.549   0.546   2.434
    2MOL1    Cl  416   3.316   0.662   2.303
    2MOL1     H  417   3.532   0.628   2.214
    2MOL1    Cl  418   0.162   0.500   2.127
    2MOL1     C  419   0.158   0.636   2.014
    2MOL1    Cl  420   0.289   0.622   1.895
    2MOL1    Cl  421   0.001   0.644   1.932
    2MOL1     H  422   0.172   0.728   2.070
    2MOL1    Cl  423   3.910   2.590   0.972
    2MOL1     C  424   3.853   2.592   1.140
    2MOL1    Cl  425   3.941   2.473   1.237
    2MOL1    Cl  426   3.871   2.754   1.209
    2MOL1     H  427   3.747   2.566   1.140
    2MOL1    Cl  428   5.066   1.691   3.292
    2MOL1     C  429   4.951   1.776   3.396
    2MOL1    Cl  430   4.849   1.661   3.483
    2MOL1    Cl  431   5.037   1.882   3.509
    2MOL1     H  432   4.887   1.838   3.333
    2MOL1    Cl  433   2.079   3.514   2.281
    2MOL1     C  434   1.963   3.592   2.390
    2MOL1    Cl  435   1.995   3.548   2.558
    2MOL1    Cl  436   1.966   3.768   2.369
    2MOL1     H  437   1.863   3.557   2.364
    2MOL1    Cl  438   0.457   0.116   4.885
    2MOL1     C  439   0.571   0.252   4.883
    2MOL1    Cl  440   0.571   0.335   5.040
    2MOL1    Cl  441   0.734   0.196   4.843
    2MOL1     H  442   0.539   0.323   4.807
    2MOL1    Cl  443   4.687   0.623   4.600
    2MOL1     C  444   4.542   0.534   4.551
    2MOL1    Cl  445   4.398   0.636   4.565
    2MOL1    Cl  446   4.560   0.473   4.385
    2MOL1     H  447   4.531   0.448   4.618
    2MOL1    Cl  448   3.797   4.573   1.519
    2MOL1     C  449   3.855   4.732   1.570
    2MOL1    Cl  450   3.728   4.854   1.549
    2MOL1    Cl  451   3.910   4.727   1.739
    2MOL1     H  452   3.940   4.760   1.507
    2MOL1    Cl  453   4.397   4.426   4.871
    2MOL1     C  454   4.488   4.567   4.929
    2MOL1    Cl  455   4.657   4.559   4.876
    2MOL1    Cl  456   4.412   4.717   4.874
    2MOL1     H  457   4.487   4.566   5.039
    2MOL1    Cl  458   4.107   4.168   1.762
    2MOL1     C  459   3.981   4.291   1.741
    2MOL1    Cl  460   3.926   4.296   1.573
    2MOL1    Cl  461   3.845   4.261   1.851
    2MOL1     H  462   4.024   4.389   1.766
    2MOL1    Cl  463   4.045   4.071   3.389
    2MOL1     C  464   3.870   4.077   3.411
    2MOL1    Cl  465   3.821   3.977   3.550
    2MOL1    Cl  466   3.816   4.244   3.433
    2MOL1     H  467   3.822   4.037   3.322
    2MOL1    Cl  468   0.457   0.873   3.566
    2MOL1     C  469   0.367   0.908   3.418
    2MOL1    Cl  470   0.473   0.978   3.294
    2MOL1    Cl  471   0.289   0.761   3.356
    2MOL1     H  472   0.289   0.981   3.441
    2MOL1    Cl  473   3.014   2.820   2.904
    2MOL1     C  474   3.036   2.648   2.870
    2MOL1    Cl  475   2.916   2.592   2.753
    2MOL1    Cl  476   3.200   2.616   2.812
    2MOL1     H  477   3.022   2.592   2.963
    2MOL1    Cl  478   3.685   2.390   2.568
    2MOL1     C  479   3.758   2.372   2.408
    2MOL1    Cl  480   3.640   2.407   2.281
    2MOL1    Cl  481   3.900   2.476   2.391
    2MOL1     H  482   3.791   2.268   2.396
    2MOL1    Cl  483   4.935   0.597   2.553
    2MOL1     C  484   5.026   0.684   2.427
    2MOL1    Cl  485   5.007   0.604   2.271
    2MOL1    Cl  486   4.973   0.853   2.418
    2MOL1     H  487   5.132   0.682   2.454
    2MOL1    Cl  488   0.452   0.037   3.044
    2MOL1     C  489   0.398   0.202   3.078
    2MOL1    Cl  490   0.229   0.203   3.133
    2MOL1    Cl  491   0.503   0.279   3.198
    2MOL1     H  492   0.404   0.260   2.985
    2MOL1    Cl  493   5.313   3.826   1.369
    2MOL1     C  494   5.206   3.689   1.338
    2MOL1    Cl  495   5.119   3.711   1.186
    2MOL1    Cl  496   5.298   3.537   1.336
    2MOL1     H  497   5.133   3.683   1.419
    2MOL1    Cl  498   1.346   3.311   0.915
    2MOL1     C  499   1.518   3.267   0.916
    2MOL1    Cl  500   1.609   3.376   1.023
    2MOL1    Cl  501   1.539   3.099   0.965
    2MOL1     H  502   1.556   3.279   0.814
    2MOL1    Cl  503   2.529   4.301   4.183
    2MOL1     C  504   2.679   4.381   4.233
    2MOL1    Cl  505   2.646   4.504   4.356
    2MOL1    Cl  506   2.796   4.262   4.294
    2MOL1     H  507   2.722   4.430   4.146
    2MOL1    Cl  508   4.727   1.868   0.320
    2MOL1     C  509   4.651   1.710   0.346
    2MOL1    Cl  510   4.500   1.697   0.254
    2MOL1    Cl  511   4.762   1.579   0.304
    2MOL1     H  512   4.626   1.701   0.453
    2MOL1    Cl  513   2.805   4.850   4.559
    2MOL1     C  514   2.900   4.744   4.453
    2MOL1    Cl  515   2.952   4.600   4.541
    2MOL1    Cl  516   2.806   4.699   4.310
    2MOL1     H  517   2.988   4.798   4.420
    2MOL1    Cl  518   3.922   4.357   2.120
    2MOL1     C  519   3.795   4.236   2.093
    2MOL1    Cl  520   3.670   4.299   1.985
    2MOL1    Cl  521   3.865   4.087   2.026
    2MOL1     H  522   3.749   4.212   2.189
    2MOL1    Cl  523   0.905   0.334   3.478
    2MOL1     C  524   1.043   0.234   3.429
    2MOL1    Cl  525   1.173   0.244   3.549
    2MOL1    Cl  526   0.993   0.066   3.405
    2MOL1     H  527   1.080   0.272   3.334
    2MOL1    Cl  528   0.903   1.363   2.492
    2MOL1     C  529   0.990   1.410   2.639
    2MOL1    Cl  530   0.887   1.511   2.743
    2MOL1    Cl  531   1.045   1.266   2.727
    2MOL1     H  532   1.077   1.468   2.610
    2MOL1    Cl  533   1.245   0.868   2.444
    2MOL1     C  534   1.138   0.765   2.347
    2MOL1    Cl  535   0.969   0.787   2.394
    2MOL1    Cl  536   1.160   0.798   2.174
    2MOL1     H  537   1.166   0.660   2.366
    2MOL1    Cl  538   2.819   1.299   3.853
    2MOL1     C  539   2.937   1.185   3.920
    2MOL1    Cl  540   3.038   1.264   4.041
    2MOL1    Cl  541   2.855   1.044   3.989
    2MOL1     H  542   3.001   1.150   3.838
    2MOL1    Cl  543   4.606   5.290   1.205
    2MOL1     C  544   4.633   5.124   1.261
    2MOL1    Cl  545   4.714   5.123   1.419
    2MOL1    Cl  546   4.480   5.035   1.268
    2MOL1     H  547   4.699   5.073   1.189
    2MOL1    Cl  548   0.604   4.578   0.314
    2MOL1     C  549   0.519   4.422   0.313
    2MOL1    Cl  550   0.632   4.289   0.284
    2MOL1    Cl  551   0.432   4.398   0.466
    2MOL1     H  552   0.445   4.424   0.232
    2MOL1    Cl  553   2.314   3.557   2.274
    2MOL1     C  554   2.433   3.426   2.261
    2MOL1    Cl  555   2.589   3.477   2.328
    2MOL1    Cl  556   2.374   3.280   2.342
    2MOL1     H  557   2.448   3.403   2.155
    2MOL1    Cl  558   0.210   3.244   1.132
    2MOL1     C  559   0.359   3.149   1.120
    2MOL1    Cl  560   0.472   3.192   1.249
    2MOL1    Cl  561   0.322   2.976   1.124
    2MOL1     H  562   0.407   3.172   1.024
    2MOL1    Cl  563   3.287   3.650   0.891
    2MOL1     C  564   3.385   3.630   1.037
    2MOL1    Cl  565   3.365   3.769   1.144
    2MOL1    Cl  566   3.341   3.480   1.121
    2MOL1     H  567   3.490   3.623   1.007
    2MOL1    Cl  568   3.085   3.161   4.970
    2MOL1     C  569   3.214   3.046   4.934
    2MOL1    Cl  570   3.363   3.132   4.890
    2MOL1    Cl  571   3.242   2.939   5.072
    2MOL1     H  572   3.184   2.985   4.849
    2MOL1    Cl  573   1.211   1.181   1.860
    2MOL1     C  574   1.154   1.321   1.953
    2MOL1    Cl  575   1.282   1.443   1.965
    2MOL1    Cl  576   1.009   1.390   1.879
    2MOL1     H  577   1.129   1.287   2.053
    2MOL1    Cl  578   2.030   2.522   4.857
    2MOL1     C  579   1.952   2.644   4.755
    2MOL1    Cl  580   1.787   2.675   4.811
    2MOL1    Cl  581   2.047   2.794   4.755
    2MOL1     H  582   1.948   2.606   4.653
    2MOL1    Cl  583   2.302   4.247   4.128
    2MOL1     C  584   2.235   4.108   4.215
    2MOL1    Cl  585   2.304   4.096   4.377
    2MOL1    Cl  586   2.058   4.119   4.223
    2MOL1     H  587   2.261   4.017   4.160
    2MOL1    Cl  588   0.930   0.423   0.167
    2MOL1     C  589   0.776   0.337   0.152
    2MOL1    Cl  590   0.665   0.426   0.046
    2MOL1    Cl  591   0.802   0.173   0.090
    2MOL1     H  592   0.730   0.329   0.251
    2MOL1    Cl  593   1.053   0.569   3.130
    2MOL1     C  594   1.137   0.607   2.979
    2MOL1    Cl  595   1.022   0.614   2.844
    2MOL1    Cl  596   1.224   0.761   2.993
    2MOL1     H  597   1.209   0.528   2.959
    2MOL1    Cl  598   4.492   3.222   3.422
    2MOL1     C  599   4.560   3.210   3.259
    2MOL1    Cl  600   4.737   3.201   3.266
    2MOL1    Cl  601   4.494   3.069   3.174
    2MOL1     H  602   4.533   3.300   3.203
    2MOL1    Cl  603   3.161   4.936   5.163
    2MOL1     C  604   3.200   4.769   5.209
    2MOL1    Cl  605   3.319   4.767   5.340
    2MOL1    Cl  606   3.053   4.682   5.258
    2MOL1     H  607   3.242   4.719   5.122
    2MOL1    Cl  608   1.956   0.362   3.497
    2MOL1     C  609   1.845   0.253   3.581
    2MOL1    Cl  610   1.768   0.142   3.466
    2MOL1    Cl  611   1.930   0.163   3.707
    2MOL1     H  612   1.767   0.313   3.628
    2MOL1    Cl  613   0.901   0.922   4.017
    2MOL1     C  614   1.000   0.804   4.102
    2MOL1    Cl  615   0.979   0.819   4.278
    2MOL1    Cl  616   0.961   0.639   4.049
    2MOL1     H  617   1.105   0.823   4.079
    2MOL1    Cl  618   1.879   5.179   2.444
    2MOL1     C  619   2.051   5.144   2.418
    2MOL1    Cl  620   2.070   5.005   2.309
    2MOL1    Cl  621   2.133   5.287   2.352
    2MOL1     H  622   2.096   5.120   2.514
    2MOL1    Cl  623   1.364   1.137   2.330
    2MOL1     C  624   1.210   1.218   2.362
    2MOL1    Cl  625   1.098   1.110   2.447
    2MOL1    Cl  626   1.236   1.366   2.456
    2MOL1     H  627   1.165   1.246   2.266
    2MOL1    Cl  628   1.699   1.657   0.320
    2MOL1     C  629   1.603   1.637   0.173
    2MOL1    Cl  630   1.680   1.720   0.037
    2MOL1    Cl  631   1.580   1.465   0.136
    2MOL1     H  632   1.505   1.682   0.189
    2MOL1    Cl  633   4.101   3.160   2.375
    2MOL1     C  634   4.238   3.117   2.479
    2MOL1    Cl  635   4.187   3.110   2.649
    2MOL1    Cl  636   4.308   2.962   2.429
    2MOL1     H  637   4.314   3.194   2.469
    2MOL1    Cl  638   2.870   4.670   1.422
    2MOL1     C  639   2.931   4.834   1.395
    2MOL1    Cl  640   3.075   4.831   1.291
    2MOL1    Cl  641   2.805   4.936   1.323
    2MOL1     H  642   2.960   4.877   1.491
    2MOL1    Cl  643   4.339   2.290   3.389
    2MOL1     C  644   4.331   2.463   3.352
    2MOL1    Cl  645   4.418   2.498   3.201
    2MOL1    Cl  646   4.162   2.516   3.340
    2MOL1     H  647   4.379   2.518   3.433
    2MOL1    Cl  648   4.456   0.784   3.587
    2MOL1     C  649   4.303   0.765   3.674
    2MOL1    Cl  650   4.317   0.643   3.801
    2MOL1    Cl  651   4.251   0.920   3.742
    2MOL1     H  652   4.227   0.732   3.603
    2MOL1    Cl  653   4.077   0.957   3.371
    2MOL1     C  654   4.241   0.970   3.306
    2MOL1    Cl  655   4.347   0.847   3.378
    2MOL1    Cl  656   4.240   0.955   3.130
    2MOL1     H  657   4.281   1.069   3.332
    2MOL1    Cl  658   2.150   0.250   3.503
    2MOL1     C  659   2.092   0.135   3.382
    2MOL1    Cl  660   1.966   0.209   3.281
    2MOL1    Cl  661   2.227   0.078   3.281
    2MOL1     H  662   2.049   0.049   3.434
    2MOL1    Cl  663   0.668   4.466   3.749
    2MOL1     C  664   0.504   4.500   3.693
    2MOL1    Cl  665   0.458   4.667   3.731
    2MOL1    Cl  666   0.489   4.470   3.519
    2MOL1     H  667   0.435   4.433   3.746
    2MOL1    Cl  668   0.457   2.013   4.908
    2MOL1     C  669   0.298   1.966   4.846
    2MOL1    Cl  670   0.238   2.085   4.730
    2MOL1    Cl  671   0.305   1.805   4.772
    2MOL1     H  672   0.228   1.962   4.930
    2MOL1    Cl  673   1.210   5.004   5.275
    2MOL1     C  674   1.076   5.096   5.206
    2MOL1    Cl  675   1.103   5.125   5.033
    2MOL1    Cl  676   0.922   5.012   5.231
    2MOL1     H  677   1.071   5.193   5.256
    2MOL1    Cl  678   0.739   2.079   1.200
    2MOL1     C  679   0.872   2.190   1.166
    2MOL1    Cl  680   1.005   2.164   1.280
    2MOL1    Cl  681   0.928   2.172   0.999
    2MOL1     H  682   0.836   2.293   1.179
    2MOL1    Cl  683   4.965   1.675   2.227
    2MOL1     C  684   4.809   1.696   2.309
    2MOL1    Cl  685   4.766   1.549   2.398
    2MOL1    Cl  686   4.814   1.835   2.418
    2MOL1     H  687   4.732   1.714   2.233
    2MOL1    Cl  688   3.041   1.371   2.731
    2MOL1     C  689   2.916   1.334   2.611
    2MOL1    Cl  690   2.917   1.454   2.480
    2MOL1    Cl  691   2.937   1.171   2.546
    2MOL1     H  692   2.818   1.339   2.661
    2MOL1    Cl  693   3.266   0.678   2.622
    2MOL1     C  694   3.170   0.532   2.652
    2MOL1    Cl  695   3.107   0.466   2.500
    2MOL1    Cl  696   3.267   0.410   2.737
    2MOL1     H  697   3.086   0.559   2.716
    2MOL1    Cl  698   2.334   4.585   0.874
    2MOL1     C  699   2.356   4.638   1.042
    2MOL1    Cl  700   2.524   4.685   1.070
    2MOL1    Cl  701   2.246   4.772   1.080
    2MOL1     H  702   2.332   4.554   1.108
    2MOL1    Cl  703   0.455   3.558   4.159
    2MOL1     C  704   0.560   3.429   4.097
    2MOL1    Cl  705   0.474   3.330   3.979
    2MOL1    Cl  706   0.707   3.498   4.025
    2MOL1     H  707   0.590   3.366   4.181
    2MOL1    Cl  708   2.641   0.001   1.672
    2MOL1     C  709   2.492   0.094   1.696
    2MOL1    Cl  710   2.374   0.001   1.788
    2MOL1    Cl  711   2.528   0.248   1.777
    2MOL1     H  712   2.450   0.116   1.598
    2MOL1    Cl  713   2.815   4.960   3.787
    2MOL1     C  714   2.644   4.920   3.760
    2MOL1    Cl  715   2.572   5.033   3.644
    2MOL1    Cl  716   2.627   4.753   3.703
    2MOL1     H  717   2.591   4.930   3.855
    2MOL1    Cl  718   3.674   3.749   4.847
    2MOL1     C  719   3.606   3.617   4.752
    2MOL1    Cl  720   3.488   3.678   4.635
    2MOL1    Cl  721   3.734   3.527   4.668
    2MOL1     H  722   3.555   3.548   4.820
    2MOL1    Cl  723   1.834   0.307   4.858
    2MOL1     C  724   1.723   0.189   4.785
    2MOL1    Cl  725   1.775   0.024   4.822
    2MOL1    Cl  726   1.557   0.216   4.842
    2MOL1     H  727   1.724   0.203   4.677
    2MOL1    Cl  728   3.568   3.697   1.989
    2MOL1     C  729   3.412   3.736   1.914
    2MOL1    Cl  730   3.359   3.899   1.960
    2MOL1    Cl  731   3.423   3.722   1.737
    2MOL1     H  732   3.338   3.664   1.949
    2MOL1    Cl  733   0.043   2.798   2.158
    2MOL1     C  734   0.169   2.683   2.205
    2MOL1    Cl  735   0.174   2.547   2.091
    2MOL1    Cl  736   0.326   2.763   2.214
    2MOL1     H  737   0.145   2.644   2.304
    2MOL1    Cl  738   2.003   0.932   3.710
    2MOL1     C  739   1.862   0.926   3.604
    2MOL1    Cl  740   1.754   0.794   3.653
    2MOL1    Cl  741   1.775   1.080   3.606
    2MOL1     H  742   1.896   0.906   3.502
    2MOL1    Cl  743   1.324   4.620   3.572
    2MOL1     C  744   1.457   4.564   3.676
    2MOL1    Cl  745   1.504   4.692   3.789
    2MOL1    Cl  746   1.410   4.418   3.764
    2MOL1     H  747   1.542   4.541   3.613
    2MOL1    Cl  748   1.228   3.233   3.419
    2MOL1     C  749   1.318   3.243   3.571
    2MOL1    Cl  750   1.297   3.095   3.666
    2MOL1    Cl  751   1.490   3.274   3.541
    2MOL1     H  752   1.278   3.327   3.629
    2MOL1    Cl  753   4.730   2.458   2.522
    2MOL1     C  754   4.854   2.333   2.500
    2MOL1    Cl  755   4.847   2.267   2.336
    2MOL1    Cl  756   5.015   2.399   2.534
    2MOL1     H  757   4.835   2.252   2.571
    2MOL1    Cl  758   2.529   1.498   1.875
    2MOL1     C  759   2.364   1.436   1.854
    2MOL1    Cl  760   2.246   1.568   1.862
    2MOL1    Cl  761   2.350   1.348   1.701
    2MOL1     H  762   2.343   1.366   1.935
    2MOL1    Cl  763   1.152   0.267   3.786
    2MOL1     C  764   1.239   0.113   3.769
    2MOL1    Cl  765   1.145   0.000   3.670
    2MOL1    Cl  766   1.399   0.139   3.698
    2MOL1     H  767   1.251   0.070   3.868
    2MOL1    Cl  768   4.385   3.935   2.865
    2MOL1     C  769   4.344   3.798   2.760
    2MOL1    Cl  770   4.466   3.670   2.773
    2MOL1    Cl  771   4.183   3.735   2.800
    2MOL1     H  772   4.342   3.834   2.657
    2MOL1    Cl  773   4.329   1.319   4.154
    2MOL1     C  774   4.472   1.277   4.058
    2MOL1    Cl  775   4.618   1.277   4.159
    2MOL1    Cl  776   4.450   1.119   3.980
    2MOL1     H  777   4.484   1.352   3.980
    2MOL1    Cl  778   3.894   2.002   2.610
    2MOL1     C  779   3.768   2.077   2.710
    2MOL1    Cl  780   3.840   2.178   2.836
    2MOL1    Cl  781   3.658   2.172   2.609
    2MOL1     H  782   3.711   1.997   2.758
    2MOL1    Cl  783   5.031   4.167   3.332
    2MOL1     C  784   4.956   4.007   3.339
    2MOL1    Cl  785   5.048   3.899   3.446
    2MOL1    Cl  786   4.788   4.019   3.392
    2MOL1     H  787   4.958   3.964   3.238
    2MOL1    Cl  788   0.452   1.975   0.522
    2MOL1     C  789   0.472   1.807   0.575
    2MOL1    Cl  790   0.323   1.745   0.647
    2MOL1    Cl  791   0.522   1.705   0.439
    2MOL1     H  792   0.551   1.804   0.651
    2MOL1    Cl  793   3.572   1.578   3.763
    2MOL1     C  794   3.678   1.708   3.708
    2MOL1    Cl  795   3.833   1.643   3.650
    2MOL1    Cl  796   3.600   1.803   3.581
    2MOL1     H  797   3.699   1.774   3.793
    2MOL1    Cl  798   1.473   2.247   3.057
    2MOL1     C  799   1.434   2.416   3.018
    2MOL1    Cl  800   1.532   2.472   2.881
    2MOL1    Cl  801   1.261   2.434   2.984
    2MOL1     H  802   1.458   2.477   3.105
    2MOL1    Cl  803   0.864   4.794   4.987
    2MOL1     C  804   0.820   4.629   5.033
    2MOL1    Cl  805   0.907   4.580   5.180
    2MOL1    Cl  806   0.645   4.615   5.057
    2MOL1     H  807   0.850   4.561   4.952
    2MOL1    Cl  808   4.772   4.896   0.047
    2MOL1     C  809   4.762   4.765   0.166
    2MOL1    Cl  810   4.807   4.823   0.327
    2MOL1    Cl  811   4.599   4.694   0.168
    2MOL1     H  812   4.833   4.687   0.136
    2MOL1    Cl  813   0.787   1.300   0.771
    2MOL1     C  814   0.772   1.469   0.819
    2MOL1    Cl  815   0.850   1.575   0.700
    2MOL1    Cl  816   0.602   1.513   0.839
    2MOL1     H  817   0.823   1.483   0.915
    2MOL1    Cl  818   2.449   0.192   3.453
    2MOL1     C  819   2.477   0.356   3.512
    2MOL1    Cl  820   2.372   0.391   3.651
    2MOL1    Cl  821   2.647   0.379   3.555
    2MOL1     H  822   2.452   0.426   3.432
    2MOL1    Cl  823   0.400   1.598   3.257
    2MOL1     C  824   0.562   1.582   3.328
    2MOL1    Cl  825   0.563   1.645   3.494
    2MOL1    Cl  826   0.615   1.413   3.325
    2MOL1     H  827   0.632   1.641   3.268
    2MOL1    Cl  828   0.342   4.241   5.078
    2MOL1     C  829   0.339   4.405   5.012
    2MOL1    Cl  830   0.175   4.449   4.962
    2MOL1    Cl  831   0.402   4.521   5.131
    2MOL1     H  832   0.404   4.407   4.924
    2MOL1    Cl  833   4.396   1.266   2.220
    2MOL1     C  834   4.322   1.427   2.209
    2MOL1    Cl  835   4.165   1.430   2.290
    2MOL1    Cl  836   4.430   1.549   2.278
    2MOL1     H  837   4.308   1.450   2.103
    2MOL1    Cl  838   1.576   0.640   1.955
    2MOL1     C  839   1.496   0.658   1.798
    2MOL1    Cl  840   1.494   0.503   1.711
    2MOL1    Cl  841   1.332   0.720   1.819
    2MOL1     H  842   1.553   0.730   1.739
    2MOL1    Cl  843   1.866   2.002   3.604
    2MOL1     C  844   1.968   1.863   3.564
    2MOL1    Cl  845   2.127   1.879   3.641
    2MOL1    Cl  846   1.889   1.712   3.614
    2MOL1     H  847   1.982   1.860   3.456
    2MOL1    Cl  848   2.484   3.594   3.698
    2MOL1     C  849   2.634   3.571   3.788
    2MOL1    Cl  850   2.723   3.724   3.802
    2MOL1    Cl  851   2.601   3.504   3.949
    2MOL1     H  852   2.696   3.500   3.734
    2MOL1    Cl  853   0.914   1.544   3.764
    2MOL1     C  854   0.894   1.369   3.751
    2MOL1    Cl  855   0.758   1.330   3.645
    2MOL1    Cl  856   1.043   1.294   3.690
    2MOL1     H  857   0.874   1.328   3.850
    2MOL1    Cl  858   0.678   4.564   1.907
    2MOL1     C  859   0.782   4.422   1.918
    2MOL1    Cl  860   0.940   4.464   1.986
    2MOL1    Cl  861   0.705   4.295   2.014
    2MOL1     H  862   0.798   4.383   1.817
    2MOL1    Cl  863   3.611   4.119   2.461
    2MOL1     C  864   3.714   4.166   2.597
    2MOL1    Cl  865   3.702   4.341   2.626
    2MOL1    Cl  866   3.669   4.076   2.743
    2MOL1     H  867   3.817   4.142   2.572
    2MOL1    Cl  868   0.806   2.439   3.564
    2MOL1     C  869   0.647   2.496   3.617
    2MOL1    Cl  870   0.535   2.504   3.479
    2MOL1    Cl  871   0.582   2.390   3.743
    2MOL1     H  872   0.658   2.596   3.658
    2MOL1    Cl  873   1.786   4.057   1.668
    2MOL1     C  874   1.812   3.957   1.812
    2MOL1    Cl  875   1.823   3.786   1.768
    2MOL1    Cl  876   1.957   4.009   1.899
    2MOL1     H  877   1.726   3.970   1.879
    2MOL1    Cl  878   1.577   1.708   2.542
    2MOL1     C  879   1.656   1.551   2.531
    2MOL1    Cl  880   1.674   1.501   2.362
    2MOL1    Cl  881   1.814   1.555   2.612
    2MOL1     H  882   1.594   1.477   2.582
    2MOL1    Cl  883   4.063   0.000   4.131
    2MOL1     C  884   3.945   0.109   4.056
    2MOL1    Cl  885   4.027   0.243   3.975
    2MOL1    Cl  886   3.842   0.020   3.942
    2MOL1     H  887   3.881   0.150   4.135
    2MOL1    Cl  888   0.042   4.595   4.479
    2MOL1     C  889   0.164   4.557   4.602
    2MOL1    Cl  890   0.113   4.419   4.700
    2MOL1    Cl  891   0.321   4.524   4.525
    2MOL1     H  892   0.175   4.644   4.667
    2MOL1    Cl  893   1.258   1.702   0.685
    2MOL1     C  894   1.086   1.711   0.727
    2MOL1    Cl  895   1.046   1.590   0.851
    2MOL1    Cl  896   1.045   1.874   0.784
    2MOL1     H  897   1.027   1.689   0.638
    2MOL1    Cl  898   2.674   2.605   0.406
    2MOL1     C  899   2.695   2.760   0.322
    2MOL1    Cl  900   2.867   2.796   0.301
    2MOL1    Cl  901   2.612   2.757   0.166
    2MOL1     H  902   2.651   2.838   0.383
    2MOL1    Cl  903   3.561   1.601   3.393
    2MOL1     C  904   3.625   1.436   3.387
    2MOL1    Cl  905   3.737   1.408   3.522
    2MOL1    Cl  906   3.493   1.318   3.390
    2MOL1     H  907   3.680   1.424   3.294
    2MOL1    Cl  908   3.447   0.396   2.098
    2MOL1     C  909   3.506   0.330   1.945
    2MOL1    Cl  910   3.647   0.226   1.972
    2MOL1    Cl  911   3.377   0.241   1.862
    2MOL1     H  912   3.537   0.413   1.881
    2MOL1    Cl  913   4.026   2.560   1.591
    2MOL1     C  914   4.125   2.688   1.517
    2MOL1    Cl  915   4.282   2.699   1.598
    2MOL1    Cl  916   4.146   2.659   1.344
    2MOL1     H  917   4.073   2.783   1.530
    2MOL1    Cl  918   2.835   4.218   2.775
    2MOL1     C  919   2.968   4.265   2.668
    2MOL1    Cl  920   3.098   4.144   2.673
    2MOL1    Cl  921   2.910   4.287   2.502
    2MOL1     H  922   3.008   4.360   2.704
    2MOL1    Cl  923   4.591   1.080   2.869
    2MOL1     C  924   4.438   1.109   2.784
    2MOL1    Cl  925   4.457   1.238   2.665
    2MOL1    Cl  926   4.381   0.960   2.706
    2MOL1     H  927   4.363   1.140   2.858
    2MOL1    Cl  928   1.070   1.970   4.800
    2MOL1     C  929   1.055   2.088   4.931
    2MOL1    Cl  930   1.211   2.112   5.012
    2MOL1    Cl  931   0.992   2.242   4.870
    2MOL1     H  932   0.984   2.049   5.005
    2MOL1    Cl  933   2.433   4.587   4.481
    2MOL1     C  934   2.381   4.668   4.630
    2MOL1    Cl  935   2.436   4.836   4.631
    2MOL1    Cl  936   2.205   4.660   4.646
    2MOL1     H  937   2.426   4.616   4.714
    2MOL1    Cl  938   2.486   5.131   5.090
    2MOL1     C  939   2.311   5.131   5.060
    2MOL1    Cl  940   2.278   5.150   4.887
    2MOL1    Cl  941   2.237   4.983   5.122
    2MOL1     H  942   2.268   5.216   5.113
    2MOL1    Cl  943   1.923   1.305   2.875
    2MOL1     C  944   2.033   1.304   3.013
    2MOL1    Cl  945   2.078   1.139   3.057
    2MOL1    Cl  946   2.177   1.401   2.979
    2MOL1     H  947   1.981   1.349   3.098
    2MOL1    Cl  948   1.989   2.141   5.009
    2MOL1     C  949   1.942   2.206   5.167
    2MOL1    Cl  950   1.961   2.383   5.169
    2MOL1    Cl  951   1.775   2.162   5.205
    2MOL1     H  952   2.007   2.164   5.243
    2MOL1    Cl  953   2.408   1.711   1.651
    2MOL1     C  954   2.294   1.828   1.721
    2MOL1    Cl  955   2.349   1.880   1.881
    2MOL1    Cl  956   2.274   1.967   1.614
    2MOL1     H  957   2.198   1.779   1.732
    2MOL1    Cl  958   2.499   2.785   0.834
    2MOL1     C  959   2.593   2.784   0.683
    2MOL1    Cl  960   2.753   2.855   0.708
    2MOL1    Cl  961   2.608   2.619   0.620
    2MOL1     H  962   2.540   2.844   0.609
    2MOL1    Cl  963   3.094   2.021   1.927
    2MOL1     C  964   3.066   1.862   2.002
    2MOL1    Cl  965   3.117   1.863   2.171
    2MOL1    Cl  966   2.896   1.816   1.988
    2MOL1     H  967   3.126   1.788   1.948
    2MOL1    Cl  968   4.558   4.354   2.793
    2MOL1     C  969   4.629   4.516   2.786
    2MOL1    Cl  970   4.700   4.547   2.626
    2MOL1    Cl  971   4.508   4.639   2.825
    2MOL1     H  972   4.709   4.522   2.861
    2MOL1    Cl  973   3.304   0.365   5.031
    2MOL1     C  974   3.219   0.421   4.886
    2MOL1    Cl  975   3.334   0.481   4.766
    2MOL1    Cl  976   3.120   0.290   4.818
    2MOL1     H  977   3.152   0.503   4.915
    2MOL1    Cl  978   3.977   4.028   3.981
    2MOL1     C  979   3.963   4.009   4.157
    2MOL1    Cl  980   3.824   3.907   4.197
    2MOL1    Cl  981   4.112   3.940   4.224
    2MOL1     H  982   3.947   4.108   4.201
    2MOL1    Cl  983   1.898   1.261   2.610
    2MOL1     C  984   2.050   1.342   2.648
    2MOL1    Cl  985   2.025   1.470   2.768
    2MOL1    Cl  986   2.170   1.225   2.707
    2MOL1     H  987   2.089   1.388   2.557
    2MOL1    Cl  988   2.816   0.514   0.047
    2MOL1     C  989   2.665   0.476   0.132
    2MOL1    Cl  990   2.683   0.330   0.230
    2MOL1    Cl  991   2.614   0.612   0.232
    2MOL1     H  992   2.587   0.458   0.057
    2MOL1    Cl  993   2.543   2.861   1.922
    2MOL1     C  994   2.433   2.893   2.057
    2MOL1    Cl  995   2.448   3.062   2.110
    2MOL1    Cl  996   2.266   2.856   2.012
    2MOL1     H  997   2.461   2.829   2.141
    2MOL1    Cl  998   1.028   4.829   1.557
    2MOL1     C  999   1.113   4.983   1.579
    2MOL1    Cl 1000   0.999   5.112   1.623
    2MOL1    Cl 1001   1.239   4.967   1.703
    2MOL1     H 1002   1.161   5.010   1.485
    2MOL1    Cl 1003   4.296   2.431   4.556
    2MOL1     C 1004   4.285   2.323   4.416
    2MOL1    Cl 1005   4.154   2.205   4.439
    2MOL1    Cl 1006   4.260   2.415   4.267
    2MOL1     H 1007   4.379   2.268   4.407
    2MOL1    Cl 1008   1.929   4.957   5.241
    2MOL1     C 1009   1.953   5.111   5.157
    2MOL1    Cl 1010   2.023   5.232   5.267
    2MOL1    Cl 1011   2.055   5.090   5.014
    2MOL1     H 1012   1.855   5.148   5.124
    2MOL1    Cl 1013   3.489   4.064   0.565
    2MOL1     C 1014   3.432   3.916   0.643
    2MOL1    Cl 1015   3.553   3.856   0.758
    2MOL1    Cl 1016   3.277   3.943   0.724
    2MOL1     H 1017   3.418   3.840   0.566
    2MOL1    Cl 1018   4.721   1.130   1.123
    2MOL1     C 1019   4.643   0.975   1.088
    2MOL1    Cl 1020   4.554   0.983   0.935
    2MOL1    Cl 1021   4.764   0.845   1.082
    2MOL1     H 1022   4.572   0.953   1.168
    2MOL1    Cl 1023   4.219   2.041   1.891
    2MOL1     C 1024   4.182   1.885   1.967
    2MOL1    Cl 1025   4.024   1.891   2.046
    2MOL1    Cl 1026   4.188   1.754   1.848
    2MOL1     H 1027   4.258   1.866   2.043
    2MOL1    Cl 1028   4.005   1.618   0.054
    2MOL1     C 1029   4.137   1.725   0.105
    2MOL1    Cl 1030   4.094   1.895   0.077
    2MOL1    Cl 1031   4.176   1.698   0.276
    2MOL1     H 1032   4.225   1.702   0.045
    2MOL1    Cl 1033   0.007   0.182   4.385
    2MOL1     C 1034   0.144   0.096   4.457
    2MOL1    Cl 1035   0.262   0.050   4.332
    2MOL1    Cl 1036   0.221   0.195   4.582
    2MOL1     H 1037   0.106   0.004   4.503
    2MOL1    Cl 1038   3.859   3.334   4.878
    2MOL1     C 1039   4.004   3.249   4.820
    2MOL1    Cl 1040   4.047   3.117   4.930
    2MOL1    Cl 1041   3.978   3.188   4.656
    2MOL1     H 1042   4.086   3.321   4.817
    2MOL1    Cl 1043   1.217   0.616   3.908
    2MOL1     C 1044   1.240   0.521   3.761
    2MOL1    Cl 1045   1.347   0.383   3.792
    2MOL1    Cl 1046   1.084   0.466   3.697
    2MOL1     H 1047   1.288   0.585   3.686
    2MOL1    Cl 1048   3.440   0.264   1.510
    2MOL1     C 1049   3.584   0.340   1.440
    2MOL1    Cl 1050   3.551   0.393   1.274
    2MOL1    Cl 1051   3.637   0.477   1.539
    2MOL1     H 1052   3.664   0.267   1.437
    2MOL1    Cl 1053   1.117   0.550   4.194
    2MOL1     C 1054   1.140   0.395   4.276
    2MOL1    Cl 1055   1.023   0.276   4.218
    2MOL1    Cl 1056   1.306   0.336   4.253
    2MOL1     H 1057   1.124   0.410   4.383
    2MOL1    Cl 1058   2.218   1.028   4.245
    2MOL1     C 1059   2.354   1.134   4.203
    2MOL1    Cl 1060   2.465   1.051   4.093
    2MOL1    Cl 1061   2.295   1.285   4.132
    2MOL1     H 1062   2.408   1.158   4.295
    2MOL1    Cl 1063   3.227   0.536   0.353
    2MOL1     C 1064   3.325   0.681   0.328
    2MOL1    Cl 1065   3.461   0.646   0.219
    2MOL1    Cl 1066   3.227   0.813   0.264
    2MOL1     H 1067   3.366   0.712   0.425
    2MOL1    Cl 1068   1.799   2.064   2.669
    2MOL1     C 1069   1.726   2.158   2.800
    2MOL1    Cl 1070   1.555   2.115   2.819
    2MOL1    Cl 1071   1.814   2.134   2.952
    2MOL1     H 1072   1.732   2.264   2.774
    2MOL1    Cl 1073   4.922   4.151   4.611
    2MOL1     C 1074   4.987   4.008   4.694
    2MOL1    Cl 1075   4.979   3.866   4.588
    2MOL1    Cl 1076   5.154   4.038   4.746
    2MOL1     H 1077   4.926   3.989   4.782
    2MOL1    Cl 1078   0.744   0.852   2.786
    2MOL1     C 1079   0.894   0.940   2.749
    2MOL1    Cl 1080   0.984   0.858   2.620
    2MOL1    Cl 1081   0.858   1.107   2.703
    2MOL1     H 1082   0.956   0.941   2.839
    2MOL1    Cl 1083   4.548   0.982   3.633
    2MOL1     C 1084   4.724   0.978   3.653
    2MOL1    Cl 1085   4.779   1.115   3.750
    2MOL1    Cl 1086   4.774   0.825   3.727
    2MOL1     H 1087   4.770   0.985   3.554
    2MOL1    Cl 1088   4.973   4.743   0.638
    2MOL1     C 1089   5.133   4.819   0.636
    2MOL1    Cl 1090   5.151   4.923   0.494
    2MOL1    Cl 1091   5.161   4.911   0.785
    2MOL1     H 1092   5.208   4.739   0.630
    2MOL1    Cl 1093   0.794   3.283   0.267
    2MOL1     C 1094   0.717   3.395   0.380
    2MOL1    Cl 1095   0.839   3.488   0.468
    2MOL1    Cl 1096   0.605   3.503   0.295
    2MOL1     H 1097   0.660   3.336   0.453
    2MOL1    Cl 1098   1.314   2.458   4.643
    2MOL1     C 1099   1.205   2.379   4.758
    2MOL1    Cl 1100   1.273   2.225   4.812
    2MOL1    Cl 1101   1.172   2.485   4.896
    2MOL1     H 1102   1.110   2.359   4.707
    2MOL1    Cl 1103   1.515   4.249   0.049
    2MOL1     C 1104   1.592   4.108   0.121
    2MOL1    Cl 1105   1.617   3.981   0.000
    2MOL1    Cl 1106   1.746   4.153   0.196
    2MOL1     H 1107   1.526   4.069   0.199
    2MOL1    Cl 1108   0.628   3.356   0.877
    2MOL1     C 1109   0.714   3.227   0.792
    2MOL1    Cl 1110   0.610   3.085   0.772
    2MOL1    Cl 1111   0.773   3.284   0.635
    2MOL1     H 1112   0.800   3.198   0.853
    2MOL1    Cl 1113   4.203   1.788   2.654
    2MOL1     C 1114   4.261   1.624   2.622
    2MOL1    Cl 1115   4.128   1.521   2.567
    2MOL1    Cl 1116   4.392   1.626   2.503
    2MOL1     H 1117   4.300   1.582   2.715
    2MOL1    Cl 1118   1.990   0.512   4.398
    2MOL1     C 1119   2.142   0.602   4.405
    2MOL1    Cl 1120   2.161   0.679   4.564
    2MOL1    Cl 1121   2.279   0.497   4.370
    2MOL1     H 1122   2.138   0.681   4.330
    2MOL1    Cl 1123   0.265   0.216   2.665
    2MOL1     C 1124   0.393   0.118   2.591
    2MOL1    Cl 1125   0.433   0.181   2.430
    2MOL1    Cl 1126   0.537   0.115   2.694
    2MOL1     H 1127   0.355   0.016   2.580
    2MOL1    Cl 1128   1.714   4.524   4.442
    2MOL1     C 1129   1.876   4.504   4.512
    2MOL1    Cl 1130   1.902   4.337   4.564
    2MOL1    Cl 1131   2.000   4.554   4.395
    2MOL1     H 1132   1.884   4.569   4.600
    2MOL1    Cl 1133   4.388   4.604   1.621
    2MOL1     C 1134   4.241   4.611   1.522
    2MOL1    Cl 1135   4.110   4.521   1.600
    2MOL1    Cl 1136   4.194   4.779   1.494
    2MOL1     H 1137   4.263   4.564   1.426
    2MOL1    Cl 1138   1.201   2.664   0.636
    2MOL1     C 1139   1.090   2.594   0.517
    2MOL1    Cl 1140   1.151   2.437   0.460
    2MOL1    Cl 1141   0.928   2.576   0.586
    2MOL1     H 1142   1.084   2.661   0.431
    2MOL1    Cl 1143   1.467   1.084   4.111
    2MOL1     C 1144   1.427   0.936   4.200
    2MOL1    Cl 1145   1.300   0.968   4.320
    2MOL1    Cl 1146   1.378   0.807   4.090
    2MOL1     H 1147   1.517   0.904   4.254
    2MOL1    Cl 1148   1.845   1.694   0.875
    2MOL1     C 1149   1.888   1.523   0.894
    2MOL1    Cl 1150   1.743   1.421   0.884
    2MOL1    Cl 1151   2.006   1.475   0.771
    2MOL1     H 1152   1.933   1.509   0.992
    2MOL1    Cl 1153   1.330   4.405   1.553
    2MOL1     C 1154   1.292   4.570   1.502
    2MOL1    Cl 1155   1.440   4.659   1.462
    2MOL1    Cl 1156   1.181   4.568   1.363
    2MOL1     H 1157   1.242   4.621   1.584
    2MOL1    Cl 1158   5.201   2.774   2.607
    2MOL1     C 1159   5.036   2.711   2.597
    2MOL1    Cl 1160   5.008   2.589   2.723
    2MOL1    Cl 1161   4.918   2.842   2.611
    2MOL1     H 1162   5.023   2.663   2.500
    2MOL1    Cl 1163   0.852   2.391   0.346
    2MOL1     C 1164   0.864   2.504   0.210
    2MOL1    Cl 1165   0.872   2.671   0.269
    2MOL1    Cl 1166   1.006   2.467   0.111
    2MOL1     H 1167   0.775   2.494   0.148
    2MOL1    Cl 1168   3.665   4.716   3.569
    2MOL1     C 1169   3.668   4.782   3.405
    2MOL1    Cl 1170   3.652   4.653   3.285
    2MOL1    Cl 1171   3.539   4.903   3.384
    2MOL1     H 1172   3.764   4.832   3.389
    2MOL1    Cl 1173   2.020   1.058   2.448
    2MOL1     C 1174   2.195   1.057   2.420
    2MOL1    Cl 1175   2.283   1.039   2.573
    2MOL1    Cl 1176   2.239   0.928   2.307
    2MOL1     H 1177   2.223   1.153   2.376
    2MOL1    Cl 1178   0.583   4.516   4.635
    2MOL1     C 1179   0.686   4.571   4.502
    2MOL1    Cl 1180   0.650   4.740   4.460
    2MOL1    Cl 1181   0.857   4.553   4.544
    2MOL1     H 1182   0.665   4.509   4.414
    2MOL1    Cl 1183   2.107   4.935   4.072
    2MOL1     C 1184   2.043   4.852   3.930
    2MOL1    Cl 1185   2.172   4.827   3.810
    2MOL1    Cl 1186   1.969   4.698   3.975
    2MOL1     H 1187   1.966   4.916   3.885
    2MOL1    Cl 1188   1.157   0.515   1.276
    2MOL1     C 1189   1.197   0.345   1.304
    2MOL1    Cl 1190   1.065   0.264   1.390
    2MOL1    Cl 1191   1.231   0.263   1.150
    2MOL1     H 1192   1.287   0.340   1.366
    2MOL1    Cl 1193   2.548   3.236   1.226
    2MOL1     C 1194   2.449   3.204   1.083
    2MOL1    Cl 1195   2.351   3.346   1.042
    2MOL1    Cl 1196   2.552   3.157   0.946
    2MOL1     H 1197   2.382   3.121   1.105
    2MOL1    Cl 1198   1.176   3.570   1.054
    2MOL1     C 1199   1.005   3.605   1.086
    2MOL1    Cl 1200   0.939   3.492   1.205
    2MOL1    Cl 1201   0.985   3.772   1.142
    2MOL1     H 1202   0.950   3.593   0.993
    2MOL1    Cl 1203   3.598   2.470   2.058
    2MOL1     C 1204   3.766   2.415   2.073
    2MOL1    Cl 1205   3.774   2.261   2.158
    2MOL1    Cl 1206   3.840   2.402   1.912
    2MOL1     H 1207   3.821   2.490   2.130
    2MOL1    Cl 1208   2.712   2.259   1.271
    2MOL1     C 1209   2.767   2.334   1.421
    2MOL1    Cl 1210   2.937   2.383   1.409
    2MOL1    Cl 1211   2.665   2.473   1.462
    2MOL1     H 1212   2.758   2.261   1.502
    2MOL1    Cl 1213   2.586   3.534   4.252
    2MOL1     C 1214   2.751   3.486   4.294
    2MOL1    Cl 1215   2.868   3.578   4.198
    2MOL1    Cl 1216   2.781   3.509   4.467
    2MOL1     H 1217   2.763   3.380   4.270
    2MOL1    Cl 1218   1.329   2.828   4.172
    2MOL1     C 1219   1.153   2.838   4.162
    2MOL1    Cl 1220   1.086   2.691   4.089
    2MOL1    Cl 1221   1.082   2.866   4.322
    2MOL1     H 1222   1.127   2.923   4.098
    2MOL1    Cl 1223   1.598   3.060   3.529
    2MOL1     C 1224   1.496   2.923   3.482
    2MOL1    Cl 1225   1.365   2.977   3.376
    2MOL1    Cl 1226   1.592   2.797   3.403
    2MOL1     H 1227   1.452   2.880   3.573
    2MOL1    Cl 1228   3.924   4.662   3.949
    2MOL1     C 1229   3.781   4.763   3.927
    2MOL1    Cl 1230   3.638   4.683   3.996
    2MOL1    Cl 1231   3.805   4.922   4.000
    2MOL1     H 1232   3.764   4.776   3.820
    2MOL1    Cl 1233   0.056   3.186   0.387
    2MOL1     C 1234   0.183   3.216   0.507
    2MOL1    Cl 1235   0.169   3.380   0.572
    2MOL1    Cl 1236   0.176   3.096   0.637
    2MOL1     H 1237   0.280   3.207   0.457
    2MOL1    Cl 1238   1.509   2.196   5.064
    2MOL1     C 1239   1.420   2.337   5.125
    2MOL1    Cl 1240   1.471   2.376   5.290
    2MOL1    Cl 1241   1.444   2.476   5.018
    2MOL1     H 1242   1.314   2.312   5.126
    2MOL1    Cl 1243   0.377   2.029   2.962
    2MOL1     C 1244   0.296   1.943   3.094
    2MOL1    Cl 1245   0.129   1.905   3.052
    2MOL1    Cl 1246   0.385   1.795   3.136
    2MOL1     H 1247   0.296   2.008   3.182
    2MOL1    Cl 1248   3.623   0.108   5.119
    2MOL1     C 1249   3.675   0.232   5.005
    2MOL1    Cl 1250   3.546   0.269   4.890
    2MOL1    Cl 1251   3.726   0.379   5.091
    2MOL1     H 1252   3.761   0.194   4.949
    2MOL1    Cl 1253   1.910   2.762   2.220
    2MOL1     C 1254   1.740   2.806   2.203
    2MOL1    Cl 1255   1.682   2.889   2.348
    2MOL1    Cl 1256   1.716   2.907   2.060
    2MOL1     H 1257   1.682   2.714   2.190
    2MOL1    Cl 1258   4.124   0.747   4.364
    2MOL1     C 1259   4.227   0.645   4.263
    2MOL1    Cl 1260   4.264   0.726   4.110
    2MOL1    Cl 1261   4.377   0.603   4.349
    2MOL1     H 1262   4.174   0.552   4.241
    2MOL1    Cl 1263   0.473   3.846   1.626
    2MOL1     C 1264   0.298   3.818   1.610
    2MOL1    Cl 1265   0.256   3.775   1.444
    2MOL1    Cl 1266   0.246   3.691   1.723
    2MOL1     H 1267   0.246   3.911   1.636
    2MOL1    Cl 1268   0.326   1.786   0.868
    2MOL1     C 1269   0.270   1.625   0.917
    2MOL1    Cl 1270   0.093   1.621   0.926
    2MOL1    Cl 1271   0.329   1.502   0.804
    2MOL1     H 1272   0.310   1.603   1.016
    2MOL1    Cl 1273   3.639   2.365   2.781
    2MOL1     C 1274   3.711   2.520   2.830
    2MOL1    Cl 1275   3.599   2.653   2.800
    2MOL1    Cl 1276   3.759   2.515   3.000
    2MOL1     H 1277   3.801   2.536   2.769
    2MOL1    Cl 1278   0.344   4.761   2.706
    2MOL1     C 1279   0.276   4.861   2.835
    2MOL1    Cl 1280   0.359   5.017   2.844
    2MOL1    Cl 1281   0.102   4.885   2.809
    2MOL1     H 1282   0.289   4.809   2.930
    2MOL1    Cl 1283   0.246   4.703   2.476
    2MOL1     C 1284   0.094   4.633   2.534
    2MOL1    Cl 1285   0.000   4.568   2.399
    2MOL1    Cl 1286   0.126   4.507   2.654
    2MOL1     H 1287   0.036   4.712   2.582
    2MOL1    Cl 1288   0.535   2.467   2.192
    2MOL1     C 1289   0.558   2.586   2.321
    2MOL1    Cl 1290   0.700   2.546   2.418
    2MOL1    Cl 1291   0.574   2.749   2.252
    2MOL1     H 1292   0.470   2.585   2.386
    2MOL1    Cl 1293   0.511   3.932   2.748
    2MOL1     C 1294   0.646   3.986   2.849
    2MOL1    Cl 1295   0.588   4.095   2.976
    2MOL1    Cl 1296   0.730   3.847   2.920
    2MOL1     H 1297   0.716   4.041   2.786
    2MOL1    Cl 1298   2.526   0.772   4.062
    2MOL1     C 1299   2.359   0.711   4.068
    2MOL1    Cl 1300   2.256   0.822   4.160
    2MOL1    Cl 1301   2.296   0.689   3.904
    2MOL1     H 1302   2.360   0.614   4.118
    2MOL1    Cl 1303   1.878   2.102   2.193
    2MOL1     C 1304   1.768   1.976   2.250
    2MOL1    Cl 1305   1.606   1.998   2.181
    2MOL1    Cl 1306   1.831   1.815   2.210
    2MOL1     H 1307   1.760   1.983   2.359
    2MOL1    Cl 1308   0.940   3.350   2.532
    2MOL1     C 1309   0.951   3.225   2.408
    2MOL1    Cl 1310   0.909   3.291   2.249
    2MOL1    Cl 1311   1.112   3.152   2.405
    2MOL1     H 1312   0.878   3.146   2.432
    2MOL1    Cl 1313   4.912   3.674   3.174
    2MOL1     C 1314   4.763   3.766   3.148
    2MOL1    Cl 1315   4.769   3.850   2.991
    2MOL1    Cl 1316   4.622   3.660   3.157
    2MOL1     H 1317   4.755   3.841   3.226
    2MOL1    Cl 1318   4.233   1.098   4.384
    2MOL1     C 1319   4.248   1.001   4.532
    2MOL1    Cl 1320   4.336   0.851   4.499
    2MOL1    Cl 1321   4.329   1.094   4.659
    2MOL1     H 1322   4.148   0.975   4.567
    2MOL1    Cl 1323   0.028   3.220   4.668
    2MOL1     C 1324   0.173   3.119   4.673
    2MOL1    Cl 1325   0.130   2.947   4.665
    2MOL1    Cl 1326   0.283   3.161   4.540
    2MOL1     H 1327   0.225   3.137   4.767
    2MOL1    Cl 1328   0.997   1.803   0.075
    2MOL1     C 1329   1.007   1.894   0.226
    2MOL1    Cl 1330   1.073   1.793   0.356
    2MOL1    Cl 1331   1.107   2.039   0.204
    2MOL1     H 1332   0.907   1.926   0.255
    2MOL1    Cl 1333   1.847   2.067   1.659
    2MOL1     C 1334   1.924   2.135   1.803
    2MOL1    Cl 1335   2.099   2.109   1.798
    2MOL1    Cl 1336   1.888   2.308   1.818
    2MOL1     H 1337   1.884   2.084   1.891
    2MOL1    Cl 1338   2.369   4.320   3.872
    2MOL1     C 1339   2.490   4.446   3.844
    2MOL1    Cl 1340   2.416   4.590   3.772
    2MOL1    Cl 1341   2.573   4.488   3.995
    2MOL1     H 1342   2.565   4.407   3.774
    2MOL1    Cl 1343   3.414   0.697   1.696
    2MOL1     C 1344   3.293   0.579   1.748
    2MOL1    Cl 1345   3.207   0.637   1.892
    2MOL1    Cl 1346   3.179   0.546   1.616
    2MOL1     H 1347   3.344   0.486   1.773
    2MOL1    Cl 1348   2.308   4.722   4.914
    2MOL1     C 1349   2.453   4.818   4.949
    2MOL1    Cl 1350   2.532   4.760   5.096
    2MOL1    Cl 1351   2.565   4.813   4.812
    2MOL1     H 1352   2.423   4.922   4.965
    2MOL1    Cl 1353   2.722   1.743   3.414
    2MOL1     C 1354   2.674   1.913   3.414
    2MOL1    Cl 1355   2.796   2.012   3.332
    2MOL1    Cl 1356   2.516   1.934   3.338
    2MOL1     H 1357   2.667   1.947   3.518
    2MOL1    Cl 1358   0.794   1.642   5.015
    2MOL1     C 1359   0.840   1.811   5.033
    2MOL1    Cl 1360   0.771   1.880   5.181
    2MOL1    Cl 1361   1.017   1.827   5.034
    2MOL1     H 1362   0.801   1.867   4.947
    2MOL1    Cl 1363   3.018   1.071   3.211
    2MOL1     C 1364   3.156   1.157   3.142
    2MOL1    Cl 1365   3.255   1.048   3.044
    2MOL1    Cl 1366   3.102   1.295   3.046
    2MOL1     H 1367   3.218   1.194   3.224
    2MOL1    Cl 1368   3.594   0.875   1.660
    2MOL1     C 1369   3.748   0.787   1.663
    2MOL1    Cl 1370   3.777   0.708   1.507
    2MOL1    Cl 1371   3.881   0.896   1.704
    2MOL1     H 1372   3.741   0.709   1.740
    2MOL1    Cl 1373   0.536   0.241   0.459
    2MOL1     C 1374   0.538   0.368   0.582
    2MOL1    Cl 1375   0.643   0.502   0.532
    2MOL1    Cl 1376   0.374   0.426   0.615
    2MOL1     H 1377   0.579   0.326   0.674
    2MOL1    Cl 1378   0.903   3.737   3.606
    2MOL1     C 1379   0.848   3.819   3.753
    2MOL1    Cl 1380   0.987   3.880   3.846
    2MOL1    Cl 1381   0.738   3.952   3.713
    2MOL1     H 1382   0.795   3.747   3.815
    2MOL1    Cl 1383   5.191   4.295   4.635
    2MOL1     C 1384   5.172   4.242   4.467
    2MOL1    Cl 1385   5.299   4.311   4.364
    2MOL1    Cl 1386   5.174   4.065   4.457
    2MOL1     H 1387   5.075   4.277   4.431
    2MOL1    Cl 1388   3.625   1.690   0.888
    2MOL1     C 1389   3.759   1.799   0.927
    2MOL1    Cl 1390   3.699   1.949   0.999
    2MOL1    Cl 1391   3.874   1.719   1.036
    2MOL1     H 1392   3.811   1.824   0.834
    2MOL1    Cl 1393   3.405   4.478   3.612
    2MOL1     C 1394   3.430   4.503   3.785
    2MOL1    Cl 1395   3.389   4.356   3.876
    2MOL1    Cl 1396   3.597   4.551   3.818
    2MOL1     H 1397   3.364   4.583   3.819
    2MOL1    Cl 1398   1.731   4.697   3.410
    2MOL1     C 1399   1.694   4.730   3.241
    2MOL1    Cl 1400   1.521   4.704   3.208
    2MOL1    Cl 1401   1.741   4.895   3.198
    2MOL1     H 1402   1.751   4.661   3.178
    2MOL1    Cl 1403   2.645   0.571   2.452
    2MOL1     C 1404   2.613   0.508   2.614
    2MOL1    Cl 1405   2.613   0.639   2.734
    2MOL1    Cl 1406   2.458   0.421   2.617
    2MOL1     H 1407   2.692   0.437   2.640
    2MOL1    Cl 1408   3.365   2.136   4.073
    2MOL1     C 1409   3.319   2.138   4.244
    2MOL1    Cl 1410   3.221   1.996   4.284
    2MOL1    Cl 1411   3.463   2.144   4.347
    2MOL1     H 1412   3.260   2.227   4.263
    2MOL1    Cl 1413   2.786   2.357   0.528
    2MOL1     C 1414   2.950   2.415   0.563
    2MOL1    Cl 1415   3.067   2.283   0.547
    2MOL1    Cl 1416   2.993   2.550   0.457
    2MOL1     H 1417   2.952   2.450   0.667
    2MOL1    Cl 1418   1.812   0.467   5.080
    2MOL1     C 1419   1.664   0.533   5.009
    2MOL1    Cl 1420   1.702   0.639   4.873
    2MOL1    Cl 1421   1.555   0.403   4.959
    2MOL1     H 1422   1.613   0.593   5.086
    2MOL1    Cl 1423   0.609   1.637   1.559
    2MOL1     C 1424   0.757   1.646   1.655
    2MOL1    Cl 1425   0.726   1.726   1.810
    2MOL1    Cl 1426   0.825   1.484   1.681
    2MOL1     H 1427   0.830   1.705   1.599
    2MOL1    Cl 1428   5.026   3.002   0.279
    2MOL1     C 1429   4.959   3.161   0.318
    2MOL1    Cl 1430   4.827   3.146   0.436
    2MOL1    Cl 1431   5.086   3.269   0.380
    2MOL1     H 1432   4.918   3.205   0.226
    2MOL1    Cl 1433   0.566   1.742   4.127
    2MOL1     C 1434   0.701   1.721   4.014
    2MOL1    Cl 1435   0.815   1.600   4.076
    2MOL1    Cl 1436   0.642   1.674   3.854
    2MOL1     H 1437   0.754   1.816   4.005
    2MOL1    Cl 1438   0.811   0.821   0.457
    2MOL1     C 1439   0.981   0.772   0.448
    2MOL1    Cl 1440   1.087   0.913   0.466
    2MOL1    Cl 1441   1.017   0.650   0.571
    2MOL1     H 1442   0.999   0.728   0.350
    2MOL1    Cl 1443   3.377   4.941   4.972
    2MOL1     C 1444   3.538   4.952   4.898
    2MOL1    Cl 1445   3.544   5.084   4.780
    2MOL1    Cl 1446   3.662   4.974   5.022
    2MOL1     H 1447   3.558   4.858   4.845
    2MOL1    Cl 1448   2.966   3.859   3.720
    2MOL1     C 1449   3.128   3.823   3.659
    2MOL1    Cl 1450   3.119   3.732   3.507
    2MOL1    Cl 1451   3.220   3.973   3.636
    2MOL1     H 1452   3.181   3.762   3.733
    2MOL1    Cl 1453   2.752   4.500   3.384
    2MOL1     C 1454   2.818   4.346   3.327
    2MOL1    Cl 1455   2.960   4.300   3.423
    2MOL1    Cl 1456   2.695   4.219   3.334
    2MOL1     H 1457   2.850   4.358   3.223
    2MOL1    Cl 1458   3.549   1.164   2.738
    2MOL1     C 1459   3.476   1.322   2.706
    2MOL1    Cl 1460   3.601   1.447   2.695
    2MOL1    Cl 1461   3.381   1.316   2.556
    2MOL1     H 1462   3.409   1.346   2.788
    2MOL1    Cl 1463   4.731   2.174   5.126
    2MOL1     C 1464   4.582   2.083   5.155
    2MOL1    Cl 1465   4.613   1.946   5.263
    2MOL1    Cl 1466   4.456   2.189   5.223
    2MOL1     H 1467   4.546   2.044   5.060
    2MOL1    Cl 1468   3.584   2.432   0.998
    2MOL1     C 1469   3.424   2.377   0.944
    2MOL1    Cl 1470   3.426   2.204   0.909
    2MOL1    Cl 1471   3.301   2.414   1.066
    2MOL1     H 1472   3.399   2.431   0.852
    2MOL1    Cl 1473   4.675   4.645   1.498
    2MOL1     C 1474   4.584   4.784   1.558
    2MOL1    Cl 1475   4.529   4.756   1.724
    2MOL1    Cl 1476   4.683   4.931   1.550
    2MOL1     H 1477   4.496   4.798   1.494
    2MOL1    Cl 1478   4.594   0.573   3.175
    2MOL1     C 1479   4.660   0.726   3.234
    2MOL1    Cl 1480   4.585   0.772   3.387
    2MOL1    Cl 1481   4.836   0.716   3.251
    2MOL1     H 1482   4.638   0.804   3.160
    2MOL1    Cl 1483   3.398   2.192   0.385
    2MOL1     C 1484   3.570   2.198   0.423
    2MOL1    Cl 1485   3.637   2.358   0.387
    2MOL1    Cl 1486   3.597   2.156   0.593
    2MOL1     H 1487   3.622   2.124   0.361
    2MOL1    Cl 1488   1.733   0.318   2.727
    2MOL1     C 1489   1.771   0.145   2.724
    2MOL1    Cl 1490   1.891   0.106   2.849
    2MOL1    Cl 1491   1.624   0.048   2.748
    2MOL1     H 1492   1.813   0.120   2.627
    2MOL1    Cl 1493   1.394   4.772   5.161
    2MOL1     C 1494   1.237   4.713   5.104
    2MOL1    Cl 1495   1.226   4.723   4.928
    2MOL1    Cl 1496   1.209   4.547   5.160
    2MOL1     H 1497   1.159   4.777   5.147
    2MOL1    Cl 1498   5.217   0.298   4.663
    2MOL1     C 1499   5.124   0.279   4.514
    2MOL1    Cl 1500   5.076   0.110   4.492
    2MOL1    Cl 1501   4.982   0.385   4.514
    2MOL1     H 1502   5.188   0.308   4.430
    2MOL1    Cl 1503   4.244   4.762   0.219
    2MOL1     C 1504   4.368   4.885   0.249
    2MOL1    Cl 1505   4.487   4.825   0.366
    2MOL1    Cl 1506   4.446   4.932   0.098
    2MOL1     H 1507   4.319   4.973   0.292
    2MOL1    Cl 1508   0.538   2.670   3.900
    2MOL1     C 1509   0.700   2.640   3.963
    2MOL1    Cl 1510   0.793   2.537   3.852
    2MOL1    Cl 1511   0.786   2.792   3.993
    2MOL1     H 1512   0.691   2.587   4.059
    2MOL1    Cl 1513   3.923   1.300   1.689
    2MOL1     C 1514   4.098   1.322   1.679
    2MOL1    Cl 1515   4.151   1.452   1.787
    2MOL1    Cl 1516   4.182   1.171   1.717
    2MOL1     H 1517   4.123   1.351   1.576
    2MOL1    Cl 1518   1.532   4.976   0.288
    2MOL1     C 1519   1.475   5.009   0.453
    2MOL1    Cl 1520   1.320   4.930   0.483
    2MOL1    Cl 1521   1.596   4.958   0.572
    2MOL1     H 1522   1.461   5.117   0.463
    2MOL1    Cl 1523   3.160   1.130   4.168
    2MOL1     C 1524   3.258   1.070   4.034
    2MOL1    Cl 1525   3.188   0.921   3.967
    2MOL1    Cl 1526   3.274   1.193   3.907
    2MOL1     H 1527   3.358   1.047   4.072
    2MOL1    Cl 1528   4.499   3.631   3.694
    2MOL1     C 1529   4.645   3.537   3.725
    2MOL1    Cl 1530   4.615   3.414   3.850
    2MOL1    Cl 1531   4.703   3.460   3.576
    2MOL1     H 1532   4.723   3.604   3.762
    2MOL1    Cl 1533   1.238   0.735   0.604
    2MOL1     C 1534   1.353   0.870   0.599
    2MOL1    Cl 1535   1.340   0.968   0.746
    2MOL1    Cl 1536   1.518   0.811   0.578
    2MOL1     H 1537   1.327   0.933   0.514
    2MOL1    Cl 1538   1.147   2.220   1.103
    2MOL1     C 1539   1.147   2.044   1.125
    2MOL1    Cl 1540   1.185   2.002   1.293
    2MOL1    Cl 1541   0.990   1.975   1.078
    2MOL1     H 1542   1.223   2.001   1.060
    2MOL1    Cl 1543   3.409   3.060   2.330
    2MOL1     C 1544   3.484   3.140   2.470
    2MOL1    Cl 1545   3.627   3.051   2.524
    2MOL1    Cl 1546   3.528   3.307   2.429
    2MOL1     H 1547   3.412   3.143   2.551
    2MOL1    Cl 1548   3.233   3.729   2.871
    2MOL1     C 1549   3.247   3.555   2.840
    2MOL1    Cl 1550   3.353   3.479   2.959
    2MOL1    Cl 1551   3.087   3.479   2.840
    2MOL1     H 1552   3.291   3.542   2.740
    2MOL1    Cl 1553   1.186   1.108   0.428
    2MOL1     C 1554   1.309   1.153   0.308
    2MOL1    Cl 1555   1.378   1.312   0.345
    2MOL1    Cl 1556   1.436   1.030   0.300
    2MOL1     H 1557   1.261   1.158   0.210
    2MOL1    Cl 1558   3.062   0.381   0.956
    2MOL1     C 1559   3.047   0.222   0.881
    2MOL1    Cl 1560   3.019   0.237   0.707
    2MOL1    Cl 1561   3.192   0.124   0.912
    2MOL1     H 1562   2.961   0.171   0.925
    2MOL1    Cl 1563   1.806   3.518   1.071
    2MOL1     C 1564   1.936   3.405   1.030
    2MOL1    Cl 1565   2.021   3.458   0.883
    2MOL1    Cl 1566   2.050   3.390   1.165
    2MOL1     H 1567   1.892   3.307   1.011
    2MOL1    Cl 1568   2.928   3.639   2.075
    2MOL1     C 1569   2.957   3.799   2.004
    2MOL1    Cl 1570   3.110   3.866   2.062
    2MOL1    Cl 1571   2.957   3.789   1.827
    2MOL1     H 1572   2.876   3.865   2.035
    2MOL1    Cl 1573   4.478   0.441   4.183
    2MOL1     C 1574   4.583   0.562   4.107
    2MOL1    Cl 1575   4.601   0.528   3.934
    2MOL1    Cl 1576   4.519   0.725   4.133
    2MOL1     H 1577   4.682   0.556   4.154
    2MOL1    Cl 1578   4.714   3.186   4.829
    2MOL1     C 1579   4.654   3.020   4.810
    2MOL1    Cl 1580   4.557   3.006   4.662
    2MOL1    Cl 1581   4.790   2.906   4.806
    2MOL1     H 1582   4.591   2.996   4.895
    2MOL1    Cl 1583   0.963   4.585   2.367
    2MOL1     C 1584   1.102   4.694   2.373
    2MOL1    Cl 1585   1.062   4.841   2.464
    2MOL1    Cl 1586   1.242   4.613   2.444
    2MOL1     H 1587   1.127   4.723   2.270
    2MOL1    Cl 1588   5.184   0.143   0.501
    2MOL1     C 1589   5.130   0.231   0.357
    2MOL1    Cl 1590   5.233   0.194   0.218
    2MOL1    Cl 1591   4.961   0.193   0.320
    2MOL1     H 1592   5.137   0.338   0.378
    2MOL1    Cl 1593   4.633   0.371   3.526
    2MOL1     C 1594   4.608   0.477   3.666
    2MOL1    Cl 1595   4.455   0.439   3.746
    2MOL1    Cl 1596   4.743   0.464   3.779
    2MOL1     H 1597   4.603   0.580   3.630
    2MOL1    Cl 1598   3.745   5.012   4.514
    2MOL1     C 1599   3.615   5.114   4.452
    2MOL1    Cl 1600   3.459   5.030   4.460
    2MOL1    Cl 1601   3.608   5.267   4.541
    2MOL1     H 1602   3.636   5.136   4.347
    2MOL1    Cl 1603   1.253   1.962   1.640
    2MOL1     C 1604   1.414   1.942   1.568
    2MOL1    Cl 1605   1.540   1.998   1.680
    2MOL1    Cl 1606   1.441   1.773   1.524
    2MOL1     H 1607   1.418   2.002   1.477
    2MOL1    Cl 1608   5.140   0.103   1.435
    2MOL1     C 1609   5.251   0.241   1.439
    2MOL1    Cl 1610   5.306   0.281   1.275
    2MOL1    Cl 1611   5.172   0.381   1.514
    2MOL1     H 1612   5.338   0.214   1.499
    2MOL1    Cl 1613   3.266   1.902   2.912
    2MOL1     C 1614   3.321   1.795   2.782
    2MOL1    Cl 1615   3.380   1.641   2.849
    2MOL1    Cl 1616   3.191   1.767   2.665
    2MOL1     H 1617   3.404   1.843   2.731
    2MOL1    Cl 1618   3.784   0.374   0.542
    2MOL1     C 1619   3.613   0.412   0.514
    2MOL1    Cl 1620   3.514   0.265   0.528
    2MOL1    Cl 1621   3.557   0.536   0.628
    2MOL1     H 1622   3.602   0.451   0.413
    2MOL1    Cl 1623   0.515   1.425   2.015
    2MOL1     C 1624   0.670   1.341   2.005
    2MOL1    Cl 1625   0.646   1.172   1.958
    2MOL1    Cl 1626   0.777   1.423   1.889
    2MOL1     H 1627   0.717   1.343   2.103
    2MOL1    Cl 1628   3.119   3.757   1.329
    2MOL1     C 1629   2.990   3.871   1.289
    2MOL1    Cl 1630   2.874   3.885   1.423
    2MOL1    Cl 1631   3.057   4.030   1.249
    2MOL1     H 1632   2.937   3.833   1.201
    2MOL1    Cl 1633   2.532   2.653   4.423
    2MOL1     C 1634   2.408   2.528   4.433
    2MOL1    Cl 1635   2.336   2.497   4.274
    2MOL1    Cl 1636   2.475   2.379   4.501
    2MOL1     H 1637   2.329   2.563   4.500
    2MOL1    Cl 1638   0.484   2.289   0.783
    2MOL1     C 1639   0.590   2.389   0.884
    2MOL1    Cl 1640   0.501   2.527   0.951
    2MOL1    Cl 1641   0.663   2.292   1.013
    2MOL1     H 1642   0.671   2.428   0.820
    2MOL1    Cl 1643   2.625   0.666   1.662
    2MOL1     C 1644   2.566   0.499   1.659
    2MOL1    Cl 1645   2.413   0.489   1.570
    2MOL1    Cl 1646   2.687   0.391   1.587
    2MOL1     H 1647   2.548   0.466   1.762
    2MOL1    Cl 1648   2.566   3.651   0.000
    2MOL1     C 1649   2.457   3.615   0.134
    2MOL1    Cl 1650   2.535   3.507   0.251
    2MOL1    Cl 1651   2.403   3.764   0.213
    2MOL1     H 1652   2.369   3.564   0.094
    2MOL1    Cl 1653   0.239   3.597   4.968
    2MOL1     C 1654   0.162   3.438   4.967
    2MOL1    Cl 1655   0.262   3.320   5.055
    2MOL1    Cl 1656   0.000   3.447   5.038
    2MOL1     H 1657   0.153   3.404   4.864
    2MOL1    Cl 1658   3.964   2.010   1.814
    2MOL1     C 1659   3.902   1.857   1.749
    2MOL1    Cl 1660   4.035   1.756   1.689
    2MOL1    Cl 1661   3.809   1.770   1.872
    2MOL1     H 1662   3.836   1.879   1.665
    2MOL1    Cl 1663   2.174   2.907   2.618
    2MOL1     C 1664   2.254   2.823   2.752
    2MOL1    Cl 1665   2.173   2.858   2.905
    2MOL1    Cl 1666   2.258   2.648   2.722
    2MOL1     H 1667   2.357   2.859   2.758
    2MOL1    Cl 1668   4.356   2.708   0.685
    2MOL1     C 1669   4.472   2.821   0.756
    2MOL1    Cl 1670   4.388   2.962   0.823
    2MOL1    Cl 1671   4.568   2.741   0.882
    2MOL1     H 1672   4.540   2.855   0.678
    2MOL1    Cl 1673   5.048   4.428   1.872
    2MOL1     C 1674   5.117   4.292   1.782
    2MOL1    Cl 1675   5.076   4.304   1.610
    2MOL1    Cl 1676   5.292   4.284   1.804
    2MOL1     H 1677   5.073   4.199   1.822
    2MOL1    Cl 1678   3.237   1.569   3.900
    2MOL1     C 1679   3.250   1.743   3.869
    2MOL1    Cl 1680   3.401   1.780   3.784
    2MOL1    Cl 1681   3.110   1.800   3.776
    2MOL1     H 1682   3.251   1.795   3.965
    2MOL1    Cl 1683   0.777   3.736   2.456
    2MOL1     C 1684   0.934   3.807   2.416
    2MOL1    Cl 1685   1.018   3.858   2.564
    2MOL1    Cl 1686   1.034   3.691   2.326
    2MOL1     H 1687   0.918   3.894   2.354
    2MOL1    Cl 1688   3.068   4.285   2.282
    2MOL1     C 1689   3.064   4.109   2.304
    2MOL1    Cl 1690   3.197   4.056   2.408
    2MOL1    Cl 1691   2.908   4.058   2.372
    2MOL1     H 1692   3.076   4.061   2.206
    2MOL1    Cl 1693   1.471   2.951   2.262
    2MOL1     C 1694   1.323   3.039   2.302
    2MOL1    Cl 1695   1.198   3.008   2.180
    2MOL1    Cl 1696   1.265   2.993   2.463
    2MOL1     H 1697   1.345   3.146   2.303
    2MOL1    Cl 1698   4.675   0.295   5.173
    2MOL1     C 1699   4.609   0.132   5.197
    2MOL1    Cl 1700   4.716   0.036   5.301
    2MOL1    Cl 1701   4.446   0.140   5.265
    2MOL1     H 1702   4.603   0.083   5.099
    2MOL1    Cl 1703   4.105   5.092   2.424
    2MOL1     C 1704   4.180   4.936   2.390
    2MOL1    Cl 1705   4.080   4.843   2.276
    2MOL1    Cl 1706   4.343   4.958   2.326
    2MOL1     H 1707   4.186   4.880   2.483
    2MOL1    Cl 1708   1.296   4.993   3.023
    2MOL1     C 1709   1.443   5.023   3.116
    2MOL1    Cl 1710   1.573   5.082   3.011
    2MOL1    Cl 1711   1.411   5.139   3.247
    2MOL1     H 1712   1.476   4.929   3.161
    2MOL1    Cl 1713   3.401   5.073   3.583
    2MOL1     C 1714   3.393   5.051   3.759
    2MOL1    Cl 1715   3.226   5.024   3.810
    2MOL1    Cl 1716   3.497   4.917   3.810
    2MOL1     H 1717   3.430   5.143   3.806
    2MOL1    Cl 1718   3.752   2.307   4.824
    2MOL1     C 1719   3.635   2.183   4.874
    2MOL1    Cl 1720   3.700   2.088   5.009
    2MOL1    Cl 1721   3.481   2.257   4.918
    2MOL1     H 1722   3.618   2.116   4.790
    2MOL1    Cl 1723   4.955   4.416   2.436
    2MOL1     C 1724   4.892   4.267   2.510
    2MOL1    Cl 1725   4.971   4.237   2.665
    2MOL1    Cl 1726   4.716   4.278   2.530
    2MOL1     H 1727   4.914   4.184   2.443
    2MOL1    Cl 1728   4.969   3.117   2.663
    2MOL1     C 1729   5.040   3.100   2.501
    2MOL1    Cl 1730   5.210   3.051   2.513
    2MOL1    Cl 1731   4.948   2.984   2.405
    2MOL1     H 1732   5.035   3.197   2.452
    2MOL1    Cl 1733   1.551   2.302   0.977
    2MOL1     C 1734   1.434   2.427   1.024
    2MOL1    Cl 1735   1.445   2.460   1.198
    2MOL1    Cl 1736   1.460   2.575   0.931
    2MOL1     H 1737   1.333   2.390   1.003
    2MOL1    Cl 1738   1.264   1.876   4.153
    2MOL1     C 1739   1.127   1.968   4.089
    2MOL1    Cl 1740   1.175   2.135   4.054
    2MOL1    Cl 1741   1.063   1.890   3.943
    2MOL1     H 1742   1.048   1.970   4.164
    2MOL1    Cl 1743   4.249   3.570   1.426
    2MOL1     C 1744   4.131   3.570   1.294
    2MOL1    Cl 1745   4.212   3.585   1.137
    2MOL1    Cl 1746   4.033   3.422   1.299
    2MOL1     H 1747   4.064   3.655   1.307
    2MOL1    Cl 1748   0.241   5.010   2.062
    2MOL1     C 1749   0.256   5.173   2.131
    2MOL1    Cl 1750   0.122   5.205   2.243
    2MOL1    Cl 1751   0.411   5.191   2.214
    2MOL1     H 1752   0.251   5.245   2.050
    2MOL1    Cl 1753   1.401   2.380   1.717
    2MOL1     C 1754   1.327   2.538   1.747
    2MOL1    Cl 1755   1.157   2.519   1.792
    2MOL1    Cl 1756   1.416   2.625   1.873
    2MOL1     H 1757   1.332   2.597   1.655
    2MOL1    Cl 1758   0.656   2.203   4.084
    2MOL1     C 1759   0.778   2.330   4.107
    2MOL1    Cl 1760   0.730   2.440   4.237
    2MOL1    Cl 1761   0.937   2.258   4.140
    2MOL1     H 1762   0.785   2.387   4.014
    2MOL1    Cl 1763   1.250   0.828   5.160
    2MOL1     C 1764   1.093   0.896   5.206
    2MOL1    Cl 1765   1.086   1.069   5.168
    2MOL1    Cl 1766   0.961   0.810   5.124
    2MOL1     H 1767   1.080   0.883   5.313
    2MOL1    Cl 1768   3.835   2.946   0.909
    2MOL1     C 1769   3.684   2.973   0.998
    2MOL1    Cl 1770   3.634   3.142   0.984
    2MOL1    Cl 1771   3.556   2.865   0.940
    2MOL1     H 1772   3.702   2.952   1.104
    2MOL1    Cl 1773   3.771   4.947   2.880
    2MOL1     C 1774   3.680   5.008   3.019
    2MOL1    Cl 1775   3.515   5.050   2.972
    2MOL1    Cl 1776   3.679   4.888   3.150
    2MOL1     H 1777   3.730   5.098   3.055
    2MOL1    Cl 1778   4.724   3.104   5.067
    2MOL1     C 1779   4.610   3.194   5.168
    2MOL1    Cl 1780   4.468   3.095   5.206
    2MOL1    Cl 1781   4.689   3.250   5.317
    2MOL1     H 1782   4.577   3.282   5.112
    2MOL1    Cl 1783   4.489   2.733   2.835
    2MOL1     C 1784   4.441   2.824   2.979
    2MOL1    Cl 1785   4.534   2.770   3.120
    2MOL1    Cl 1786   4.464   2.998   2.953
    2MOL1     H 1787   4.335   2.806   2.998
    2MOL1    Cl 1788   2.531   4.443   3.484
    2MOL1     C 1789   2.381   4.529   3.522
    2MOL1    Cl 1790   2.417   4.694   3.577
    2MOL1    Cl 1791   2.274   4.532   3.382
    2MOL1     H 1792   2.331   4.476   3.603
    2MOL1    Cl 1793   3.591   2.053   0.838
    2MOL1     C 1794   3.661   2.192   0.922
    2MOL1    Cl 1795   3.662   2.334   0.817
    2MOL1    Cl 1796   3.572   2.225   1.072
    2MOL1     H 1797   3.765   2.168   0.948
    2MOL1    Cl 1798   2.466   1.921   2.660
    2MOL1     C 1799   2.388   2.076   2.622
    2MOL1    Cl 1800   2.340   2.080   2.451
    2MOL1    Cl 1801   2.248   2.103   2.726
    2MOL1     H 1802   2.461   2.156   2.639
    2MOL1    Cl 1803   2.773   2.838   3.533
    2MOL1     C 1804   2.931   2.907   3.495
    2MOL1    Cl 1805   3.057   2.782   3.502
    2MOL1    Cl 1806   2.929   2.983   3.335
    2MOL1     H 1807   2.954   2.983   3.569
    2MOL1    Cl 1808   4.965   2.022   1.567
    2MOL1     C 1809   5.017   1.902   1.687
    2MOL1    Cl 1810   5.015   1.972   1.850
    2MOL1    Cl 1811   4.913   1.758   1.680
    2MOL1     H 1812   5.119   1.872   1.663
    2MOL1    Cl 1813   1.677   1.514   3.694
    2MOL1     C 1814   1.641   1.361   3.613
    2MOL1    Cl 1815   1.503   1.378   3.504
    2MOL1    Cl 1816   1.783   1.303   3.525
    2MOL1     H 1817   1.616   1.287   3.690
    2MOL1    Cl 1818   3.277   4.236   2.180
    2MOL1     C 1819   3.444   4.192   2.221
    2MOL1    Cl 1820   3.498   4.281   2.364
    2MOL1    Cl 1821   3.457   4.018   2.247
    2MOL1     H 1822   3.508   4.219   2.137
    2MOL1    Cl 1823   2.216   3.481   0.506
    2MOL1     C 1824   2.069   3.578   0.485
    2MOL1    Cl 1825   2.102   3.719   0.383
    2MOL1    Cl 1826   1.939   3.480   0.416
    2MOL1     H 1827   2.037   3.613   0.584
    2MOL1    Cl 1828   4.640   2.041   3.108
    2MOL1     C 1829   4.616   2.124   3.262
    2MOL1    Cl 1830   4.735   2.070   3.382
    2MOL1    Cl 1831   4.626   2.300   3.240
    2MOL1     H 1832   4.517   2.100   3.299
    2MOL1    Cl 1833   2.285   3.720   1.246
    2MOL1     C 1834   2.274   3.864   1.350
    2MOL1    Cl 1835   2.136   3.965   1.301
    2MOL1    Cl 1836   2.260   3.817   1.520
    2MOL1     H 1837   2.366   3.922   1.337
    2MOL1    Cl 1838   1.099   4.773   4.740
    2MOL1     C 1839   1.080   4.940   4.794
    2MOL1    Cl 1840   1.124   5.053   4.664
    2MOL1    Cl 1841   0.914   4.970   4.849
    2MOL1     H 1842   1.148   4.957   4.878
    2MOL1    Cl 1843   3.660   3.116   3.868
    2MOL1     C 1844   3.668   3.205   3.716
    2MOL1    Cl 1845   3.552   3.339   3.715
    2MOL1    Cl 1846   3.832   3.266   3.688
    2MOL1     H 1847   3.643   3.137   3.634
    2MOL1    Cl 1848   3.580   3.915   1.212
    2MOL1     C 1849   3.748   3.893   1.264
    2MOL1    Cl 1850   3.796   3.724   1.248
    2MOL1    Cl 1851   3.856   3.998   1.171
    2MOL1     H 1852   3.755   3.921   1.370
    2MOL1    Cl 1853   2.492   1.416   4.057
    2MOL1     C 1854   2.530   1.271   3.962
    2MOL1    Cl 1855   2.652   1.173   4.045
    2MOL1    Cl 1856   2.384   1.177   3.932
    2MOL1     H 1857   2.572   1.303   3.866
    2MOL1    Cl 1858   2.071   3.530   5.016
    2MOL1     C 1859   2.124   3.666   4.916
    2MOL1    Cl 1860   2.116   3.625   4.744
    2MOL1    Cl 1861   2.027   3.811   4.950
    2MOL1     H 1862   2.229   3.688   4.941
    2MOL1    Cl 1863   4.277   3.970   3.242
    2MOL1     C 1864   4.401   3.849   3.208
    2MOL1    Cl 1865   4.347   3.738   3.081
    2MOL1    Cl 1866   4.554   3.926   3.162
    2MOL1     H 1867   4.419   3.790   3.299
    2MOL1    Cl 1868   3.070   1.446   5.119
    2MOL1     C 1869   3.094   1.582   5.008
    2MOL1    Cl 1870   3.098   1.525   4.840
    2MOL1    Cl 1871   2.967   1.703   5.030
    2MOL1     H 1872   3.190   1.628   5.031
    2MOL1    Cl 1873   0.729   0.749   4.223
    2MOL1     C 1874   0.659   0.621   4.123
    2MOL1    Cl 1875   0.582   0.689   3.979
    2MOL1    Cl 1876   0.783   0.503   4.077
    2MOL1     H 1877   0.582   0.569   4.181
    2MOL1    Cl 1878   3.372   0.982   2.087
    2MOL1     C 1879   3.517   0.895   2.033
    2MOL1    Cl 1880   3.473   0.764   1.922
    2MOL1    Cl 1881   3.631   1.006   1.956
    2MOL1     H 1882   3.566   0.851   2.121
    2MOL1    Cl 1883   2.750   0.028   2.679
    2MOL1     C 1884   2.836   0.114   2.550
    2MOL1    Cl 1885   2.987   0.184   2.611
    2MOL1    Cl 1886   2.868   0.005   2.414
    2MOL1     H 1887   2.772   0.195   2.514
    2MOL1    Cl 1888   2.871   4.583   2.597
    2MOL1     C 1889   2.716   4.556   2.516
    2MOL1    Cl 1890   2.678   4.383   2.510
    2MOL1    Cl 1891   2.587   4.645   2.599
    2MOL1     H 1892   2.723   4.594   2.414
    2MOL1    Cl 1893   0.789   0.973   2.313
    2MOL1     C 1894   0.909   1.012   2.189
    2MOL1    Cl 1895   0.860   0.946   2.032
    2MOL1    Cl 1896   0.932   1.187   2.178
    2MOL1     H 1897   1.004   0.966   2.217
    2MOL1    Cl 1898   2.193   4.352   3.204
    2MOL1     C 1899   2.369   4.352   3.189
    2MOL1    Cl 1900   2.435   4.511   3.233
    2MOL1    Cl 1901   2.441   4.225   3.290
    2MOL1     H 1902   2.395   4.332   3.085
    2MOL1    Cl 1903   4.173   1.800   4.653
    2MOL1     C 1904   4.262   1.834   4.803
    2MOL1    Cl 1905   4.296   2.007   4.818
    2MOL1    Cl 1906   4.171   1.776   4.944
    2MOL1     H 1907   4.357   1.780   4.799
    2MOL1    Cl 1908   0.424   0.436   0.356
    2MOL1     C 1909   0.304   0.566   0.369
    2MOL1    Cl 1910   0.151   0.504   0.431
    2MOL1    Cl 1911   0.365   0.696   0.473
    2MOL1     H 1912   0.287   0.607   0.269
    2MOL1    Cl 1913   3.805   3.960   5.194
    2MOL1     C 1914   3.942   3.848   5.186
    2MOL1    Cl 1915   3.980   3.808   5.018
    2MOL1    Cl 1916   4.083   3.918   5.267
    2MOL1     H 1917   3.915   3.756   5.238
    2MOL1    Cl 1918   2.120   2.482   2.772
    2MOL1     C 1919   1.967   2.414   2.715
    2MOL1    Cl 1920   1.963   2.239   2.743
    2MOL1    Cl 1921   1.830   2.493   2.795
    2MOL1     H 1922   1.959   2.431   2.607
    2MOL1    Cl 1923   2.160   4.299   1.719
    2MOL1     C 1924   2.043   4.186   1.651
    2MOL1    Cl 1925   1.946   4.266   1.526
    2MOL1    Cl 1926   2.125   4.044   1.585
    2MOL1     H 1927   1.976   4.153   1.731
    2MOL1    Cl 1928   4.212   3.590   2.003
    2MOL1     C 1929   4.068   3.597   1.899
    2MOL1    Cl 1930   4.011   3.764   1.884
    2MOL1    Cl 1931   4.103   3.529   1.739
    2MOL1     H 1932   3.989   3.537   1.945
    2MOL1    Cl 1933   2.562   4.820   0.587
    2MOL1     C 1934   2.581   4.646   0.614
    2MOL1    Cl 1935   2.679   4.615   0.758
    2MOL1    Cl 1936   2.422   4.568   0.629
    2MOL1     H 1937   2.632   4.603   0.527
    2MOL1    Cl 1938   2.944   2.442   4.731
    2MOL1     C 1939   2.797   2.353   4.773
    2MOL1    Cl 1940   2.837   2.209   4.868
    2MOL1    Cl 1941   2.684   2.457   4.860
    2MOL1     H 1942   2.749   2.320   4.680
    2MOL1    Cl 1943   1.652   3.209   2.655
    2MOL1     C 1944   1.551   3.347   2.699
    2MOL1    Cl 1945   1.582   3.484   2.590
    2MOL1    Cl 1946   1.379   3.303   2.696
    2MOL1     H 1947   1.577   3.378   2.800
    2MOL1    Cl 1948   0.546   4.130   4.912
    2MOL1     C 1949   0.686   4.238   4.920
    2MOL1    Cl 1950   0.650   4.380   5.019
    2MOL1    Cl 1951   0.827   4.151   4.983
    2MOL1     H 1952   0.709   4.271   4.818
    2MOL1    Cl 1953   0.009   2.429   1.781
    2MOL1     C 1954   0.186   2.436   1.789
    2MOL1    Cl 1955   0.244   2.600   1.755
    2MOL1    Cl 1956   0.243   2.382   1.948
    2MOL1     H 1957   0.227   2.369   1.713
    2MOL1    Cl 1958   4.534   0.984   4.411
    2MOL1     C 1959   4.464   1.020   4.252
    2MOL1    Cl 1960   4.572   0.965   4.123
    2MOL1    Cl 1961   4.305   0.944   4.236
    2MOL1     H 1962   4.452   1.128   4.243
    2MOL1    Cl 1963   4.084   1.271   0.449
    2MOL1     C 1964   4.003   1.113   0.447
    2MOL1    Cl 1965   3.859   1.118   0.344
    2MOL1    Cl 1966   4.114   0.987   0.392
    2MOL1     H 1967   3.971   1.089   0.549
    2MOL1    Cl 1968   2.141   1.717   3.978
    2MOL1     C 1969   1.969   1.734   3.941
    2MOL1    Cl 1970   1.881   1.802   4.079
    2MOL1    Cl 1971   1.946   1.836   3.797
    2MOL1     H 1972   1.928   1.635   3.920
    2MOL1    Cl 1973   0.432   1.781   2.063
    2MOL1     C 1974   0.258   1.806   2.042
    2MOL1    Cl 1975   0.167   1.683   2.131
    2MOL1    Cl 1976   0.212   1.968   2.095
    2MOL1     H 1977   0.235   1.796   1.936
    2MOL1    Cl 1978   1.847   0.582   3.395
    2MOL1     C 1979   1.675   0.588   3.436
    2MOL1    Cl 1980   1.599   0.732   3.366
    2MOL1    Cl 1981   1.592   0.441   3.381
    2MOL1     H 1982   1.666   0.594   3.545
    2MOL1    Cl 1983   2.132   4.322   1.110
    2MOL1     C 1984   2.286   4.239   1.141
    2MOL1    Cl 1985   2.419   4.356   1.149
    2MOL1    Cl 1986   2.277   4.144   1.290
    2MOL1     H 1987   2.305   4.171   1.058
    2MOL1    Cl 1988   3.368   1.904   4.424
    2MOL1     C 1989   3.456   1.759   4.374
    2MOL1    Cl 1990   3.625   1.767   4.428
    2MOL1    Cl 1991   3.377   1.614   4.436
    2MOL1     H 1992   3.455   1.755   4.265
    2MOL1    Cl 1993   2.152   3.855   4.298
    2MOL1     C 1994   2.256   3.746   4.204
    2MOL1    Cl 1995   2.401   3.703   4.296
    2MOL1    Cl 1996   2.166   3.600   4.157
    2MOL1     H 1997   2.286   3.798   4.113
    2MOL1    Cl 1998   3.011   0.982   4.883
    2MOL1     C 1999   3.173   0.976   4.955
    2MOL1    Cl 2000   3.194   1.107   5.072
    2MOL1    Cl 2001   3.202   0.819   5.031
    2MOL1     H 2002   3.246   0.990   4.875
    2MOL1    Cl 2003   3.247   2.817   2.412
    2MOL1     C 2004   3.087   2.762   2.464
    2MOL1    Cl 2005   3.027   2.633   2.359
    2MOL1    Cl 2006   3.092   2.709   2.633
    2MOL1     H 2007   3.017   2.847   2.457
    2MOL1    Cl 2008   4.646   4.336   0.794
    2MOL1     C 2009   4.752   4.219   0.874
    2MOL1    Cl 2010   4.657   4.088   0.947
    2MOL1    Cl 2011   4.871   4.154   0.760
    2MOL1     H 2012   4.806   4.271   0.954
    2MOL1    Cl 2013   2.104   3.040   4.348
    2MOL1     C 2014   2.131   2.891   4.440
    2MOL1    Cl 2015   2.244   2.784   4.354
    2MOL1    Cl 2016   2.191   2.928   4.602
    2MOL1     H 2017   2.035   2.839   4.450
    2MOL1    Cl 2018   2.874   4.088   4.408
    2MOL1     C 2019   2.709   4.111   4.468
    2MOL1    Cl 2020   2.670   4.284   4.476
    2MOL1    Cl 2021   2.593   4.026   4.365
    2MOL1     H 2022   2.703   4.070   4.569
    2MOL1    Cl 2023   4.435   4.993   2.669
    2MOL1     C 2024   4.398   5.164   2.695
    2MOL1    Cl 2025   4.515   5.267   2.610
    2MOL1    Cl 2026   4.233   5.201   2.640
    2MOL1     H 2027   4.404   5.185   2.802
    2MOL1    Cl 2028   1.735   3.701   2.169
    2MOL1     C 2029   1.796   3.702   2.003
    2MOL1    Cl 2030   1.911   3.569   1.979
    2MOL1    Cl 2031   1.663   3.692   1.887
    2MOL1     H 2032   1.849   3.797   1.987
    2MOL1    Cl 2033   3.511   0.628   1.003
    2MOL1     C 2034   3.492   0.803   1.006
    2MOL1    Cl 2035   3.320   0.847   0.997
    2MOL1    Cl 2036   3.565   0.872   1.153
    2MOL1     H 2037   3.543   0.845   0.920
    2MOL1    Cl 2038   0.180   3.916   3.049
    2MOL1     C 2039   0.301   3.789   3.069
    2MOL1    Cl 2040   0.228   3.642   3.137
    2MOL1    Cl 2041   0.381   3.753   2.915
    2MOL1     H 2042   0.377   3.825   3.139
    2MOL1    Cl 2043   2.761   2.692   4.888
    2MOL1     C 2044   2.924   2.710   4.820
    2MOL1    Cl 2045   3.032   2.585   4.883
    2MOL1    Cl 2046   2.918   2.704   4.643
    2MOL1     H 2047   2.963   2.808   4.850
    2MOL1    Cl 2048   2.218   0.695   0.527
    2MOL1     C 2049   2.278   0.651   0.687
    2MOL1    Cl 2050   2.369   0.784   0.759
    2MOL1    Cl 2051   2.143   0.603   0.793
    2MOL1     H 2052   2.345   0.565   0.677
    2MOL1    Cl 2053   2.715   0.287   2.251
    2MOL1     C 2054   2.885   0.333   2.262
    2MOL1    Cl 2055   2.951   0.289   2.421
    2MOL1    Cl 2056   2.979   0.256   2.133
    2MOL1     H 2057   2.893   0.441   2.251
    2MOL1    Cl 2058   1.866   3.687   4.610
    2MOL1     C 2059   1.854   3.514   4.649
    2MOL1    Cl 2060   1.780   3.492   4.808
    2MOL1    Cl 2061   1.762   3.428   4.525
    2MOL1     H 2062   1.955   3.473   4.652
    2MOL1    Cl 2063   0.948   2.779   0.784
    2MOL1     C 2064   0.843   2.835   0.652
    2MOL1    Cl 2065   0.928   2.826   0.497
    2MOL1    Cl 2066   0.693   2.741   0.648
    2MOL1     H 2067   0.818   2.940   0.671
    2MOL1    Cl 2068   3.032   0.220   3.538
    2MOL1     C 2069   2.984   0.203   3.368
    2MOL1    Cl 2070   3.036   0.344   3.274
    2MOL1    Cl 2071   3.051   0.054   3.299
    2MOL1     H 2072   2.875   0.197   3.363
    2MOL1    Cl 2073   2.248   2.946   1.101
    2MOL1     C 2074   2.083   2.976   1.157
    2MOL1    Cl 2075   2.068   2.938   1.330
    2MOL1    Cl 2076   2.035   3.143   1.126
    2MOL1     H 2077   2.015   2.910   1.102
    2MOL1    Cl 2078   3.007   5.046   3.985
    2MOL1     C 2079   3.127   5.175   4.007
    2MOL1    Cl 2080   3.066   5.299   4.118
    2MOL1    Cl 2081   3.280   5.108   4.067
    2MOL1     H 2082   3.146   5.221   3.910
    2MOL1    Cl 2083   3.053   3.453   0.063
    2MOL1     C 2084   2.979   3.301   0.115
    2MOL1    Cl 2085   2.851   3.252   0.003
    2MOL1    Cl 2086   3.101   3.173   0.130
    2MOL1     H 2087   2.934   3.316   0.214
    2MOL1    Cl 2088   0.432   0.319   4.303
    2MOL1     C 2089   0.300   0.380   4.202
    2MOL1    Cl 2090   0.187   0.249   4.161
    2MOL1    Cl 2091   0.215   0.512   4.283
    2MOL1     H 2092   0.343   0.418   4.109
    2MOL1    Cl 2093   2.309   2.493   4.047
    2MOL1     C 2094   2.413   2.619   3.979
    2MOL1    Cl 2095   2.542   2.661   4.093
    2MOL1    Cl 2096   2.482   2.567   3.824
    2MOL1     H 2097   2.352   2.708   3.962
    2MOL1    Cl 2098   0.949   1.429   0.213
    2MOL1     C 2099   0.773   1.438   0.227
    2MOL1    Cl 2100   0.722   1.402   0.393
    2MOL1    Cl 2101   0.715   1.599   0.179
    2MOL1     H 2102   0.729   1.364   0.160
    2MOL1    Cl 2103   4.803   2.936   2.029
    2MOL1     C 2104   4.663   2.983   1.931
    2MOL1    Cl 2105   4.514   2.916   1.999
    2MOL1    Cl 2106   4.652   3.159   1.918
    2MOL1     H 2107   4.677   2.942   1.831
    2MOL1    Cl 2108   3.269   3.162   0.615
    2MOL1     C 2109   3.115   3.248   0.604
    2MOL1    Cl 2110   3.134   3.399   0.512
    2MOL1    Cl 2111   2.992   3.145   0.530
    2MOL1     H 2112   3.082   3.273   0.705
    2MOL1    Cl 2113   2.501   4.867   1.732
    2MOL1     C 2114   2.612   4.927   1.607
    2MOL1    Cl 2115   2.595   4.833   1.458
    2MOL1    Cl 2116   2.583   5.099   1.576
    2MOL1     H 2117   2.714   4.916   1.644
    2MOL1    Cl 2118   2.639   4.073   5.044
    2MOL1     C 2119   2.603   4.077   4.871
    2MOL1    Cl 2120   2.587   4.245   4.816
    2MOL1    Cl 2121   2.728   3.993   4.779
    2MOL1     H 2122   2.508   4.026   4.855
    2MOL1    Cl 2123   4.173   3.965   2.813
    2MOL1     C 2124   4.031   4.032   2.732
    2MOL1    Cl 2125   3.884   3.997   2.825
    2MOL1    Cl 2126   4.049   4.207   2.708
    2MOL1     H 2127   4.022   3.985   2.634
    2MOL1    Cl 2128   2.225   1.567   2.632
    2MOL1     C 2129   2.331   1.552   2.491
    2MOL1    Cl 2130   2.407   1.392   2.486
    2MOL1    Cl 2131   2.240   1.582   2.342
    2MOL1     H 2132   2.410   1.627   2.499
    2MOL1    Cl 2133   4.862   2.514   0.556
    2MOL1     C 2134   4.907   2.376   0.657
    2MOL1    Cl 2135   4.768   2.319   0.751
    2MOL1    Cl 2136   4.972   2.244   0.558
    2MOL1     H 2137   4.985   2.408   0.727
    2MOL1    Cl 2138   4.358   0.589   3.178
    2MOL1     C 2139   4.192   0.616   3.234
    2MOL1    Cl 2140   4.093   0.684   3.104
    2MOL1    Cl 2141   4.122   0.464   3.293
    2MOL1     H 2142   4.195   0.687   3.316
    2MOL1    Cl 2143   4.919   2.395   0.294
    2MOL1     C 2144   4.834   2.363   0.142
    2MOL1    Cl 2145   4.949   2.345   0.009
    2MOL1    Cl 2146   4.732   2.219   0.157
    2MOL1     H 2147   4.769   2.449   0.121
    2MOL1    Cl 2148   3.454   1.044   1.047
    2MOL1     C 2149   3.383   1.199   1.094
    2MOL1    Cl 2150   3.487   1.333   1.044
    2MOL1    Cl 2151   3.221   1.217   1.025
    2MOL1     H 2152   3.374   1.201   1.203
    2MOL1    Cl 2153   2.750   4.417   4.895
    2MOL1     C 2154   2.821   4.397   4.734
    2MOL1    Cl 2155   2.863   4.227   4.705
    2MOL1    Cl 2156   2.709   4.455   4.609
    2MOL1     H 2157   2.912   4.456   4.728
    2MOL1    Cl 2158   1.326   3.183   4.583
    2MOL1     C 2159   1.418   3.318   4.514
    2MOL1    Cl 2160   1.588   3.274   4.492
    2MOL1    Cl 2161   1.346   3.369   4.360
    2MOL1     H 2162   1.413   3.402   4.584
    2MOL1    Cl 2163   1.179   2.494   2.447
    2MOL1     C 2164   1.237   2.328   2.431
    2MOL1    Cl 2165   1.415   2.324   2.426
    2MOL1    Cl 2166   1.177   2.228   2.565
    2MOL1     H 2167   1.199   2.286   2.338
    2MOL1    Cl 2168   1.486   1.366   0.796
    2MOL1     C 2169   1.392   1.369   0.646
    2MOL1    Cl 2170   1.418   1.522   0.561
    2MOL1    Cl 2171   1.435   1.232   0.543
    2MOL1     H 2172   1.286   1.361   0.672
    2MOL1    Cl 2173   0.185   5.169   3.322
    2MOL1     C 2174   0.351   5.203   3.270
    2MOL1    Cl 2175   0.437   5.052   3.237
    2MOL1    Cl 2176   0.351   5.307   3.126
    2MOL1     H 2177   0.403   5.255   3.350
    2MOL1    Cl 2178   2.883   3.806   0.288
    2MOL1     C 2179   2.797   3.955   0.327
    2MOL1    Cl 2180   2.631   3.950   0.267
    2MOL1    Cl 2181   2.799   3.983   0.502
    2MOL1     H 2182   2.849   4.038   0.279
    2MOL1    Cl 2183   4.977   1.942   0.949
    2MOL1     C 2184   5.108   1.838   0.894
    2MOL1    Cl 2185   5.045   1.706   0.795
    2MOL1    Cl 2186   5.228   1.932   0.803
    2MOL1     H 2187   5.158   1.795   0.981
    2MOL1    Cl 2188   3.112   4.740   4.002
    2MOL1     C 2189   3.235   4.779   4.123
    2MOL1    Cl 2190   3.190   4.714   4.281
    2MOL1    Cl 2191   3.394   4.717   4.072
    2MOL1     H 2192   3.242   4.888   4.131
    2MOL1    Cl 2193   0.506   3.356   3.402
    2MOL1     C 2194   0.377   3.243   3.449
    2MOL1    Cl 2195   0.228   3.277   3.360
    2MOL1    Cl 2196   0.429   3.075   3.422
    2MOL1     H 2197   0.357   3.256   3.556
    2MOL1    Cl 2198   3.080   0.437   1.859
    2MOL1     C 2199   2.910   0.433   1.907
    2MOL1    Cl 2200   2.879   0.550   2.037
    2MOL1    Cl 2201   2.805   0.464   1.769
    2MOL1     H 2202   2.888   0.333   1.945
    2MOL1    Cl 2203   4.983   5.090   4.398
    2MOL1     C 2204   4.838   5.004   4.344
    2MOL1    Cl 2205   4.795   4.875   4.457
    2MOL1    Cl 2206   4.702   5.117   4.324
    2MOL1     H 2207   4.859   4.959   4.247
    2MOL1    Cl 2208   4.165   1.103   2.035
    2MOL1     C 2209   4.037   0.981   2.037
    2MOL1    Cl 2210   4.070   0.858   2.160
    2MOL1    Cl 2211   3.879   1.056   2.065
    2MOL1     H 2212   4.035   0.932   1.939
    2MOL1    Cl 2213   2.274   4.589   2.453
    2MOL1     C 2214   2.318   4.760   2.438
    2MOL1    Cl 2215   2.392   4.791   2.279
    2MOL1    Cl 2216   2.176   4.863   2.462
    2MOL1     H 2217   2.391   4.783   2.515
    2MOL1    Cl 2218   2.335   2.643   0.994
    2MOL1     C 2219   2.264   2.760   0.882
    2MOL1    Cl 2220   2.308   2.721   0.715
    2MOL1    Cl 2221   2.088   2.764   0.900
    2MOL1     H 2222   2.303   2.859   0.906
    2MOL1    Cl 2223   2.325   4.908   0.514
    2MOL1     C 2224   2.218   4.785   0.445
    2MOL1    Cl 2225   2.304   4.689   0.324
    2MOL1    Cl 2226   2.152   4.681   0.572
    2MOL1     H 2227   2.135   4.836   0.395
    2MOL1    Cl 2228   3.618   1.036   2.261
    2MOL1     C 2229   3.656   1.152   2.389
    2MOL1    Cl 2230   3.663   1.316   2.324
    2MOL1    Cl 2231   3.535   1.142   2.519
    2MOL1     H 2232   3.753   1.127   2.431
    2MOL1    Cl 2233   3.821   3.904   0.792
    2MOL1     C 2234   3.706   4.027   0.847
    2MOL1    Cl 2235   3.584   3.956   0.953
    2MOL1    Cl 2236   3.791   4.159   0.930
    2MOL1     H 2237   3.656   4.069   0.760
    2MOL1    Cl 2238   1.802   4.148   2.031
    2MOL1     C 2239   1.744   4.256   2.159
    2MOL1    Cl 2240   1.775   4.425   2.117
    2MOL1    Cl 2241   1.571   4.230   2.188
    2MOL1     H 2242   1.798   4.233   2.251
    2MOL1    Cl 2243   5.062   3.010   3.080
    2MOL1     C 2244   5.006   2.865   2.995
    2MOL1    Cl 2245   5.134   2.743   2.988
    2MOL1    Cl 2246   4.862   2.799   3.074
    2MOL1     H 2247   4.980   2.893   2.893
    2MOL1    Cl 2248   1.467   1.421   2.241
    2MOL1     C 2249   1.584   1.288   2.242
    2MOL1    Cl 2250   1.587   1.209   2.400
    2MOL1    Cl 2251   1.546   1.171   2.114
    2MOL1     H 2252   1.683   1.329   2.222
    2MOL1    Cl 2253   0.169   0.369   1.398
    2MOL1     C 2254   0.122   0.515   1.486
    2MOL1    Cl 2255   0.157   0.498   1.659
    2MOL1    Cl 2256   0.204   0.657   1.419
    2MOL1     H 2257   0.014   0.529   1.474
    2MOL1    Cl 2258   0.905   4.272   0.358
    2MOL1     C 2259   1.044   4.266   0.249
    2MOL1    Cl 2260   1.076   4.427   0.181
    2MOL1    Cl 2261   1.187   4.205   0.334
    2MOL1     H 2262   1.021   4.198   0.167
    2MOL1    Cl 2263   3.168   2.878   0.745
    2MOL1     C 2264   3.136   2.805   0.903
    2MOL1    Cl 2265   3.147   2.927   1.031
    2MOL1    Cl 2266   2.976   2.727   0.905
    2MOL1     H 2267   3.211   2.728   0.922
    2MOL1    Cl 2268   0.446   1.967   2.482
    2MOL1     C 2269   0.610   2.004   2.538
    2MOL1    Cl 2270   0.682   1.861   2.614
    2MOL1    Cl 2271   0.710   2.060   2.403
    2MOL1     H 2272   0.604   2.084   2.612
    2MOL1    Cl 2273   2.460   0.784   5.068
    2MOL1     C 2274   2.628   0.771   5.014
    2MOL1    Cl 2275   2.666   0.605   4.965
    2MOL1    Cl 2276   2.659   0.884   4.881
    2MOL1     H 2277   2.694   0.798   5.098
    2MOL1    Cl 2278   0.305   4.207   4.272
    2MOL1     C 2279   0.414   4.337   4.220
    2MOL1    Cl 2280   0.389   4.482   4.317
    2MOL1    Cl 2281   0.583   4.284   4.230
    2MOL1     H 2282   0.392   4.361   4.115
    2MOL1    Cl 2283   5.131   4.019   1.419
    2MOL1     C 2284   5.058   4.004   1.579
    2MOL1    Cl 2285   4.899   4.082   1.583
    2MOL1    Cl 2286   5.045   3.833   1.626
    2MOL1     H 2287   5.123   4.054   1.652
    2MOL1    Cl 2288   2.706   2.403   0.325
    2MOL1     C 2289   2.613   2.261   0.375
    2MOL1    Cl 2290   2.716   2.145   0.460
    2MOL1    Cl 2291   2.476   2.309   0.476
    2MOL1     H 2292   2.574   2.212   0.285
    2MOL1    Cl 2293   3.204   2.532   2.261
    2MOL1     C 2294   3.349   2.451   2.200
    2MOL1    Cl 2295   3.359   2.285   2.262
    2MOL1    Cl 2296   3.350   2.451   2.023
    2MOL1     H 2297   3.436   2.506   2.235
    2MOL1    Cl 2298   4.271   1.324   5.241
    2MOL1     C 2299   4.097   1.292   5.244
    2MOL1    Cl 2300   4.029   1.298   5.080
    2MOL1    Cl 2301   4.064   1.135   5.319
    2MOL1     H 2302   4.048   1.370   5.304
    2MOL1    Cl 2303   1.024   2.128   4.555
    2MOL1     C 2304   1.184   2.067   4.511
    2MOL1    Cl 2305   1.182   1.996   4.349
    2MOL1    Cl 2306   1.305   2.197   4.521
    2MOL1     H 2307   1.212   1.989   4.582
    2MOL1    Cl 2308   0.331   0.316   2.269
    2MOL1     C 2309   0.432   0.364   2.132
    2MOL1    Cl 2310   0.524   0.226   2.070
    2MOL1    Cl 2311   0.332   0.435   2.003
    2MOL1     H 2312   0.502   0.440   2.166
    2MOL1    Cl 2313   3.649   0.409   1.042
    2MOL1     C 2314   3.817   0.416   1.098
    2MOL1    Cl 2315   3.919   0.496   0.977
    2MOL1    Cl 2316   3.827   0.500   1.253
    2MOL1     H 2317   3.853   0.314   1.111
    2MOL1    Cl 2318   3.069   2.166   3.580
    2MOL1     C 2319   3.196   2.276   3.636
    2MOL1    Cl 2320   3.351   2.190   3.650
    2MOL1    Cl 2321   3.212   2.415   3.527
    2MOL1     H 2322   3.169   2.313   3.735
    2MOL1    Cl 2323   3.787   2.819   3.410
    2MOL1     C 2324   3.737   2.881   3.568
    2MOL1    Cl 2325   3.717   2.748   3.684
    2MOL1    Cl 2326   3.854   2.999   3.629
    2MOL1     H 2327   3.640   2.931   3.556
    2MOL1    Cl 2328   3.336   4.412   1.647
    2MOL1     C 2329   3.240   4.456   1.789
    2MOL1    Cl 2330   3.321   4.402   1.937
    2MOL1    Cl 2331   3.211   4.630   1.793
    2MOL1     H 2332   3.144   4.404   1.782
    2MOL1    Cl 2333   0.582   1.320   4.389
    2MOL1     C 2334   0.492   1.298   4.238
    2MOL1    Cl 2335   0.486   1.450   4.147
    2MOL1    Cl 2336   0.565   1.170   4.140
    2MOL1     H 2337   0.390   1.268   4.263
    2MOL1    Cl 2338   0.539   1.933   1.688
    2MOL1     C 2339   0.384   1.888   1.616
    2MOL1    Cl 2340   0.304   1.763   1.712
    2MOL1    Cl 2341   0.280   2.030   1.599
    2MOL1     H 2342   0.403   1.847   1.516
    2MOL1    Cl 2343   0.001   2.944   1.223
    2MOL1     C 2344   0.112   2.930   1.360
    2MOL1    Cl 2345   0.250   2.828   1.319
    2MOL1    Cl 2346   0.167   3.091   1.412
    2MOL1     H 2347   0.058   2.884   1.444
    2MOL1    Cl 2348   0.974   3.686   0.096
    2MOL1     C 2349   0.802   3.643   0.102
    2MOL1    Cl 2350   0.781   3.479   0.165
    2MOL1    Cl 2351   0.713   3.760   0.201
    2MOL1     H 2352   0.762   3.647   0.001
    2MOL1    Cl 2353   3.613   1.178   1.389
    2MOL1     C 2354   3.657   1.336   1.456
    2MOL1    Cl 2355   3.566   1.369   1.604
    2MOL1    Cl 2356   3.831   1.345   1.486
    2MOL1     H 2357   3.631   1.413   1.382
    2MOL1    Cl 2358   3.345   1.790   4.804
    2MOL1     C 2359   3.498   1.719   4.750
    2MOL1    Cl 2360   3.623   1.843   4.736
    2MOL1    Cl 2361   3.549   1.591   4.861
    2MOL1     H 2362   3.482   1.674   4.651
    2MOL1    Cl 2363   0.826   3.907   4.395
    2MOL1     C 2364   0.699   4.005   4.319
    2MOL1    Cl 2365   0.737   4.034   4.149
    2MOL1    Cl 2366   0.541   3.926   4.335
    2MOL1     H 2367   0.695   4.101   4.371
    2MOL1    Cl 2368   3.579   3.296   5.338
    2MOL1     C 2369   3.610   3.206   5.189
    2MOL1    Cl 2370   3.478   3.227   5.074
    2MOL1    Cl 2371   3.764   3.256   5.117
    2MOL1     H 2372   3.617   3.099   5.214
    2MOL1    Cl 2373   1.078   2.719   1.422
    2MOL1     C 2374   0.939   2.745   1.529
    2MOL1    Cl 2375   0.823   2.612   1.513
    2MOL1    Cl 2376   0.991   2.763   1.697
    2MOL1     H 2377   0.889   2.838   1.498
    2MOL1    Cl 2378   4.443   1.277   0.346
    2MOL1     C 2379   4.355   1.126   0.320
    2MOL1    Cl 2380   4.394   1.058   0.160
    2MOL1    Cl 2381   4.393   1.009   0.448
    2MOL1     H 2382   4.248   1.147   0.323
    2MOL1    Cl 2383   2.930   0.765   3.466
    2MOL1     C 2384   3.083   0.853   3.478
    2MOL1    Cl 2385   3.063   1.003   3.570
    2MOL1    Cl 2386   3.208   0.751   3.552
    2MOL1     H 2387   3.116   0.879   3.377
    2MOL1    Cl 2388   4.232   1.234   5.005
    2MOL1     C 2389   4.313   1.381   4.949
    2MOL1    Cl 2390   4.435   1.342   4.826
    2MOL1    Cl 2391   4.195   1.496   4.884
    2MOL1     H 2392   4.363   1.427   5.034
    2MOL1    Cl 2393   4.641   2.028   3.860
    2MOL1     C 2394   4.768   2.148   3.831
    2MOL1    Cl 2395   4.902   2.076   3.740
    2MOL1    Cl 2396   4.703   2.288   3.744
    2MOL1     H 2397   4.806   2.182   3.927
    2MOL1    Cl 2398   3.432   0.583   3.763
    2MOL1     C 2399   3.385   0.731   3.848
    2MOL1    Cl 2400   3.527   0.831   3.884
    2MOL1    Cl 2401   3.267   0.823   3.751
    2MOL1     H 2402   3.337   0.703   3.942
    2MOL1    Cl 2403   3.734   3.646   1.576
    2MOL1     C 2404   3.858   3.764   1.623
    2MOL1    Cl 2405   3.825   3.827   1.785
    2MOL1    Cl 2406   4.019   3.691   1.616
    2MOL1     H 2407   3.854   3.847   1.552
    2MOL1    Cl 2408   0.670   0.263   1.314
    2MOL1     C 2409   0.538   0.164   1.378
    2MOL1    Cl 2410   0.417   0.132   1.252
    2MOL1    Cl 2411   0.600   0.011   1.443
    2MOL1     H 2412   0.490   0.219   1.459
    2MOL1    Cl 2413   2.014   3.910   3.659
    2MOL1     C 2414   2.173   3.981   3.690
    2MOL1    Cl 2415   2.201   3.998   3.864
    2MOL1    Cl 2416   2.300   3.883   3.616
    2MOL1     H 2417   2.176   4.081   3.645
    2MOL1    Cl 2418   4.549   3.765   1.395
    2MOL1     C 2419   4.520   3.938   1.371
    2MOL1    Cl 2420   4.643   4.008   1.265
    2MOL1    Cl 2421   4.358   3.966   1.305
    2MOL1     H 2422   4.526   3.988   1.469
    2MOL1    Cl 2423   3.081   4.315   4.474
    2MOL1     C 2424   3.159   4.382   4.618
    2MOL1    Cl 2425   3.121   4.284   4.761
    2MOL1    Cl 2426   3.335   4.392   4.595
    2MOL1     H 2427   3.121   4.483   4.634
    2MOL1    Cl 2428   2.184   1.973   4.849
    2MOL1     C 2429   2.061   1.859   4.794
    2MOL1    Cl 2430   2.117   1.692   4.816
    2MOL1    Cl 2431   1.908   1.885   4.880
    2MOL1     H 2432   2.044   1.875   4.687
    2MOL1    Cl 2433   1.500   3.589   2.037
    2MOL1     C 2434   1.575   3.463   2.137
    2MOL1    Cl 2435   1.621   3.528   2.295
    2MOL1    Cl 2436   1.464   3.325   2.157
    2MOL1     H 2437   1.665   3.427   2.087
    2MOL1    Cl 2438   1.722   0.185   1.686
    2MOL1     C 2439   1.848   0.152   1.566
    2MOL1    Cl 2440   1.792   0.032   1.448
    2MOL1    Cl 2441   1.896   0.301   1.484
    2MOL1     H 2442   1.935   0.111   1.618
    2MOL1    Cl 2443   4.326   4.521   3.730
    2MOL1     C 2444   4.231   4.375   3.764
    2MOL1    Cl 2445   4.240   4.263   3.627
    2MOL1    Cl 2446   4.288   4.297   3.912
    2MOL1     H 2447   4.127   4.404   3.778
    2MOL1    Cl 2448   0.642   1.066   3.643
    2MOL1     C 2449   0.703   0.997   3.794
    2MOL1    Cl 2450   0.844   1.088   3.852
    2MOL1    Cl 2451   0.576   0.993   3.918
    2MOL1     H 2452   0.735   0.894   3.774
    2MOL1    Cl 2453   1.857   4.400   0.726
    2MOL1     C 2454   1.691   4.462   0.721
    2MOL1    Cl 2455   1.676   4.591   0.600
    2MOL1    Cl 2456   1.576   4.332   0.687
    2MOL1     H 2457   1.667   4.504   0.819
    2MOL1    Cl 2458   3.899   0.751   3.314
    2MOL1     C 2459   3.821   0.910   3.309
    2MOL1    Cl 2460   3.664   0.900   3.228
    2MOL1    Cl 2461   3.803   0.977   3.472
    2MOL1     H 2462   3.886   0.977   3.251
    2MOL1    Cl 2463   0.252   4.699   4.130
    2MOL1     C 2464   0.162   4.620   3.999
    2MOL1    Cl 2465   0.151   4.726   3.858
    2MOL1    Cl 2466   0.238   4.466   3.956
    2MOL1     H 2467   0.061   4.599   4.035
    2MOL1    Cl 2468   4.319   1.791   5.274
    2MOL1     C 2469   4.407   1.687   5.161
    2MOL1    Cl 2470   4.560   1.762   5.114
    2MOL1    Cl 2471   4.435   1.527   5.231
    2MOL1     H 2472   4.346   1.675   5.071
    2MOL1    Cl 2473   0.458   0.570   2.601
    2MOL1     C 2474   0.505   0.679   2.732
    2MOL1    Cl 2475   0.362   0.755   2.804
    2MOL1    Cl 2476   0.598   0.593   2.855
    2MOL1     H 2477   0.568   0.758   2.690
    2MOL1    Cl 2478   0.398   2.056   1.981
    2MOL1     C 2479   0.520   2.105   2.099
    2MOL1    Cl 2480   0.444   2.182   2.239
    2MOL1    Cl 2481   0.617   1.966   2.150
    2MOL1     H 2482   0.587   2.178   2.052
    2MOL1    Cl 2483   3.686   2.183   1.828
    2MOL1     C 2484   3.668   2.185   1.652
    2MOL1    Cl 2485   3.661   2.351   1.592
    2MOL1    Cl 2486   3.801   2.096   1.575
    2MOL1     H 2487   3.574   2.135   1.627
    2MOL1    Cl 2488   2.551   0.774   4.394
    2MOL1     C 2489   2.668   0.904   4.363
    2MOL1    Cl 2490   2.602   1.061   4.411
    2MOL1    Cl 2491   2.820   0.871   4.448
    2MOL1     H 2492   2.689   0.906   4.256
    2MOL1    Cl 2493   4.534   2.640   4.892
    2MOL1     C 2494   4.662   2.529   4.943
    2MOL1    Cl 2495   4.768   2.606   5.061
    2MOL1    Cl 2496   4.592   2.380   5.009
    2MOL1     H 2497   4.721   2.503   4.855
    2MOL1    Cl 2498   3.944   0.878   2.791
    2MOL1     C 2499   3.819   0.777   2.866
    2MOL1    Cl 2500   3.699   0.726   2.746
    2MOL1    Cl 2501   3.892   0.636   2.944
    2MOL1     H 2502   3.769   0.836   2.943
    2MOL1    Cl 2503   3.320   2.165   3.428
    2MOL1     C 2504   3.223   2.102   3.294
    2MOL1    Cl 2505   3.051   2.135   3.322
    2MOL1    Cl 2506   3.276   2.172   3.140
    2MOL1     H 2507   3.237   1.994   3.289
    2MOL1    Cl 2508   3.605   1.604   1.578
    2MOL1     C 2509   3.759   1.654   1.508
    2MOL1    Cl 2510   3.797   1.556   1.365
    2MOL1    Cl 2511   3.757   1.826   1.467
    2MOL1     H 2512   3.838   1.638   1.582
    2MOL1    Cl 2513   0.493   3.610   1.586
    2MOL1     C 2514   0.447   3.439   1.586
    2MOL1    Cl 2515   0.555   3.346   1.692
    2MOL1    Cl 2516   0.278   3.420   1.638
    2MOL1     H 2517   0.456   3.400   1.485
    2MOL1    Cl 2518   2.554   3.908   4.567
    2MOL1     C 2519   2.457   3.788   4.653
    2MOL1    Cl 2520   2.400   3.662   4.543
    2MOL1    Cl 2521   2.549   3.717   4.787
    2MOL1     H 2522   2.369   3.839   4.695
    2MOL1    Cl 2523   2.088   1.571   2.034
    2MOL1     C 2524   1.963   1.565   1.909
    2MOL1    Cl 2525   1.852   1.702   1.924
    2MOL1    Cl 2526   2.037   1.562   1.748
    2MOL1     H 2527   1.906   1.472   1.922
    2MOL1    Cl 2528   4.749   2.586   0.352
    2MOL1     C 2529   4.579   2.540   0.333
    2MOL1    Cl 2530   4.533   2.540   0.162
    2MOL1    Cl 2531   4.549   2.381   0.406
    2MOL1     H 2532   4.517   2.614   0.385
    2MOL1    Cl 2533   3.275   4.655   3.616
    2MOL1     C 2534   3.107   4.609   3.583
    2MOL1    Cl 2535   3.101   4.478   3.464
    2MOL1    Cl 2536   3.025   4.561   3.732
    2MOL1     H 2537   3.055   4.696   3.541
    2MOL1    Cl 2538   5.103   3.742   5.325
    2MOL1     C 2539   5.060   3.853   5.194
    2MOL1    Cl 2540   4.996   3.764   5.055
    2MOL1    Cl 2541   4.941   3.972   5.251
    2MOL1     H 2542   5.150   3.907   5.163
    2MOL1    Cl 2543   1.152   2.833   3.301
    2MOL1     C 2544   1.210   2.670   3.339
    2MOL1    Cl 2545   1.204   2.641   3.514
    2MOL1    Cl 2546   1.114   2.548   3.252
    2MOL1     H 2547   1.314   2.661   3.306
    2MOL1    Cl 2548   2.355   2.627   1.320
    2MOL1     C 2549   2.514   2.568   1.268
    2MOL1    Cl 2550   2.643   2.661   1.345
    2MOL1    Cl 2551   2.531   2.395   1.306
    2MOL1     H 2552   2.521   2.580   1.160
    2MOL1    Cl 2553   0.185   3.706   3.674
    2MOL1     C 2554   0.109   3.566   3.598
    2MOL1    Cl 2555   0.039   3.610   3.442
    2MOL1    Cl 2556   0.227   3.434   3.579
    2MOL1     H 2557   0.029   3.530   3.664
    2MOL1    Cl 2558   2.584   4.794   3.177
    2MOL1     C 2559   2.464   4.817   3.305
    2MOL1    Cl 2560   2.526   4.924   3.431
    2MOL1    Cl 2561   2.313   4.881   3.238
    2MOL1     H 2562   2.443   4.720   3.349
    2MOL1    Cl 2563   5.168   2.704   4.241
    2MOL1     C 2564   4.993   2.708   4.215
    2MOL1    Cl 2565   4.949   2.837   4.102
    2MOL1    Cl 2566   4.936   2.551   4.155
    2MOL1     H 2567   4.944   2.727   4.311
    2MOL1    Cl 2568   2.438   2.148   3.561
    2MOL1     C 2569   2.580   2.253   3.574
    2MOL1    Cl 2570   2.623   2.278   3.744
    2MOL1    Cl 2571   2.717   2.184   3.485
    2MOL1     H 2572   2.556   2.350   3.530
    2MOL1    Cl 2573   1.950   1.140   4.100
    2MOL1     C 2574   1.949   0.966   4.063
    2MOL1    Cl 2575   1.889   0.874   4.202
    2MOL1    Cl 2576   1.851   0.934   3.919
    2MOL1     H 2577   2.052   0.935   4.043
    2MOL1    Cl 2578   0.983   0.308   1.021
    2MOL1     C 2579   0.934   0.359   0.858
    2MOL1    Cl 2580   0.771   0.427   0.860
    2MOL1    Cl 2581   1.050   0.476   0.792
    2MOL1     H 2582   0.934   0.271   0.793
    2MOL1    Cl 2583   4.239   1.366   3.537
    2MOL1     C 2584   4.167   1.438   3.682
    2MOL1    Cl 2585   4.039   1.552   3.638
    2MOL1    Cl 2586   4.105   1.312   3.790
    2MOL1     H 2587   4.246   1.494   3.735
    2MOL1    Cl 2588   3.028   4.949   3.419
    2MOL1     C 2589   3.201   4.971   3.392
    2MOL1    Cl 2590   3.245   5.142   3.400
    2MOL1    Cl 2591   3.295   4.877   3.509
    2MOL1     H 2592   3.225   4.934   3.292
    2MOL1    Cl 2593   2.244   2.412   2.967
    2MOL1     C 2594   2.205   2.557   3.061
    2MOL1    Cl 2595   2.035   2.600   3.041
    2MOL1    Cl 2596   2.244   2.532   3.232
    2MOL1     H 2597   2.266   2.640   3.024
    2MOL1    Cl 2598   1.335   0.586   5.199
    2MOL1     C 2599   1.454   0.713   5.231
    2MOL1    Cl 2600   1.386   0.836   5.339
    2MOL1    Cl 2601   1.602   0.644   5.300
    2MOL1     H 2602   1.479   0.761   5.136
    2MOL1    Cl 2603   2.107   4.344   4.396
    2MOL1     C 2604   2.245   4.452   4.424
    2MOL1    Cl 2605   2.397   4.370   4.383
    2MOL1    Cl 2606   2.227   4.601   4.329
    2MOL1     H 2607   2.247   4.478   4.529
    2MOL1    Cl 2608   0.839   3.914   5.093
    2MOL1     C 2609   0.793   3.744   5.073
    2MOL1    Cl 2610   0.762   3.668   5.230
    2MOL1    Cl 2611   0.650   3.730   4.968
    2MOL1     H 2612   0.876   3.691   5.025
    2MOL1    Cl 2613   5.105   3.198   1.773
    2MOL1     C 2614   5.087   3.056   1.877
    2MOL1    Cl 2615   5.169   2.916   1.806
    2MOL1    Cl 2616   5.150   3.089   2.039
    2MOL1     H 2617   4.980   3.033   1.886
    2MOL1    Cl 2618   3.358   1.136   3.450
    2MOL1     C 2619   3.352   1.168   3.624
    2MOL1    Cl 2620   3.511   1.145   3.698
    2MOL1    Cl 2621   3.291   1.332   3.655
    2MOL1     H 2622   3.282   1.096   3.670
    2MOL1    Cl 2623   1.615   0.260   1.194
    2MOL1     C 2624   1.522   0.111   1.220
    2MOL1    Cl 2625   1.610   0.002   1.329
    2MOL1    Cl 2626   1.362   0.149   1.286
    2MOL1     H 2627   1.510   0.061   1.124
    2MOL1    Cl 2628   2.703   3.063   3.803
    2MOL1     C 2629   2.754   2.932   3.912
    2MOL1    Cl 2630   2.807   2.791   3.819
    2MOL1    Cl 2631   2.882   2.988   4.020
    2MOL1     H 2632   2.668   2.903   3.972
    2MOL1    Cl 2633   5.131   3.434   1.099
    2MOL1     C 2634   5.092   3.343   1.245
    2MOL1    Cl 2635   5.239   3.280   1.321
    2MOL1    Cl 2636   5.001   3.443   1.359
    2MOL1     H 2637   5.029   3.258   1.217
    2MOL1    Cl 2638   1.751   0.330   0.106
    2MOL1     C 2639   1.898   0.264   0.179
    2MOL1    Cl 2640   1.989   0.392   0.262
    2MOL1    Cl 2641   1.859   0.133   0.292
    2MOL1     H 2642   1.960   0.224   0.099
    2MOL1    Cl 2643   1.038   1.809   2.982
    2MOL1     C 2644   1.111   1.967   3.012
    2MOL1    Cl 2645   1.021   2.055   3.137
    2MOL1    Cl 2646   1.281   1.950   3.058
    2MOL1     H 2647   1.107   2.025   2.919
    2MOL1    Cl 2648   2.857   3.832   2.461
    2MOL1     C 2649   2.688   3.882   2.470
    2MOL1    Cl 2650   2.580   3.743   2.447
    2MOL1    Cl 2651   2.654   3.962   2.624
    2MOL1     H 2652   2.669   3.954   2.389
    2MOL1    Cl 2653   1.649   0.511   2.960
    2MOL1     C 2654   1.518   0.622   2.915
    2MOL1    Cl 2655   1.584   0.768   2.840
    2MOL1    Cl 2656   1.403   0.542   2.806
    2MOL1     H 2657   1.465   0.651   3.006
    2MOL1    Cl 2658   5.162   4.896   2.835
    2MOL1     C 2659   5.058   5.029   2.782
    2MOL1    Cl 2660   5.069   5.051   2.606
    2MOL1    Cl 2661   4.890   5.000   2.830
    2MOL1     H 2662   5.092   5.121   2.830
    2MOL1    Cl 2663   2.739   3.869   3.052
    2MOL1     C 2664   2.679   3.895   3.217
    2MOL1    Cl 2665   2.592   3.752   3.275
    2MOL1    Cl 2666   2.812   3.936   3.326
    2MOL1     H 2667   2.609   3.979   3.215
    2MOL1    Cl 2668   4.992   4.912   0.157
    2MOL1     C 2669   4.968   5.072   0.229
    2MOL1    Cl 2670   4.802   5.091   0.287
    2MOL1    Cl 2671   5.084   5.098   0.361
    2MOL1     H 2672   4.987   5.148   0.152
    2MOL1    Cl 2673   0.354   1.824   3.366
    2MOL1     C 2674   0.423   1.889   3.515
    2MOL1    Cl 2675   0.597   1.918   3.495
    2MOL1    Cl 2676   0.340   2.038   3.563
    2MOL1     H 2677   0.409   1.815   3.594
    2MOL1    Cl 2678   4.703   0.388   4.758
    2MOL1     C 2679   4.627   0.507   4.864
    2MOL1    Cl 2680   4.601   0.440   5.026
    2MOL1    Cl 2681   4.724   0.655   4.872
    2MOL1     H 2682   4.529   0.533   4.821
    2MOL1    Cl 2683   4.227   2.560   2.478
    2MOL1     C 2684   4.301   2.413   2.542
    2MOL1    Cl 2685   4.420   2.348   2.427
    2MOL1    Cl 2686   4.377   2.445   2.699
    2MOL1     H 2687   4.223   2.338   2.556
    2MOL1    Cl 2688   3.574   4.564   1.539
    2MOL1     C 2689   3.500   4.664   1.665
    2MOL1    Cl 2690   3.355   4.746   1.602
    2MOL1    Cl 2691   3.459   4.566   1.807
    2MOL1     H 2692   3.572   4.740   1.695
    2MOL1    Cl 2693   5.081   5.064   0.648
    2MOL1     C 2694   5.162   5.170   0.765
    2MOL1    Cl 2695   5.336   5.141   0.766
    2MOL1    Cl 2696   5.127   5.340   0.729
    2MOL1     H 2697   5.122   5.147   0.864
    2MOL1    Cl 2698   4.141   5.215   0.269
    2MOL1     C 2699   3.973   5.158   0.267
    2MOL1    Cl 2700   3.876   5.253   0.154
    2MOL1    Cl 2701   3.967   4.986   0.225
    2MOL1     H 2702   3.932   5.170   0.368
    2MOL1    Cl 2703   0.809   5.237   2.373
    2MOL1     C 2704   0.644   5.179   2.400
    2MOL1    Cl 2705   0.599   5.060   2.276
    2MOL1    Cl 2706   0.627   5.109   2.561
    2MOL1     H 2707   0.576   5.264   2.392
    2MOL1    Cl 2708   2.980   5.030   4.363
    2MOL1     C 2709   2.866   5.165   4.378
    2MOL1    Cl 2710   2.734   5.122   4.488
    2MOL1    Cl 2711   2.949   5.311   4.435
    2MOL1     H 2712   2.824   5.186   4.280
    2MOL1    Cl 2713   4.294   4.097   1.912
    2MOL1     C 2714   4.437   4.189   1.860
    2MOL1    Cl 2715   4.508   4.117   1.715
    2MOL1    Cl 2716   4.395   4.359   1.831
    2MOL1     H 2717   4.511   4.185   1.940
    2MOL1    Cl 2718   3.113   3.715   4.860
    2MOL1     C 2719   3.278   3.709   4.925
    2MOL1    Cl 2720   3.333   3.542   4.940
    2MOL1    Cl 2721   3.388   3.803   4.822
    2MOL1     H 2722   3.277   3.754   5.024
    2MOL1    Cl 2723   2.594   0.471   4.320
    2MOL1     C 2724   2.754   0.515   4.381
    2MOL1    Cl 2725   2.741   0.626   4.518
    2MOL1    Cl 2726   2.846   0.370   4.426
    2MOL1     H 2727   2.808   0.566   4.300
    2MOL1    Cl 2728   3.458   3.474   1.771
    2MOL1     C 2729   3.354   3.336   1.812
    2MOL1    Cl 2730   3.412   3.255   1.959
    2MOL1    Cl 2731   3.186   3.390   1.832
    2MOL1     H 2732   3.357   3.265   1.730
    2MOL1    Cl 2733   0.313   2.959   3.621
    2MOL1     C 2734   0.154   3.009   3.681
    2MOL1    Cl 2735   0.134   3.185   3.663
    2MOL1    Cl 2736   0.025   2.923   3.595
    2MOL1     H 2737   0.147   2.984   3.787
    2MOL1    Cl 2738   1.643   3.763   3.055
    2MOL1     C 2739   1.495   3.845   3.107
    2MOL1    Cl 2740   1.442   3.784   3.265
    2MOL1    Cl 2741   1.521   4.021   3.114
    2MOL1     H 2742   1.417   3.825   3.034
    2MOL1    Cl 2743   2.820   4.380   1.824
    2MOL1     C 2744   2.799   4.209   1.781
    2MOL1    Cl 2745   2.927   4.156   1.671
    2MOL1    Cl 2746   2.796   4.108   1.927
    2MOL1     H 2747   2.703   4.198   1.730
    2MOL1    Cl 2748   5.228   1.767   3.065
    2MOL1     C 2749   5.147   1.651   2.958
    2MOL1    Cl 2750   5.039   1.546   3.051
    2MOL1    Cl 2751   5.058   1.736   2.831
    2MOL1     H 2752   5.224   1.589   2.912
    2MOL1    Cl 2753   4.220   3.431   2.884
    2MOL1     C 2754   4.274   3.402   3.050
    2MOL1    Cl 2755   4.161   3.472   3.166
    2MOL1    Cl 2756   4.294   3.228   3.079
    2MOL1     H 2757   4.372   3.450   3.063
    2MOL1    Cl 2758   2.708   5.086   2.729
    2MOL1     C 2759   2.733   4.929   2.651
    2MOL1    Cl 2760   2.763   4.949   2.477
    2MOL1    Cl 2761   2.868   4.842   2.727
    2MOL1     H 2762   2.643   4.869   2.664
    2MOL1    Cl 2763   3.138   3.052   2.325
    2MOL1     C 2764   3.113   3.221   2.374
    2MOL1    Cl 2765   2.957   3.240   2.455
    2MOL1    Cl 2766   3.245   3.274   2.479
    2MOL1     H 2767   3.114   3.283   2.284
    2MOL1    Cl 2768   2.078   3.406   4.218
    2MOL1     C 2769   1.936   3.495   4.161
    2MOL1    Cl 2770   1.798   3.386   4.142
    2MOL1    Cl 2771   1.897   3.627   4.273
    2MOL1     H 2772   1.960   3.538   4.063
    2MOL1    Cl 2773   5.005   1.987   0.508
    2MOL1     C 2774   4.902   1.857   0.571
    2MOL1    Cl 2775   4.731   1.892   0.542
    2MOL1    Cl 2776   4.947   1.702   0.499
    2MOL1     H 2777   4.918   1.850   0.679
    2MOL1    Cl 2778   2.147   2.994   2.197
    2MOL1     C 2779   2.090   3.067   2.046
    2MOL1    Cl 2780   2.223   3.083   1.930
    2MOL1    Cl 2781   1.957   2.972   1.977
    2MOL1     H 2782   2.052   3.167   2.069
    2MOL1    Cl 2783   2.025   0.775   4.950
    2MOL1     C 2784   1.994   0.946   4.980
    2MOL1    Cl 2785   2.096   1.047   4.876
    2MOL1    Cl 2786   1.823   0.984   4.954
    2MOL1     H 2787   2.019   0.968   5.084
    2MOL1    Cl 2788   0.238   5.157   4.152
    2MOL1     C 2789   0.300   5.100   3.996
    2MOL1    Cl 2790   0.466   5.155   3.972
    2MOL1    Cl 2791   0.290   4.924   3.986
    2MOL1     H 2792   0.238   5.143   3.917
    2MOL1    Cl 2793   1.565   4.613   1.766
    2MOL1     C 2794   1.690   4.497   1.718
    2MOL1    Cl 2795   1.639   4.405   1.575
    2MOL1    Cl 2796   1.843   4.581   1.686
    2MOL1     H 2797   1.706   4.427   1.800
    2MOL1    Cl 2798   4.830   0.788   4.161
    2MOL1     C 2799   4.875   0.955   4.200
    2MOL1    Cl 2800   4.775   1.016   4.334
    2MOL1    Cl 2801   5.047   0.965   4.242
    2MOL1     H 2802   4.857   1.017   4.112
    2MOL1    Cl 2803   2.408   3.135   0.209
    2MOL1     C 2804   2.326   3.272   0.286
    2MOL1    Cl 2805   2.233   3.363   0.166
    2MOL1    Cl 2806   2.220   3.216   0.416
    2MOL1     H 2807   2.401   3.338   0.329
    2MOL1    Cl 2808   2.737   4.057   1.512
    2MOL1     C 2809   2.812   4.150   1.381
    2MOL1    Cl 2810   2.833   4.049   1.237
    2MOL1    Cl 2811   2.715   4.293   1.343
    2MOL1     H 2812   2.911   4.183   1.414
    2MOL1    Cl 2813   1.604   0.688   3.915
    2MOL1     C 2814   1.595   0.864   3.916
    2MOL1    Cl 2815   1.427   0.919   3.903
    2MOL1    Cl 2816   1.671   0.930   4.062
    2MOL1     H 2817   1.650   0.902   3.829
    2MOL1    Cl 2818   1.481   0.970   2.946
    2MOL1     C 2819   1.586   1.072   2.846
    2MOL1    Cl 2820   1.503   1.222   2.802
    2MOL1    Cl 2821   1.737   1.107   2.930
    2MOL1     H 2822   1.609   1.017   2.754
    2MOL1    Cl 2823   2.154   3.120   3.517
    2MOL1     C 2824   1.997   3.197   3.489
    2MOL1    Cl 2825   2.012   3.330   3.372
    2MOL1    Cl 2826   1.878   3.078   3.433
    2MOL1     H 2827   1.961   3.239   3.584
    2MOL1    Cl 2828   3.857   4.336   2.858
    2MOL1     C 2829   3.806   4.265   3.012
    2MOL1    Cl 2830   3.907   4.324   3.145
    2MOL1    Cl 2831   3.635   4.300   3.044
    2MOL1     H 2832   3.818   4.156   3.006
    2MOL1    Cl 2833   2.513   5.137   0.564
    2MOL1     C 2834   2.659   5.112   0.467
    2MOL1    Cl 2835   2.754   4.977   0.531
    2MOL1    Cl 2836   2.616   5.083   0.298
    2MOL1     H 2837   2.720   5.202   0.472
    2MOL1    Cl 2838   1.701   3.736   3.966
    2MOL1     C 2839   1.660   3.822   4.115
    2MOL1    Cl 2840   1.571   3.971   4.079
    2MOL1    Cl 2841   1.566   3.718   4.224
    2MOL1     H 2842   1.753   3.849   4.166
    2MOL1    Cl 2843   2.481   2.181   1.235
    2MOL1     C 2844   2.348   2.217   1.346
    2MOL1    Cl 2845   2.315   2.392   1.349
    2MOL1    Cl 2846   2.202   2.127   1.301
    2MOL1     H 2847   2.377   2.187   1.447
    2MOL1    Cl 2848   2.951   0.030   3.689
    2MOL1     C 2849   3.073   0.117   3.783
    2MOL1    Cl 2850   3.009   0.272   3.840
    2MOL1    Cl 2851   3.128   0.019   3.920
    2MOL1     H 2852   3.158   0.137   3.718
    2MOL1    Cl 2853   2.137   1.307   1.994
    2MOL1     C 2854   2.033   1.286   2.135
    2MOL1    Cl 2855   1.871   1.351   2.104
    2MOL1    Cl 2856   2.023   1.114   2.180
    2MOL1     H 2857   2.077   1.340   2.219
    2MOL1    Cl 2858   2.311   2.794   0.473
    2MOL1     C 2859   2.316   2.931   0.360
    2MOL1    Cl 2860   2.455   2.918   0.252
    2MOL1    Cl 2861   2.165   2.940   0.268
    2MOL1     H 2862   2.326   3.023   0.418
    2MOL1    Cl 2863   3.683   2.509   4.299
    2MOL1     C 2864   3.522   2.541   4.366
    2MOL1    Cl 2865   3.461   2.399   4.452
    2MOL1    Cl 2866   3.526   2.682   4.473
    2MOL1     H 2867   3.455   2.563   4.283
    2MOL1    Cl 2868   0.551   0.424   1.949
    2MOL1     C 2869   0.707   0.362   2.005
    2MOL1    Cl 2870   0.697   0.312   2.175
    2MOL1    Cl 2871   0.761   0.227   1.903
    2MOL1     H 2872   0.781   0.442   1.997
    2MOL1    Cl 2873   4.416   4.783   0.725
    2MOL1     C 2874   4.280   4.862   0.806
    2MOL1    Cl 2875   4.322   5.029   0.849
    2MOL1    Cl 2876   4.136   4.859   0.704
    2MOL1     H 2877   4.259   4.807   0.898
    2MOL1    Cl 2878   0.320   4.357   1.275
    2MOL1     C 2879   0.243   4.321   1.119
    2MOL1    Cl 2880   0.148   4.459   1.063
    2MOL1    Cl 2881   0.366   4.276   0.999
    2MOL1     H 2882   0.176   4.236   1.132
    2MOL1    Cl 2883   2.229   2.537   3.796
    2MOL1     C 2884   2.239   2.360   3.794
    2MOL1    Cl 2885   2.394   2.306   3.862
    2MOL1    Cl 2886   2.104   2.289   3.884
    2MOL1     H 2887   2.233   2.326   3.691
    2MOL1    Cl 2888   0.783   4.084   1.323
    2MOL1     C 2889   0.622   4.068   1.251
    2MOL1    Cl 2890   0.509   3.995   1.366
    2MOL1    Cl 2891   0.562   4.225   1.196
    2MOL1     H 2892   0.630   4.002   1.164
    2MOL1    Cl 2893   1.432   3.843   0.227
    2MOL1     C 2894   1.491   3.818   0.391
    2MOL1    Cl 2895   1.627   3.926   0.426
    2MOL1    Cl 2896   1.360   3.842   0.509
    2MOL1     H 2897   1.526   3.715   0.400
    2MOL1    Cl 2898   3.043   2.017   2.532
    2MOL1     C 2899   3.200   2.093   2.563
    2MOL1    Cl 2900   3.297   2.099   2.415
    2MOL1    Cl 2901   3.178   2.256   2.629
    2MOL1     H 2902   3.253   2.033   2.637
    2MOL1    Cl 2903   1.925   2.887   2.453
    2MOL1     C 2904   1.930   2.727   2.530
    2MOL1    Cl 2905   1.839   2.729   2.682
    2MOL1    Cl 2906   1.866   2.603   2.420
    2MOL1     H 2907   2.034   2.703   2.552
    2MOL1    Cl 2908   3.459   5.001   2.008
    2MOL1     C 2909   3.406   5.144   2.098
    2MOL1    Cl 2910   3.230   5.143   2.120
    2MOL1    Cl 2911   3.488   5.154   2.255
    2MOL1     H 2912   3.433   5.233   2.040
    2MOL1    Cl 2913   0.937   2.649   4.451
    2MOL1     C 2914   1.047   2.514   4.422
    2MOL1    Cl 2915   0.987   2.413   4.289
    2MOL1    Cl 2916   1.210   2.573   4.386
    2MOL1     H 2917   1.052   2.453   4.512
    2MOL1    Cl 2918   4.487   3.847   4.872
    2MOL1     C 2919   4.635   3.895   4.958
    2MOL1    Cl 2920   4.778   3.839   4.870
    2MOL1    Cl 2921   4.639   4.071   4.980
    2MOL1     H 2922   4.634   3.848   5.056
    2MOL1    Cl 2923   4.822   1.760   4.235
    2MOL1     C 2924   4.933   1.882   4.172
    2MOL1    Cl 2925   4.990   1.836   4.011
    2MOL1    Cl 2926   4.855   2.041   4.167
    2MOL1     H 2927   5.019   1.888   4.239
    2MOL1    Cl 2928   4.087   2.469   2.748
    2MOL1     C 2929   4.090   2.300   2.800
    2MOL1    Cl 2930   4.017   2.196   2.677
    2MOL1    Cl 2931   4.256   2.248   2.835
    2MOL1     H 2932   4.031   2.291   2.892
    2MOL1    Cl 2933   1.466   2.830   5.022
    2MOL1     C 2934   1.469   2.835   5.199
    2MOL1    Cl 2935   1.304   2.850   5.263
    2MOL1    Cl 2936   1.548   2.690   5.263
    2MOL1     H 2937   1.526   2.922   5.230
    2MOL1    Cl 2938   3.622   1.988   3.165
    2MOL1     C 2939   3.657   2.158   3.131
    2MOL1    Cl 2940   3.630   2.257   3.276
    2MOL1    Cl 2941   3.823   2.177   3.073
    2MOL1     H 2942   3.588   2.192   3.053
    2MOL1    Cl 2943   2.866   4.795   0.961
    2MOL1     C 2944   2.735   4.885   1.039
    2MOL1    Cl 2945   2.599   4.907   0.927
    2MOL1    Cl 2946   2.681   4.802   1.186
    2MOL1     H 2947   2.773   4.984   1.067
    2MOL1    Cl 2948   1.557   3.745   0.966
    2MOL1     C 2949   1.675   3.850   0.885
    2MOL1    Cl 2950   1.742   3.769   0.742
    2MOL1    Cl 2951   1.601   4.005   0.840
    2MOL1     H 2952   1.756   3.870   0.955
    2MOL1    Cl 2953   5.025   3.267   5.000
    2MOL1     C 2954   5.077   3.222   5.163
    2MOL1    Cl 2955   4.943   3.152   5.255
    2MOL1    Cl 2956   5.213   3.109   5.155
    2MOL1     H 2957   5.111   3.313   5.214
    2MOL1    Cl 2958   2.989   4.867   3.116
    2MOL1     C 2959   2.935   5.034   3.094
    2MOL1    Cl 2960   2.946   5.081   2.923
    2MOL1    Cl 2961   2.769   5.054   3.153
    2MOL1     H 2962   3.000   5.100   3.152
    2MOL1    Cl 2963   4.924   3.955   3.648
    2MOL1     C 2964   4.779   3.853   3.655
    2MOL1    Cl 2965   4.641   3.937   3.582
    2MOL1    Cl 2966   4.807   3.698   3.574
    2MOL1     H 2967   4.755   3.834   3.760
    2MOL1    Cl 2968   1.628   1.116   3.121
    2MOL1     C 2969   1.600   0.953   3.186
    2MOL1    Cl 2970   1.695   0.928   3.333
    2MOL1    Cl 2971   1.428   0.927   3.218
    2MOL1     H 2972   1.632   0.880   3.111
    2MOL1    Cl 2973   3.413   2.833   4.679
    2MOL1     C 2974   3.306   2.694   4.657
    2MOL1    Cl 2975   3.179   2.731   4.539
    2MOL1    Cl 2976   3.398   2.551   4.606
    2MOL1     H 2977   3.258   2.671   4.753
    2MOL1    Cl 2978   2.335   4.131   0.511
    2MOL1     C 2979   2.409   4.265   0.600
    2MOL1    Cl 2980   2.306   4.313   0.736
    2MOL1    Cl 2981   2.570   4.220   0.657
    2MOL1     H 2982   2.418   4.351   0.533
    2MOL1    Cl 2983   3.327   1.478   0.371
    2MOL1     C 2984   3.237   1.603   0.283
    2MOL1    Cl 2985   3.212   1.553   0.114
    2MOL1    Cl 2986   3.082   1.636   0.362
    2MOL1     H 2987   3.296   1.695   0.283
    2MOL1    Cl 2988   2.484   1.922   4.104
    2MOL1     C 2989   2.413   1.764   4.070
    2MOL1    Cl 2990   2.272   1.735   4.174
    2MOL1    Cl 2991   2.367   1.752   3.899
    2MOL1     H 2992   2.487   1.687   4.091
    2MOL1    Cl 2993   1.288   0.800   2.666
    2MOL1     C 2994   1.296   0.976   2.692
    2MOL1    Cl 2995   1.306   1.061   2.537
    2MOL1    Cl 2996   1.156   1.031   2.785
    2MOL1     H 2997   1.386   0.998   2.749
    2MOL1    Cl 2998   2.892   4.481   5.140
    2MOL1     C 2999   2.822   4.319   5.127
    2MOL1    Cl 3000   2.648   4.328   5.093
    2MOL1    Cl 3001   2.905   4.226   5.001
    2MOL1     H 3002   2.836   4.267   5.222
    2MOL1    Cl 3003   2.344   4.424   1.756
    2MOL1     C 3004   2.328   4.596   1.714
    2MOL1    Cl 3005   2.464   4.647   1.612
    2MOL1    Cl 3006   2.174   4.626   1.631
    2MOL1     H 3007   2.330   4.654   1.806
    2MOL1    Cl 3008   0.953   2.643   5.030
    2MOL1     C 3009   0.975   2.516   5.151
    2MOL1    Cl 3010   0.916   2.361   5.088
    2MOL1    Cl 3011   1.145   2.504   5.199
    2MOL1     H 3012   0.915   2.542   5.239
    2MOL1    Cl 3013   1.757   1.094   1.701
    2MOL1     C 3014   1.707   1.183   1.846
    2MOL1    Cl 3015   1.530   1.189   1.857
    2MOL1    Cl 3016   1.776   1.109   1.992
    2MOL1     H 3017   1.745   1.285   1.838
    2MOL1    Cl 3018   0.606   3.748   3.698
    2MOL1     C 3019   0.506   3.606   3.664
    2MOL1    Cl 3020   0.476   3.590   3.491
    2MOL1    Cl 3021   0.584   3.460   3.728
    2MOL1     H 3022   0.410   3.618   3.715
    2MOL1    Cl 3023   0.260   0.086   3.954
    2MOL1     C 3024   0.238   0.180   3.806
    2MOL1    Cl 3025   0.394   0.241   3.747
    2MOL1    Cl 3026   0.158   0.083   3.682
    2MOL1     H 3027   0.174   0.266   3.830
    2MOL1    Cl 3028   4.152   5.125   3.413
    2MOL1     C 3029   4.274   5.209   3.316
    2MOL1    Cl 3030   4.395   5.094   3.255
    2MOL1    Cl 3031   4.198   5.295   3.181
    2MOL1     H 3032   4.325   5.282   3.379
    2MOL1    Cl 3033   3.154   4.048   1.658
    2MOL1     C 3034   3.277   4.048   1.530
    2MOL1    Cl 3035   3.439   4.038   1.599
    2MOL1    Cl 3036   3.249   3.914   1.417
    2MOL1     H 3037   3.268   4.142   1.474
    2MOL1    Cl 3038   4.579   4.160   3.853
    2MOL1     C 3039   4.602   4.331   3.891
    2MOL1    Cl 3040   4.557   4.365   4.058
    2MOL1    Cl 3041   4.770   4.379   3.860
    2MOL1     H 3042   4.537   4.390   3.825
    2MOL1    Cl 3043   0.799   3.931   0.310
    2MOL1     C 3044   0.971   3.892   0.311
    2MOL1    Cl 3045   1.065   4.027   0.378
    2MOL1    Cl 3046   1.002   3.744   0.402
    2MOL1     H 3047   1.003   3.876   0.207
    2MOL1    Cl 3048   5.139   2.197   5.016
    2MOL1     C 3049   5.095   2.337   5.116
    2MOL1    Cl 3050   5.227   2.378   5.226
    2MOL1    Cl 3051   5.053   2.476   5.014
    2MOL1     H 3052   5.008   2.310   5.176
    2MOL1    Cl 3053   0.913   5.014   2.418
    2MOL1     C 3054   1.023   5.102   2.526
    2MOL1    Cl 3055   1.191   5.084   2.472
    2MOL1    Cl 3056   0.978   5.273   2.535
    2MOL1     H 3057   1.014   5.059   2.626
    2MOL1    Cl 3058   1.147   1.331   4.186
    2MOL1     C 3059   0.999   1.238   4.215
    2MOL1    Cl 3060   0.861   1.313   4.134
    2MOL1    Cl 3061   1.019   1.070   4.162
    2MOL1     H 3062   0.979   1.237   4.323
    2MOL1    Cl 3063   4.067   2.781   4.163
    2MOL1     C 3064   3.920   2.693   4.205
    2MOL1    Cl 3065   3.960   2.534   4.273
    2MOL1    Cl 3066   3.822   2.786   4.320
    2MOL1     H 3067   3.861   2.678   4.114
    2MOL1    Cl 3068   2.314   3.441   5.338
    2MOL1     C 3069   2.306   3.519   5.180
    2MOL1    Cl 3070   2.271   3.400   5.053
    2MOL1    Cl 3071   2.184   3.648   5.180
    2MOL1     H 3072   2.403   3.564   5.158
    2MOL1    Cl 3073   1.129   0.563   0.982
    2MOL1     C 3074   1.300   0.599   0.951
    2MOL1    Cl 3075   1.323   0.773   0.928
    2MOL1    Cl 3076   1.401   0.540   1.084
    2MOL1     H 3077   1.330   0.548   0.859
    2MOL1    Cl 3078   0.539   3.718   0.639
    2MOL1     C 3079   0.405   3.655   0.541
    2MOL1    Cl 3080   0.419   3.479   0.524
    2MOL1    Cl 3081   0.249   3.698   0.613
    2MOL1     H 3082   0.411   3.700   0.442
    2MOL1    Cl 3083   3.342   1.631   3.522
    2MOL1     C 3084   3.211   1.717   3.439
    2MOL1    Cl 3085   3.213   1.681   3.265
    2MOL1    Cl 3086   3.054   1.676   3.509
    2MOL1     H 3087   3.228   1.825   3.452
    2MOL1    Cl 3088   2.856   4.661   0.493
    2MOL1     C 3089   2.835   4.758   0.347
    2MOL1    Cl 3090   2.845   4.656   0.202
    2MOL1    Cl 3091   2.681   4.846   0.351
    2MOL1     H 3092   2.916   4.832   0.342
    2MOL1    Cl 3093   3.736   3.394   3.307
    2MOL1     C 3094   3.701   3.515   3.431
    2MOL1    Cl 3095   3.774   3.671   3.389
    2MOL1    Cl 3096   3.526   3.533   3.454
    2MOL1     H 3097   3.745   3.481   3.526
    2MOL1    Cl 3098   2.882   3.723   0.908
    2MOL1     C 3099   2.902   3.893   0.953
    2MOL1    Cl 3100   2.767   3.947   1.053
    2MOL1    Cl 3101   3.056   3.917   1.037
    2MOL1     H 3102   2.903   3.953   0.861
    2MOL1    Cl 3103   4.493   4.477   1.313
    2MOL1     C 3104   4.442   4.391   1.167
    2MOL1    Cl 3105   4.582   4.333   1.076
    2MOL1    Cl 3106   4.334   4.256   1.209
    2MOL1     H 3107   4.386   4.461   1.104
    2MOL1    Cl 3108   4.478   2.974   0.213
    2MOL1     C 3109   4.627   3.070   0.213
    2MOL1    Cl 3110   4.764   2.973   0.158
    2MOL1    Cl 3111   4.608   3.214   0.112
    2MOL1     H 3112   4.647   3.102   0.315
    2MOL1    Cl 3113   2.995   1.178   2.235
    2MOL1     C 3114   2.914   1.024   2.272
    2MOL1    Cl 3115   2.783   0.994   2.156
    2MOL1    Cl 3116   3.030   0.891   2.271
    2MOL1     H 3117   2.870   1.032   2.372
    2MOL1    Cl 3118   3.363   4.456   2.945
    2MOL1     C 3119   3.440   4.612   2.975
    2MOL1    Cl 3120   3.340   4.712   3.081
    2MOL1    Cl 3121   3.602   4.590   3.044
    2MOL1     H 3122   3.451   4.664   2.879
    2MOL1    Cl 3123   3.569   3.465   3.983
    2MOL1     C 3124   3.735   3.501   3.936
    2MOL1    Cl 3125   3.830   3.352   3.923
    2MOL1    Cl 3126   3.739   3.590   3.783
    2MOL1     H 3127   3.780   3.564   4.013
    2MOL1    Cl 3128   4.073   0.185   0.259
    2MOL1     C 3129   4.181   0.317   0.212
    2MOL1    Cl 3130   4.307   0.259   0.102
    2MOL1    Cl 3131   4.089   0.449   0.137
    2MOL1     H 3132   4.229   0.356   0.302
    2MOL1    Cl 3133   3.270   3.009   3.421
    2MOL1     C 3134   3.277   3.175   3.481
    2MOL1    Cl 3135   3.432   3.250   3.440
    2MOL1    Cl 3136   3.143   3.271   3.417
    2MOL1     H 3137   3.269   3.172   3.590
    2MOL1    Cl 3138   0.700   2.769   1.987
    2MOL1     C 3139   0.659   2.618   1.904
    2MOL1    Cl 3140   0.483   2.595   1.901
    2MOL1    Cl 3141   0.725   2.618   1.739
    2MOL1     H 3142   0.704   2.535   1.959
    2MOL1    Cl 3143   5.031   4.273   3.059
    2MOL1     C 3144   5.201   4.304   3.017
    2MOL1    Cl 3145   5.275   4.413   3.135
    2MOL1    Cl 3146   5.291   4.153   3.007
    2MOL1     H 3147   5.203   4.353   2.919
    2MOL1    Cl 3148   2.436   3.399   1.521
    2MOL1     C 3149   2.264   3.430   1.551
    2MOL1    Cl 3150   2.207   3.336   1.689
    2MOL1    Cl 3151   2.236   3.603   1.578
    2MOL1     H 3152   2.208   3.400   1.463
    2MOL1    Cl 3153   5.061   1.433   2.597
    2MOL1     C 3154   5.055   1.380   2.429
    2MOL1    Cl 3155   5.186   1.266   2.394
    2MOL1    Cl 3156   4.898   1.306   2.392
    2MOL1     H 3157   5.067   1.467   2.364
    2MOL1    Cl 3158   4.179   3.105   3.848
    2MOL1     C 3159   4.179   3.117   4.024
    2MOL1    Cl 3160   4.210   2.959   4.098
    2MOL1    Cl 3161   4.299   3.236   4.079
    2MOL1     H 3162   4.080   3.151   4.056
    2MOL1    Cl 3163   1.726   3.558   3.590
    2MOL1     C 3164   1.598   3.573   3.468
    2MOL1    Cl 3165   1.606   3.439   3.352
    2MOL1    Cl 3166   1.439   3.579   3.545
    2MOL1     H 3167   1.613   3.666   3.413
    2MOL1    Cl 3168   2.436   3.110   2.632
    2MOL1     C 3169   2.486   3.278   2.654
    2MOL1    Cl 3170   2.630   3.287   2.759
    2MOL1    Cl 3171   2.519   3.355   2.498
    2MOL1     H 3172   2.405   3.332   2.703
    2MOL1    Cl 3173   1.893   3.024   0.168
    2MOL1     C 3174   1.900   2.849   0.146
    2MOL1    Cl 3175   1.774   2.794   0.035
    2MOL1    Cl 3176   2.060   2.801   0.087
    2MOL1     H 3177   1.884   2.801   0.243
    2MOL1    Cl 3178   4.747   0.925   3.004
    2MOL1     C 3179   4.823   0.811   2.891
    2MOL1    Cl 3180   4.706   0.756   2.770
    2MOL1    Cl 3181   4.963   0.886   2.812
    2MOL1     H 3182   4.857   0.724   2.948
    2MOL1    Cl 3183   4.851   1.930   1.384
    2MOL1     C 3184   4.879   2.048   1.255
    2MOL1    Cl 3185   4.767   2.184   1.270
    2MOL1    Cl 3186   5.047   2.104   1.256
    2MOL1     H 3187   4.860   1.998   1.159
    2MOL1    Cl 3188   3.049   3.963   0.331
    2MOL1     C 3189   3.210   3.991   0.401
    2MOL1    Cl 3190   3.334   3.991   0.275
    2MOL1    Cl 3191   3.213   4.143   0.492
    2MOL1     H 3192   3.231   3.909   0.470
    2MOL1    Cl 3193   2.672   4.224   3.633
    2MOL1     C 3194   2.729   4.060   3.597
    2MOL1    Cl 3195   2.618   3.979   3.485
    2MOL1    Cl 3196   2.893   4.065   3.530
    2MOL1     H 3197   2.731   4.004   3.690
    2MOL1    Cl 3198   2.209   4.538   2.218
    2MOL1     C 3199   2.037   4.580   2.214
    2MOL1    Cl 3200   1.949   4.490   2.339
    2MOL1    Cl 3201   2.015   4.754   2.236
    2MOL1     H 3202   1.997   4.551   2.117
    2MOL1    Cl 3203   1.684   1.586   0.645
    2MOL1     C 3204   1.597   1.735   0.685
    2MOL1    Cl 3205   1.710   1.857   0.747
    2MOL1    Cl 3206   1.510   1.796   0.544
    2MOL1     H 3207   1.524   1.712   0.764
    2MOL1    Cl 3208   0.383   2.836   4.480
    2MOL1     C 3209   0.246   2.826   4.369
    2MOL1    Cl 3210   0.294   2.749   4.217
    2MOL1    Cl 3211   0.112   2.738   4.444
    2MOL1     H 3212   0.212   2.928   4.347
    2MOL1    Cl 3213   0.315   1.558   4.733
    2MOL1     C 3214   0.488   1.564   4.698
    2MOL1    Cl 3215   0.580   1.489   4.830
    2MOL1    Cl 3216   0.524   1.484   4.544
    2MOL1     H 3217   0.518   1.669   4.691
    2MOL1    Cl 3218   4.833   2.975   0.690
    2MOL1     C 3219   5.006   2.937   0.694
    2MOL1    Cl 3220   5.032   2.762   0.700
    2MOL1    Cl 3221   5.088   3.007   0.553
    2MOL1     H 3222   5.049   2.982   0.784
    2MOL1    Cl 3223   2.145   4.322   4.684
    2MOL1     C 3224   2.220   4.209   4.798
    2MOL1    Cl 3225   2.294   4.297   4.932
    2MOL1    Cl 3226   2.100   4.093   4.858
    2MOL1     H 3227   2.298   4.154   4.745
    2MOL1    Cl 3228   3.076   3.517   3.428
    2MOL1     C 3229   3.068   3.464   3.260
    2MOL1    Cl 3230   3.053   3.603   3.151
    2MOL1    Cl 3231   3.210   3.367   3.218
    2MOL1     H 3232   2.979   3.401   3.248
    2MOL1    Cl 3233   2.875   4.410   0.287
    2MOL1     C 3234   3.042   4.423   0.345
    2MOL1    Cl 3235   3.149   4.318   0.251
    2MOL1    Cl 3236   3.098   4.591   0.336
    2MOL1     H 3237   3.045   4.391   0.449
    2MOL1    Cl 3238   3.413   4.610   0.481
    2MOL1     C 3239   3.397   4.434   0.466
    2MOL1    Cl 3240   3.541   4.352   0.529
    2MOL1    Cl 3241   3.252   4.378   0.551
    2MOL1     H 3242   3.387   4.409   0.360
    2MOL1    Cl 3243   2.372   3.933   1.037
    2MOL1     C 3244   2.439   3.769   1.024
    2MOL1    Cl 3245   2.560   3.741   1.151
    2MOL1    Cl 3246   2.310   3.648   1.033
    2MOL1     H 3247   2.489   3.760   0.927
    2MOL1    Cl 3248   3.992   4.060   3.727
    2MOL1     C 3249   4.091   3.915   3.745
    2MOL1    Cl 3250   4.244   3.953   3.825
    2MOL1    Cl 3251   4.003   3.790   3.835
    2MOL1     H 3252   4.113   3.876   3.645
    2MOL1    Cl 3253   5.273   4.639   4.256
    2MOL1     C 3254   5.200   4.791   4.200
    2MOL1    Cl 3255   5.072   4.843   4.312
    2MOL1    Cl 3256   5.323   4.917   4.184
    2MOL1     H 3257   5.155   4.773   4.102
    2MOL1    Cl 3258   4.216   0.497   3.585
    2MOL1     C 3259   4.189   0.323   3.568
    2MOL1    Cl 3260   4.033   0.277   3.639
    2MOL1    Cl 3261   4.196   0.275   3.398
    2MOL1     H 3262   4.268   0.270   3.622
    2MOL1    Cl 3263   2.379   2.515   3.490
    2MOL1     C 3264   2.455   2.674   3.469
    2MOL1    Cl 3265   2.358   2.800   3.549
    2MOL1    Cl 3266   2.620   2.673   3.533
    2MOL1     H 3267   2.459   2.697   3.363
    2MOL1    Cl 3268   4.932   4.783   2.656
    2MOL1     C 3269   5.059   4.664   2.690
    2MOL1    Cl 3270   5.105   4.669   2.861
    2MOL1    Cl 3271   5.007   4.501   2.644
    2MOL1     H 3272   5.147   4.690   2.630
    2MOL1    Cl 3273   2.537   0.800   2.034
    2MOL1     C 3274   2.365   0.831   2.062
    2MOL1    Cl 3275   2.298   0.711   2.174
    2MOL1    Cl 3276   2.340   0.995   2.123
    2MOL1     H 3277   2.313   0.822   1.966
    2MOL1    Cl 3278   0.419   2.385   2.988
    2MOL1     C 3279   0.258   2.353   3.056
    2MOL1    Cl 3280   0.176   2.226   2.964
    2MOL1    Cl 3281   0.270   2.309   3.227
    2MOL1     H 3282   0.199   2.445   3.048
    2MOL1    Cl 3283   1.205   4.197   1.127
    2MOL1     C 3284   1.093   4.062   1.103
    2MOL1    Cl 3285   1.182   3.912   1.071
    2MOL1    Cl 3286   0.987   4.043   1.243
    2MOL1     H 3287   1.031   4.084   1.015
    2MOL1    Cl 3288   2.471   3.124   0.550
    2MOL1     C 3289   2.618   3.078   0.637
    2MOL1    Cl 3290   2.713   3.221   0.679
    2MOL1    Cl 3291   2.577   2.984   0.782
    2MOL1     H 3292   2.678   3.015   0.571
    2MOL1    Cl 3293   0.724   0.676   0.993
    2MOL1     C 3294   0.636   0.652   0.841
    2MOL1    Cl 3295   0.533   0.508   0.851
    2MOL1    Cl 3296   0.539   0.795   0.802
    2MOL1     H 3297   0.708   0.636   0.761
    2MOL1    Cl 3298   5.114   2.033   3.287
    2MOL1     C 3299   5.012   2.176   3.262
    2MOL1    Cl 3300   5.092   2.291   3.153
    2MOL1    Cl 3301   4.854   2.130   3.197
    2MOL1     H 3302   4.997   2.225   3.358
    2MOL1    Cl 3303   2.593   1.163   3.465
    2MOL1     C 3304   2.531   1.001   3.498
    2MOL1    Cl 3305   2.644   0.910   3.600
    2MOL1    Cl 3306   2.371   1.010   3.575
    2MOL1     H 3307   2.520   0.948   3.403
    2MOL1    Cl 3308   5.210   1.019   2.387
    2MOL1     C 3309   5.102   1.013   2.247
    2MOL1    Cl 3310   5.114   0.858   2.164
    2MOL1    Cl 3311   4.934   1.044   2.297
    2MOL1     H 3312   5.132   1.092   2.177
    2MOL1    Cl 3313   4.079   0.548   4.554
    2MOL1     C 3314   3.903   0.529   4.551
    2MOL1    Cl 3315   3.840   0.505   4.715
    2MOL1    Cl 3316   3.826   0.669   4.475
    2MOL1     H 3317   3.880   0.440   4.492
    2MOL1    Cl 3318   5.142   1.033   5.066
    2MOL1     C 3319   5.104   0.860   5.071
    2MOL1    Cl 3320   5.232   0.772   5.156
    2MOL1    Cl 3321   4.947   0.834   5.149
    2MOL1     H 3322   5.098   0.823   4.968
    2MOL1    Cl 3323   2.750   0.580   1.420
    2MOL1     C 3324   2.913   0.578   1.489
    2MOL1    Cl 3325   2.927   0.698   1.619
    2MOL1    Cl 3326   2.953   0.416   1.549
    2MOL1     H 3327   2.984   0.604   1.410
    2MOL1    Cl 3328   2.060   1.490   3.752
    2MOL1     C 3329   2.097   1.342   3.841
    2MOL1    Cl 3330   1.956   1.234   3.844
    2MOL1    Cl 3331   2.237   1.260   3.771
    2MOL1     H 3332   2.121   1.369   3.944
    2MOL1    Cl 3333   3.441   1.400   2.312
    2MOL1     C 3334   3.500   1.402   2.145
    2MOL1    Cl 3335   3.609   1.538   2.119
    2MOL1    Cl 3336   3.581   1.249   2.106
    2MOL1     H 3337   3.414   1.413   2.078
    2MOL1    Cl 3338   3.930   2.267   4.300
    2MOL1     C 3339   3.863   2.112   4.353
    2MOL1    Cl 3340   3.893   2.087   4.526
    2MOL1    Cl 3341   3.690   2.104   4.318
    2MOL1     H 3342   3.913   2.032   4.298
    2MOL1    Cl 3343   1.504   2.174   4.314
    2MOL1     C 3344   1.434   2.337   4.311
    2MOL1    Cl 3345   1.483   2.423   4.165
    2MOL1    Cl 3346   1.258   2.329   4.324
    2MOL1     H 3347   1.473   2.392   4.398
    2MOL1    Cl 3348   1.084   0.584   1.923
    2MOL1     C 3349   1.124   0.470   2.053
    2MOL1    Cl 3350   0.995   0.350   2.072
    2MOL1    Cl 3351   1.279   0.391   2.021
    2MOL1     H 3352   1.133   0.527   2.146
    2MOL1    Cl 3353   3.059   0.423   4.088
    2MOL1     C 3354   3.189   0.340   4.175
    2MOL1    Cl 3355   3.344   0.420   4.146
    2MOL1    Cl 3356   3.153   0.333   4.348
    2MOL1     H 3357   3.195   0.237   4.137
    2MOL1    Cl 3358   3.415   2.818   0.234
    2MOL1     C 3359   3.543   2.925   0.293
    2MOL1    Cl 3360   3.599   2.873   0.453
    2MOL1    Cl 3361   3.678   2.931   0.178
    2MOL1     H 3362   3.501   3.026   0.303
    2MOL1    Cl 3363   4.093   3.285   0.111
    2MOL1     C 3364   4.242   3.215   0.176
    2MOL1    Cl 3365   4.284   3.067   0.089
    2MOL1    Cl 3366   4.374   3.332   0.167
    2MOL1     H 3367   4.225   3.190   0.281
  5.5400000  5.5400000  5.5400000
