FOO
 3543
    1MOP     C1    1   2.896   2.367   3.001
    1MOP     O2    2   2.780   2.371   2.960
    1MOP     C3    3   2.938   2.473   3.096
    1MOP     C4    4   3.056   2.460   3.172
    1MOP     C5    5   3.093   2.559   3.263
    1MOP     C6    6   3.015   2.674   3.281
    1MOP     C7    7   3.050   2.775   3.384
    1MOP     C8    8   3.043   2.915   3.363
    1MOP     C9    9   3.065   3.001   3.472
    1MOP    C10   10   3.095   2.955   3.599
    1MOP    O11   11   3.113   3.050   3.697
    1MOP    C12   12   3.098   3.009   3.834
    1MOP    C13   13   3.107   2.817   3.618
    1MOP    C14   14   3.083   2.728   3.513
    1MOP    C15   15   3.021   2.978   3.231
    1MOP    C16   16   2.927   3.082   3.217
    1MOP    C17   17   2.913   3.147   3.094
    1MOP    C18   18   2.993   3.111   2.985
    1MOP    C19   19   3.088   3.008   2.997
    1MOP    C20   20   3.098   2.941   3.120
    1MOP    C21   21   3.184   2.971   2.885
    1MOP    N22   22   3.128   2.981   2.750
    1MOP    C23   23   3.318   3.042   2.903
    1MOP    C24   24   2.899   2.688   3.204
    1MOP    C25   25   2.861   2.590   3.113
    1MOP    H26   26   3.119   2.372   3.160
    1MOP    H27   27   3.184   2.546   3.321
    1MOP    H28   28   3.059   3.109   3.458
    1MOP    H29   29   3.097   3.101   3.891
    1MOP    H30   30   3.185   2.947   3.857
    1MOP    H31   31   3.003   2.955   3.840
    1MOP    H32   32   3.131   2.775   3.715
    1MOP    H33   33   3.087   2.622   3.532
    1MOP    H34   34   2.867   3.112   3.301
    1MOP    H35   35   2.841   3.227   3.083
    1MOP    H36   36   2.981   3.164   2.892
    1MOP    H37   37   3.171   2.861   3.131
    1MOP    H38   38   3.206   2.865   2.897
    1MOP    H39   39   3.083   2.896   2.714
    1MOP    H40   40   3.296   3.149   2.912
    1MOP    H41   41   3.378   3.017   2.816
    1MOP    H42   42   3.360   3.002   2.996
    1MOP    H43   43   2.836   2.775   3.216
    1MOP    H44   44   2.771   2.604   3.054
    2MOP    C45   45   3.118   3.086   2.661
    2MOP    O46   46   3.058   3.057   2.559
    2MOP    C47   47   3.156   3.227   2.680
    2MOP    C48   48   3.290   3.271   2.676
    2MOP    C49   49   3.320   3.407   2.691
    2MOP    C50   50   3.218   3.502   2.708
    2MOP    C51   51   3.249   3.644   2.733
    2MOP    C52   52   3.177   3.751   2.673
    2MOP    C53   53   3.204   3.883   2.714
    2MOP    C54   54   3.299   3.912   2.811
    2MOP    O55   55   3.317   4.044   2.844
    2MOP    C56   56   3.356   4.073   2.979
    2MOP    C57   57   3.372   3.806   2.867
    2MOP    C58   58   3.347   3.675   2.828
    2MOP    C59   59   3.073   3.732   2.571
    2MOP    C60   60   2.943   3.781   2.594
    2MOP    C61   61   2.841   3.757   2.503
    2MOP    C62   62   2.867   3.686   2.386
    2MOP    C63   63   2.997   3.640   2.357
    2MOP    C64   64   3.099   3.663   2.451
    2MOP    C65   65   3.027   3.564   2.229
    2MOP    N66   66   2.979   3.428   2.256
    2MOP    C67   67   2.963   3.636   2.109
    2MOP    C68   68   3.085   3.457   2.708
    2MOP    C69   69   3.055   3.322   2.693
    2MOP    H70   70   3.370   3.199   2.660
    2MOP    H71   71   3.424   3.438   2.690
    2MOP    H72   72   3.150   3.965   2.669
    2MOP    H73   73   3.339   4.181   2.990
    2MOP    H74   74   3.462   4.047   2.987
    2MOP    H75   75   3.291   4.014   3.044
    2MOP    H76   76   3.448   3.824   2.942
    2MOP    H77   77   3.402   3.595   2.877
    2MOP    H78   78   2.921   3.834   2.686
    2MOP    H79   79   2.740   3.792   2.523
    2MOP    H80   80   2.786   3.666   2.317
    2MOP    H81   81   3.199   3.626   2.433
    2MOP    H82   82   3.135   3.561   2.214
    2MOP    H83   83   2.972   3.402   2.354
    2MOP    H84   84   2.857   3.610   2.109
    2MOP    H85   85   3.016   3.601   2.021
    2MOP    H86   86   2.980   3.743   2.125
    2MOP    H87   87   3.004   3.527   2.722
    2MOP    H88   88   2.951   3.292   2.693
    3MOP    C89   89   2.945   3.326   2.170
    3MOP    O90   90   2.913   3.223   2.228
    3MOP    C91   91   2.934   3.333   2.024
    3MOP    C92   92   3.046   3.355   1.942
    3MOP    C93   93   3.030   3.366   1.804
    3MOP    C94   94   2.904   3.354   1.744
    3MOP    C95   95   2.886   3.374   1.599
    3MOP    C96   96   2.805   3.290   1.518
    3MOP    C97   97   2.784   3.324   1.384
    3MOP    C98   98   2.843   3.437   1.326
    3MOP    O99   99   2.813   3.460   1.193
    3MOP   C100  100   2.856   3.583   1.134
    3MOP   C101  101   2.928   3.515   1.405
    3MOP   C102  102   2.948   3.484   1.539
    3MOP   C103  103   2.744   3.165   1.566
    3MOP   C104  104   2.608   3.137   1.544
    3MOP   C105  105   2.553   3.016   1.587
    3MOP   C106  106   2.633   2.921   1.651
    3MOP   C107  107   2.769   2.946   1.673
    3MOP   C108  108   2.823   3.068   1.631
    3MOP   C109  109   2.861   2.845   1.739
    3MOP   N110  110   2.858   2.857   1.884
    3MOP   C111  111   2.844   2.701   1.688
    3MOP   C112  112   2.793   3.329   1.827
    3MOP   C113  113   2.809   3.317   1.965
    3MOP   H114  114   3.145   3.365   1.986
    3MOP   H115  115   3.118   3.384   1.742
    3MOP   H116  116   2.722   3.261   1.321
    3MOP   H117  117   2.814   3.582   1.033
    3MOP   H118  118   2.965   3.582   1.134
    3MOP   H119  119   2.814   3.664   1.195
    3MOP   H120  120   2.977   3.603   1.364
    3MOP   H121  121   3.011   3.550   1.599
    3MOP   H122  122   2.545   3.210   1.495
    3MOP   H123  123   2.448   2.996   1.570
    3MOP   H124  124   2.588   2.828   1.684
    3MOP   H125  125   2.928   3.089   1.648
    3MOP   H126  126   2.963   2.872   1.709
    3MOP   H127  127   2.947   2.879   1.929
    3MOP   H128  128   2.744   2.667   1.714
    3MOP   H129  129   2.922   2.643   1.739
    3MOP   H130  130   2.860   2.706   1.580
    3MOP   H131  131   2.694   3.320   1.783
    3MOP   H132  132   2.722   3.296   2.027
    4MOP   C133  133   2.762   2.807   1.970
    4MOP   O134  134   2.654   2.766   1.928
    4MOP   C135  135   2.801   2.785   2.109
    4MOP   C136  136   2.883   2.876   2.177
    4MOP   C137  137   2.930   2.848   2.305
    4MOP   C138  138   2.897   2.728   2.369
    4MOP   C139  139   2.955   2.696   2.502
    4MOP   C140  140   2.881   2.646   2.612
    4MOP   C141  141   2.950   2.616   2.731
    4MOP   C142  142   3.088   2.631   2.744
    4MOP   O143  143   3.144   2.597   2.865
    4MOP   C144  144   3.283   2.563   2.868
    4MOP   C145  145   3.160   2.681   2.634
    4MOP   C146  146   3.094   2.713   2.516
    4MOP   C147  147   2.734   2.622   2.609
    4MOP   C148  148   2.682   2.502   2.660
    4MOP   C149  149   2.545   2.475   2.653
    4MOP   C150  150   2.459   2.567   2.594
    4MOP   C151  151   2.507   2.689   2.545
    4MOP   C152  152   2.645   2.715   2.554
    4MOP   C153  153   2.416   2.792   2.482
    4MOP   N154  154   2.385   2.760   2.342
    4MOP   C155  155   2.294   2.828   2.568
    4MOP   C156  156   2.812   2.638   2.303
    4MOP   C157  157   2.763   2.667   2.175
    4MOP   H158  158   2.912   2.970   2.130
    4MOP   H159  159   2.994   2.920   2.355
    4MOP   H160  160   2.894   2.580   2.816
    4MOP   H161  161   3.299   2.520   2.967
    4MOP   H162  162   3.338   2.656   2.854
    4MOP   H163  163   3.300   2.490   2.788
    4MOP   H164  164   3.267   2.695   2.639
    4MOP   H165  165   3.152   2.750   2.432
    4MOP   H166  166   2.748   2.428   2.704
    4MOP   H167  167   2.506   2.382   2.692
    4MOP   H168  168   2.353   2.543   2.587
    4MOP   H169  169   2.684   2.809   2.516
    4MOP   H170  170   2.474   2.885   2.477
    4MOP   H171  171   2.427   2.820   2.272
    4MOP   H172  172   2.237   2.736   2.583
    4MOP   H173  173   2.238   2.902   2.510
    4MOP   H174  174   2.335   2.868   2.661
    4MOP   H175  175   2.785   2.544   2.350
    4MOP   H176  176   2.699   2.595   2.125
    5MOP   C177  177   2.287   2.674   2.295
    5MOP   O178  178   2.225   2.599   2.370
    5MOP   C179  179   2.246   2.689   2.155
    5MOP   C180  180   2.338   2.728   2.056
    5MOP   C181  181   2.295   2.756   1.926
    5MOP   C182  182   2.159   2.746   1.890
    5MOP   C183  183   2.113   2.788   1.756
    5MOP   C184  184   2.012   2.723   1.680
    5MOP   C185  185   1.971   2.779   1.558
    5MOP   C186  186   2.025   2.897   1.508
    5MOP   O187  187   1.975   2.942   1.388
    5MOP   C188  188   2.006   3.076   1.347
    5MOP   C189  189   2.126   2.960   1.581
    5MOP   C190  190   2.170   2.906   1.702
    5MOP   C191  191   1.947   2.596   1.722
    5MOP   C192  192   1.808   2.583   1.718
    5MOP   C193  193   1.746   2.464   1.761
    5MOP   C194  194   1.824   2.359   1.808
    5MOP   C195  195   1.964   2.369   1.812
    5MOP   C196  196   2.024   2.488   1.768
    5MOP   C197  197   2.053   2.257   1.862
    5MOP   N198  198   2.066   2.261   2.007
    5MOP   C199  199   2.018   2.119   1.804
    5MOP   C200  200   2.069   2.703   1.989
    5MOP   C201  201   2.112   2.672   2.118
    5MOP   H202  202   2.444   2.738   2.079
    5MOP   H203  203   2.370   2.786   1.853
    5MOP   H204  204   1.894   2.730   1.499
    5MOP   H205  205   1.946   3.093   1.258
    5MOP   H206  206   2.113   3.077   1.326
    5MOP   H207  207   1.977   3.142   1.429
    5MOP   H208  208   2.173   3.051   1.546
    5MOP   H209  209   2.247   2.959   1.757
    5MOP   H210  210   1.746   2.665   1.684
    5MOP   H211  211   1.638   2.454   1.759
    5MOP   H212  212   1.775   2.268   1.843
    5MOP   H213  213   2.132   2.497   1.770
    5MOP   H214  214   2.153   2.277   1.823
    5MOP   H215  215   2.156   2.292   2.044
    5MOP   H216  216   1.917   2.093   1.835
    5MOP   H217  217   2.093   2.050   1.845
    5MOP   H218  218   2.026   2.130   1.695
    5MOP   H219  219   1.963   2.694   1.965
    5MOP   H220  220   2.039   2.640   2.193
    6MOP   C221  221   1.982   2.205   2.101
    6MOP   O222  222   1.871   2.161   2.072
    6MOP   C223  223   2.035   2.182   2.235
    6MOP   C224  224   2.108   2.281   2.304
    6MOP   C225  225   2.162   2.254   2.430
    6MOP   C226  226   2.145   2.128   2.491
    6MOP   C227  227   2.207   2.096   2.621
    6MOP   C228  228   2.143   2.020   2.723
    6MOP   C229  229   2.217   1.982   2.836
    6MOP   C230  230   2.350   2.020   2.855
    6MOP   O231  231   2.412   1.979   2.970
    6MOP   C232  232   2.533   2.045   3.009
    6MOP   C233  233   2.410   2.099   2.756
    6MOP   C234  234   2.340   2.137   2.642
    6MOP   C235  235   2.000   1.985   2.719
    6MOP   C236  236   1.957   1.852   2.728
    6MOP   C237  237   1.821   1.821   2.727
    6MOP   C238  238   1.726   1.923   2.718
    6MOP   C239  239   1.766   2.058   2.710
    6MOP   C240  240   1.904   2.086   2.708
    6MOP   C241  241   1.666   2.171   2.705
    6MOP   N242  242   1.605   2.178   2.572
    6MOP   C243  243   1.574   2.172   2.828
    6MOP   C244  244   2.073   2.030   2.421
    6MOP   C245  245   2.019   2.057   2.296
    6MOP   H246  246   2.124   2.379   2.261
    6MOP   H247  247   2.218   2.332   2.481
    6MOP   H248  248   2.169   1.924   2.914
    6MOP   H249  249   2.553   2.011   3.111
    6MOP   H250  250   2.514   2.153   3.005
    6MOP   H251  251   2.610   2.013   2.938
    6MOP   H252  252   2.513   2.132   2.765
    6MOP   H253  253   2.391   2.196   2.566
    6MOP   H254  254   2.030   1.773   2.736
    6MOP   H255  255   1.789   1.718   2.734
    6MOP   H256  256   1.620   1.899   2.718
    6MOP   H257  257   1.938   2.189   2.701
    6MOP   H258  258   1.723   2.264   2.714
    6MOP   H259  259   1.665   2.212   2.498
    6MOP   H260  260   1.516   2.080   2.826
    6MOP   H261  261   1.513   2.262   2.818
    6MOP   H262  262   1.641   2.177   2.914
    6MOP   H263  263   2.062   1.931   2.464
    6MOP   H264  264   1.966   1.978   2.243
    7MOP   C265  265   1.478   2.141   2.529
    7MOP   O266  266   1.395   2.096   2.608
    7MOP   C267  267   1.437   2.174   2.391
    7MOP   C268  268   1.531   2.209   2.292
    7MOP   C269  269   1.488   2.250   2.164
    7MOP   C270  270   1.352   2.256   2.132
    7MOP   C271  271   1.306   2.311   2.002
    7MOP   C272  272   1.195   2.261   1.928
    7MOP   C273  273   1.152   2.330   1.814
    7MOP   C274  274   1.215   2.445   1.768
    7MOP   O275  275   1.163   2.502   1.654
    7MOP   C276  276   1.205   2.634   1.618
    7MOP   C277  277   1.327   2.492   1.838
    7MOP   C278  278   1.371   2.426   1.953
    7MOP   C279  279   1.121   2.139   1.964
    7MOP   C280  280   0.983   2.145   1.988
    7MOP   C281  281   0.911   2.030   2.022
    7MOP   C282  282   0.977   1.907   2.029
    7MOP   C283  283   1.114   1.897   2.003
    7MOP   C284  284   1.185   2.015   1.971
    7MOP   C285  285   1.186   1.764   2.007
    7MOP   N286  286   1.212   1.724   2.145
    7MOP   C287  287   1.122   1.657   1.918
    7MOP   C288  288   1.260   2.218   2.230
    7MOP   C289  289   1.301   2.176   2.356
    7MOP   H290  290   1.638   2.207   2.311
    7MOP   H291  291   1.564   2.277   2.091
    7MOP   H292  292   1.067   2.292   1.758
    7MOP   H293  293   1.142   2.662   1.533
    7MOP   H294  294   1.311   2.628   1.592
    7MOP   H295  295   1.185   2.697   1.705
    7MOP   H296  296   1.381   2.580   1.806
    7MOP   H297  297   1.455   2.468   2.007
    7MOP   H298  298   0.932   2.241   1.984
    7MOP   H299  299   0.805   2.035   2.042
    7MOP   H300  300   0.920   1.818   2.056
    7MOP   H301  301   1.291   2.010   1.950
    7MOP   H302  302   1.285   1.781   1.963
    7MOP   H303  303   1.302   1.751   2.184
    7MOP   H304  304   1.018   1.645   1.947
    7MOP   H305  305   1.181   1.566   1.935
    7MOP   H306  306   1.132   1.695   1.816
    7MOP   H307  307   1.153   2.223   2.209
    7MOP   H308  308   1.225   2.149   2.429
    8MOP   C309  309   1.128   1.656   2.232
    8MOP   O310  310   1.017   1.620   2.195
    8MOP   C311  311   1.175   1.621   2.368
    8MOP   C312  312   1.283   1.687   2.429
    8MOP   C313  313   1.327   1.650   2.557
    8MOP   C314  314   1.267   1.544   2.627
    8MOP   C315  315   1.319   1.499   2.759
    8MOP   C316  316   1.240   1.449   2.867
    8MOP   C317  317   1.305   1.403   2.983
    8MOP   C318  318   1.444   1.403   2.998
    8MOP   O319  319   1.495   1.353   3.116
    8MOP   C320  320   1.637   1.337   3.128
    8MOP   C321  321   1.521   1.454   2.892
    8MOP   C322  322   1.459   1.501   2.776
    8MOP   C323  323   1.091   1.442   2.867
    8MOP   C324  324   1.026   1.325   2.910
    8MOP   C325  325   0.886   1.315   2.905
    8MOP   C326  326   0.810   1.422   2.856
    8MOP   C327  327   0.873   1.540   2.814
    8MOP   C328  328   1.013   1.548   2.821
    8MOP   C329  329   0.795   1.657   2.757
    8MOP   N330  330   0.765   1.636   2.615
    8MOP   C331  331   0.675   1.701   2.842
    8MOP   C332  332   1.159   1.479   2.564
    8MOP   C333  333   1.112   1.519   2.440
    8MOP   H334  334   1.334   1.770   2.379
    8MOP   H335  335   1.408   1.706   2.602
    8MOP   H336  336   1.247   1.367   3.067
    8MOP   H337  337   1.652   1.291   3.226
    8MOP   H338  338   1.680   1.437   3.122
    8MOP   H339  339   1.667   1.271   3.046
    8MOP   H340  340   1.629   1.457   2.897
    8MOP   H341  341   1.523   1.536   2.696
    8MOP   H342  342   1.084   1.240   2.945
    8MOP   H343  343   0.837   1.224   2.937
    8MOP   H344  344   0.702   1.411   2.849
    8MOP   H345  345   1.062   1.639   2.788
    8MOP   H346  346   0.862   1.743   2.759
    8MOP   H347  347   0.838   1.662   2.549
    8MOP   H348  348   0.605   1.618   2.847
    8MOP   H349  349   0.634   1.789   2.790
    8MOP   H350  350   0.716   1.726   2.940
    8MOP   H351  351   1.110   1.396   2.614
    8MOP   H352  352   1.026   1.468   2.397
    9CAP   C353  353   2.949   2.183   2.862
    9CAP   O354  354   2.988   2.273   2.967
    9CAP   H355  355   2.863   2.127   2.899
    9CAP   H356  356   3.036   2.119   2.845
    9CAP   H357  357   2.926   2.245   2.774
   10CAP   C358  358   0.611   1.535   2.199
   10CAP   C359  359   0.571   1.495   2.342
   10CAP   C360  360   0.425   1.539   2.365
   10CAP   C361  361   0.586   1.342   2.356
   10CAP   O362  362   0.666   1.566   2.424
   10CAP   C363  363   0.664   1.561   2.559
   10CAP   O364  364   0.581   1.504   2.628
   10CAP   H365  365   0.548   1.477   2.131
   10CAP   H366  366   0.593   1.642   2.191
   10CAP   H367  367   0.717   1.510   2.189
   10CAP   H368  368   0.425   1.648   2.364
   10CAP   H369  369   0.394   1.498   2.462
   10CAP   H370  370   0.366   1.497   2.283
   10CAP   H371  371   0.691   1.320   2.336
   10CAP   H372  372   0.556   1.316   2.458
   10CAP   H373  373   0.519   1.298   2.282
   11TCM     c1  374   4.185   0.527   2.578
   11TCM    cl1  375   4.289   0.519   2.432
   11TCM    cl2  376   4.057   0.651   2.555
   11TCM     h1  377   4.140   0.430   2.596
   11TCM    cl3  378   4.286   0.573   2.720
   12TCM     c1  379   1.628   2.549   4.369
   12TCM    cl1  380   1.508   2.442   4.290
   12TCM    cl2  381   1.581   2.720   4.343
   12TCM     h1  382   1.631   2.528   4.476
   12TCM    cl3  383   1.790   2.520   4.298
   13TCM     c1  384   1.582   2.205   0.900
   13TCM    cl1  385   1.460   2.076   0.926
   13TCM    cl2  386   1.693   2.155   0.768
   13TCM     h1  387   1.531   2.297   0.871
   13TCM    cl3  388   1.675   2.231   1.051
   14TCM     c1  389   2.711   0.409   3.617
   14TCM    cl1  390   2.782   0.408   3.452
   14TCM    cl2  391   2.841   0.422   3.739
   14TCM     h1  392   2.643   0.494   3.627
   14TCM    cl3  393   2.621   0.257   3.644
   15TCM     c1  394   2.271   1.571   2.727
   15TCM    cl1  395   2.136   1.480   2.653
   15TCM    cl2  396   2.223   1.622   2.892
   15TCM     h1  397   2.360   1.509   2.732
   15TCM    cl3  398   2.304   1.717   2.628
   16TCM     c1  399   0.015   1.296   4.921
   16TCM    cl1  400   0.055   1.391   4.774
   16TCM    cl2  401   0.135   1.333   5.049
   16TCM     h1  402  -0.085   1.323   4.956
   16TCM    cl3  403   0.021   1.121   4.881
   17TCM     c1  404   2.751   0.629   2.490
   17TCM    cl1  405   2.684   0.767   2.395
   17TCM    cl2  406   2.696   0.475   2.416
   17TCM     h1  407   2.860   0.634   2.489
   17TCM    cl3  408   2.691   0.640   2.659
   18TCM     c1  409   3.473   3.845   4.215
   18TCM    cl1  410   3.402   3.963   4.100
   18TCM    cl2  411   3.505   3.926   4.372
   18TCM     h1  412   3.402   3.762   4.230
   18TCM    cl3  413   3.626   3.780   4.148
   19TCM     c1  414   0.398   3.956   3.287
   19TCM    cl1  415   0.252   3.884   3.361
   19TCM    cl2  416   0.467   3.842   3.167
   19TCM     h1  417   0.372   4.050   3.237
   19TCM    cl3  418   0.519   3.988   3.415
   20TCM     c1  419   3.850   1.137   2.644
   20TCM    cl1  420   3.955   1.247   2.739
   20TCM    cl2  421   3.952   1.014   2.562
   20TCM     h1  422   3.778   1.087   2.709
   20TCM    cl3  423   3.764   1.232   2.519
   21TCM     c1  424   4.965   2.962   4.173
   21TCM    cl1  425   4.949   2.846   4.309
   21TCM    cl2  426   5.137   2.970   4.122
   21TCM     h1  427   4.904   2.928   4.089
   21TCM    cl3  428   4.911   3.124   4.226
   22TCM     c1  429   0.494   2.591   1.398
   22TCM    cl1  430   0.422   2.659   1.547
   22TCM    cl2  431   0.364   2.551   1.282
   22TCM     h1  432   0.562   2.664   1.353
   22TCM    cl3  433   0.585   2.442   1.439
   23TCM     c1  434   1.641   1.954   2.042
   23TCM    cl1  435   1.510   1.865   2.127
   23TCM    cl2  436   1.571   2.040   1.901
   23TCM     h1  437   1.686   2.027   2.110
   23TCM    cl3  438   1.765   1.838   1.986
   24TCM     c1  439   4.396   4.272   0.486
   24TCM    cl1  440   4.521   4.382   0.554
   24TCM    cl2  441   4.471   4.115   0.444
   24TCM     h1  442   4.318   4.255   0.561
   24TCM    cl3  443   4.325   4.346   0.339
   25TCM     c1  444   2.486   4.869   3.739
   25TCM    cl1  445   2.354   4.756   3.782
   25TCM    cl2  446   2.496   4.996   3.864
   25TCM     h1  447   2.581   4.815   3.733
   25TCM    cl3  448   2.450   4.946   3.580
   26TCM     c1  449   2.745   1.607   2.763
   26TCM    cl1  450   2.859   1.622   2.625
   26TCM    cl2  451   2.647   1.458   2.742
   26TCM     h1  452   2.802   1.601   2.857
   26TCM    cl3  453   2.637   1.750   2.767
   27TCM     c1  454   0.783   2.889   4.745
   27TCM    cl1  455   0.955   2.880   4.795
   27TCM    cl2  456   0.760   2.802   4.590
   27TCM     h1  457   0.720   2.844   4.822
   27TCM    cl3  458   0.737   3.061   4.722
   28TCM     c1  459   4.371   3.322   2.053
   28TCM    cl1  460   4.471   3.430   1.950
   28TCM    cl2  461   4.211   3.398   2.080
   28TCM     h1  462   4.358   3.226   2.003
   28TCM    cl3  463   4.453   3.297   2.211
   29TCM     c1  464   0.245   3.754   4.440
   29TCM    cl1  465   0.124   3.623   4.453
   29TCM    cl2  466   0.211   3.880   4.563
   29TCM     h1  467   0.345   3.714   4.457
   29TCM    cl3  468   0.237   3.827   4.276
   30TCM     c1  469   2.187   1.197   3.275
   30TCM    cl1  470   2.256   1.299   3.145
   30TCM    cl2  471   2.243   1.027   3.255
   30TCM     h1  472   2.221   1.235   3.372
   30TCM    cl3  473   2.008   1.202   3.268
   31TCM     c1  474   1.088   1.980   2.690
   31TCM    cl1  475   1.191   1.883   2.801
   31TCM    cl2  476   0.944   2.039   2.780
   31TCM     h1  477   1.145   2.064   2.651
   31TCM    cl3  478   1.030   1.879   2.554
   32TCM     c1  479   3.088   4.463   4.767
   32TCM    cl1  480   3.216   4.499   4.646
   32TCM    cl2  481   3.039   4.292   4.751
   32TCM     h1  482   3.126   4.481   4.867
   32TCM    cl3  483   2.947   4.570   4.736
   33TCM     c1  484   2.591   2.288   2.142
   33TCM    cl1  485   2.495   2.369   2.013
   33TCM    cl2  486   2.549   2.361   2.300
   33TCM     h1  487   2.566   2.181   2.144
   33TCM    cl3  488   2.767   2.306   2.109
   34TCM     c1  489   2.849   2.129   4.836
   34TCM    cl1  490   2.813   2.021   4.974
   34TCM    cl2  491   2.988   2.235   4.877
   34TCM     h1  492   2.874   2.069   4.748
   34TCM    cl3  493   2.705   2.230   4.801
   35TCM     c1  494   0.115   0.010   1.142
   35TCM    cl1  495   0.087  -0.167   1.158
   35TCM    cl2  496   0.074   0.092   1.297
   35TCM     h1  497   0.220   0.028   1.118
   35TCM    cl3  498   0.012   0.075   1.011
   36TCM     c1  499   3.066   0.504   1.046
   36TCM    cl1  500   3.052   0.325   1.042
   36TCM    cl2  501   2.938   0.572   1.151
   36TCM     h1  502   3.164   0.532   1.085
   36TCM    cl3  503   3.049   0.569   0.879
   37TCM     c1  504   3.860   3.139   1.814
   37TCM    cl1  505   3.905   2.971   1.769
   37TCM    cl2  506   3.930   3.179   1.974
   37TCM     h1  507   3.899   3.208   1.739
   37TCM    cl3  508   3.681   3.153   1.822
   38TCM     c1  509   1.032   0.973   3.490
   38TCM    cl1  510   0.853   0.964   3.492
   38TCM    cl2  511   1.098   0.864   3.616
   38TCM     h1  512   1.070   0.943   3.392
   38TCM    cl3  513   1.084   1.142   3.524
   39TCM     c1  514   0.659   0.159   4.155
   39TCM    cl1  515   0.771   0.203   4.288
   39TCM    cl2  516   0.623  -0.016   4.165
   39TCM     h1  517   0.567   0.217   4.163
   39TCM    cl3  518   0.738   0.192   3.997
   40TCM     c1  519   2.641   3.587   3.173
   40TCM    cl1  520   2.753   3.518   3.294
   40TCM    cl2  521   2.675   3.762   3.153
   40TCM     h1  522   2.654   3.535   3.077
   40TCM    cl3  523   2.473   3.564   3.231
   41TCM     c1  524   0.408   0.915   2.365
   41TCM    cl1  525   0.239   0.866   2.396
   41TCM    cl2  526   0.482   0.799   2.249
   41TCM     h1  527   0.410   1.015   2.322
   41TCM    cl3  528   0.500   0.912   2.519
   42TCM     c1  529   4.952   1.976   1.970
   42TCM    cl1  530   5.111   1.945   2.049
   42TCM    cl2  531   4.916   2.151   1.978
   42TCM     h1  532   4.956   1.944   1.866
   42TCM    cl3  533   4.824   1.885   2.056
   43TCM     c1  534   1.179   3.377   2.042
   43TCM    cl1  535   1.326   3.354   2.143
   43TCM    cl2  536   1.185   3.264   1.902
   43TCM     h1  537   1.090   3.356   2.102
   43TCM    cl3  538   1.173   3.546   1.982
   44TCM     c1  539   3.599   1.366   2.049
   44TCM    cl1  540   3.515   1.252   1.939
   44TCM    cl2  541   3.552   1.332   2.219
   44TCM     h1  542   3.707   1.355   2.038
   44TCM    cl3  543   3.552   1.534   2.007
   45TCM     c1  544   0.857   2.015   1.515
   45TCM    cl1  545   0.694   2.073   1.466
   45TCM    cl2  546   0.934   1.934   1.375
   45TCM     h1  547   0.918   2.100   1.546
   45TCM    cl3  548   0.843   1.901   1.653
   46TCM     c1  549   2.301   3.583   1.635
   46TCM    cl1  550   2.324   3.760   1.651
   46TCM    cl2  551   2.172   3.551   1.513
   46TCM     h1  552   2.394   3.536   1.602
   46TCM    cl3  553   2.252   3.514   1.793
   47TCM     c1  554   0.897   4.345   0.766
   47TCM    cl1  555   0.829   4.224   0.652
   47TCM    cl2  556   1.071   4.372   0.728
   47TCM     h1  557   0.842   4.439   0.757
   47TCM    cl3  558   0.883   4.284   0.934
   48TCM     c1  559   0.375   1.196   4.780
   48TCM    cl1  560   0.326   1.153   4.613
   48TCM    cl2  561   0.495   1.330   4.775
   48TCM     h1  562   0.288   1.228   4.837
   48TCM    cl3  563   0.448   1.053   4.859
   49TCM     c1  564   1.343   3.575   4.642
   49TCM    cl1  565   1.457   3.698   4.577
   49TCM    cl2  566   1.371   3.557   4.818
   49TCM     h1  567   1.241   3.608   4.624
   49TCM    cl3  568   1.372   3.418   4.561
   50TCM     c1  569   0.278   0.495   4.423
   50TCM    cl1  570   0.453   0.466   4.401
   50TCM    cl2  571   0.191   0.338   4.416
   50TCM     h1  572   0.260   0.542   4.521
   50TCM    cl3  573   0.217   0.604   4.293
   51TCM     c1  574   0.859   3.910   1.831
   51TCM    cl1  575   0.727   3.994   1.919
   51TCM    cl2  576   0.990   4.027   1.795
   51TCM     h1  577   0.899   3.830   1.893
   51TCM    cl3  578   0.795   3.844   1.678
   52TCM     c1  579   3.397   3.983   4.738
   52TCM    cl1  580   3.472   3.819   4.738
   52TCM    cl2  581   3.507   4.097   4.821
   52TCM     h1  582   3.380   4.016   4.635
   52TCM    cl3  583   3.241   3.977   4.826
   53TCM     c1  584   1.205   1.525   1.487
   53TCM    cl1  585   1.162   1.692   1.534
   53TCM    cl2  586   1.383   1.504   1.497
   53TCM     h1  587   1.156   1.454   1.554
   53TCM    cl3  588   1.151   1.495   1.318
   54TCM     c1  589   3.356   0.408   2.164
   54TCM    cl1  590   3.186   0.405   2.105
   54TCM    cl2  591   3.389   0.256   2.254
   54TCM     h1  592   3.424   0.415   2.079
   54TCM    cl3  593   3.379   0.549   2.271
   55TCM     c1  594   0.113   0.362   1.718
   55TCM    cl1  595  -0.022   0.426   1.819
   55TCM    cl2  596   0.269   0.423   1.783
   55TCM     h1  597   0.112   0.253   1.721
   55TCM    cl3  598   0.093   0.418   1.549
   56TCM     c1  599   3.547   2.201   1.136
   56TCM    cl1  600   3.643   2.087   1.235
   56TCM    cl2  601   3.657   2.303   1.037
   56TCM     h1  602   3.480   2.145   1.070
   56TCM    cl3  603   3.451   2.307   1.245
   57TCM     c1  604   3.998   4.952   0.384
   57TCM    cl1  605   3.931   4.810   0.296
   57TCM    cl2  606   3.870   5.076   0.402
   57TCM     h1  607   4.034   4.921   0.482
   57TCM    cl3  608   4.134   5.021   0.290
   58TCM     c1  609   4.923   1.722   3.227
   58TCM    cl1  610   4.785   1.724   3.112
   58TCM    cl2  611   5.009   1.565   3.214
   58TCM     h1  612   4.991   1.804   3.204
   58TCM    cl3  613   4.860   1.742   3.394
   59TCM     c1  614   2.093   3.204   2.467
   59TCM    cl1  615   2.262   3.180   2.412
   59TCM    cl2  616   2.006   3.307   2.349
   59TCM     h1  617   2.042   3.107   2.475
   59TCM    cl3  618   2.093   3.285   2.628
   60TCM     c1  619   0.332   4.990   4.537
   60TCM    cl1  620   0.262   5.067   4.683
   60TCM    cl2  621   0.392   4.826   4.578
   60TCM     h1  622   0.255   4.982   4.459
   60TCM    cl3  623   0.468   5.091   4.479
   61TCM     c1  624   4.567   0.504   4.483
   61TCM    cl1  625   4.589   0.676   4.528
   61TCM    cl2  626   4.405   0.485   4.407
   61TCM     h1  627   4.645   0.474   4.412
   61TCM    cl3  628   4.576   0.401   4.629
   62TCM     c1  629   3.570   4.252   1.341
   62TCM    cl1  630   3.477   4.246   1.494
   62TCM    cl2  631   3.682   4.393   1.344
   62TCM     h1  632   3.628   4.160   1.329
   62TCM    cl3  633   3.456   4.269   1.203
   63TCM     c1  634   4.576   4.526   4.627
   63TCM    cl1  635   4.495   4.429   4.753
   63TCM    cl2  636   4.683   4.420   4.529
   63TCM     h1  637   4.501   4.571   4.562
   63TCM    cl3  638   4.674   4.655   4.704
   64TCM     c1  639   3.830   3.971   1.556
   64TCM    cl1  640   3.662   3.925   1.512
   64TCM    cl2  641   3.876   3.888   1.709
   64TCM     h1  642   3.898   3.941   1.476
   64TCM    cl3  643   3.839   4.148   1.579
   65TCM     c1  644   3.594   3.726   3.264
   65TCM    cl1  645   3.602   3.628   3.114
   65TCM    cl2  646   3.517   3.627   3.393
   65TCM     h1  647   3.695   3.755   3.295
   65TCM    cl3  648   3.497   3.874   3.236
   66TCM     c1  649   0.588   0.728   3.106
   66TCM    cl1  650   0.674   0.848   3.004
   66TCM    cl2  651   0.599   0.776   3.279
   66TCM     h1  652   0.483   0.723   3.077
   66TCM    cl3  653   0.665   0.567   3.084
   67TCM     c1  654   3.072   2.287   2.430
   67TCM    cl1  655   3.181   2.322   2.569
   67TCM    cl2  656   3.100   2.408   2.300
   67TCM     h1  657   3.092   2.187   2.392
   67TCM    cl3  658   2.902   2.298   2.484
   68TCM     c1  659   3.625   2.388   2.252
   68TCM    cl1  660   3.676   2.322   2.093
   68TCM    cl2  661   3.453   2.436   2.240
   68TCM     h1  662   3.638   2.312   2.330
   68TCM    cl3  663   3.724   2.533   2.290
   69TCM     c1  664   4.988   0.537   2.166
   69TCM    cl1  665   4.920   0.377   2.211
   69TCM    cl2  666   5.163   0.520   2.132
   69TCM     h1  667   4.937   0.574   2.077
   69TCM    cl3  668   4.966   0.653   2.301
   70TCM     c1  669   0.086   0.273   2.965
   70TCM    cl1  670   0.114   0.108   3.030
   70TCM    cl2  671  -0.026   0.263   2.825
   70TCM     h1  672   0.042   0.336   3.042
   70TCM    cl3  673   0.242   0.344   2.912
   71TCM     c1  674   0.061   3.583   0.975
   71TCM    cl1  675  -0.086   3.665   0.913
   71TCM    cl2  676   0.094   3.637   1.143
   71TCM     h1  677   0.046   3.475   0.974
   71TCM    cl3  678   0.201   3.625   0.871
   72TCM     c1  679   1.288   3.444   0.687
   72TCM    cl1  680   1.304   3.600   0.773
   72TCM    cl2  681   1.434   3.344   0.716
   72TCM     h1  682   1.200   3.391   0.723
   72TCM    cl3  683   1.272   3.475   0.511
   73TCM     c1  684   2.671   4.368   3.863
   73TCM    cl1  685   2.530   4.264   3.824
   73TCM    cl2  686   2.669   4.515   3.760
   73TCM     h1  687   2.667   4.396   3.968
   73TCM    cl3  688   2.820   4.274   3.831
   74TCM     c1  689   4.608   1.333   0.210
   74TCM    cl1  690   4.504   1.189   0.234
   74TCM    cl2  691   4.519   1.481   0.258
   74TCM     h1  692   4.698   1.324   0.272
   74TCM    cl3  693   4.656   1.345   0.038
   75TCM     c1  694   2.902   4.500   4.346
   75TCM    cl1  695   2.963   4.343   4.406
   75TCM    cl2  696   2.829   4.475   4.184
   75TCM     h1  697   2.827   4.540   4.415
   75TCM    cl3  698   3.039   4.615   4.332
   76TCM     c1  699   3.538   3.857   2.068
   76TCM    cl1  700   3.535   3.859   1.888
   76TCM    cl2  701   3.387   3.784   2.132
   76TCM     h1  702   3.625   3.800   2.102
   76TCM    cl3  703   3.552   4.026   2.127
   77TCM     c1  704   0.961   0.323   3.237
   77TCM    cl1  705   0.802   0.320   3.321
   77TCM    cl2  706   0.935   0.321   3.060
   77TCM     h1  707   1.014   0.414   3.265
   77TCM    cl3  708   1.057   0.180   3.286
   78TCM     c1  709   0.962   1.089   2.577
   78TCM    cl1  710   0.875   1.244   2.553
   78TCM    cl2  711   0.874   0.992   2.699
   78TCM     h1  712   0.966   1.035   2.483
   78TCM    cl3  713   1.129   1.121   2.635
   79TCM     c1  714   1.110   0.583   2.074
   79TCM    cl1  715   0.947   0.526   2.124
   79TCM    cl2  716   1.101   0.650   1.908
   79TCM     h1  717   1.145   0.661   2.143
   79TCM    cl3  718   1.225   0.445   2.078
   80TCM     c1  719   2.931   0.791   3.704
   80TCM    cl1  720   2.958   0.747   3.875
   80TCM    cl2  721   2.978   0.962   3.678
   80TCM     h1  722   2.991   0.726   3.639
   80TCM    cl3  723   2.757   0.772   3.663
   81TCM     c1  724   4.603   4.738   0.922
   81TCM    cl1  725   4.544   4.881   0.831
   81TCM    cl2  726   4.737   4.788   1.031
   81TCM     h1  727   4.521   4.697   0.982
   81TCM    cl3  728   4.661   4.614   0.807
   82TCM     c1  729   0.476   4.124   0.244
   82TCM    cl1  730   0.301   4.106   0.282
   82TCM    cl2  731   0.493   4.211   0.088
   82TCM     h1  732   0.525   4.181   0.324
   82TCM    cl3  733   0.552   3.962   0.230
   83TCM     c1  734   2.405   3.176   2.024
   83TCM    cl1  735   2.452   3.323   2.116
   83TCM    cl2  736   2.509   3.038   2.070
   83TCM     h1  737   2.301   3.151   2.047
   83TCM    cl3  738   2.423   3.207   1.848
   84TCM     c1  739   0.466   3.067   0.764
   84TCM    cl1  740   0.515   3.041   0.934
   84TCM    cl2  741   0.447   3.242   0.732
   84TCM     h1  742   0.542   3.026   0.697
   84TCM    cl3  743   0.310   2.983   0.735
   85TCM     c1  744   3.322   3.517   0.881
   85TCM    cl1  745   3.450   3.459   0.993
   85TCM    cl2  746   3.321   3.697   0.880
   85TCM     h1  747   3.343   3.480   0.780
   85TCM    cl3  748   3.163   3.456   0.936
   86TCM     c1  749   2.970   2.977   4.870
   86TCM    cl1  750   3.082   2.838   4.848
   86TCM    cl2  751   2.877   2.954   5.022
   86TCM     h1  752   3.027   3.069   4.875
   86TCM    cl3  753   2.856   2.983   4.732
   87TCM     c1  754   1.088   1.215   1.865
   87TCM    cl1  755   1.229   1.300   1.795
   87TCM    cl2  756   1.141   1.059   1.936
   87TCM     h1  757   1.042   1.278   1.943
   87TCM    cl3  758   0.968   1.183   1.735
   88TCM     c1  759   1.784   2.626   4.782
   88TCM    cl1  760   1.685   2.741   4.687
   88TCM    cl2  761   1.832   2.488   4.678
   88TCM     h1  762   1.873   2.676   4.820
   88TCM    cl3  763   1.686   2.565   4.920
   89TCM     c1  764   2.204   3.970   3.852
   89TCM    cl1  765   2.038   3.936   3.794
   89TCM    cl2  766   2.263   3.830   3.947
   89TCM     h1  767   2.270   3.987   3.766
   89TCM    cl3  768   2.204   4.115   3.957
   90TCM     c1  769   0.617   0.116   4.832
   90TCM    cl1  770   0.745   0.110   4.706
   90TCM    cl2  771   0.684   0.198   4.977
   90TCM     h1  772   0.532   0.173   4.794
   90TCM    cl3  773   0.564  -0.049   4.876
   91TCM     c1  774   1.031   0.690   3.085
   91TCM    cl1  775   1.058   0.850   3.008
   91TCM    cl2  776   0.970   0.713   3.252
   91TCM     h1  777   0.958   0.633   3.027
   91TCM    cl3  778   1.186   0.599   3.092
   92TCM     c1  779   4.150   2.973   3.126
   92TCM    cl1  780   4.103   2.873   2.984
   92TCM    cl2  781   4.247   2.873   3.239
   92TCM     h1  782   4.209   3.059   3.092
   92TCM    cl3  783   4.002   3.030   3.209
   93TCM     c1  784   3.072   4.610   0.213
   93TCM    cl1  785   2.974   4.758   0.191
   93TCM    cl2  786   3.232   4.634   0.136
   93TCM     h1  787   3.085   4.590   0.320
   93TCM    cl3  788   2.988   4.473   0.135
   94TCM     c1  789   1.890   0.115   3.308
   94TCM    cl1  790   1.730   0.064   3.245
   94TCM    cl2  791   1.884   0.123   3.487
   94TCM     h1  792   1.966   0.044   3.276
   94TCM    cl3  793   1.928   0.278   3.244
   95TCM     c1  794   0.829   0.651   3.750
   95TCM    cl1  795   0.805   0.510   3.858
   95TCM    cl2  796   0.715   0.781   3.799
   95TCM     h1  797   0.931   0.688   3.759
   95TCM    cl3  798   0.797   0.604   3.580
   96TCM     c1  799   2.252   4.909   2.279
   96TCM    cl1  800   2.130   5.035   2.315
   96TCM    cl2  801   2.248   4.869   2.104
   96TCM     h1  802   2.351   4.946   2.306
   96TCM    cl3  803   2.216   4.761   2.374
   97TCM     c1  804   1.226   1.244   2.276
   97TCM    cl1  805   1.296   1.079   2.284
   97TCM    cl2  806   1.052   1.231   2.234
   97TCM     h1  807   1.237   1.293   2.373
   97TCM    cl3  808   1.310   1.341   2.150
   98TCM     c1  809   1.396   1.551   0.167
   98TCM    cl1  810   1.488   1.693   0.225
   98TCM    cl2  811   1.497   1.403   0.187
   98TCM     h1  812   1.304   1.540   0.225
   98TCM    cl3  813   1.356   1.572  -0.006
   99TCM     c1  814   4.136   2.959   2.170
   99TCM    cl1  815   4.267   2.974   2.049
   99TCM    cl2  816   4.150   3.090   2.292
   99TCM     h1  817   4.039   2.966   2.120
   99TCM    cl3  818   4.149   2.799   2.252
  100TCM     c1  819   2.926   4.718   1.280
  100TCM    cl1  820   2.757   4.777   1.266
  100TCM    cl2  821   2.940   4.558   1.201
  100TCM     h1  822   2.994   4.789   1.232
  100TCM    cl3  823   2.967   4.702   1.454
  101TCM     c1  824   4.052   2.493   2.933
  101TCM    cl1  825   4.203   2.500   3.029
  101TCM    cl2  826   3.932   2.389   3.017
  101TCM     h1  827   4.011   2.593   2.920
  101TCM    cl3  828   4.087   2.421   2.772
  102TCM     c1  829   4.118   0.632   3.540
  102TCM    cl1  830   4.193   0.540   3.674
  102TCM    cl2  831   4.204   0.593   3.387
  102TCM     h1  832   4.012   0.605   3.531
  102TCM    cl3  833   4.132   0.808   3.573
  103TCM     c1  834   4.040   0.945   3.098
  103TCM    cl1  835   3.900   0.999   2.999
  103TCM    cl2  836   3.983   0.834   3.226
  103TCM     h1  837   4.112   0.894   3.034
  103TCM    cl3  838   4.117   1.088   3.174
  104TCM     c1  839   2.061   0.203   2.879
  104TCM    cl1  840   1.927   0.323   2.871
  104TCM    cl2  841   2.110   0.156   2.713
  104TCM     h1  842   2.146   0.247   2.932
  104TCM    cl3  843   2.005   0.057   2.966
  105TCM     c1  844   0.281   4.386   3.314
  105TCM    cl1  845   0.451   4.351   3.358
  105TCM    cl2  846   0.184   4.236   3.332
  105TCM     h1  847   0.241   4.464   3.380
  105TCM    cl3  848   0.273   4.440   3.143
  106TCM     c1  849   0.303   1.688   4.602
  106TCM    cl1  850   0.341   1.663   4.776
  106TCM    cl2  851   0.290   1.529   4.520
  106TCM     h1  852   0.208   1.742   4.593
  106TCM    cl3  853   0.434   1.784   4.526
  107TCM     c1  854   0.950   4.862   0.016
  107TCM    cl1  855   1.005   5.033   0.021
  107TCM    cl2  856   0.893   4.823  -0.149
  107TCM     h1  857   1.033   4.796   0.043
  107TCM    cl3  858   0.816   4.839   0.133
  108TCM     c1  859   0.726   2.353   1.010
  108TCM    cl1  860   0.729   2.223   1.134
  108TCM    cl2  861   0.893   2.383   0.953
  108TCM     h1  862   0.663   2.322   0.926
  108TCM    cl3  863   0.663   2.504   1.082
  109TCM     c1  864   4.658   1.504   2.317
  109TCM    cl1  865   4.785   1.562   2.430
  109TCM    cl2  866   4.642   1.326   2.332
  109TCM     h1  867   4.563   1.551   2.342
  109TCM    cl3  868   4.704   1.546   2.149
  110TCM     c1  869   2.813   1.210   2.417
  110TCM    cl1  870   2.665   1.163   2.505
  110TCM    cl2  871   2.795   1.377   2.352
  110TCM     h1  872   2.899   1.207   2.485
  110TCM    cl3  873   2.840   1.097   2.280
  111TCM     c1  874   3.055   0.393   2.632
  111TCM    cl1  875   2.897   0.334   2.693
  111TCM    cl2  876   3.073   0.566   2.676
  111TCM     h1  877   3.136   0.335   2.677
  111TCM    cl3  878   3.060   0.377   2.453
  112TCM     c1  879   2.382   4.594   0.938
  112TCM    cl1  880   2.546   4.631   1.000
  112TCM    cl2  881   2.320   4.732   0.843
  112TCM     h1  882   2.386   4.505   0.875
  112TCM    cl3  883   2.273   4.565   1.078
  113TCM     c1  884   0.238   3.362   3.913
  113TCM    cl1  885   0.261   3.540   3.920
  113TCM    cl2  886   0.360   3.291   3.802
  113TCM     h1  887   0.251   3.320   4.013
  113TCM    cl3  888   0.074   3.325   3.851
  114TCM     c1  889   2.542   4.822   1.749
  114TCM    cl1  890   2.548   4.957   1.868
  114TCM    cl2  891   2.399   4.719   1.784
  114TCM     h1  892   2.535   4.863   1.648
  114TCM    cl3  893   2.691   4.724   1.765
  115TCM     c1  894   2.534   4.723   3.240
  115TCM    cl1  895   2.362   4.751   3.283
  115TCM    cl2  896   2.631   4.691   3.388
  115TCM     h1  897   2.541   4.637   3.173
  115TCM    cl3  898   2.598   4.868   3.158
  116TCM     c1  899   3.393   3.513   4.561
  116TCM    cl1  900   3.291   3.638   4.482
  116TCM    cl2  901   3.562   3.532   4.504
  116TCM     h1  902   3.389   3.525   4.669
  116TCM    cl3  903   3.332   3.350   4.516
  117TCM     c1  904   1.576   4.977   4.490
  117TCM    cl1  905   1.429   4.875   4.480
  117TCM    cl2  906   1.549   5.129   4.399
  117TCM     h1  907   1.598   4.999   4.594
  117TCM    cl3  908   1.715   4.889   4.417
  118TCM     c1  909   3.331   3.651   1.682
  118TCM    cl1  910   3.333   3.513   1.568
  118TCM    cl2  911   3.299   3.591   1.848
  118TCM     h1  912   3.428   3.702   1.680
  118TCM    cl3  913   3.202   3.766   1.635
  119TCM     c1  914   4.975   2.523   1.920
  119TCM    cl1  915   4.897   2.670   1.988
  119TCM    cl2  916   5.143   2.563   1.869
  119TCM     h1  917   4.977   2.444   1.995
  119TCM    cl3  918   4.881   2.467   1.777
  120TCM     c1  919   1.930   0.843   3.299
  120TCM    cl1  920   1.916   0.870   3.123
  120TCM    cl2  921   2.045   0.709   3.330
  120TCM     h1  922   1.967   0.934   3.347
  120TCM    cl3  923   1.769   0.803   3.366
  121TCM     c1  924   1.588   4.604   3.385
  121TCM    cl1  925   1.421   4.547   3.420
  121TCM    cl2  926   1.582   4.727   3.255
  121TCM     h1  927   1.631   4.648   3.476
  121TCM    cl3  928   1.689   4.466   3.330
  122TCM     c1  929   1.541   3.011   3.554
  122TCM    cl1  930   1.715   2.972   3.575
  122TCM    cl2  931   1.490   2.971   3.386
  122TCM     h1  932   1.482   2.952   3.624
  122TCM    cl3  933   1.514   3.186   3.585
  123TCM     c1  934   4.622   2.174   2.340
  123TCM    cl1  935   4.613   2.312   2.455
  123TCM    cl2  936   4.781   2.093   2.356
  123TCM     h1  937   4.542   2.103   2.363
  123TCM    cl3  938   4.602   2.235   2.173
  124TCM     c1  939   2.138   1.465   1.922
  124TCM    cl1  940   2.005   1.534   2.020
  124TCM    cl2  941   2.267   1.588   1.901
  124TCM     h1  942   2.179   1.378   1.973
  124TCM    cl3  943   2.077   1.415   1.761
  125TCM     c1  944   1.474   0.083   3.606
  125TCM    cl1  945   1.298   0.047   3.599
  125TCM    cl2  946   1.509   0.219   3.494
  125TCM     h1  947   1.501   0.112   3.708
  125TCM    cl3  948   1.567  -0.062   3.557
  126TCM     c1  949   4.241   3.641   2.443
  126TCM    cl1  950   4.247   3.704   2.611
  126TCM    cl2  951   4.176   3.473   2.444
  126TCM     h1  952   4.177   3.704   2.382
  126TCM    cl3  953   4.407   3.640   2.375
  127TCM     c1  954   4.522   1.123   3.917
  127TCM    cl1  955   4.656   1.004   3.908
  127TCM    cl2  956   4.433   1.101   4.071
  127TCM     h1  957   4.563   1.225   3.912
  127TCM    cl3  958   4.411   1.098   3.778
  128TCM     c1  959   3.518   1.957   2.327
  128TCM    cl1  960   3.406   2.090   2.373
  128TCM    cl2  961   3.680   2.026   2.295
  128TCM     h1  962   3.524   1.884   2.409
  128TCM    cl3  963   3.459   1.875   2.179
  129TCM     c1  964   4.818   4.076   3.126
  129TCM    cl1  965   4.887   4.011   3.278
  129TCM    cl2  966   4.826   3.950   2.998
  129TCM     h1  967   4.714   4.106   3.142
  129TCM    cl3  968   4.914   4.219   3.074
  130TCM     c1  969   0.433   1.765   0.144
  130TCM    cl1  970   0.456   1.823   0.313
  130TCM    cl2  971   0.258   1.766   0.107
  130TCM     h1  972   0.486   1.831   0.075
  130TCM    cl3  973   0.497   1.598   0.129
  131TCM     c1  974   3.388   1.590   3.435
  131TCM    cl1  975   3.266   1.708   3.376
  131TCM    cl2  976   3.452   1.497   3.296
  131TCM     h1  977   3.469   1.644   3.485
  131TCM    cl3  978   3.310   1.478   3.551
  132TCM     c1  979   1.243   2.350   2.764
  132TCM    cl1  980   1.106   2.344   2.648
  132TCM    cl2  981   1.217   2.233   2.897
  132TCM     h1  982   1.336   2.327   2.712
  132TCM    cl3  983   1.251   2.515   2.835
  133TCM     c1  984   0.394   2.701   4.846
  133TCM    cl1  985   0.439   2.874   4.853
  133TCM    cl2  986   0.300   2.658   4.992
  133TCM     h1  987   0.334   2.681   4.757
  133TCM    cl3  988   0.545   2.603   4.838
  134TCM     c1  989   0.609   4.567   4.770
  134TCM    cl1  990   0.626   4.558   4.949
  134TCM    cl2  991   0.478   4.456   4.718
  134TCM     h1  992   0.584   4.669   4.741
  134TCM    cl3  993   0.763   4.517   4.693
  135TCM     c1  994   4.812   4.374   0.119
  135TCM    cl1  995   4.804   4.354  -0.059
  135TCM    cl2  996   4.950   4.281   0.184
  135TCM     h1  997   4.824   4.480   0.143
  135TCM    cl3  998   4.660   4.314   0.193
  136TCM     c1  999   0.766   1.475   0.351
  136TCM    cl1 1000   0.844   1.335   0.431
  136TCM    cl2 1001   0.892   1.584   0.284
  136TCM     h1 1002   0.702   1.439   0.270
  136TCM    cl3 1003   0.667   1.564   0.471
  137TCM     c1 1004   2.334   0.210   3.344
  137TCM    cl1 1005   2.261   0.372   3.322
  137TCM    cl2 1006   2.507   0.215   3.297
  137TCM     h1 1007   2.326   0.180   3.449
  137TCM    cl3 1008   2.248   0.092   3.240
  138TCM     c1 1009   0.404   1.459   3.203
  138TCM    cl1 1010   0.389   1.486   3.380
  138TCM    cl2 1011   0.428   1.285   3.169
  138TCM     h1 1012   0.312   1.493   3.154
  138TCM    cl3 1013   0.545   1.551   3.140
  139TCM     c1 1014   0.182   4.083   4.930
  139TCM    cl1 1015   0.236   4.168   4.781
  139TCM    cl2 1016   0.280   3.935   4.953
  139TCM     h1 1017   0.194   4.149   5.016
  139TCM    cl3 1018   0.009   4.036   4.913
  140TCM     c1 1019   4.105   1.068   2.167
  140TCM    cl1 1020   4.271   1.113   2.219
  140TCM    cl2 1021   3.989   1.188   2.232
  140TCM     h1 1022   4.100   1.067   2.058
  140TCM    cl3 1023   4.064   0.905   2.231
  141TCM     c1 1024   1.433   0.581   1.730
  141TCM    cl1 1025   1.367   0.414   1.736
  141TCM    cl2 1026   1.474   0.623   1.560
  141TCM     h1 1027   1.358   0.651   1.768
  141TCM    cl3 1028   1.581   0.591   1.831
  142TCM     c1 1029   1.947   1.711   3.230
  142TCM    cl1 1030   1.908   1.759   3.063
  142TCM    cl2 1031   1.949   1.856   3.336
  142TCM     h1 1032   1.871   1.641   3.266
  142TCM    cl3 1033   2.108   1.631   3.233
  143TCM     c1 1034   2.540   3.379   3.581
  143TCM    cl1 1035   2.615   3.536   3.624
  143TCM    cl2 1036   2.432   3.327   3.715
  143TCM     h1 1037   2.482   3.390   3.489
  143TCM    cl3 1038   2.669   3.257   3.556
  144TCM     c1 1039   0.714   1.422   3.512
  144TCM    cl1 1040   0.733   1.293   3.389
  144TCM    cl2 1041   0.756   1.581   3.439
  144TCM     h1 1042   0.611   1.424   3.548
  144TCM    cl3 1043   0.826   1.391   3.649
  145TCM     c1 1044   0.766   4.185   1.492
  145TCM    cl1 1045   0.721   4.136   1.325
  145TCM    cl2 1046   0.669   4.327   1.541
  145TCM     h1 1047   0.748   4.102   1.560
  145TCM    cl3 1048   0.940   4.229   1.494
  146TCM     c1 1049   3.450   4.023   2.516
  146TCM    cl1 1050   3.595   4.122   2.480
  146TCM    cl2 1051   3.490   3.850   2.489
  146TCM     h1 1052   3.420   4.039   2.620
  146TCM    cl3 1053   3.316   4.069   2.406
  147TCM     c1 1054   0.429   2.472   3.332
  147TCM    cl1 1055   0.420   2.572   3.184
  147TCM    cl2 1056   0.544   2.337   3.306
  147TCM     h1 1057   0.463   2.533   3.416
  147TCM    cl3 1058   0.265   2.406   3.368
  148TCM     c1 1059   1.882   3.628   1.253
  148TCM    cl1 1060   1.907   3.648   1.076
  148TCM    cl2 1061   1.872   3.453   1.293
  148TCM     h1 1062   1.966   3.673   1.307
  148TCM    cl3 1063   1.730   3.710   1.300
  149TCM     c1 1064   1.629   1.213   2.478
  149TCM    cl1 1065   1.644   1.246   2.303
  149TCM    cl2 1066   1.465   1.261   2.532
  149TCM     h1 1067   1.644   1.107   2.497
  149TCM    cl3 1068   1.751   1.309   2.569
  150TCM     c1 1069   3.950   4.974   3.906
  150TCM    cl1 1070   3.903   4.812   3.844
  150TCM    cl2 1071   4.108   4.962   3.990
  150TCM     h1 1072   3.958   5.044   3.823
  150TCM    cl3 1073   3.826   5.031   4.022
  151TCM     c1 1074   0.030   4.522   4.515
  151TCM    cl1 1075   0.200   4.532   4.459
  151TCM    cl2 1076  -0.059   4.667   4.459
  151TCM     h1 1077  -0.016   4.432   4.473
  151TCM    cl3 1078   0.027   4.514   4.694
  152TCM     c1 1079   1.129   1.561   0.653
  152TCM    cl1 1080   0.989   1.671   0.636
  152TCM    cl2 1081   1.196   1.524   0.491
  152TCM     h1 1082   1.206   1.607   0.716
  152TCM    cl3 1083   1.075   1.407   0.729
  153TCM     c1 1084   2.643   2.681   4.976
  153TCM    cl1 1085   2.567   2.789   4.855
  153TCM    cl2 1086   2.571   2.518   4.961
  153TCM     h1 1087   2.751   2.676   4.958
  153TCM    cl3 1088   2.613   2.744   5.141
  154TCM     c1 1089   3.476   1.281   3.008
  154TCM    cl1 1090   3.435   1.423   2.906
  154TCM    cl2 1091   3.577   1.167   2.913
  154TCM     h1 1092   3.532   1.315   3.096
  154TCM    cl3 1093   3.325   1.200   3.060
  155TCM     c1 1094   3.454   0.098   1.872
  155TCM    cl1 1095   3.529   0.261   1.879
  155TCM    cl2 1096   3.480   0.027   1.709
  155TCM     h1 1097   3.499   0.034   1.947
  155TCM    cl3 1098   3.277   0.112   1.903
  156TCM     c1 1099   3.708   2.524   1.387
  156TCM    cl1 1100   3.765   2.633   1.517
  156TCM    cl2 1101   3.836   2.404   1.349
  156TCM     h1 1102   3.618   2.472   1.420
  156TCM    cl3 1103   3.671   2.620   1.240
  157TCM     c1 1104   2.885   4.110   2.426
  157TCM    cl1 1105   2.719   4.094   2.492
  157TCM    cl2 1106   2.992   4.176   2.553
  157TCM     h1 1107   2.921   4.011   2.394
  157TCM    cl3 1108   2.884   4.221   2.285
  158TCM     c1 1109   4.369   0.968   2.683
  158TCM    cl1 1110   4.224   0.950   2.787
  158TCM    cl2 1111   4.335   0.899   2.521
  158TCM     h1 1112   4.393   1.074   2.672
  158TCM    cl3 1113   4.506   0.881   2.758
  159TCM     c1 1114   1.126   1.894   4.925
  159TCM    cl1 1115   1.015   2.036   4.921
  159TCM    cl2 1116   1.044   1.756   5.005
  159TCM     h1 1117   1.154   1.866   4.823
  159TCM    cl3 1118   1.272   1.937   5.019
  160TCM     c1 1119   2.368   4.464   4.249
  160TCM    cl1 1120   2.515   4.458   4.353
  160TCM    cl2 1121   2.274   4.313   4.272
  160TCM     h1 1122   2.308   4.551   4.276
  160TCM    cl3 1123   2.418   4.476   4.078
  161TCM     c1 1124   2.268   4.904   0.132
  161TCM    cl1 1125   2.258   5.069   0.201
  161TCM    cl2 1126   2.329   4.914  -0.037
  161TCM     h1 1127   2.336   4.843   0.192
  161TCM    cl3 1128   2.105   4.830   0.130
  162TCM     c1 1129   1.962   1.205   2.834
  162TCM    cl1 1130   1.946   1.349   2.941
  162TCM    cl2 1131   1.815   1.103   2.849
  162TCM     h1 1132   1.974   1.238   2.731
  162TCM    cl3 1133   2.106   1.109   2.883
  163TCM     c1 1134   1.790   2.142   4.955
  163TCM    cl1 1135   1.850   2.277   5.057
  163TCM    cl2 1136   1.915   2.095   4.836
  163TCM     h1 1137   1.766   2.057   5.019
  163TCM    cl3 1138   1.643   2.195   4.868
  164TCM     c1 1139   2.068   1.817   1.545
  164TCM    cl1 1140   2.019   1.777   1.713
  164TCM    cl2 1141   2.115   1.666   1.459
  164TCM     h1 1142   1.985   1.865   1.492
  164TCM    cl3 1143   2.209   1.929   1.550
  165TCM     c1 1144   2.605   2.569   0.571
  165TCM    cl1 1145   2.630   2.400   0.626
  165TCM    cl2 1146   2.738   2.616   0.461
  165TCM     h1 1147   2.509   2.576   0.518
  165TCM    cl3 1148   2.602   2.678   0.713
  166TCM     c1 1149   2.826   1.847   1.967
  166TCM    cl1 1150   2.668   1.920   2.013
  166TCM    cl2 1151   2.817   1.788   1.798
  166TCM     h1 1152   2.904   1.923   1.975
  166TCM    cl3 1153   2.864   1.710   2.077
  167TCM     c1 1154   4.552   4.460   2.333
  167TCM    cl1 1155   4.489   4.458   2.501
  167TCM    cl2 1156   4.727   4.422   2.335
  167TCM     h1 1157   4.499   4.385   2.273
  167TCM    cl3 1158   4.527   4.623   2.261
  168TCM     c1 1159   3.141   0.073   4.456
  168TCM    cl1 1160   3.180   0.171   4.602
  168TCM    cl2 1161   3.094   0.184   4.323
  168TCM     h1 1162   3.228   0.015   4.427
  168TCM    cl3 1163   3.005  -0.037   4.495
  169TCM     c1 1164   3.702   3.866   3.725
  169TCM    cl1 1165   3.554   3.770   3.757
  169TCM    cl2 1166   3.703   4.011   3.831
  169TCM     h1 1167   3.790   3.805   3.746
  169TCM    cl3 1168   3.704   3.917   3.553
  170TCM     c1 1169   2.066   1.132   2.365
  170TCM    cl1 1170   1.929   1.026   2.412
  170TCM    cl2 1171   2.171   1.161   2.508
  170TCM     h1 1172   2.125   1.084   2.287
  170TCM    cl3 1173   2.003   1.289   2.306
  171TCM     c1 1174   2.563   0.274   4.871
  171TCM    cl1 1175   2.619   0.105   4.889
  171TCM    cl2 1176   2.682   0.384   4.950
  171TCM     h1 1177   2.554   0.299   4.765
  171TCM    cl3 1178   2.404   0.292   4.952
  172TCM     c1 1179   2.317   2.592   1.498
  172TCM    cl1 1180   2.358   2.461   1.383
  172TCM    cl2 1181   2.358   2.750   1.422
  172TCM     h1 1182   2.210   2.589   1.521
  172TCM    cl3 1183   2.413   2.571   1.648
  173TCM     c1 1184   0.949   4.587   1.396
  173TCM    cl1 1185   0.845   4.732   1.421
  173TCM    cl2 1186   1.120   4.638   1.385
  173TCM     h1 1187   0.936   4.519   1.481
  173TCM    cl3 1188   0.901   4.505   1.244
  174TCM     c1 1189   4.077   2.221   4.300
  174TCM    cl1 1190   3.913   2.184   4.361
  174TCM    cl2 1191   4.143   2.078   4.213
  174TCM     h1 1192   4.072   2.306   4.231
  174TCM    cl3 1193   4.185   2.263   4.438
  175TCM     c1 1194   1.799   4.750   4.829
  175TCM    cl1 1195   1.642   4.713   4.750
  175TCM    cl2 1196   1.770   4.797   4.999
  175TCM     h1 1197   1.864   4.662   4.825
  175TCM    cl3 1198   1.877   4.886   4.742
  176TCM     c1 1199   3.203   3.684   0.377
  176TCM    cl1 1200   3.191   3.567   0.242
  176TCM    cl2 1201   3.269   3.603   0.523
  176TCM     h1 1202   3.269   3.767   0.348
  176TCM    cl3 1203   3.039   3.746   0.413
  177TCM     c1 1204   4.936   1.123   0.413
  177TCM    cl1 1205   5.099   1.194   0.439
  177TCM    cl2 1206   4.897   1.126   0.238
  177TCM     h1 1207   4.935   1.020   0.449
  177TCM    cl3 1208   4.814   1.220   0.502
  178TCM     c1 1209   3.884   1.669   1.944
  178TCM    cl1 1210   4.021   1.679   1.828
  178TCM    cl2 1211   3.865   1.827   2.027
  178TCM     h1 1212   3.793   1.645   1.889
  178TCM    cl3 1213   3.918   1.542   2.065
  179TCM     c1 1214   3.764   1.539   4.800
  179TCM    cl1 1215   3.762   1.421   4.664
  179TCM    cl2 1216   3.600   1.551   4.872
  179TCM     h1 1217   3.835   1.504   4.876
  179TCM    cl3 1218   3.816   1.699   4.739
  180TCM     c1 1219   3.662   3.193   4.926
  180TCM    cl1 1220   3.586   3.246   4.772
  180TCM    cl2 1221   3.535   3.171   5.051
  180TCM     h1 1222   3.714   3.098   4.910
  180TCM    cl3 1223   3.778   3.318   4.981
  181TCM     c1 1224   1.175   0.414   3.625
  181TCM    cl1 1225   1.175   0.533   3.759
  181TCM    cl2 1226   1.167   0.503   3.469
  181TCM     h1 1227   1.266   0.355   3.628
  181TCM    cl3 1228   1.032   0.307   3.641
  182TCM     c1 1229   3.224   0.038   1.407
  182TCM    cl1 1230   3.149  -0.002   1.565
  182TCM    cl2 1231   3.098   0.038   1.279
  182TCM     h1 1232   3.271   0.137   1.412
  182TCM    cl3 1233   3.347  -0.085   1.367
  183TCM     c1 1234   1.101   0.221   4.003
  183TCM    cl1 1235   1.265   0.220   3.931
  183TCM    cl2 1236   1.072   0.377   4.087
  183TCM     h1 1237   1.026   0.207   3.925
  183TCM    cl3 1238   1.088   0.088   4.123
  184TCM     c1 1239   3.185   0.222   3.113
  184TCM    cl1 1240   3.163   0.322   2.966
  184TCM    cl2 1241   3.088   0.292   3.247
  184TCM     h1 1242   3.151   0.120   3.094
  184TCM    cl3 1243   3.358   0.221   3.159
  185TCM     c1 1244   2.123   0.696   3.962
  185TCM    cl1 1245   2.228   0.740   3.823
  185TCM    cl2 1246   2.000   0.824   3.987
  185TCM     h1 1247   2.073   0.601   3.942
  185TCM    cl3 1248   2.223   0.681   4.110
  186TCM     c1 1249   3.143   0.441   0.051
  186TCM    cl1 1250   3.258   0.536   0.151
  186TCM    cl2 1251   3.049   0.330   0.155
  186TCM     h1 1252   3.074   0.510  -0.000
  186TCM    cl3 1253   3.234   0.346  -0.071
  187TCM     c1 1254   1.771   1.714   2.343
  187TCM    cl1 1255   1.648   1.611   2.423
  187TCM    cl2 1256   1.934   1.667   2.401
  187TCM     h1 1257   1.766   1.699   2.234
  187TCM    cl3 1258   1.737   1.885   2.382
  188TCM     c1 1259   4.860   4.007   4.577
  188TCM    cl1 1260   4.876   3.928   4.417
  188TCM    cl2 1261   4.687   4.037   4.612
  188TCM     h1 1262   4.903   3.943   4.655
  188TCM    cl3 1263   4.947   4.164   4.573
  189TCM     c1 1264   0.731   0.666   2.673
  189TCM    cl1 1265   0.593   0.560   2.717
  189TCM    cl2 1266   0.768   0.649   2.498
  189TCM     h1 1267   0.704   0.770   2.694
  189TCM    cl3 1268   0.875   0.620   2.769
  190TCM     c1 1269   4.571   0.840   3.570
  190TCM    cl1 1270   4.492   0.736   3.693
  190TCM    cl2 1271   4.496   0.809   3.410
  190TCM     h1 1272   4.558   0.945   3.597
  190TCM    cl3 1273   4.746   0.799   3.563
  191TCM     c1 1274   0.026   4.457   0.503
  191TCM    cl1 1275   0.078   4.505   0.668
  191TCM    cl2 1276   0.149   4.511   0.384
  191TCM     h1 1277   0.015   4.349   0.498
  191TCM    cl3 1278  -0.131   4.536   0.465
  192TCM     c1 1279   0.621   3.151   0.059
  192TCM    cl1 1280   0.693   3.281   0.159
  192TCM    cl2 1281   0.450   3.126   0.108
  192TCM     h1 1282   0.625   3.179  -0.046
  192TCM    cl3 1283   0.712   2.998   0.085
  193TCM     c1 1284   1.285   2.378   4.695
  193TCM    cl1 1285   1.295   2.228   4.792
  193TCM    cl2 1286   1.205   2.342   4.538
  193TCM     h1 1287   1.227   2.453   4.749
  193TCM    cl3 1288   1.450   2.441   4.664
  194TCM     c1 1289   0.786   3.170   0.485
  194TCM    cl1 1290   0.818   3.153   0.660
  194TCM    cl2 1291   0.636   3.081   0.444
  194TCM     h1 1292   0.775   3.275   0.459
  194TCM    cl3 1293   0.924   3.100   0.393
  195TCM     c1 1294   4.174   1.409   2.455
  195TCM    cl1 1295   4.267   1.472   2.315
  195TCM    cl2 1296   4.131   1.546   2.563
  195TCM     h1 1297   4.082   1.361   2.420
  195TCM    cl3 1298   4.274   1.291   2.545
  196TCM     c1 1299   1.840   0.296   4.189
  196TCM    cl1 1300   1.874   0.179   4.057
  196TCM    cl2 1301   1.924   0.451   4.156
  196TCM     h1 1302   1.732   0.313   4.196
  196TCM    cl3 1303   1.900   0.228   4.344
  197TCM     c1 1304   0.430   0.050   2.612
  197TCM    cl1 1305   0.519  -0.082   2.694
  197TCM    cl2 1306   0.514   0.206   2.640
  197TCM     h1 1307   0.425   0.030   2.505
  197TCM    cl3 1308   0.264   0.060   2.679
  198TCM     c1 1309   1.917   4.565   4.386
  198TCM    cl1 1310   1.917   4.421   4.279
  198TCM    cl2 1311   2.079   4.641   4.382
  198TCM     h1 1312   1.842   4.637   4.352
  198TCM    cl3 1313   1.880   4.514   4.554
  199TCM     c1 1314   4.077   4.293   1.235
  199TCM    cl1 1315   4.085   4.350   1.065
  199TCM    cl2 1316   4.244   4.262   1.293
  199TCM     h1 1317   4.030   4.370   1.297
  199TCM    cl3 1318   3.982   4.142   1.242
  200TCM     c1 1319   1.122   2.634   0.361
  200TCM    cl1 1320   1.294   2.592   0.392
  200TCM    cl2 1321   1.028   2.485   0.327
  200TCM     h1 1322   1.080   2.684   0.449
  200TCM    cl3 1323   1.113   2.744   0.220
  201TCM     c1 1324   1.203   0.818   4.059
  201TCM    cl1 1325   1.037   0.772   4.010
  201TCM    cl2 1326   1.286   0.899   3.922
  201TCM     h1 1327   1.199   0.886   4.145
  201TCM    cl3 1328   1.295   0.670   4.104
  202TCM     c1 1329   1.582   1.509   0.727
  202TCM    cl1 1330   1.549   1.522   0.551
  202TCM    cl2 1331   1.435   1.448   0.811
  202TCM     h1 1332   1.665   1.440   0.744
  202TCM    cl3 1333   1.625   1.671   0.793
  203TCM     c1 1334   1.200   4.324   1.115
  203TCM    cl1 1335   1.289   4.207   1.013
  203TCM    cl2 1336   1.238   4.491   1.059
  203TCM     h1 1337   1.093   4.306   1.107
  203TCM    cl3 1338   1.253   4.306   1.286
  204TCM     c1 1339   4.950   2.452   2.454
  204TCM    cl1 1340   5.036   2.306   2.513
  204TCM    cl2 1341   4.921   2.435   2.277
  204TCM     h1 1342   4.854   2.462   2.506
  204TCM    cl3 1343   5.052   2.595   2.484
  205TCM     c1 1344   0.674   2.348   0.205
  205TCM    cl1 1345   0.690   2.268   0.045
  205TCM    cl2 1346   0.610   2.231   0.325
  205TCM     h1 1347   0.772   2.384   0.237
  205TCM    cl3 1348   0.560   2.485   0.192
  206TCM     c1 1349   3.485   4.328   3.292
  206TCM    cl1 1350   3.521   4.386   3.126
  206TCM    cl2 1351   3.617   4.219   3.345
  206TCM     h1 1352   3.477   4.413   3.360
  206TCM    cl3 1353   3.330   4.238   3.291
  207TCM     c1 1354   2.339   0.825   2.324
  207TCM    cl1 1355   2.401   0.985   2.272
  207TCM    cl2 1356   2.176   0.799   2.251
  207TCM     h1 1357   2.407   0.746   2.290
  207TCM    cl3 1358   2.326   0.820   2.503
  208TCM     c1 1359   0.568   4.616   4.231
  208TCM    cl1 1360   0.558   4.490   4.358
  208TCM    cl2 1361   0.416   4.712   4.232
  208TCM     h1 1362   0.653   4.682   4.252
  208TCM    cl3 1363   0.589   4.538   4.071
  209TCM     c1 1364   2.029   4.747   3.634
  209TCM    cl1 1365   1.947   4.850   3.756
  209TCM    cl2 1366   2.110   4.851   3.512
  209TCM     h1 1367   2.102   4.683   3.683
  209TCM    cl3 1368   1.906   4.646   3.551
  210TCM     c1 1369   1.080   4.809   0.965
  210TCM    cl1 1370   0.967   4.682   0.907
  210TCM    cl2 1371   1.019   4.876   1.120
  210TCM     h1 1372   1.179   4.765   0.981
  210TCM    cl3 1373   1.091   4.940   0.843
  211TCM     c1 1374   2.423   3.144   0.800
  211TCM    cl1 1375   2.265   3.205   0.859
  211TCM    cl2 1376   2.450   2.979   0.863
  211TCM     h1 1377   2.423   3.142   0.690
  211TCM    cl3 1378   2.554   3.252   0.858
  212TCM     c1 1379   0.887   3.694   0.646
  212TCM    cl1 1380   1.018   3.734   0.529
  212TCM    cl2 1381   0.895   3.519   0.683
  212TCM     h1 1382   0.901   3.753   0.737
  212TCM    cl3 1383   0.728   3.733   0.572
  213TCM     c1 1384   3.694   2.241   1.750
  213TCM    cl1 1385   3.860   2.306   1.729
  213TCM    cl2 1386   3.703   2.068   1.797
  213TCM     h1 1387   3.643   2.297   1.828
  213TCM    cl3 1388   3.604   2.256   1.596
  214TCM     c1 1389   2.592   2.469   1.061
  214TCM    cl1 1390   2.467   2.406   0.949
  214TCM    cl2 1391   2.553   2.639   1.104
  214TCM     h1 1392   2.594   2.408   1.152
  214TCM    cl3 1393   2.752   2.463   0.981
  215TCM     c1 1394   2.658   3.103   3.978
  215TCM    cl1 1395   2.756   3.238   3.911
  215TCM    cl2 1396   2.766   2.984   4.058
  215TCM     h1 1397   2.586   3.142   4.050
  215TCM    cl3 1398   2.569   3.021   3.845
  216TCM     c1 1399   1.235   2.799   4.446
  216TCM    cl1 1400   1.247   2.735   4.613
  216TCM    cl2 1401   1.091   2.905   4.433
  216TCM     h1 1402   1.325   2.856   4.422
  216TCM    cl3 1403   1.218   2.662   4.332
  217TCM     c1 1404   1.745   2.669   3.258
  217TCM    cl1 1405   1.660   2.653   3.415
  217TCM    cl2 1406   1.887   2.559   3.260
  217TCM     h1 1407   1.678   2.640   3.176
  217TCM    cl3 1408   1.798   2.838   3.233
  218TCM     c1 1409   3.699   4.519   3.693
  218TCM    cl1 1410   3.770   4.358   3.660
  218TCM    cl2 1411   3.570   4.502   3.817
  218TCM     h1 1412   3.777   4.586   3.730
  218TCM    cl3 1413   3.629   4.585   3.541
  219TCM     c1 1414   0.142   3.252   0.456
  219TCM    cl1 1415   0.279   3.145   0.413
  219TCM    cl2 1416  -0.006   3.153   0.474
  219TCM     h1 1417   0.164   3.304   0.549
  219TCM    cl3 1418   0.118   3.371   0.324
  220TCM     c1 1419   1.424   2.222   0.164
  220TCM    cl1 1420   1.537   2.096   0.224
  220TCM    cl2 1421   1.505   2.382   0.171
  220TCM     h1 1422   1.396   2.200   0.061
  220TCM    cl3 1423   1.278   2.225   0.267
  221TCM     c1 1424   0.302   1.934   2.747
  221TCM    cl1 1425   0.362   1.801   2.644
  221TCM    cl2 1426   0.288   2.084   2.650
  221TCM     h1 1427   0.204   1.907   2.787
  221TCM    cl3 1428   0.415   1.962   2.883
  222TCM     c1 1429   3.566   0.166   4.658
  222TCM    cl1 1430   3.521   0.068   4.514
  222TCM    cl2 1431   3.487   0.097   4.804
  222TCM     h1 1432   3.675   0.164   4.671
  222TCM    cl3 1433   3.512   0.335   4.635
  223TCM     c1 1434   1.718   2.657   2.177
  223TCM    cl1 1435   1.568   2.644   2.275
  223TCM    cl2 1436   1.681   2.740   2.022
  223TCM     h1 1437   1.793   2.713   2.232
  223TCM    cl3 1438   1.780   2.492   2.143
  224TCM     c1 1439   3.918   0.445   3.966
  224TCM    cl1 1440   3.949   0.326   3.836
  224TCM    cl2 1441   3.766   0.402   4.050
  224TCM     h1 1442   4.001   0.444   4.038
  224TCM    cl3 1443   3.903   0.609   3.894
  225TCM     c1 1444   0.428   3.678   1.269
  225TCM    cl1 1445   0.563   3.789   1.309
  225TCM    cl2 1446   0.380   3.586   1.415
  225TCM     h1 1447   0.342   3.735   1.232
  225TCM    cl3 1448   0.482   3.562   1.142
  226TCM     c1 1449   0.223   1.513   0.569
  226TCM    cl1 1450   0.057   1.559   0.619
  226TCM    cl2 1451   0.342   1.618   0.653
  226TCM     h1 1452   0.242   1.408   0.596
  226TCM    cl3 1453   0.241   1.533   0.392
  227TCM     c1 1454   3.653   2.661   2.623
  227TCM    cl1 1455   3.563   2.812   2.656
  227TCM    cl2 1456   3.536   2.528   2.596
  227TCM     h1 1457   3.715   2.674   2.534
  227TCM    cl3 1458   3.758   2.620   2.763
  228TCM     c1 1459   0.188   4.782   2.907
  228TCM    cl1 1460   0.331   4.803   3.013
  228TCM    cl2 1461   0.055   4.706   3.001
  228TCM     h1 1462   0.155   4.879   2.870
  228TCM    cl3 1463   0.231   4.677   2.768
  229TCM     c1 1464   0.159   4.432   2.431
  229TCM    cl1 1465   0.042   4.559   2.480
  229TCM    cl2 1466   0.326   4.488   2.462
  229TCM     h1 1467   0.139   4.341   2.488
  229TCM    cl3 1468   0.139   4.398   2.256
  230TCM     c1 1469   0.291   2.399   2.245
  230TCM    cl1 1470   0.226   2.290   2.119
  230TCM    cl2 1471   0.384   2.531   2.166
  230TCM     h1 1472   0.209   2.442   2.303
  230TCM    cl3 1473   0.400   2.308   2.354
  231TCM     c1 1474   0.494   3.870   2.557
  231TCM    cl1 1475   0.382   3.736   2.517
  231TCM    cl2 1476   0.631   3.870   2.441
  231TCM     h1 1477   0.440   3.965   2.551
  231TCM    cl3 1478   0.557   3.847   2.724
  232TCM     c1 1479   2.284   0.278   3.801
  232TCM    cl1 1480   2.220   0.343   3.955
  232TCM    cl2 1481   2.281   0.408   3.677
  232TCM     h1 1482   2.387   0.244   3.815
  232TCM    cl3 1483   2.181   0.143   3.744
  233TCM     c1 1484   1.658   1.818   1.630
  233TCM    cl1 1485   1.711   1.698   1.507
  233TCM    cl2 1486   1.481   1.845   1.615
  233TCM     h1 1487   1.681   1.781   1.730
  233TCM    cl3 1488   1.742   1.974   1.601
  234TCM     c1 1489   0.922   3.038   2.111
  234TCM    cl1 1490   1.074   3.063   2.204
  234TCM    cl2 1491   0.960   2.955   1.957
  234TCM     h1 1492   0.853   2.977   2.170
  234TCM    cl3 1493   0.848   3.197   2.077
  235TCM     c1 1494   4.561   3.720   2.874
  235TCM    cl1 1495   4.624   3.732   2.706
  235TCM    cl2 1496   4.453   3.577   2.888
  235TCM     h1 1497   4.645   3.709   2.944
  235TCM    cl3 1498   4.469   3.869   2.912
  236TCM     c1 1499   4.207   0.786   4.482
  236TCM    cl1 1500   4.251   0.794   4.656
  236TCM    cl2 1501   4.315   0.895   4.390
  236TCM     h1 1502   4.218   0.683   4.446
  236TCM    cl3 1503   4.037   0.839   4.460
  237TCM     c1 1504   0.277   2.967   4.464
  237TCM    cl1 1505   0.447   2.997   4.513
  237TCM    cl2 1506   0.185   3.120   4.472
  237TCM     h1 1507   0.274   2.927   4.363
  237TCM    cl3 1508   0.204   2.848   4.577
  238TCM     c1 1509   0.867   1.941   0.279
  238TCM    cl1 1510   0.783   1.916   0.435
  238TCM    cl2 1511   0.941   2.104   0.276
  238TCM     h1 1512   0.945   1.865   0.267
  238TCM    cl3 1513   0.749   1.926   0.144
  239TCM     c1 1514   1.904   2.256   1.341
  239TCM    cl1 1515   1.743   2.287   1.414
  239TCM    cl2 1516   1.928   2.080   1.317
  239TCM     h1 1517   1.910   2.307   1.244
  239TCM    cl3 1518   2.031   2.320   1.451
  240TCM     c1 1519   2.468   4.340   3.479
  240TCM    cl1 1520   2.385   4.488   3.536
  240TCM    cl2 1521   2.489   4.349   3.300
  240TCM     h1 1522   2.566   4.332   3.527
  240TCM    cl3 1523   2.368   4.197   3.520
  241TCM     c1 1524   3.191   0.428   1.481
  241TCM    cl1 1525   3.035   0.344   1.455
  241TCM    cl2 1526   3.283   0.425   1.327
  241TCM     h1 1527   3.173   0.531   1.512
  241TCM    cl3 1528   3.284   0.342   1.608
  242TCM     c1 1529   2.325   4.619   4.727
  242TCM    cl1 1530   2.157   4.676   4.749
  242TCM    cl2 1531   2.394   4.698   4.582
  242TCM     h1 1532   2.384   4.646   4.815
  242TCM    cl3 1533   2.326   4.441   4.705
  243TCM     c1 1534   2.523   1.695   3.157
  243TCM    cl1 1535   2.477   1.660   3.327
  243TCM    cl2 1536   2.511   1.543   3.062
  243TCM     h1 1537   2.457   1.771   3.115
  243TCM    cl3 1538   2.694   1.751   3.151
  244TCM     c1 1539   0.766   1.765   4.686
  244TCM    cl1 1540   0.709   1.697   4.842
  244TCM    cl2 1541   0.939   1.722   4.662
  244TCM     h1 1542   0.706   1.725   4.604
  244TCM    cl3 1543   0.750   1.944   4.691
  245TCM     c1 1544   2.921   0.924   2.784
  245TCM    cl1 1545   3.081   0.875   2.849
  245TCM    cl2 1546   2.928   0.920   2.605
  245TCM     h1 1547   2.844   0.854   2.820
  245TCM    cl3 1548   2.882   1.090   2.838
  246TCM     c1 1549   3.553   0.628   1.472
  246TCM    cl1 1550   3.673   0.746   1.409
  246TCM    cl2 1551   3.400   0.714   1.510
  246TCM     h1 1552   3.534   0.552   1.397
  246TCM    cl3 1553   3.617   0.551   1.621
  247TCM     c1 1554   0.497   0.211   0.295
  247TCM    cl1 1555   0.593   0.305   0.413
  247TCM    cl2 1556   0.323   0.225   0.337
  247TCM     h1 1557   0.513   0.250   0.194
  247TCM    cl3 1558   0.545   0.038   0.300
  248TCM     c1 1559   0.651   3.698   3.598
  248TCM    cl1 1560   0.819   3.720   3.658
  248TCM    cl2 1561   0.570   3.569   3.693
  248TCM     h1 1562   0.596   3.792   3.609
  248TCM    cl3 1563   0.654   3.649   3.426
  249TCM     c1 1564   0.180   4.220   4.204
  249TCM    cl1 1565   0.259   4.190   4.362
  249TCM    cl2 1566   0.277   4.339   4.110
  249TCM     h1 1567   0.173   4.127   4.148
  249TCM    cl3 1568   0.016   4.288   4.230
  250TCM     c1 1569   3.379   1.781   0.999
  250TCM    cl1 1570   3.362   1.768   0.820
  250TCM    cl2 1571   3.303   1.933   1.056
  250TCM     h1 1572   3.329   1.695   1.046
  250TCM    cl3 1573   3.553   1.781   1.042
  251TCM     c1 1574   3.294   4.290   3.693
  251TCM    cl1 1575   3.133   4.214   3.668
  251TCM    cl2 1576   3.305   4.435   3.589
  251TCM     h1 1577   3.306   4.318   3.798
  251TCM    cl3 1578   3.422   4.173   3.648
  252TCM     c1 1579   1.866   4.661   3.057
  252TCM    cl1 1580   1.975   4.538   2.984
  252TCM    cl2 1581   1.796   4.762   2.928
  252TCM     h1 1582   1.785   4.610   3.111
  252TCM    cl3 1583   1.959   4.763   3.172
  253TCM     c1 1584   2.491   0.197   2.481
  253TCM    cl1 1585   2.440   0.041   2.555
  253TCM    cl2 1586   2.376   0.326   2.529
  253TCM     h1 1587   2.591   0.222   2.517
  253TCM    cl3 1588   2.493   0.181   2.302
  254TCM     c1 1589   3.133   1.927   3.813
  254TCM    cl1 1590   3.217   1.986   3.961
  254TCM    cl2 1591   3.256   1.882   3.690
  254TCM     h1 1592   3.072   1.840   3.838
  254TCM    cl3 1593   3.029   2.058   3.748
  255TCM     c1 1594   2.946   2.427   0.227
  255TCM    cl1 1595   2.958   2.562   0.110
  255TCM    cl2 1596   3.095   2.327   0.221
  255TCM     h1 1597   2.933   2.467   0.328
  255TCM    cl3 1598   2.805   2.325   0.186
  256TCM     c1 1599   1.298   0.125   4.797
  256TCM    cl1 1600   1.421   0.001   4.836
  256TCM    cl2 1601   1.171   0.053   4.693
  256TCM     h1 1602   1.253   0.163   4.889
  256TCM    cl3 1603   1.376   0.261   4.709
  257TCM     c1 1604   0.697   1.548   1.574
  257TCM    cl1 1605   0.583   1.646   1.672
  257TCM    cl2 1606   0.850   1.525   1.665
  257TCM     h1 1607   0.652   1.450   1.553
  257TCM    cl3 1608   0.731   1.631   1.419
  258TCM     c1 1609   4.831   2.850   0.384
  258TCM    cl1 1610   4.840   2.698   0.288
  258TCM    cl2 1611   4.796   2.810   0.555
  258TCM     h1 1612   4.927   2.903   0.378
  258TCM    cl3 1613   4.700   2.954   0.319
  259TCM     c1 1614   0.575   1.620   3.877
  259TCM    cl1 1615   0.514   1.454   3.848
  259TCM    cl2 1616   0.599   1.646   4.053
  259TCM     h1 1617   0.670   1.633   3.825
  259TCM    cl3 1618   0.455   1.738   3.815
  260TCM     c1 1619   0.967   0.502   0.288
  260TCM    cl1 1620   0.832   0.472   0.173
  260TCM    cl2 1621   1.098   0.383   0.259
  260TCM     h1 1622   1.005   0.603   0.273
  260TCM    cl3 1623   0.907   0.485   0.457
  261TCM     c1 1624   3.488   4.645   4.848
  261TCM    cl1 1625   3.579   4.725   4.981
  261TCM    cl2 1626   3.554   4.481   4.821
  261TCM     h1 1627   3.382   4.638   4.876
  261TCM    cl3 1628   3.504   4.742   4.698
  262TCM     c1 1629   3.061   3.931   3.449
  262TCM    cl1 1630   2.959   3.783   3.454
  262TCM    cl2 1631   3.050   4.006   3.287
  262TCM     h1 1632   3.026   4.001   3.525
  262TCM    cl3 1633   3.232   3.886   3.484
  263TCM     c1 1634   2.802   4.149   2.947
  263TCM    cl1 1635   2.981   4.162   2.935
  263TCM    cl2 1636   2.753   4.133   3.119
  263TCM     h1 1637   2.757   4.240   2.905
  263TCM    cl3 1638   2.745   4.007   2.854
  264TCM     c1 1639   3.279   1.046   2.580
  264TCM    cl1 1640   3.194   1.085   2.427
  264TCM    cl2 1641   3.229   1.163   2.706
  264TCM     h1 1642   3.255   0.945   2.612
  264TCM    cl3 1643   3.456   1.062   2.554
  265TCM     c1 1644   4.448   1.816   4.968
  265TCM    cl1 1645   4.402   1.810   5.141
  265TCM    cl2 1646   4.302   1.787   4.868
  265TCM     h1 1647   4.490   1.914   4.944
  265TCM    cl3 1648   4.568   1.688   4.933
  266TCM     c1 1649   3.003   1.982   0.294
  266TCM    cl1 1650   3.177   1.976   0.337
  266TCM    cl2 1651   2.909   2.046   0.433
  266TCM     h1 1652   2.988   2.047   0.207
  266TCM    cl3 1653   2.946   1.816   0.255
  267TCM     c1 1654   4.654   4.465   1.271
  267TCM    cl1 1655   4.749   4.436   1.121
  267TCM    cl2 1656   4.623   4.308   1.353
  267TCM     h1 1657   4.710   4.531   1.338
  267TCM    cl3 1658   4.498   4.542   1.228
  268TCM     c1 1659   4.449   0.573   3.085
  268TCM    cl1 1660   4.355   0.420   3.083
  268TCM    cl2 1661   4.336   0.711   3.058
  268TCM     h1 1662   4.498   0.585   3.182
  268TCM    cl3 1663   4.572   0.569   2.954
  269TCM     c1 1664   3.420   2.194   0.156
  269TCM    cl1 1665   3.515   2.337   0.209
  269TCM    cl2 1666   3.518   2.045   0.176
  269TCM     h1 1667   3.329   2.187   0.216
  269TCM    cl3 1668   3.375   2.214  -0.017
  270TCM     c1 1669   1.628   0.020   2.735
  270TCM    cl1 1670   1.636   0.095   2.897
  270TCM    cl2 1671   1.751   0.095   2.628
  270TCM     h1 1672   1.647  -0.087   2.743
  270TCM    cl3 1673   1.465   0.048   2.665
  271TCM     c1 1674   1.128   4.530   4.811
  271TCM    cl1 1675   1.226   4.681   4.815
  271TCM    cl2 1676   1.034   4.515   4.963
  271TCM     h1 1677   1.060   4.533   4.725
  271TCM    cl3 1678   1.238   4.389   4.796
  272TCM     c1 1679   4.917   0.133   4.295
  272TCM    cl1 1680   4.801   0.044   4.191
  272TCM    cl2 1681   4.983   0.022   4.419
  272TCM     h1 1682   4.999   0.172   4.233
  272TCM    cl3 1683   4.832   0.270   4.375
  273TCM     c1 1684   4.441   4.647   0.122
  273TCM    cl1 1685   4.319   4.709   0.237
  273TCM    cl2 1686   4.606   4.675   0.188
  273TCM     h1 1687   4.426   4.539   0.107
  273TCM    cl3 1688   4.424   4.732  -0.035
  274TCM     c1 1689   0.373   2.302   3.710
  274TCM    cl1 1690   0.475   2.449   3.693
  274TCM    cl2 1691   0.335   2.275   3.883
  274TCM     h1 1692   0.280   2.316   3.654
  274TCM    cl3 1693   0.460   2.159   3.644
  275TCM     c1 1694   3.821   1.240   1.722
  275TCM    cl1 1695   3.928   1.211   1.581
  275TCM    cl2 1696   3.759   1.408   1.716
  275TCM     h1 1697   3.738   1.169   1.720
  275TCM    cl3 1698   3.915   1.219   1.873
  276TCM     c1 1699   1.429   4.728   0.134
  276TCM    cl1 1700   1.528   4.753   0.281
  276TCM    cl2 1701   1.256   4.719   0.179
  276TCM     h1 1702   1.445   4.811   0.064
  276TCM    cl3 1703   1.478   4.574   0.055
  277TCM     c1 1704   3.390   0.873   3.550
  277TCM    cl1 1705   3.287   0.854   3.404
  277TCM    cl2 1706   3.547   0.792   3.522
  277TCM     h1 1707   3.407   0.980   3.569
  277TCM    cl3 1708   3.308   0.797   3.690
  278TCM     c1 1709   4.313   3.362   3.313
  278TCM    cl1 1710   4.215   3.359   3.163
  278TCM    cl2 1711   4.287   3.210   3.404
  278TCM     h1 1712   4.419   3.372   3.288
  278TCM    cl3 1713   4.263   3.502   3.414
  279TCM     c1 1714   1.400   0.635   0.356
  279TCM    cl1 1715   1.246   0.692   0.428
  279TCM    cl2 1716   1.425   0.463   0.401
  279TCM     h1 1717   1.396   0.645   0.247
  279TCM    cl3 1718   1.536   0.733   0.420
  280TCM     c1 1719   1.044   1.921   1.020
  280TCM    cl1 1720   1.165   1.827   0.927
  280TCM    cl2 1721   0.885   1.914   0.936
  280TCM     h1 1722   1.034   1.879   1.121
  280TCM    cl3 1723   1.096   2.093   1.032
  281TCM     c1 1724   3.702   2.893   2.226
  281TCM    cl1 1725   3.802   2.829   2.091
  281TCM    cl2 1726   3.637   3.054   2.179
  281TCM     h1 1727   3.620   2.825   2.246
  281TCM    cl3 1728   3.804   2.910   2.373
  282TCM     c1 1729   3.220   3.117   2.288
  282TCM    cl1 1730   3.209   3.078   2.113
  282TCM    cl2 1731   3.290   3.281   2.307
  282TCM     h1 1732   3.120   3.114   2.333
  282TCM    cl3 1733   3.328   2.997   2.367
  283TCM     c1 1734   1.210   0.889   0.040
  283TCM    cl1 1735   1.157   0.720   0.068
  283TCM    cl2 1736   1.226   0.918  -0.137
  283TCM     h1 1737   1.136   0.959   0.081
  283TCM    cl3 1738   1.368   0.915   0.120
  284TCM     c1 1739   3.034   0.166   0.504
  284TCM    cl1 1740   3.150   0.245   0.616
  284TCM    cl2 1741   2.873   0.156   0.584
  284TCM     h1 1742   3.026   0.224   0.412
  284TCM    cl3 1743   3.091   0.000   0.466
  285TCM     c1 1744   1.771   3.273   0.886
  285TCM    cl1 1745   1.674   3.377   0.994
  285TCM    cl2 1746   1.813   3.121   0.972
  285TCM     h1 1747   1.713   3.250   0.796
  285TCM    cl3 1748   1.923   3.357   0.839
  286TCM     c1 1749   2.689   3.725   1.770
  286TCM    cl1 1750   2.867   3.733   1.790
  286TCM    cl2 1751   2.616   3.642   1.912
  286TCM     h1 1752   2.649   3.826   1.762
  286TCM    cl3 1753   2.650   3.633   1.621
  287TCM     c1 1754   4.478   0.240   4.014
  287TCM    cl1 1755   4.440   0.099   4.118
  287TCM    cl2 1756   4.564   0.364   4.111
  287TCM     h1 1757   4.541   0.208   3.931
  287TCM    cl3 1758   4.325   0.311   3.951
  288TCM     c1 1759   4.972   2.588   4.605
  288TCM    cl1 1760   5.103   2.476   4.555
  288TCM    cl2 1761   4.983   2.615   4.782
  288TCM     h1 1762   4.983   2.683   4.553
  288TCM    cl3 1763   4.813   2.516   4.565
  289TCM     c1 1764   0.820   4.324   2.048
  289TCM    cl1 1765   0.864   4.362   1.878
  289TCM    cl2 1766   0.810   4.476   2.142
  289TCM     h1 1767   0.723   4.274   2.050
  289TCM    cl3 1768   0.945   4.217   2.120
  290TCM     c1 1769   0.089   4.969   0.266
  290TCM    cl1 1770  -0.066   4.884   0.299
  290TCM    cl2 1771   0.105   5.005   0.091
  290TCM     h1 1772   0.092   5.063   0.323
  290TCM    cl3 1773   0.224   4.863   0.317
  291TCM     c1 1774   4.502   0.423   3.510
  291TCM    cl1 1775   4.412   0.292   3.426
  291TCM    cl2 1776   4.641   0.472   3.409
  291TCM     h1 1777   4.436   0.509   3.526
  291TCM    cl3 1778   4.560   0.364   3.669
  292TCM     c1 1779   3.445   0.120   4.082
  292TCM    cl1 1780   3.350  -0.019   4.144
  292TCM    cl2 1781   3.445   0.252   4.204
  292TCM     h1 1782   3.548   0.088   4.062
  292TCM    cl3 1783   3.370   0.180   3.930
  293TCM     c1 1784   1.458   1.792   1.265
  293TCM    cl1 1785   1.469   1.666   1.138
  293TCM    cl2 1786   1.297   1.869   1.260
  293TCM     h1 1787   1.473   1.746   1.363
  293TCM    cl3 1788   1.585   1.917   1.237
  294TCM     c1 1789   0.453   0.134   1.470
  294TCM    cl1 1790   0.328   0.089   1.591
  294TCM    cl2 1791   0.426   0.304   1.418
  294TCM     h1 1792   0.552   0.124   1.515
  294TCM    cl3 1793   0.440   0.026   1.327
  295TCM     c1 1794   3.268   1.502   2.595
  295TCM    cl1 1795   3.149   1.453   2.471
  295TCM    cl2 1796   3.234   1.670   2.647
  295TCM     h1 1797   3.261   1.436   2.682
  295TCM    cl3 1798   3.434   1.493   2.527
  296TCM     c1 1799   3.557   0.201   0.229
  296TCM    cl1 1800   3.576   0.312   0.089
  296TCM    cl2 1801   3.572   0.031   0.173
  296TCM     h1 1802   3.635   0.222   0.303
  296TCM    cl3 1803   3.396   0.225   0.303
  297TCM     c1 1804   0.641   1.176   1.921
  297TCM    cl1 1805   0.566   1.281   1.796
  297TCM    cl2 1806   0.515   1.118   2.035
  297TCM     h1 1807   0.689   1.091   1.873
  297TCM    cl3 1808   0.763   1.271   2.012
  298TCM     c1 1809   2.545   3.736   0.874
  298TCM    cl1 1810   2.497   3.593   0.972
  298TCM    cl2 1811   2.651   3.842   0.973
  298TCM     h1 1812   2.599   3.703   0.785
  298TCM    cl3 1813   2.400   3.829   0.826
  299TCM     c1 1814   2.226   2.375   4.058
  299TCM    cl1 1815   2.371   2.277   4.019
  299TCM    cl2 1816   2.161   2.326   4.217
  299TCM     h1 1817   2.253   2.481   4.060
  299TCM    cl3 1818   2.101   2.349   3.932
  300TCM     c1 1819   0.607   2.144   0.673
  300TCM    cl1 1820   0.784   2.171   0.691
  300TCM    cl2 1821   0.522   2.300   0.696
  300TCM     h1 1822   0.586   2.105   0.574
  300TCM    cl3 1823   0.550   2.028   0.797
  301TCM     c1 1824   2.727   0.177   1.510
  301TCM    cl1 1825   2.778   0.011   1.553
  301TCM    cl2 1826   2.567   0.211   1.583
  301TCM     h1 1827   2.800   0.249   1.548
  301TCM    cl3 1828   2.717   0.192   1.331
  302TCM     c1 1829   2.345   3.501   4.910
  302TCM    cl1 1830   2.303   3.351   4.821
  302TCM    cl2 1831   2.392   3.458   5.078
  302TCM     h1 1832   2.428   3.552   4.860
  302TCM    cl3 1833   2.203   3.610   4.913
  303TCM     c1 1834   0.339   3.391   4.653
  303TCM    cl1 1835   0.393   3.268   4.772
  303TCM    cl2 1836   0.438   3.379   4.504
  303TCM     h1 1837   0.233   3.374   4.629
  303TCM    cl3 1838   0.360   3.555   4.723
  304TCM     c1 1839   3.865   1.805   1.488
  304TCM    cl1 1840   3.741   1.747   1.604
  304TCM    cl2 1841   3.875   1.984   1.496
  304TCM     h1 1842   3.962   1.761   1.513
  304TCM    cl3 1843   3.817   1.756   1.322
  305TCM     c1 1844   2.098   2.831   2.872
  305TCM    cl1 1845   2.163   2.930   3.007
  305TCM    cl2 1846   2.015   2.938   2.753
  305TCM     h1 1847   2.181   2.779   2.823
  305TCM    cl3 1848   1.981   2.713   2.937
  306TCM     c1 1849   4.460   2.692   0.414
  306TCM    cl1 1850   4.551   2.544   0.460
  306TCM    cl2 1851   4.428   2.791   0.559
  306TCM     h1 1852   4.518   2.750   0.342
  306TCM    cl3 1853   4.304   2.644   0.340
  307TCM     c1 1854   0.278   4.062   1.414
  307TCM    cl1 1855   0.182   3.911   1.394
  307TCM    cl2 1856   0.354   4.105   1.258
  307TCM     h1 1857   0.212   4.143   1.447
  307TCM    cl3 1858   0.406   4.035   1.537
  308TCM     c1 1859   2.943   1.485   3.533
  308TCM    cl1 1860   2.902   1.348   3.642
  308TCM    cl2 1861   2.980   1.630   3.632
  308TCM     h1 1862   3.030   1.458   3.473
  308TCM    cl3 1863   2.803   1.519   3.426
  309TCM     c1 1864   0.830   3.651   2.186
  309TCM    cl1 1865   0.790   3.599   2.019
  309TCM    cl2 1866   0.933   3.798   2.179
  309TCM     h1 1867   0.739   3.672   2.241
  309TCM    cl3 1868   0.921   3.519   2.268
  310TCM     c1 1869   2.703   4.099   1.946
  310TCM    cl1 1870   2.819   4.124   1.812
  310TCM    cl2 1871   2.764   3.968   2.053
  310TCM     h1 1872   2.692   4.191   2.003
  310TCM    cl3 1873   2.544   4.050   1.879
  311TCM     c1 1874   1.331   2.932   1.972
  311TCM    cl1 1875   1.385   2.891   1.806
  311TCM    cl2 1876   1.461   3.021   2.058
  311TCM     h1 1877   1.242   2.996   1.967
  311TCM    cl3 1878   1.292   2.782   2.061
  312TCM     c1 1879   4.824   4.970   4.797
  312TCM    cl1 1880   4.971   4.876   4.756
  312TCM    cl2 1881   4.859   5.146   4.780
  312TCM     h1 1882   4.743   4.942   4.730
  312TCM    cl3 1883   4.776   4.934   4.966
  313TCM     c1 1884   4.291   4.825   2.468
  313TCM    cl1 1885   4.364   4.819   2.631
  313TCM    cl2 1886   4.178   4.964   2.457
  313TCM     h1 1887   4.371   4.837   2.393
  313TCM    cl3 1888   4.201   4.673   2.436
  314TCM     c1 1889   1.276   4.973   3.066
  314TCM    cl1 1890   1.377   5.028   3.203
  314TCM    cl2 1891   1.366   4.848   2.973
  314TCM     h1 1892   1.183   4.930   3.104
  314TCM    cl3 1893   1.239   5.111   2.957
  315TCM     c1 1894   3.423   4.922   3.653
  315TCM    cl1 1895   3.531   4.878   3.790
  315TCM    cl2 1896   3.304   4.791   3.625
  315TCM     h1 1897   3.370   5.014   3.677
  315TCM    cl3 1898   3.521   4.945   3.505
  316TCM     c1 1899   3.598   2.047   4.754
  316TCM    cl1 1900   3.659   2.019   4.588
  316TCM    cl2 1901   3.737   2.073   4.865
  316TCM     h1 1902   3.533   2.134   4.756
  316TCM    cl3 1903   3.506   1.902   4.808
  317TCM     c1 1904   4.420   4.006   2.516
  317TCM    cl1 1905   4.572   4.086   2.465
  317TCM    cl2 1906   4.307   3.999   2.377
  317TCM     h1 1907   4.442   3.905   2.552
  317TCM    cl3 1908   4.344   4.101   2.649
  318TCM     c1 1909   4.633   2.776   2.232
  318TCM    cl1 1910   4.790   2.793   2.315
  318TCM    cl2 1911   4.511   2.881   2.312
  318TCM     h1 1912   4.644   2.806   2.127
  318TCM    cl3 1913   4.578   2.605   2.239
  319TCM     c1 1914   1.203   2.334   0.751
  319TCM    cl1 1915   1.270   2.402   0.903
  319TCM    cl2 1916   1.338   2.296   0.638
  319TCM     h1 1917   1.147   2.242   0.773
  319TCM    cl3 1918   1.094   2.454   0.675
  320TCM     c1 1919   0.952   1.751   3.718
  320TCM    cl1 1920   0.944   1.669   3.877
  320TCM    cl2 1921   1.094   1.862   3.715
  320TCM     h1 1922   0.962   1.677   3.638
  320TCM    cl3 1923   0.802   1.846   3.692
  321TCM     c1 1924   3.985   3.432   1.139
  321TCM    cl1 1925   4.000   3.609   1.114
  321TCM    cl2 1926   3.812   3.390   1.160
  321TCM     h1 1927   4.025   3.380   1.052
  321TCM    cl3 1928   4.077   3.385   1.286
  322TCM     c1 1929   0.255   4.827   2.204
  322TCM    cl1 1930   0.376   4.704   2.155
  322TCM    cl2 1931   0.257   4.845   2.383
  322TCM     h1 1932   0.279   4.923   2.157
  322TCM    cl3 1933   0.091   4.775   2.153
  323TCM     c1 1934   1.311   2.222   1.512
  323TCM    cl1 1935   1.361   2.208   1.340
  323TCM    cl2 1936   1.457   2.228   1.617
  323TCM     h1 1937   1.254   2.314   1.526
  323TCM    cl3 1938   1.210   2.081   1.558
  324TCM     c1 1939   0.758   2.150   3.969
  324TCM    cl1 1940   0.771   2.233   3.810
  324TCM    cl2 1941   0.911   2.062   4.001
  324TCM     h1 1942   0.741   2.224   4.048
  324TCM    cl3 1943   0.622   2.032   3.966
  325TCM     c1 1944   0.932   0.427   4.784
  325TCM    cl1 1945   0.910   0.605   4.798
  325TCM    cl2 1946   1.062   0.374   4.896
  325TCM     h1 1947   0.839   0.377   4.811
  325TCM    cl3 1948   0.978   0.384   4.616
  326TCM     c1 1949   3.403   2.528   0.907
  326TCM    cl1 1950   3.283   2.398   0.936
  326TCM    cl2 1951   3.319   2.687   0.908
  326TCM     h1 1952   3.480   2.527   0.985
  326TCM    cl3 1953   3.479   2.503   0.747
  327TCM     c1 1954   3.575   4.578   2.825
  327TCM    cl1 1955   3.745   4.584   2.884
  327TCM    cl2 1956   3.571   4.618   2.650
  327TCM     h1 1957   3.535   4.478   2.841
  327TCM    cl3 1958   3.477   4.698   2.916
  328TCM     c1 1959   4.821   3.129   4.723
  328TCM    cl1 1960   4.863   2.980   4.633
  328TCM    cl2 1961   4.646   3.164   4.704
  328TCM     h1 1962   4.844   3.115   4.829
  328TCM    cl3 1963   4.918   3.267   4.659
  329TCM     c1 1964   4.237   2.778   2.599
  329TCM    cl1 1965   4.296   2.947   2.595
  329TCM    cl2 1966   4.061   2.778   2.632
  329TCM     h1 1967   4.257   2.730   2.502
  329TCM    cl3 1968   4.323   2.688   2.729
  330TCM     c1 1969   2.037   4.310   3.319
  330TCM    cl1 1970   2.132   4.172   3.253
  330TCM    cl2 1971   2.128   4.462   3.295
  330TCM     h1 1972   1.941   4.316   3.266
  330TCM    cl3 1973   2.008   4.285   3.494
  331TCM     c1 1974   3.336   2.102   0.645
  331TCM    cl1 1975   3.468   2.123   0.764
  331TCM    cl2 1976   3.334   2.241   0.531
  331TCM     h1 1977   3.352   2.009   0.589
  331TCM    cl3 1978   3.179   2.094   0.731
  332TCM     c1 1979   2.518   1.930   2.428
  332TCM    cl1 1980   2.634   2.054   2.487
  332TCM    cl2 1981   2.611   1.787   2.374
  332TCM     h1 1982   2.450   1.903   2.509
  332TCM    cl3 1983   2.424   1.997   2.290
  333TCM     c1 1984   2.560   3.017   3.202
  333TCM    cl1 1985   2.572   3.196   3.213
  333TCM    cl2 1986   2.544   2.969   3.030
  333TCM     h1 1987   2.651   2.972   3.244
  333TCM    cl3 1988   2.417   2.962   3.295
  334TCM     c1 1989   0.087   1.817   1.569
  334TCM    cl1 1990   0.054   1.957   1.463
  334TCM    cl2 1991  -0.066   1.760   1.642
  334TCM     h1 1992   0.133   1.737   1.511
  334TCM    cl3 1993   0.198   1.867   1.701
  335TCM     c1 1994   1.535   1.179   3.479
  335TCM    cl1 1995   1.444   1.086   3.602
  335TCM    cl2 1996   1.710   1.139   3.491
  335TCM     h1 1997   1.499   1.154   3.379
  335TCM    cl3 1998   1.513   1.355   3.508
  336TCM     c1 1999   3.232   4.152   1.972
  336TCM    cl1 2000   3.149   3.996   1.941
  336TCM    cl2 2001   3.112   4.286   1.969
  336TCM     h1 2002   3.281   4.149   2.069
  336TCM    cl3 2003   3.355   4.180   1.844
  337TCM     c1 2004   2.004   3.492   0.398
  337TCM    cl1 2005   2.107   3.571   0.274
  337TCM    cl2 2006   1.993   3.597   0.542
  337TCM     h1 2007   1.905   3.474   0.357
  337TCM    cl3 2008   2.079   3.336   0.445
  338TCM     c1 2009   4.415   2.101   2.791
  338TCM    cl1 2010   4.503   2.026   2.654
  338TCM    cl2 2011   4.241   2.060   2.779
  338TCM     h1 2012   4.455   2.064   2.885
  338TCM    cl3 2013   4.434   2.280   2.784
  339TCM     c1 2014   2.346   3.827   1.276
  339TCM    cl1 2015   2.508   3.757   1.306
  339TCM    cl2 2016   2.241   3.706   1.195
  339TCM     h1 2017   2.301   3.857   1.371
  339TCM    cl3 2018   2.362   3.970   1.169
  340TCM     c1 2019   0.906   4.849   4.424
  340TCM    cl1 2020   1.024   4.753   4.519
  340TCM    cl2 2021   0.741   4.822   4.489
  340TCM     h1 2022   0.931   4.956   4.431
  340TCM    cl3 2023   0.912   4.795   4.253
  341TCM     c1 2024   3.447   2.867   3.440
  341TCM    cl1 2025   3.428   2.690   3.424
  341TCM    cl2 2026   3.396   2.946   3.288
  341TCM     h1 2027   3.388   2.904   3.524
  341TCM    cl3 2028   3.621   2.905   3.465
  342TCM     c1 2029   3.603   3.806   1.083
  342TCM    cl1 2030   3.696   3.737   0.946
  342TCM    cl2 2031   3.676   3.964   1.130
  342TCM     h1 2032   3.499   3.821   1.053
  342TCM    cl3 2033   3.611   3.694   1.223
  343TCM     c1 2034   2.554   1.157   3.593
  343TCM    cl1 2035   2.539   1.264   3.736
  343TCM    cl2 2036   2.500   1.248   3.448
  343TCM     h1 2037   2.659   1.127   3.580
  343TCM    cl3 2038   2.452   1.012   3.615
  344TCM     c1 2039   2.175   3.381   4.421
  344TCM    cl1 2040   2.048   3.256   4.436
  344TCM    cl2 2041   2.334   3.311   4.464
  344TCM     h1 2042   2.178   3.418   4.318
  344TCM    cl3 2043   2.137   3.518   4.532
  345TCM     c1 2044   4.100   3.749   2.953
  345TCM    cl1 2045   4.109   3.923   2.912
  345TCM    cl2 2046   3.928   3.706   2.981
  345TCM     h1 2047   4.140   3.689   2.871
  345TCM    cl3 2048   4.195   3.717   3.102
  346TCM     c1 2049   2.237   0.033   4.626
  346TCM    cl1 2050   2.408   0.067   4.583
  346TCM    cl2 2051   2.148  -0.023   4.481
  346TCM     h1 2052   2.234  -0.045   4.703
  346TCM    cl3 2053   2.160   0.182   4.689
  347TCM     c1 2054   3.206   1.925   4.576
  347TCM    cl1 2055   3.227   1.914   4.398
  347TCM    cl2 2056   3.035   1.891   4.618
  347TCM     h1 2057   3.272   1.851   4.625
  347TCM    cl3 2058   3.249   2.090   4.631
  348TCM     c1 2059   0.427   0.541   3.885
  348TCM    cl1 2060   0.265   0.619   3.880
  348TCM    cl2 2061   0.458   0.457   3.730
  348TCM     h1 2062   0.504   0.618   3.901
  348TCM    cl3 2063   0.432   0.422   4.019
  349TCM     c1 2064   3.441   0.725   1.943
  349TCM    cl1 2065   3.464   0.868   1.838
  349TCM    cl2 2066   3.601   0.655   1.987
  349TCM     h1 2067   3.388   0.754   2.034
  349TCM    cl3 2068   3.346   0.601   1.855
  350TCM     c1 2069   2.867   4.926   2.599
  350TCM    cl1 2070   3.024   4.982   2.667
  350TCM    cl2 2071   2.892   4.771   2.511
  350TCM     h1 2072   2.795   4.911   2.680
  350TCM    cl3 2073   2.805   5.050   2.486
  351TCM     c1 2074   2.336   4.180   2.299
  351TCM    cl1 2075   2.352   4.102   2.460
  351TCM    cl2 2076   2.239   4.075   2.190
  351TCM     h1 2077   2.286   4.276   2.311
  351TCM    cl3 2078   2.498   4.207   2.227
  352TCM     c1 2079   0.835   0.872   2.211
  352TCM    cl1 2080   1.005   0.861   2.266
  352TCM    cl2 2081   0.830   0.889   2.032
  352TCM     h1 2082   0.780   0.782   2.241
  352TCM    cl3 2083   0.760   1.016   2.287
  353TCM     c1 2084   2.386   4.237   2.945
  353TCM    cl1 2085   2.218   4.268   2.892
  353TCM    cl2 2086   2.499   4.276   2.811
  353TCM     h1 2087   2.409   4.299   3.032
  353TCM    cl3 2088   2.405   4.063   2.989
  354TCM     c1 2089   4.107   1.864   4.580
  354TCM    cl1 2090   4.270   1.900   4.514
  354TCM    cl2 2091   3.995   1.824   4.446
  354TCM     h1 2092   4.114   1.780   4.649
  354TCM    cl3 2093   4.046   2.008   4.669
  355TCM     c1 2094   0.167   0.314   4.915
  355TCM    cl1 2095   0.074   0.396   5.045
  355TCM    cl2 2096   0.331   0.275   4.975
  355TCM     h1 2097   0.115   0.222   4.885
  355TCM    cl3 2098   0.182   0.424   4.774
  356TCM     c1 2099   3.547   3.653   0.095
  356TCM    cl1 2100   3.472   3.528  -0.010
  356TCM    cl2 2101   3.564   3.589   0.261
  356TCM     h1 2102   3.645   3.679   0.055
  356TCM    cl3 2103   3.442   3.798   0.098
  357TCM     c1 2104   1.912   2.552   2.594
  357TCM    cl1 2105   1.849   2.416   2.495
  357TCM    cl2 2106   1.933   2.695   2.488
  357TCM     h1 2107   1.842   2.576   2.674
  357TCM    cl3 2108   2.070   2.506   2.665
  358TCM     c1 2109   1.920   4.008   1.409
  358TCM    cl1 2110   1.986   4.007   1.242
  358TCM    cl2 2111   1.954   4.166   1.485
  358TCM     h1 2112   1.812   3.991   1.406
  358TCM    cl3 2113   1.999   3.877   1.503
  359TCM     c1 2114   4.121   3.464   1.664
  359TCM    cl1 2115   4.179   3.299   1.704
  359TCM    cl2 2116   4.261   3.576   1.648
  359TCM     h1 2117   4.066   3.461   1.569
  359TCM    cl3 2118   4.013   3.522   1.795
  360TCM     c1 2119   2.504   4.528   0.466
  360TCM    cl1 2120   2.395   4.395   0.415
  360TCM    cl2 2121   2.552   4.501   0.637
  360TCM     h1 2122   2.592   4.529   0.402
  360TCM    cl3 2123   2.417   4.684   0.451
  361TCM     c1 2124   2.753   2.226   4.444
  361TCM    cl1 2125   2.720   2.051   4.462
  361TCM    cl2 2126   2.733   2.274   4.272
  361TCM     h1 2127   2.683   2.283   4.506
  361TCM    cl3 2128   2.922   2.259   4.496
  362TCM     c1 2129   1.653   3.108   2.394
  362TCM    cl1 2130   1.754   2.970   2.340
  362TCM    cl2 2131   1.720   3.171   2.548
  362TCM     h1 2132   1.655   3.187   2.318
  362TCM    cl3 2133   1.485   3.053   2.420
  363TCM     c1 2134   0.553   4.098   4.564
  363TCM    cl1 2135   0.567   4.035   4.732
  363TCM    cl2 2136   0.548   3.961   4.449
  363TCM     h1 2137   0.463   4.159   4.554
  363TCM    cl3 2138   0.698   4.198   4.528
  364TCM     c1 2139   0.266   2.315   1.592
  364TCM    cl1 2140   0.202   2.227   1.736
  364TCM    cl2 2141   0.136   2.416   1.522
  364TCM     h1 2142   0.350   2.379   1.623
  364TCM    cl3 2143   0.323   2.197   1.469
  365TCM     c1 2144   4.305   0.678   4.012
  365TCM    cl1 2145   4.224   0.820   3.939
  365TCM    cl2 2146   4.198   0.608   4.138
  365TCM     h1 2147   4.325   0.603   3.935
  365TCM    cl3 2148   4.459   0.729   4.090
  366TCM     c1 2149   4.087   0.944   0.142
  366TCM    cl1 2150   4.123   0.781   0.076
  366TCM    cl2 2151   4.189   0.974   0.286
  366TCM     h1 2152   4.108   1.020   0.066
  366TCM    cl3 2153   3.914   0.953   0.188
  367TCM     c1 2154   1.895   1.529   3.643
  367TCM    cl1 2155   1.820   1.691   3.658
  367TCM    cl2 2156   1.874   1.468   3.476
  367TCM     h1 2157   2.002   1.536   3.666
  367TCM    cl3 2158   1.817   1.414   3.757
  368TCM     c1 2159   0.233   1.549   1.893
  368TCM    cl1 2160   0.065   1.594   1.940
  368TCM    cl2 2161   0.235   1.500   1.721
  368TCM     h1 2162   0.299   1.635   1.908
  368TCM    cl3 2163   0.288   1.413   1.995
  369TCM     c1 2164   1.596   0.440   3.213
  369TCM    cl1 2165   1.488   0.353   3.100
  369TCM    cl2 2166   1.496   0.542   3.321
  369TCM     h1 2167   1.653   0.368   3.272
  369TCM    cl3 2168   1.708   0.544   3.120
  370TCM     c1 2169   2.179   4.172   0.900
  370TCM    cl1 2170   2.258   4.266   0.769
  370TCM    cl2 2171   2.097   4.029   0.829
  370TCM     h1 2172   2.254   4.140   0.973
  370TCM    cl3 2173   2.057   4.276   0.981
  371TCM     c1 2174   3.268   1.651   4.093
  371TCM    cl1 2175   3.093   1.680   4.119
  371TCM    cl2 2176   3.294   1.596   3.925
  371TCM     h1 2177   3.324   1.744   4.111
  371TCM    cl3 2178   3.325   1.525   4.208
  372TCM     c1 2179   2.173   3.467   3.976
  372TCM    cl1 2180   2.255   3.326   4.051
  372TCM    cl2 2181   2.073   3.549   4.100
  372TCM     h1 2182   2.248   3.536   3.937
  372TCM    cl3 2183   2.068   3.410   3.842
  373TCM     c1 2184   2.917   0.416   4.580
  373TCM    cl1 2185   2.813   0.521   4.476
  373TCM    cl2 2186   2.824   0.270   4.627
  373TCM     h1 2187   3.006   0.387   4.524
  373TCM    cl3 2188   2.964   0.507   4.727
  374TCM     c1 2189   3.170   2.463   1.947
  374TCM    cl1 2190   3.315   2.498   1.846
  374TCM    cl2 2191   3.049   2.375   1.848
  374TCM     h1 2192   3.199   2.402   2.032
  374TCM    cl3 2193   3.098   2.617   2.005
  375TCM     c1 2194   4.755   4.140   0.687
  375TCM    cl1 2195   4.834   4.144   0.526
  375TCM    cl2 2196   4.822   4.269   0.790
  375TCM     h1 2197   4.647   4.154   0.675
  375TCM    cl3 2198   4.785   3.981   0.764
  376TCM     c1 2199   1.910   2.653   3.970
  376TCM    cl1 2200   1.770   2.757   4.014
  376TCM    cl2 2201   2.046   2.685   4.083
  376TCM     h1 2202   1.881   2.548   3.977
  376TCM    cl3 2203   1.962   2.691   3.803
  377TCM     c1 2204   2.532   4.025   4.113
  377TCM    cl1 2205   2.618   4.173   4.167
  377TCM    cl2 2206   2.425   3.967   4.245
  377TCM     h1 2207   2.472   4.048   4.025
  377TCM    cl3 2208   2.652   3.898   4.074
  378TCM     c1 2209   4.528   0.208   2.581
  378TCM    cl1 2210   4.636   0.139   2.707
  378TCM    cl2 2211   4.361   0.218   2.647
  378TCM     h1 2212   4.562   0.308   2.554
  378TCM    cl3 2213   4.530   0.102   2.436
  379TCM     c1 2214   1.892   3.497   1.731
  379TCM    cl1 2215   1.916   3.342   1.645
  379TCM    cl2 2216   1.850   3.465   1.903
  379TCM     h1 2217   1.985   3.555   1.727
  379TCM    cl3 2218   1.760   3.589   1.653
  380TCM     c1 2219   3.509   0.597   1.023
  380TCM    cl1 2220   3.407   0.693   1.135
  380TCM    cl2 2221   3.407   0.475   0.938
  380TCM     h1 2222   3.556   0.663   0.950
  380TCM    cl3 2223   3.635   0.512   1.118
  381TCM     c1 2224   0.034   3.611   3.085
  381TCM    cl1 2225   0.130   3.741   3.008
  381TCM    cl2 2226  -0.109   3.574   2.982
  381TCM     h1 2227   0.095   3.522   3.096
  381TCM    cl3 2228  -0.023   3.666   3.246
  382TCM     c1 2229   2.796   2.642   4.580
  382TCM    cl1 2230   2.867   2.563   4.724
  382TCM    cl2 2231   2.642   2.559   4.538
  382TCM     h1 2232   2.775   2.747   4.602
  382TCM    cl3 2233   2.910   2.630   4.442
  383TCM     c1 2234   1.967   0.421   0.451
  383TCM    cl1 2235   1.988   0.592   0.499
  383TCM    cl2 2236   2.061   0.390   0.301
  383TCM     h1 2237   2.003   0.355   0.531
  383TCM    cl3 2238   1.794   0.388   0.420
  384TCM     c1 2239   2.974   0.100   2.121
  384TCM    cl1 2240   2.871  -0.034   2.060
  384TCM    cl2 2241   3.075   0.042   2.257
  384TCM     h1 2242   3.039   0.135   2.040
  384TCM    cl3 2243   2.868   0.234   2.176
  385TCM     c1 2244   1.774   3.512   4.387
  385TCM    cl1 2245   1.624   3.477   4.294
  385TCM    cl2 2246   1.754   3.451   4.555
  385TCM     h1 2247   1.859   3.461   4.340
  385TCM    cl3 2248   1.803   3.689   4.390
  386TCM     c1 2249   0.673   2.668   0.494
  386TCM    cl1 2250   0.785   2.759   0.387
  386TCM    cl2 2251   0.630   2.768   0.636
  386TCM     h1 2252   0.583   2.643   0.438
  386TCM    cl3 2253   0.753   2.518   0.548
  387TCM     c1 2254   2.734   0.164   3.010
  387TCM    cl1 2255   2.774   0.337   3.038
  387TCM    cl2 2256   2.886   0.069   2.998
  387TCM     h1 2257   2.674   0.126   3.093
  387TCM    cl3 2258   2.642   0.147   2.857
  388TCM     c1 2259   2.004   2.998   0.684
  388TCM    cl1 2260   2.157   3.005   0.590
  388TCM    cl2 2261   1.962   2.827   0.716
  388TCM     h1 2262   2.018   3.051   0.779
  388TCM    cl3 2263   1.872   3.076   0.590
  389TCM     c1 2264   2.995   0.023   4.003
  389TCM    cl1 2265   2.838   0.079   3.937
  389TCM    cl2 2266   3.093  -0.048   3.871
  389TCM     h1 2267   3.049   0.108   4.047
  389TCM    cl3 2268   2.966  -0.102   4.128
  390TCM     c1 2269   4.995   0.372   3.899
  390TCM    cl1 2270   5.073   0.358   4.060
  390TCM    cl2 2271   4.844   0.275   3.897
  390TCM     h1 2272   4.971   0.477   3.879
  390TCM    cl3 2273   5.106   0.312   3.772
  391TCM     c1 2274   2.284   2.549   3.660
  391TCM    cl1 2275   2.338   2.619   3.815
  391TCM    cl2 2276   2.341   2.379   3.647
  391TCM     h1 2277   2.175   2.552   3.653
  391TCM    cl3 2278   2.354   2.644   3.525
  392TCM     c1 2279   0.935   1.403   4.878
  392TCM    cl1 2280   0.853   1.369   4.722
  392TCM    cl2 2281   1.090   1.313   4.883
  392TCM     h1 2282   0.954   1.510   4.887
  392TCM    cl3 2283   0.830   1.348   5.013
  393TCM     c1 2284   4.620   2.992   1.840
  393TCM    cl1 2285   4.573   2.819   1.859
  393TCM    cl2 2286   4.657   3.060   2.002
  393TCM     h1 2287   4.708   2.999   1.776
  393TCM    cl3 2288   4.484   3.084   1.767
  394TCM     c1 2289   2.841   3.382   0.456
  394TCM    cl1 2290   2.798   3.481   0.312
  394TCM    cl2 2291   2.845   3.485   0.602
  394TCM     h1 2292   2.767   3.303   0.469
  394TCM    cl3 2293   3.002   3.308   0.430
  395TCM     c1 2294   2.644   4.489   1.481
  395TCM    cl1 2295   2.502   4.594   1.450
  395TCM    cl2 2296   2.663   4.376   1.343
  395TCM     h1 2297   2.734   4.550   1.491
  395TCM    cl3 2298   2.616   4.394   1.631
  396TCM     c1 2299   2.614   3.733   4.634
  396TCM    cl1 2300   2.653   3.764   4.461
  396TCM    cl2 2301   2.633   3.558   4.669
  396TCM     h1 2302   2.681   3.791   4.698
  396TCM    cl3 2303   2.444   3.782   4.666
  397TCM     c1 2304   3.865   3.826   2.506
  397TCM    cl1 2305   3.974   3.953   2.570
  397TCM    cl2 2306   3.885   3.675   2.601
  397TCM     h1 2307   3.761   3.860   2.513
  397TCM    cl3 2308   3.906   3.793   2.334
  398TCM     c1 2309   2.314   1.465   2.331
  398TCM    cl1 2310   2.456   1.462   2.440
  398TCM    cl2 2311   2.345   1.353   2.194
  398TCM     h1 2312   2.226   1.431   2.386
  398TCM    cl3 2313   2.286   1.631   2.269
  399TCM     c1 2314   0.068   2.326   0.320
  399TCM    cl1 2315  -0.027   2.178   0.283
  399TCM    cl2 2316  -0.013   2.416   0.452
  399TCM     h1 2317   0.169   2.298   0.351
  399TCM    cl3 2318   0.077   2.429   0.173
  400TCM     c1 2319   4.021   0.507   2.960
  400TCM    cl1 2320   3.962   0.467   3.125
  400TCM    cl2 2321   3.941   0.657   2.903
  400TCM     h1 2322   4.129   0.523   2.963
  400TCM    cl3 2323   3.983   0.373   2.847
  401TCM     c1 2324   4.882   2.118   4.933
  401TCM    cl1 2325   4.995   1.987   4.978
  401TCM    cl2 2326   4.748   2.048   4.837
  401TCM     h1 2327   4.842   2.165   5.024
  401TCM    cl3 2328   4.969   2.242   4.836
  402TCM     c1 2329   3.254   0.988   1.029
  402TCM    cl1 2330   3.098   0.909   1.071
  402TCM    cl2 2331   3.232   1.166   1.020
  402TCM     h1 2332   3.328   0.965   1.106
  402TCM    cl3 2333   3.312   0.926   0.871
  403TCM     c1 2334   2.670   4.192   4.558
  403TCM    cl1 2335   2.676   4.342   4.656
  403TCM    cl2 2336   2.501   4.132   4.555
  403TCM     h1 2337   2.703   4.213   4.456
  403TCM    cl3 2338   2.776   4.068   4.632
  404TCM     c1 2339   1.341   0.110   0.354
  404TCM    cl1 2340   1.515   0.109   0.398
  404TCM    cl2 2341   1.256  -0.019   0.445
  404TCM     h1 2342   1.298   0.207   0.380
  404TCM    cl3 2343   1.324   0.080   0.178
  405TCM     c1 2344   1.563   3.125   4.455
  405TCM    cl1 2345   1.495   3.043   4.600
  405TCM    cl2 2346   1.457   3.092   4.314
  405TCM     h1 2347   1.568   3.233   4.473
  405TCM    cl3 2348   1.728   3.062   4.422
  406TCM     c1 2349   0.764   2.272   2.346
  406TCM    cl1 2350   0.731   2.374   2.490
  406TCM    cl2 2351   0.920   2.187   2.369
  406TCM     h1 2352   0.684   2.199   2.333
  406TCM    cl3 2353   0.774   2.377   2.200
  407TCM     c1 2354   1.163   1.177   0.384
  407TCM    cl1 2355   1.155   1.272   0.231
  407TCM    cl2 2356   1.335   1.151   0.428
  407TCM     h1 2357   1.113   1.232   0.464
  407TCM    cl3 2358   1.082   1.019   0.359
  408TCM     c1 2359   0.461   0.116   3.160
  408TCM    cl1 2360   0.563   0.022   3.274
  408TCM    cl2 2361   0.549   0.137   3.005
  408TCM     h1 2362   0.368   0.062   3.142
  408TCM    cl3 2363   0.426   0.277   3.230
  409TCM     c1 2364   2.581   3.740   0.170
  409TCM    cl1 2365   2.690   3.851   0.260
  409TCM    cl2 2366   2.650   3.704   0.009
  409TCM     h1 2367   2.569   3.647   0.227
  409TCM    cl3 2368   2.420   3.818   0.151
  410TCM     c1 2369   0.241   1.949   0.562
  410TCM    cl1 2370   0.174   1.960   0.728
  410TCM    cl2 2371   0.290   2.112   0.505
  410TCM     h1 2372   0.328   1.883   0.562
  410TCM    cl3 2373   0.116   1.883   0.451
  411TCM     c1 2374   3.105   4.565   3.967
  411TCM    cl1 2375   3.035   4.579   3.803
  411TCM    cl2 2376   3.264   4.647   3.972
  411TCM     h1 2377   3.038   4.611   4.040
  411TCM    cl3 2378   3.128   4.391   4.007
  412TCM     c1 2379   0.156   3.113   3.117
  412TCM    cl1 2380   0.041   3.037   3.002
  412TCM    cl2 2381   0.208   3.272   3.052
  412TCM     h1 2382   0.107   3.128   3.214
  412TCM    cl3 2383   0.299   3.007   3.139
  413TCM     c1 2384   2.906   0.408   1.860
  413TCM    cl1 2385   3.006   0.533   1.780
  413TCM    cl2 2386   2.949   0.247   1.796
  413TCM     h1 2387   2.923   0.411   1.968
  413TCM    cl3 2388   2.732   0.440   1.826
  414TCM     c1 2389   4.714   4.694   4.161
  414TCM    cl1 2390   4.640   4.770   4.016
  414TCM    cl2 2391   4.749   4.522   4.127
  414TCM     h1 2392   4.807   4.746   4.186
  414TCM    cl3 2393   4.600   4.706   4.299
  415TCM     c1 2394   3.908   0.779   1.815
  415TCM    cl1 2395   3.958   0.638   1.716
  415TCM    cl2 2396   3.800   0.884   1.719
  415TCM     h1 2397   3.856   0.744   1.905
  415TCM    cl3 2398   4.054   0.872   1.863
  416TCM     c1 2399   2.634   4.708   2.143
  416TCM    cl1 2400   2.609   4.822   2.279
  416TCM    cl2 2401   2.494   4.597   2.133
  416TCM     h1 2402   2.643   4.764   2.049
  416TCM    cl3 2403   2.783   4.611   2.170
  417TCM     c1 2404   2.152   2.534   0.601
  417TCM    cl1 2405   2.001   2.494   0.514
  417TCM    cl2 2406   2.244   2.659   0.511
  417TCM     h1 2407   2.127   2.571   0.701
  417TCM    cl3 2408   2.254   2.387   0.616
  418TCM     c1 2409   2.132   4.441   0.126
  418TCM    cl1 2410   2.074   4.502   0.284
  418TCM    cl2 2411   2.281   4.528   0.078
  418TCM     h1 2412   2.153   4.334   0.133
  418TCM    cl3 2413   2.005   4.469   0.002
  419TCM     c1 2414   3.634   0.984   2.233
  419TCM    cl1 2415   3.725   0.988   2.078
  419TCM    cl2 2416   3.692   0.846   2.332
  419TCM     h1 2417   3.649   1.077   2.288
  419TCM    cl3 2418   3.459   0.962   2.200
  420TCM     c1 2419   3.428   4.038   0.571
  420TCM    cl1 2420   3.480   3.990   0.406
  420TCM    cl2 2421   3.526   3.950   0.692
  420TCM     h1 2422   3.441   4.146   0.584
  420TCM    cl3 2423   3.255   3.995   0.592
  421TCM     c1 2424   2.003   3.974   1.894
  421TCM    cl1 2425   2.025   3.797   1.875
  421TCM    cl2 2426   1.853   4.025   1.811
  421TCM     h1 2427   1.996   3.999   2.001
  421TCM    cl3 2428   2.144   4.059   1.823
  422TCM     c1 2429   4.676   2.565   2.785
  422TCM    cl1 2430   4.761   2.674   2.899
  422TCM    cl2 2431   4.767   2.410   2.773
  422TCM     h1 2432   4.575   2.545   2.820
  422TCM    cl3 2433   4.669   2.641   2.622
  423TCM     c1 2434   1.549   0.913   2.031
  423TCM    cl1 2435   1.515   1.085   1.993
  423TCM    cl2 2436   1.395   0.821   2.036
  423TCM     h1 2437   1.614   0.871   1.954
  423TCM    cl3 2438   1.631   0.902   2.190
  424TCM     c1 2439   0.824   4.127   4.971
  424TCM    cl1 2440   0.927   4.186   4.836
  424TCM    cl2 2441   0.871   4.210   5.123
  424TCM     h1 2442   0.719   4.147   4.949
  424TCM    cl3 2443   0.849   3.950   4.990
  425TCM     c1 2444   3.092   2.506   0.630
  425TCM    cl1 2445   3.151   2.589   0.482
  425TCM    cl2 2446   2.988   2.368   0.583
  425TCM     h1 2447   3.177   2.470   0.688
  425TCM    cl3 2448   2.996   2.621   0.729
  426TCM     c1 2449   0.607   1.894   2.422
  426TCM    cl1 2450   0.744   1.881   2.307
  426TCM    cl2 2451   0.464   1.959   2.336
  426TCM     h1 2452   0.583   1.795   2.461
  426TCM    cl3 2453   0.652   2.003   2.557
  427TCM     c1 2454   2.295   0.439   4.389
  427TCM    cl1 2455   2.442   0.422   4.492
  427TCM    cl2 2456   2.154   0.485   4.489
  427TCM     h1 2457   2.313   0.515   4.312
  427TCM    cl3 2458   2.263   0.281   4.309
  428TCM     c1 2459   0.234   3.994   3.722
  428TCM    cl1 2460   0.330   4.144   3.699
  428TCM    cl2 2461   0.151   4.002   3.881
  428TCM     h1 2462   0.160   3.985   3.642
  428TCM    cl3 2463   0.344   3.853   3.720
  429TCM     c1 2464   4.932   4.053   1.096
  429TCM    cl1 2465   4.848   3.919   1.181
  429TCM    cl2 2466   5.079   3.991   1.014
  429TCM     h1 2467   4.865   4.098   1.023
  429TCM    cl3 2468   4.981   4.177   1.217
  430TCM     c1 2469   2.428   2.240   0.274
  430TCM    cl1 2470   2.433   2.199   0.100
  430TCM    cl2 2471   2.472   2.412   0.295
  430TCM     h1 2472   2.327   2.223   0.313
  430TCM    cl3 2473   2.544   2.136   0.363
  431TCM     c1 2474   3.246   2.043   1.951
  431TCM    cl1 2475   3.374   2.151   1.885
  431TCM    cl2 2476   3.117   2.019   1.828
  431TCM     h1 2477   3.290   1.946   1.977
  431TCM    cl3 2478   3.176   2.120   2.097
  432TCM     c1 2479   3.960   1.116   4.756
  432TCM    cl1 2480   3.953   1.219   4.902
  432TCM    cl2 2481   3.933   0.945   4.803
  432TCM     h1 2482   3.882   1.147   4.685
  432TCM    cl3 2483   4.121   1.132   4.680
  433TCM     c1 2484   0.927   1.815   4.265
  433TCM    cl1 2485   0.762   1.849   4.325
  433TCM    cl2 2486   0.965   1.641   4.288
  433TCM     h1 2487   0.933   1.840   4.159
  433TCM    cl3 2488   1.045   1.915   4.356
  434TCM     c1 2489   0.325   0.207   2.092
  434TCM    cl1 2490   0.450   0.105   2.014
  434TCM    cl2 2491   0.331   0.184   2.269
  434TCM     h1 2492   0.342   0.312   2.068
  434TCM    cl3 2493   0.164   0.157   2.031
  435TCM     c1 2494   3.625   0.176   1.254
  435TCM    cl1 2495   3.579   0.241   1.415
  435TCM    cl2 2496   3.479   0.172   1.149
  435TCM     h1 2497   3.701   0.240   1.209
  435TCM    cl3 2498   3.690   0.010   1.272
  436TCM     c1 2499   2.897   2.066   3.373
  436TCM    cl1 2500   2.824   2.094   3.211
  436TCM    cl2 2501   3.035   2.178   3.397
  436TCM     h1 2502   2.821   2.084   3.450
  436TCM    cl3 2503   2.954   1.897   3.384
  437TCM     c1 2504   3.662   2.737   3.136
  437TCM    cl1 2505   3.836   2.703   3.163
  437TCM    cl2 2506   3.580   2.589   3.074
  437TCM     h1 2507   3.616   2.766   3.230
  437TCM    cl3 2508   3.645   2.869   3.016
  438TCM     c1 2509   3.109   4.254   1.462
  438TCM    cl1 2510   2.971   4.346   1.531
  438TCM    cl2 2511   3.073   4.214   1.291
  438TCM     h1 2512   3.200   4.314   1.467
  438TCM    cl3 2513   3.130   4.103   1.555
  439TCM     c1 2514   0.503   0.926   4.128
  439TCM    cl1 2515   0.535   0.752   4.156
  439TCM    cl2 2516   0.395   0.945   3.987
  439TCM     h1 2517   0.456   0.969   4.217
  439TCM    cl3 2518   0.659   1.010   4.097
  440TCM     c1 2519   0.446   1.938   1.249
  440TCM    cl1 2520   0.580   1.866   1.153
  440TCM    cl2 2521   0.418   1.838   1.396
  440TCM     h1 2522   0.473   2.040   1.278
  440TCM    cl3 2523   0.296   1.940   1.151
  441TCM     c1 2524   0.225   2.665   0.964
  441TCM    cl1 2525   0.381   2.637   0.880
  441TCM    cl2 2526   0.093   2.677   0.842
  441TCM     h1 2527   0.204   2.582   1.032
  441TCM    cl3 2528   0.233   2.819   1.056
  442TCM     c1 2529   1.094   3.300   4.814
  442TCM    cl1 2530   0.977   3.236   4.934
  442TCM    cl2 2531   1.020   3.437   4.725
  442TCM     h1 2532   1.183   3.335   4.867
  442TCM    cl3 2533   1.140   3.171   4.698
  443TCM     c1 2534   3.441   1.119   1.387
  443TCM    cl1 2535   3.285   1.030   1.389
  443TCM    cl2 2536   3.541   1.062   1.250
  443TCM     h1 2537   3.421   1.226   1.376
  443TCM    cl3 2538   3.529   1.090   1.541
  444TCM     c1 2539   3.627   1.716   4.405
  444TCM    cl1 2540   3.692   1.565   4.332
  444TCM    cl2 2541   3.495   1.676   4.519
  444TCM     h1 2542   3.707   1.768   4.458
  444TCM    cl3 2543   3.564   1.822   4.274
  445TCM     c1 2544   0.620   3.950   4.004
  445TCM    cl1 2545   0.476   4.037   4.066
  445TCM    cl2 2546   0.656   4.006   3.837
  445TCM     h1 2547   0.705   3.971   4.068
  445TCM    cl3 2548   0.586   3.774   4.002
  446TCM     c1 2549   3.164   3.292   0.021
  446TCM    cl1 2550   3.223   3.248  -0.143
  446TCM    cl2 2551   3.176   3.148   0.128
  446TCM     h1 2552   3.226   3.373   0.061
  446TCM    cl3 2553   2.993   3.343   0.012
  447TCM     c1 2554   0.971   2.462   1.305
  447TCM    cl1 2555   0.967   2.341   1.437
  447TCM    cl2 2556   1.141   2.495   1.260
  447TCM     h1 2557   0.917   2.423   1.219
  447TCM    cl3 2558   0.893   2.614   1.361
  448TCM     c1 2559   4.371   0.085   0.009
  448TCM    cl1 2560   4.279   0.237   0.033
  448TCM    cl2 2561   4.485   0.062   0.146
  448TCM     h1 2562   4.302   0.000   0.005
  448TCM    cl3 2563   4.463   0.095  -0.145
  449TCM     c1 2564   4.500   1.007   4.822
  449TCM    cl1 2565   4.511   1.148   4.711
  449TCM    cl2 2566   4.364   1.033   4.936
  449TCM     h1 2567   4.483   0.916   4.765
  449TCM    cl3 2568   4.653   0.992   4.915
  450TCM     c1 2569   2.949   0.632   3.192
  450TCM    cl1 2570   2.844   0.712   3.071
  450TCM    cl2 2571   2.935   0.715   3.350
  450TCM     h1 2572   2.919   0.527   3.203
  450TCM    cl3 2573   3.120   0.641   3.137
  451TCM     c1 2574   4.290   1.429   4.595
  451TCM    cl1 2575   4.417   1.555   4.606
  451TCM    cl2 2576   4.288   1.360   4.429
  451TCM     h1 2577   4.311   1.350   4.667
  451TCM    cl3 2578   4.130   1.503   4.632
  452TCM     c1 2579   4.840   2.127   3.397
  452TCM    cl1 2580   4.682   2.089   3.321
  452TCM    cl2 2581   4.851   2.304   3.427
  452TCM     h1 2582   4.850   2.073   3.491
  452TCM    cl3 2583   4.972   2.078   3.285
  453TCM     c1 2584   4.893   4.625   3.358
  453TCM    cl1 2585   4.887   4.447   3.338
  453TCM    cl2 2586   5.064   4.679   3.362
  453TCM     h1 2587   4.841   4.673   3.274
  453TCM    cl3 2588   4.812   4.667   3.513
  454TCM     c1 2589   3.320   0.449   3.540
  454TCM    cl1 2590   3.148   0.497   3.554
  454TCM    cl2 2591   3.383   0.503   3.381
  454TCM     h1 2592   3.378   0.497   3.620
  454TCM    cl3 2593   3.335   0.271   3.553
  455TCM     c1 2594   3.731   3.514   1.514
  455TCM    cl1 2595   3.865   3.622   1.462
  455TCM    cl2 2596   3.674   3.566   1.675
  455TCM     h1 2597   3.649   3.519   1.442
  455TCM    cl3 2598   3.792   3.345   1.524
  456TCM     c1 2599   0.590   4.825   0.949
  456TCM    cl1 2600   0.611   4.748   1.110
  456TCM    cl2 2601   0.609   4.701   0.821
  456TCM     h1 2602   0.490   4.869   0.942
  456TCM    cl3 2603   0.713   4.953   0.928
  457TCM     c1 2604   2.146   3.588   3.522
  457TCM    cl1 2605   2.264   3.642   3.646
  457TCM    cl2 2606   2.206   3.437   3.445
  457TCM     h1 2607   2.049   3.569   3.568
  457TCM    cl3 2608   2.130   3.717   3.398
  458TCM     c1 2609   4.349   3.739   1.075
  458TCM    cl1 2610   4.349   3.653   1.233
  458TCM    cl2 2611   4.518   3.779   1.029
  458TCM     h1 2612   4.306   3.674   0.999
  458TCM    cl3 2613   4.253   3.890   1.087
  459TCM     c1 2614   3.074   3.980   4.294
  459TCM    cl1 2615   2.898   4.007   4.309
  459TCM    cl2 2616   3.101   3.813   4.234
  459TCM     h1 2617   3.117   4.052   4.224
  459TCM    cl3 2618   3.152   4.000   4.455
  460TCM     c1 2619   1.604   1.844   4.735
  460TCM    cl1 2620   1.439   1.901   4.695
  460TCM    cl2 2621   1.630   1.681   4.664
  460TCM     h1 2622   1.678   1.914   4.694
  460TCM    cl3 2623   1.622   1.834   4.913
  461TCM     c1 2624   1.584   3.140   1.642
  461TCM    cl1 2625   1.623   3.223   1.488
  461TCM    cl2 2626   1.566   3.261   1.774
  461TCM     h1 2627   1.490   3.086   1.630
  461TCM    cl3 2628   1.715   3.024   1.684
  462TCM     c1 2629   2.003   4.570   1.371
  462TCM    cl1 2630   2.134   4.673   1.439
  462TCM    cl2 2631   1.926   4.654   1.233
  462TCM     h1 2632   2.045   4.475   1.338
  462TCM    cl3 2633   1.879   4.540   1.498
  463TCM     c1 2634   4.129   3.872   3.423
  463TCM    cl1 2635   3.997   3.937   3.320
  463TCM    cl2 2636   4.064   3.829   3.584
  463TCM     h1 2637   4.173   3.784   3.376
  463TCM    cl3 2638   4.256   3.998   3.442
  464TCM     c1 2639   0.498   1.029   3.566
  464TCM    cl1 2640   0.368   1.138   3.506
  464TCM    cl2 2641   0.424   0.875   3.620
  464TCM     h1 2642   0.569   1.009   3.485
  464TCM    cl3 2643   0.582   1.109   3.703
  465TCM     c1 2644   1.397   4.302   0.290
  465TCM    cl1 2645   1.379   4.356   0.461
  465TCM    cl2 2646   1.241   4.324   0.204
  465TCM     h1 2647   1.475   4.361   0.241
  465TCM    cl3 2648   1.444   4.129   0.287
  466TCM     c1 2649   3.156   5.000   4.914
  466TCM    cl1 2650   2.983   5.047   4.907
  466TCM    cl2 2651   3.174   4.837   4.842
  466TCM     h1 2652   3.215   5.072   4.857
  466TCM    cl3 2653   3.211   4.998   5.084
  467TCM     c1 2654   3.467   0.726   3.096
  467TCM    cl1 2655   3.409   0.847   2.977
  467TCM    cl2 2656   3.630   0.775   3.153
  467TCM     h1 2657   3.398   0.722   3.180
  467TCM    cl3 2658   3.477   0.565   3.017
  468TCM     c1 2659   4.956   4.338   3.683
  468TCM    cl1 2660   4.953   4.181   3.597
  468TCM    cl2 2661   5.109   4.424   3.644
  468TCM     h1 2662   4.871   4.399   3.651
  468TCM    cl3 2663   4.947   4.308   3.859
  469TCM     c1 2664   4.211   1.468   0.080
  469TCM    cl1 2665   4.067   1.554   0.015
  469TCM    cl2 2666   4.306   1.401  -0.056
  469TCM     h1 2667   4.272   1.537   0.138
  469TCM    cl3 2668   4.157   1.333   0.186
  470TCM     c1 2669   0.261   0.460   2.569
  470TCM    cl1 2670   0.368   0.510   2.435
  470TCM    cl2 2671   0.127   0.360   2.505
  470TCM     h1 2672   0.318   0.402   2.642
  470TCM    cl3 2673   0.193   0.605   2.650
  471TCM     c1 2674   0.453   2.028   1.931
  471TCM    cl1 2675   0.478   1.860   1.990
  471TCM    cl2 2676   0.511   2.039   1.762
  471TCM     h1 2677   0.347   2.053   1.934
  471TCM    cl3 2678   0.545   2.144   2.032
  472TCM     c1 2679   3.436   1.941   1.535
  472TCM    cl1 2680   3.436   1.833   1.392
  472TCM    cl2 2681   3.405   1.844   1.683
  472TCM     h1 2682   3.533   1.991   1.543
  472TCM    cl3 2683   3.306   2.064   1.515
  473TCM     c1 2684   2.615   0.676   4.012
  473TCM    cl1 2685   2.537   0.560   3.899
  473TCM    cl2 2686   2.566   0.638   4.180
  473TCM     h1 2687   2.724   0.668   4.003
  473TCM    cl3 2688   2.564   0.843   3.970
  474TCM     c1 2689   4.458   2.272   4.697
  474TCM    cl1 2690   4.571   2.374   4.792
  474TCM    cl2 2691   4.391   2.143   4.804
  474TCM     h1 2692   4.376   2.333   4.659
  474TCM    cl3 2693   4.546   2.196   4.560
  475TCM     c1 2694   3.593   0.653   2.681
  475TCM    cl1 2695   3.425   0.684   2.625
  475TCM    cl2 2696   3.674   0.810   2.714
  475TCM     h1 2697   3.590   0.593   2.773
  475TCM    cl3 2698   3.683   0.562   2.555
  476TCM     c1 2699   3.132   1.833   3.064
  476TCM    cl1 2700   2.999   1.820   2.945
  476TCM    cl2 2701   3.176   2.005   3.089
  476TCM     h1 2702   3.101   1.789   3.159
  476TCM    cl3 2703   3.276   1.744   3.003
  477TCM     c1 2704   3.550   1.501   1.361
  477TCM    cl1 2705   3.691   1.391   1.354
  477TCM    cl2 2706   3.461   1.474   1.515
  477TCM     h1 2707   3.584   1.605   1.356
  477TCM    cl3 2708   3.440   1.466   1.223
  478TCM     c1 2709   0.363   3.193   1.382
  478TCM    cl1 2710   0.189   3.231   1.406
  478TCM    cl2 2711   0.380   3.026   1.319
  478TCM     h1 2712   0.407   3.264   1.311
  478TCM    cl3 2713   0.450   3.206   1.539
  479TCM     c1 2714   2.551   3.561   4.167
  479TCM    cl1 2715   2.398   3.608   4.249
  479TCM    cl2 2716   2.527   3.565   3.989
  479TCM     h1 2717   2.630   3.631   4.195
  479TCM    cl3 2718   2.598   3.395   4.217
  480TCM     c1 2719   1.585   1.459   1.906
  480TCM    cl1 2720   1.640   1.505   2.070
  480TCM    cl2 2721   1.725   1.457   1.794
  480TCM     h1 2722   1.538   1.360   1.908
  480TCM    cl3 2723   1.467   1.580   1.848
  481TCM     c1 2724   4.584   2.301   0.198
  481TCM    cl1 2725   4.718   2.392   0.121
  481TCM    cl2 2726   4.604   2.126   0.163
  481TCM     h1 2727   4.586   2.317   0.306
  481TCM    cl3 2728   4.428   2.357   0.130
  482TCM     c1 2729   2.990   4.459   3.401
  482TCM    cl1 2730   3.008   4.423   3.226
  482TCM    cl2 2731   2.837   4.386   3.460
  482TCM     h1 2732   3.074   4.416   3.456
  482TCM    cl3 2733   2.986   4.636   3.426
  483TCM     c1 2734   0.104   3.615   4.968
  483TCM    cl1 2735   0.097   3.436   4.949
  483TCM    cl2 2736  -0.002   3.666   5.103
  483TCM     h1 2737   0.207   3.646   4.988
  483TCM    cl3 2738   0.047   3.691   4.816
  484TCM     c1 2739   1.404   2.458   3.248
  484TCM    cl1 2740   1.253   2.364   3.232
  484TCM    cl2 2741   1.382   2.620   3.174
  484TCM     h1 2742   1.429   2.470   3.354
  484TCM    cl3 2743   1.538   2.373   3.164
  485TCM     c1 2744   2.205   2.769   1.078
  485TCM    cl1 2745   2.236   2.686   0.923
  485TCM    cl2 2746   2.095   2.668   1.178
  485TCM     h1 2747   2.299   2.785   1.131
  485TCM    cl3 2748   2.126   2.927   1.045
  486TCM     c1 2749   4.827   3.297   3.433
  486TCM    cl1 2750   4.896   3.308   3.268
  486TCM    cl2 2751   4.654   3.253   3.421
  486TCM     h1 2752   4.881   3.221   3.491
  486TCM    cl3 2753   4.842   3.456   3.515
  487TCM     c1 2754   2.249   4.778   2.916
  487TCM    cl1 2755   2.349   4.631   2.942
  487TCM    cl2 2756   2.162   4.765   2.760
  487TCM     h1 2757   2.177   4.787   2.998
  487TCM    cl3 2758   2.354   4.923   2.912
  488TCM     c1 2759   0.144   2.567   4.042
  488TCM    cl1 2760   0.264   2.656   3.942
  488TCM    cl2 2761  -0.020   2.631   4.009
  488TCM     h1 2762   0.148   2.461   4.017
  488TCM    cl3 2763   0.183   2.589   4.216
  489TCM     c1 2764   2.390   2.083   3.395
  489TCM    cl1 2765   2.290   1.978   3.289
  489TCM    cl2 2766   2.435   2.232   3.305
  489TCM     h1 2767   2.333   2.109   3.484
  489TCM    cl3 2768   2.539   1.995   3.442
  490TCM     c1 2769   1.921   0.516   3.624
  490TCM    cl1 2770   1.914   0.418   3.773
  490TCM    cl2 2771   1.907   0.689   3.667
  490TCM     h1 2772   2.016   0.499   3.572
  490TCM    cl3 2773   1.786   0.470   3.516
  491TCM     c1 2774   0.907   0.048   0.547
  491TCM    cl1 2775   0.829   0.168   0.655
  491TCM    cl2 2776   0.905   0.109   0.378
  491TCM     h1 2777   1.011   0.033   0.579
  491TCM    cl3 2778   0.818  -0.107   0.555
  492TCM     c1 2779   3.725   1.104   3.301
  492TCM    cl1 2780   3.778   1.261   3.231
  492TCM    cl2 2781   3.548   1.110   3.330
  492TCM     h1 2782   3.748   1.023   3.232
  492TCM    cl3 2783   3.810   1.076   3.456
  493TCM     c1 2784   3.254   4.797   3.182
  493TCM    cl1 2785   3.311   4.650   3.269
  493TCM    cl2 2786   3.210   4.923   3.302
  493TCM     h1 2787   3.333   4.834   3.117
  493TCM    cl3 2788   3.108   4.757   3.085
  494TCM     c1 2789   2.022   2.300   3.037
  494TCM    cl1 2790   1.993   2.127   3.074
  494TCM    cl2 2791   1.884   2.364   2.942
  494TCM     h1 2792   2.031   2.357   3.130
  494TCM    cl3 2793   2.174   2.317   2.943
  495TCM     c1 2794   1.540   0.476   4.968
  495TCM    cl1 2795   1.658   0.514   5.098
  495TCM    cl2 2796   1.499   0.626   4.879
  495TCM     h1 2797   1.584   0.403   4.899
  495TCM    cl3 2798   1.392   0.409   5.042
  496TCM     c1 2799   2.054   4.462   3.940
  496TCM    cl1 2800   1.885   4.463   3.880
  496TCM    cl2 2801   2.092   4.621   4.014
  496TCM     h1 2802   2.066   4.383   4.014
  496TCM    cl3 2803   2.165   4.433   3.802
  497TCM     c1 2804   0.713   3.645   4.848
  497TCM    cl1 2805   0.712   3.696   4.676
  497TCM    cl2 2806   0.688   3.468   4.857
  497TCM     h1 2807   0.810   3.671   4.893
  497TCM    cl3 2808   0.582   3.729   4.936
  498TCM     c1 2809   0.080   2.797   1.589
  498TCM    cl1 2810   0.084   2.794   1.409
  498TCM    cl2 2811  -0.089   2.822   1.645
  498TCM     h1 2812   0.117   2.701   1.627
  498TCM    cl3 2813   0.183   2.930   1.649
  499TCM     c1 2814   3.003   1.069   3.339
  499TCM    cl1 2815   3.128   1.185   3.395
  499TCM    cl2 2816   3.037   1.021   3.170
  499TCM     h1 2817   3.003   0.980   3.403
  499TCM    cl3 2818   2.842   1.147   3.346
  500TCM     c1 2819   4.830   1.284   1.931
  500TCM    cl1 2820   4.962   1.246   1.815
  500TCM    cl2 2821   4.793   1.139   2.030
  500TCM     h1 2822   4.861   1.366   1.996
  500TCM    cl3 2823   4.683   1.333   1.839
  501TCM     c1 2824   1.552   4.699   1.195
  501TCM    cl1 2825   1.588   4.606   1.046
  501TCM    cl2 2826   1.514   4.585   1.328
  501TCM     h1 2827   1.639   4.760   1.222
  501TCM    cl3 2828   1.410   4.805   1.166
  502TCM     c1 2829   2.687   2.743   3.608
  502TCM    cl1 2830   2.724   2.590   3.521
  502TCM    cl2 2831   2.718   2.883   3.501
  502TCM     h1 2832   2.582   2.743   3.638
  502TCM    cl3 2833   2.791   2.754   3.754
  503TCM     c1 2834   0.131   3.183   0.979
  503TCM    cl1 2835   0.081   3.251   0.820
  503TCM    cl2 2836  -0.010   3.185   1.090
  503TCM     h1 2837   0.166   3.080   0.966
  503TCM    cl3 2838   0.261   3.285   1.048
  504TCM     c1 2839   1.838   0.169   0.128
  504TCM    cl1 2840   1.673   0.145   0.062
  504TCM    cl2 2841   1.959   0.135   0.000
  504TCM     h1 2842   1.849   0.273   0.161
  504TCM    cl3 2843   1.863   0.058   0.267
  505TCM     c1 2844   0.956   1.894   3.127
  505TCM    cl1 2845   0.952   1.715   3.136
  505TCM    cl2 2846   1.028   1.959   3.278
  505TCM     h1 2847   1.015   1.926   3.041
  505TCM    cl3 2848   0.788   1.956   3.112
  506TCM     c1 2849   2.450   3.662   2.235
  506TCM    cl1 2850   2.409   3.572   2.385
  506TCM    cl2 2851   2.524   3.819   2.278
  506TCM     h1 2852   2.521   3.603   2.176
  506TCM    cl3 2853   2.301   3.690   2.138
  507TCM     c1 2854   1.540   0.408   2.706
  507TCM    cl1 2855   1.532   0.409   2.526
  507TCM    cl2 2856   1.373   0.419   2.771
  507TCM     h1 2857   1.587   0.316   2.740
  507TCM    cl3 2858   1.636   0.549   2.761
  508TCM     c1 2859   4.909   4.887   2.535
  508TCM    cl1 2860   4.755   4.802   2.496
  508TCM    cl2 2861   4.923   4.906   2.713
  508TCM     h1 2862   4.993   4.828   2.498
  508TCM    cl3 2863   4.911   5.048   2.457
  509TCM     c1 2864   2.526   3.722   2.823
  509TCM    cl1 2865   2.390   3.617   2.875
  509TCM    cl2 2866   2.485   3.802   2.668
  509TCM     h1 2867   2.544   3.799   2.899
  509TCM    cl3 2868   2.674   3.622   2.802
  510TCM     c1 2869   0.198   4.622   0.036
  510TCM    cl1 2870   0.270   4.717  -0.098
  510TCM    cl2 2871   0.233   4.448   0.011
  510TCM     h1 2872   0.241   4.654   0.131
  510TCM    cl3 2873   0.021   4.646   0.039
  511TCM     c1 2874   1.248   4.000   4.868
  511TCM    cl1 2875   1.155   3.877   4.775
  511TCM    cl2 2876   1.422   3.960   4.860
  511TCM     h1 2877   1.230   4.099   4.826
  511TCM    cl3 2878   1.196   3.997   5.040
  512TCM     c1 2879   0.412   1.919   3.241
  512TCM    cl1 2880   0.289   1.802   3.184
  512TCM    cl2 2881   0.511   1.846   3.371
  512TCM     h1 2882   0.476   1.950   3.158
  512TCM    cl3 2883   0.326   2.062   3.307
  513TCM     c1 2884   4.438   4.977   4.467
  513TCM    cl1 2885   4.608   5.015   4.510
  513TCM    cl2 2886   4.341   5.127   4.472
  513TCM     h1 2887   4.435   4.935   4.366
  513TCM    cl3 2888   4.373   4.857   4.584
  514TCM     c1 2889   4.122   2.341   2.334
  514TCM    cl1 2890   4.225   2.245   2.446
  514TCM    cl2 2891   4.056   2.483   2.422
  514TCM     h1 2892   4.181   2.375   2.249
  514TCM    cl3 2893   3.986   2.239   2.276
  515TCM     c1 2894   3.323   4.617   1.552
  515TCM    cl1 2895   3.295   4.559   1.384
  515TCM    cl2 2896   3.498   4.647   1.577
  515TCM     h1 2897   3.267   4.710   1.569
  515TCM    cl3 2898   3.268   4.491   1.667
  516TCM     c1 2899   0.099   4.873   0.667
  516TCM    cl1 2900   0.112   5.046   0.621
  516TCM    cl2 2901  -0.070   4.838   0.716
  516TCM     h1 2902   0.126   4.810   0.581
  516TCM    cl3 2903   0.211   4.838   0.803
  517TCM     c1 2904   3.886   4.949   4.960
  517TCM    cl1 2905   4.052   4.880   4.957
  517TCM    cl2 2906   3.818   4.948   4.794
  517TCM     h1 2907   3.822   4.890   5.026
  517TCM    cl3 2908   3.894   5.118   5.020
  518TCM     c1 2909   0.765   0.167   2.288
  518TCM    cl1 2910   0.683   0.320   2.333
  518TCM    cl2 2911   0.807   0.171   2.114
  518TCM     h1 2912   0.856   0.156   2.348
  518TCM    cl3 2913   0.655   0.029   2.321
  519TCM     c1 2914   2.585   4.847   4.194
  519TCM    cl1 2915   2.408   4.824   4.212
  519TCM    cl2 2916   2.645   4.747   4.058
  519TCM     h1 2917   2.607   4.952   4.175
  519TCM    cl3 2918   2.667   4.795   4.345
  520TCM     c1 2919   4.333   3.923   1.514
  520TCM    cl1 2920   4.170   3.889   1.446
  520TCM    cl2 2921   4.318   4.054   1.636
  520TCM     h1 2922   4.372   3.833   1.562
  520TCM    cl3 2923   4.445   3.976   1.384
  521TCM     c1 2924   3.006   3.606   4.760
  521TCM    cl1 2925   3.172   3.612   4.827
  521TCM    cl2 2926   2.991   3.461   4.655
  521TCM     h1 2927   2.934   3.600   4.841
  521TCM    cl3 2928   2.975   3.753   4.663
  522TCM     c1 2929   2.682   0.306   4.214
  522TCM    cl1 2930   2.735   0.159   4.301
  522TCM    cl2 2931   2.556   0.261   4.095
  522TCM     h1 2932   2.640   0.378   4.286
  522TCM    cl3 2933   2.822   0.380   4.130
  523TCM     c1 2934   3.135   3.199   1.405
  523TCM    cl1 2935   3.254   3.270   1.291
  523TCM    cl2 2936   3.216   3.159   1.560
  523TCM     h1 2937   3.055   3.271   1.423
  523TCM    cl3 2938   3.065   3.049   1.335
  524TCM     c1 2939   4.914   2.783   3.223
  524TCM    cl1 2940   5.078   2.712   3.217
  524TCM    cl2 2941   4.916   2.928   3.330
  524TCM     h1 2942   4.883   2.812   3.122
  524TCM    cl3 2943   4.799   2.662   3.289
  525TCM     c1 2944   2.113   3.367   2.993
  525TCM    cl1 2945   2.262   3.285   3.051
  525TCM    cl2 2946   2.080   3.509   3.099
  525TCM     h1 2947   2.128   3.401   2.890
  525TCM    cl3 2948   1.974   3.254   3.001
  526TCM     c1 2949   2.791   4.022   1.424
  526TCM    cl1 2950   2.879   3.868   1.447
  526TCM    cl2 2951   2.642   4.020   1.522
  526TCM     h1 2952   2.855   4.105   1.455
  526TCM    cl3 2953   2.749   4.040   1.251
  527TCM     c1 2954   0.266   1.481   2.746
  527TCM    cl1 2955   0.131   1.517   2.634
  527TCM    cl2 2956   0.270   1.305   2.780
  527TCM     h1 2957   0.361   1.512   2.701
  527TCM    cl3 2958   0.241   1.571   2.899
  528TCM     c1 2959   4.145   3.252   2.746
  528TCM    cl1 2960   4.276   3.192   2.853
  528TCM    cl2 2961   4.103   3.419   2.795
  528TCM     h1 2962   4.179   3.251   2.642
  528TCM    cl3 2963   4.001   3.147   2.763
  529TCM     c1 2964   2.493   4.571   2.508
  529TCM    cl1 2965   2.627   4.458   2.472
  529TCM    cl2 2966   2.542   4.684   2.639
  529TCM     h1 2967   2.468   4.629   2.418
  529TCM    cl3 2968   2.348   4.478   2.559
  530TCM     c1 2969   3.429   2.872   1.901
  530TCM    cl1 2970   3.553   2.795   1.797
  530TCM    cl2 2971   3.416   2.781   2.055
  530TCM     h1 2972   3.457   2.975   1.922
  530TCM    cl3 2973   3.270   2.871   1.816
  531TCM     c1 2974   1.887   3.093   4.061
  531TCM    cl1 2975   1.894   3.089   3.881
  531TCM    cl2 2976   1.853   3.260   4.116
  531TCM     h1 2977   1.808   3.026   4.096
  531TCM    cl3 2978   2.045   3.041   4.127
  532TCM     c1 2979   4.915   1.677   0.196
  532TCM    cl1 2980   4.917   1.633   0.022
  532TCM    cl2 2981   4.890   1.527   0.292
  532TCM     h1 2982   5.009   1.723   0.224
  532TCM    cl3 2983   4.780   1.791   0.227
  533TCM     c1 2984   1.984   3.051   1.990
  533TCM    cl1 2985   2.068   3.015   2.144
  533TCM    cl2 2986   2.075   3.178   1.903
  533TCM     h1 2987   1.978   2.961   1.928
  533TCM    cl3 2988   1.819   3.112   2.026
  534TCM     c1 2989   1.830   0.358   4.668
  534TCM    cl1 2990   1.723   0.467   4.573
  534TCM    cl2 2991   1.737   0.212   4.715
  534TCM     h1 2992   1.916   0.329   4.607
  534TCM    cl3 2993   1.885   0.443   4.816
  535TCM     c1 2994   0.262   4.992   4.017
  535TCM    cl1 2995   0.272   5.070   4.178
  535TCM    cl2 2996   0.369   5.079   3.901
  535TCM     h1 2997   0.294   4.888   4.024
  535TCM    cl3 2998   0.093   5.001   3.959
  536TCM     c1 2999   1.614   4.242   1.250
  536TCM    cl1 3000   1.769   4.322   1.209
  536TCM    cl2 3001   1.600   4.228   1.428
  536TCM     h1 3002   1.531   4.302   1.211
  536TCM    cl3 3003   1.611   4.079   1.177
  537TCM     c1 3004   4.819   0.720   4.073
  537TCM    cl1 3005   4.823   0.600   4.206
  537TCM    cl2 3006   4.763   0.640   3.923
  537TCM     h1 3007   4.751   0.801   4.099
  537TCM    cl3 3008   4.984   0.785   4.048
  538TCM     c1 3009   2.358   3.034   0.092
  538TCM    cl1 3010   2.226   3.014  -0.027
  538TCM    cl2 3011   2.303   3.140   0.226
  538TCM     h1 3012   2.386   2.936   0.133
  538TCM    cl3 3013   2.501   3.107   0.012
  539TCM     c1 3014   2.653   4.211   0.944
  539TCM    cl1 3015   2.774   4.343   0.937
  539TCM    cl2 3016   2.604   4.167   0.777
  539TCM     h1 3017   2.696   4.124   0.994
  539TCM    cl3 3018   2.509   4.267   1.034
  540TCM     c1 3019   1.515   0.619   3.810
  540TCM    cl1 3020   1.529   0.442   3.782
  540TCM    cl2 3021   1.525   0.707   3.654
  540TCM     h1 3022   1.418   0.641   3.857
  540TCM    cl3 3023   1.646   0.673   3.920
  541TCM     c1 3024   1.504   0.912   2.802
  541TCM    cl1 3025   1.531   0.894   2.625
  541TCM    cl2 3026   1.391   0.785   2.858
  541TCM     h1 3027   1.599   0.902   2.855
  541TCM    cl3 3028   1.432   1.073   2.835
  542TCM     c1 3029   2.068   3.006   3.500
  542TCM    cl1 3030   2.085   3.083   3.339
  542TCM    cl2 3031   2.211   3.047   3.602
  542TCM     h1 3032   1.978   3.043   3.549
  542TCM    cl3 3033   2.058   2.828   3.480
  543TCM     c1 3034   3.763   4.072   2.873
  543TCM    cl1 3035   3.763   4.050   3.051
  543TCM    cl2 3036   3.666   4.216   2.831
  543TCM     h1 3037   3.866   4.085   2.838
  543TCM    cl3 3038   3.690   3.928   2.796
  544TCM     c1 3039   2.630   0.132   0.259
  544TCM    cl1 3040   2.794   0.073   0.218
  544TCM    cl2 3041   2.640   0.301   0.320
  544TCM     h1 3042   2.566   0.130   0.170
  544TCM    cl3 3043   2.560   0.026   0.386
  545TCM     c1 3044   1.701   3.599   3.822
  545TCM    cl1 3045   1.753   3.661   3.982
  545TCM    cl2 3046   1.684   3.421   3.830
  545TCM     h1 3047   1.604   3.644   3.795
  545TCM    cl3 3048   1.823   3.644   3.698
  546TCM     c1 3049   2.104   2.283   0.945
  546TCM    cl1 3050   2.166   2.313   1.111
  546TCM    cl2 3051   1.985   2.410   0.903
  546TCM     h1 3052   2.187   2.285   0.874
  546TCM    cl3 3053   2.024   2.122   0.941
  547TCM     c1 3054   2.929   4.987   3.512
  547TCM    cl1 3055   3.001   5.134   3.585
  547TCM    cl2 3056   2.837   5.033   3.365
  547TCM     h1 3057   3.009   4.917   3.485
  547TCM    cl3 3058   2.819   4.907   3.629
  548TCM     c1 3059   1.999   1.039   1.941
  548TCM    cl1 3060   2.007   1.041   1.762
  548TCM    cl2 3061   1.868   1.149   1.995
  548TCM     h1 3062   1.979   0.937   1.975
  548TCM    cl3 3063   2.155   1.096   2.008
  549TCM     c1 3064   2.217   2.542   0.067
  549TCM    cl1 3065   2.263   2.693   0.152
  549TCM    cl2 3066   2.104   2.581  -0.066
  549TCM     h1 3067   2.307   2.495   0.027
  549TCM    cl3 3068   2.138   2.431   0.184
  550TCM     c1 3069   3.258   2.357   3.796
  550TCM    cl1 3070   3.270   2.363   3.976
  550TCM    cl2 3071   3.377   2.240   3.732
  550TCM     h1 3072   3.157   2.327   3.767
  550TCM    cl3 3073   3.294   2.520   3.729
  551TCM     c1 3074   0.686   0.440   1.890
  551TCM    cl1 3075   0.618   0.326   1.770
  551TCM    cl2 3076   0.565   0.474   2.018
  551TCM     h1 3077   0.776   0.396   1.935
  551TCM    cl3 3078   0.730   0.594   1.809
  552TCM     c1 3079   0.027   2.608   3.580
  552TCM    cl1 3080  -0.098   2.716   3.650
  552TCM    cl2 3081   0.049   2.466   3.688
  552TCM     h1 3082  -0.005   2.574   3.481
  552TCM    cl3 3083   0.182   2.696   3.567
  553TCM     c1 3084   4.279   4.630   0.714
  553TCM    cl1 3085   4.247   4.674   0.885
  553TCM    cl2 3086   4.235   4.767   0.608
  553TCM     h1 3087   4.386   4.607   0.702
  553TCM    cl3 3088   4.181   4.486   0.671
  554TCM     c1 3089   0.230   3.968   0.676
  554TCM    cl1 3090   0.110   3.869   0.588
  554TCM    cl2 3091   0.182   4.141   0.668
  554TCM     h1 3092   0.234   3.936   0.781
  554TCM    cl3 3093   0.392   3.947   0.602
  555TCM     c1 3094   1.982   2.194   3.517
  555TCM    cl1 3095   2.085   2.277   3.395
  555TCM    cl2 3096   1.901   2.318   3.617
  555TCM     h1 3097   1.908   2.132   3.467
  555TCM    cl3 3098   2.086   2.091   3.621
  556TCM     c1 3099   0.576   4.011   0.982
  556TCM    cl1 3100   0.445   3.889   0.969
  556TCM    cl2 3101   0.529   4.157   0.889
  556TCM     h1 3102   0.591   4.038   1.087
  556TCM    cl3 3103   0.727   3.942   0.915
  557TCM     c1 3104   1.401   3.716   0.163
  557TCM    cl1 3105   1.318   3.782   0.307
  557TCM    cl2 3106   1.396   3.537   0.170
  557TCM     h1 3107   1.350   3.750   0.072
  557TCM    cl3 3108   1.571   3.771   0.160
  558TCM     c1 3109   2.968   1.879   2.393
  558TCM    cl1 3110   3.133   1.831   2.341
  558TCM    cl2 3111   2.905   2.001   2.278
  558TCM     h1 3112   2.903   1.792   2.394
  558TCM    cl3 3113   2.976   1.952   2.557
  559TCM     c1 3114   1.547   2.667   2.737
  559TCM    cl1 3115   1.643   2.800   2.665
  559TCM    cl2 3116   1.627   2.612   2.889
  559TCM     h1 3117   1.446   2.702   2.760
  559TCM    cl3 3118   1.539   2.529   2.623
  560TCM     c1 3119   3.175   4.675   1.945
  560TCM    cl1 3120   3.057   4.750   1.833
  560TCM    cl2 3121   3.125   4.702   2.115
  560TCM     h1 3122   3.181   4.567   1.926
  560TCM    cl3 3123   3.337   4.748   1.919
  561TCM     c1 3124   0.946   2.384   4.290
  561TCM    cl1 3125   0.895   2.519   4.397
  561TCM    cl2 3126   0.927   2.435   4.119
  561TCM     h1 3127   1.050   2.359   4.309
  561TCM    cl3 3128   0.842   2.241   4.322
  562TCM     c1 3129   4.672   3.623   4.787
  562TCM    cl1 3130   4.736   3.487   4.885
  562TCM    cl2 3131   4.753   3.627   4.627
  562TCM     h1 3132   4.564   3.610   4.773
  562TCM    cl3 3133   4.702   3.778   4.874
  563TCM     c1 3134   0.141   1.915   3.679
  563TCM    cl1 3135   0.185   1.815   3.538
  563TCM    cl2 3136  -0.009   1.850   3.753
  563TCM     h1 3137   0.222   1.914   3.752
  563TCM    cl3 3138   0.109   2.084   3.626
  564TCM     c1 3139   3.907   2.133   2.657
  564TCM    cl1 3140   3.789   2.248   2.585
  564TCM    cl2 3141   3.917   1.985   2.556
  564TCM     h1 3142   4.006   2.180   2.661
  564TCM    cl3 3143   3.855   2.088   2.823
  565TCM     c1 3144   1.423   2.799   4.970
  565TCM    cl1 3145   1.488   2.818   5.136
  565TCM    cl2 3146   1.309   2.933   4.935
  565TCM     h1 3147   1.506   2.802   4.898
  565TCM    cl3 3148   1.337   2.642   4.957
  566TCM     c1 3149   3.446   2.018   2.792
  566TCM    cl1 3150   3.279   2.009   2.728
  566TCM    cl2 3151   3.496   2.190   2.797
  566TCM     h1 3152   3.450   1.975   2.892
  566TCM    cl3 3153   3.555   1.926   2.683
  567TCM     c1 3154   2.800   4.811   0.670
  567TCM    cl1 3155   2.637   4.866   0.722
  567TCM    cl2 3156   2.792   4.754   0.500
  567TCM     h1 3157   2.870   4.894   0.678
  567TCM    cl3 3158   2.854   4.676   0.776
  568TCM     c1 3159   1.610   3.677   0.564
  568TCM    cl1 3160   1.673   3.638   0.728
  568TCM    cl2 3161   1.639   3.538   0.454
  568TCM     h1 3162   1.503   3.698   0.570
  568TCM    cl3 3163   1.695   3.822   0.501
  569TCM     c1 3164   0.094   3.086   0.066
  569TCM    cl1 3165  -0.069   3.157   0.090
  569TCM    cl2 3166   0.120   3.051  -0.108
  569TCM     h1 3167   0.170   3.156   0.102
  569TCM    cl3 3168   0.104   2.933   0.158
  570TCM     c1 3169   2.839   4.560   2.922
  570TCM    cl1 3170   2.801   4.732   2.889
  570TCM    cl2 3171   2.842   4.469   2.768
  570TCM     h1 3172   2.936   4.553   2.972
  570TCM    cl3 3173   2.711   4.491   3.028
  571TCM     c1 3174   4.626   3.730   3.345
  571TCM    cl1 3175   4.546   3.700   3.503
  571TCM    cl2 3176   4.549   3.871   3.265
  571TCM     h1 3177   4.732   3.751   3.361
  571TCM    cl3 3178   4.608   3.586   3.240
  572TCM     c1 3179   1.361   0.945   3.184
  572TCM    cl1 3180   1.536   0.981   3.165
  572TCM    cl2 3181   1.269   1.098   3.195
  572TCM     h1 3182   1.325   0.886   3.099
  572TCM    cl3 3183   1.335   0.853   3.336
  573TCM     c1 3184   3.170   2.721   4.111
  573TCM    cl1 3185   3.328   2.742   4.029
  573TCM    cl2 3186   3.049   2.665   3.991
  573TCM     h1 3187   3.179   2.647   4.191
  573TCM    cl3 3188   3.117   2.879   4.179
  574TCM     c1 3189   2.283   4.021   0.479
  574TCM    cl1 3190   2.198   4.094   0.339
  574TCM    cl2 3191   2.460   4.044   0.463
  574TCM     h1 3192   2.248   4.069   0.571
  574TCM    cl3 3193   2.246   3.846   0.486
  575TCM     c1 3194   3.201   1.741   4.997
  575TCM    cl1 3195   3.345   1.725   5.104
  575TCM    cl2 3196   3.233   1.658   4.841
  575TCM     h1 3197   3.115   1.695   5.046
  575TCM    cl3 3198   3.168   1.914   4.968
  576TCM     c1 3199   2.324   1.685   3.704
  576TCM    cl1 3200   2.380   1.847   3.758
  576TCM    cl2 3201   2.209   1.707   3.568
  576TCM     h1 3202   2.409   1.625   3.671
  576TCM    cl3 3203   2.239   1.602   3.838
  577TCM     c1 3204   1.240   0.640   2.507
  577TCM    cl1 3205   1.331   0.704   2.367
  577TCM    cl2 3206   1.121   0.517   2.451
  577TCM     h1 3207   1.309   0.594   2.578
  577TCM    cl3 3208   1.151   0.773   2.587
  578TCM     c1 3209   2.461   4.166   4.933
  578TCM    cl1 3210   2.436   4.210   5.105
  578TCM    cl2 3211   2.309   4.098   4.867
  578TCM     h1 3212   2.489   4.255   4.876
  578TCM    cl3 3213   2.591   4.044   4.922
  579TCM     c1 3214   2.323   4.263   1.459
  579TCM    cl1 3215   2.243   4.368   1.580
  579TCM    cl2 3216   2.249   4.289   1.298
  579TCM     h1 3217   2.430   4.287   1.455
  579TCM    cl3 3218   2.303   4.092   1.507
  580TCM     c1 3219   0.985   2.555   4.922
  580TCM    cl1 3220   0.847   2.609   5.023
  580TCM    cl2 3221   0.928   2.514   4.757
  580TCM     h1 3222   1.059   2.635   4.916
  580TCM    cl3 3223   1.059   2.408   4.993
  581TCM     c1 3224   1.528   1.007   1.609
  581TCM    cl1 3225   1.542   1.184   1.632
  581TCM    cl2 3226   1.374   0.949   1.681
  581TCM     h1 3227   1.530   0.984   1.502
  581TCM    cl3 3228   1.666   0.925   1.690
  582TCM     c1 3229   0.296   3.451   3.462
  582TCM    cl1 3230   0.191   3.563   3.554
  582TCM    cl2 3231   0.322   3.517   3.298
  582TCM     h1 3232   0.392   3.440   3.513
  582TCM    cl3 3233   0.215   3.291   3.448
  583TCM     c1 3234   2.393   4.889   1.219
  583TCM    cl1 3235   2.428   4.939   1.387
  583TCM    cl2 3236   2.492   4.986   1.105
  583TCM     h1 3237   2.416   4.783   1.206
  583TCM    cl3 3238   2.219   4.917   1.183
  584TCM     c1 3239   0.155   0.007   3.579
  584TCM    cl1 3240   0.241  -0.145   3.621
  584TCM    cl2 3241  -0.020  -0.012   3.610
  584TCM     h1 3242   0.195   0.089   3.640
  584TCM    cl3 3243   0.181   0.044   3.405
  585TCM     c1 3244   3.197   3.822   1.279
  585TCM    cl1 3245   3.338   3.931   1.293
  585TCM    cl2 3246   3.253   3.655   1.248
  585TCM     h1 3247   3.140   3.825   1.372
  585TCM    cl3 3248   3.092   3.875   1.143
  586TCM     c1 3249   4.539   4.213   3.537
  586TCM    cl1 3250   4.600   4.351   3.635
  586TCM    cl2 3251   4.611   4.060   3.596
  586TCM     h1 3252   4.430   4.208   3.545
  586TCM    cl3 3253   4.585   4.238   3.365
  587TCM     c1 3254   0.997   3.610   0.198
  587TCM    cl1 3255   1.024   3.440   0.249
  587TCM    cl2 3256   0.821   3.646   0.205
  587TCM     h1 3257   1.051   3.677   0.265
  587TCM    cl3 3258   1.056   3.632   0.030
  588TCM     c1 3259   0.317   2.143   4.950
  588TCM    cl1 3260   0.318   2.139   5.129
  588TCM    cl2 3261   0.442   2.030   4.887
  588TCM     h1 3262   0.219   2.112   4.913
  588TCM    cl3 3263   0.351   2.309   4.893
  589TCM     c1 3264   0.993   0.139   2.645
  589TCM    cl1 3265   0.888   0.285   2.651
  589TCM    cl2 3266   1.109   0.155   2.510
  589TCM     h1 3267   1.046   0.128   2.740
  589TCM    cl3 3268   0.889  -0.004   2.617
  590TCM     c1 3269   0.969   1.223   3.967
  590TCM    cl1 3270   0.829   1.324   4.014
  590TCM    cl2 3271   0.917   1.093   3.854
  590TCM     h1 3272   1.044   1.286   3.918
  590TCM    cl3 3273   1.041   1.148   4.113
  591TCM     c1 3274   3.693   2.572   3.783
  591TCM    cl1 3275   3.666   2.484   3.628
  591TCM    cl2 3276   3.631   2.472   3.919
  591TCM     h1 3277   3.799   2.590   3.797
  591TCM    cl3 3278   3.605   2.728   3.779
  592TCM     c1 3279   1.947   3.339   4.937
  592TCM    cl1 3280   1.896   3.217   4.815
  592TCM    cl2 3281   1.967   3.260   5.097
  592TCM     h1 3282   2.042   3.383   4.906
  592TCM    cl3 3283   1.823   3.468   4.950
  593TCM     c1 3284   1.279   0.290   0.767
  593TCM    cl1 3285   1.173   0.293   0.623
  593TCM    cl2 3286   1.379   0.440   0.769
  593TCM     h1 3287   1.219   0.286   0.857
  593TCM    cl3 3288   1.387   0.147   0.758
  594TCM     c1 3289   0.450   3.590   0.269
  594TCM    cl1 3290   0.403   3.489   0.127
  594TCM    cl2 3291   0.494   3.482   0.405
  594TCM     h1 3292   0.536   3.652   0.242
  594TCM    cl3 3293   0.312   3.694   0.315
  595TCM     c1 3294   3.009   1.375   3.045
  595TCM    cl1 3295   3.087   1.471   3.174
  595TCM    cl2 3296   3.056   1.440   2.884
  595TCM     h1 3297   3.040   1.270   3.052
  595TCM    cl3 3298   2.831   1.386   3.063
  596TCM     c1 3299   2.691   4.665   4.989
  596TCM    cl1 3300   2.643   4.749   4.838
  596TCM    cl2 3301   2.640   4.493   4.981
  596TCM     h1 3302   2.799   4.670   5.001
  596TCM    cl3 3303   2.610   4.743   5.130
  597TCM     c1 3304   3.733   3.216   3.054
  597TCM    cl1 3305   3.860   3.342   3.055
  597TCM    cl2 3306   3.612   3.255   2.928
  597TCM     h1 3307   3.778   3.119   3.033
  597TCM    cl3 3308   3.654   3.212   3.215
  598TCM     c1 3309   2.933   3.884   0.718
  598TCM    cl1 3310   2.938   4.031   0.820
  598TCM    cl2 3311   2.774   3.871   0.637
  598TCM     h1 3312   3.012   3.890   0.642
  598TCM    cl3 3313   2.961   3.740   0.821
  599TCM     c1 3314   4.419   4.188   0.962
  599TCM    cl1 3315   4.433   4.362   0.921
  599TCM    cl2 3316   4.574   4.132   1.035
  599TCM     h1 3317   4.337   4.173   1.033
  599TCM    cl3 3318   4.388   4.096   0.812
  600TCM     c1 3319   4.672   2.717   4.930
  600TCM    cl1 3320   4.544   2.711   5.056
  600TCM    cl2 3321   4.784   2.852   4.966
  600TCM     h1 3322   4.727   2.623   4.929
  600TCM    cl3 3323   4.596   2.745   4.770
  601TCM     c1 3324   2.993   0.765   2.194
  601TCM    cl1 3325   2.903   0.617   2.147
  601TCM    cl2 3326   3.110   0.806   2.065
  601TCM     h1 3327   2.924   0.848   2.209
  601TCM    cl3 3328   3.083   0.733   2.347
  602TCM     c1 3329   3.194   4.423   2.750
  602TCM    cl1 3330   3.183   4.588   2.678
  602TCM    cl2 3331   3.215   4.439   2.927
  602TCM     h1 3332   3.103   4.367   2.728
  602TCM    cl3 3333   3.336   4.337   2.681
  603TCM     c1 3334   3.525   3.221   3.751
  603TCM    cl1 3335   3.619   3.247   3.902
  603TCM    cl2 3336   3.450   3.058   3.754
  603TCM     h1 3337   3.448   3.297   3.742
  603TCM    cl3 3338   3.636   3.231   3.610
  604TCM     c1 3339   4.056   0.333   4.770
  604TCM    cl1 3340   4.164   0.446   4.682
  604TCM    cl2 3341   4.095   0.165   4.719
  604TCM     h1 3342   4.072   0.344   4.877
  604TCM    cl3 3343   3.885   0.369   4.729
  605TCM     c1 3344   3.230   3.274   3.283
  605TCM    cl1 3345   3.341   3.266   3.423
  605TCM    cl2 3346   3.315   3.346   3.142
  605TCM     h1 3347   3.196   3.174   3.257
  605TCM    cl3 3348   3.090   3.376   3.329
  606TCM     c1 3349   0.719   2.440   1.822
  606TCM    cl1 3350   0.771   2.290   1.740
  606TCM    cl2 3351   0.539   2.447   1.822
  606TCM     h1 3352   0.755   2.439   1.926
  606TCM    cl3 3353   0.786   2.582   1.736
  607TCM     c1 3354   0.159   4.131   2.835
  607TCM    cl1 3355   0.212   4.293   2.778
  607TCM    cl2 3356   0.248   4.089   2.985
  607TCM     h1 3357   0.052   4.132   2.855
  607TCM    cl3 3358   0.194   4.010   2.708
  608TCM     c1 3359   2.374   3.310   1.192
  608TCM    cl1 3360   2.446   3.409   1.323
  608TCM    cl2 3361   2.197   3.338   1.189
  608TCM     h1 3362   2.417   3.340   1.096
  608TCM    cl3 3363   2.406   3.136   1.222
  609TCM     c1 3364   0.046   1.261   2.382
  609TCM    cl1 3365   0.021   1.359   2.234
  609TCM    cl2 3366   0.221   1.229   2.403
  609TCM     h1 3367   0.008   1.316   2.469
  609TCM    cl3 3368  -0.043   1.106   2.367
  610TCM     c1 3369   3.987   2.920   3.570
  610TCM    cl1 3370   3.940   2.752   3.528
  610TCM    cl2 3371   4.162   2.924   3.614
  610TCM     h1 3372   3.969   2.986   3.485
  610TCM    cl3 3373   3.890   2.975   3.711
  611TCM     c1 3374   1.857   3.346   3.364
  611TCM    cl1 3375   1.740   3.232   3.292
  611TCM    cl2 3376   1.878   3.309   3.539
  611TCM     h1 3377   1.954   3.337   3.313
  611TCM    cl3 3378   1.797   3.514   3.347
  612TCM     c1 3379   2.753   3.168   2.495
  612TCM    cl1 3380   2.626   3.103   2.387
  612TCM    cl2 3381   2.731   3.097   2.659
  612TCM     h1 3382   2.852   3.141   2.456
  612TCM    cl3 3383   2.736   3.346   2.505
  613TCM     c1 3384   1.858   2.854   0.196
  613TCM    cl1 3385   1.849   2.676   0.222
  613TCM    cl2 3386   1.864   2.889   0.020
  613TCM     h1 3387   1.771   2.902   0.241
  613TCM    cl3 3388   2.007   2.917   0.274
  614TCM     c1 3389   4.710   0.634   2.602
  614TCM    cl1 3390   4.784   0.471   2.590
  614TCM    cl2 3391   4.628   0.673   2.447
  614TCM     h1 3392   4.636   0.634   2.682
  614TCM    cl3 3393   4.837   0.756   2.636
  615TCM     c1 3394   0.205   2.246   0.987
  615TCM    cl1 3395   0.175   2.316   0.824
  615TCM    cl2 3396   0.100   2.328   1.108
  615TCM     h1 3397   0.182   2.139   0.985
  615TCM    cl3 3398   0.376   2.272   1.032
  616TCM     c1 3399   2.995   3.972   0.139
  616TCM    cl1 3400   2.986   3.821   0.042
  616TCM    cl2 3401   2.940   4.111   0.040
  616TCM     h1 3402   2.931   3.963   0.227
  616TCM    cl3 3403   3.164   3.999   0.192
  617TCM     c1 3404   2.621   3.894   3.565
  617TCM    cl1 3405   2.547   3.913   3.728
  617TCM    cl2 3406   2.709   4.044   3.523
  617TCM     h1 3407   2.690   3.809   3.566
  617TCM    cl3 3408   2.492   3.864   3.445
  618TCM     c1 3409   2.188   4.467   1.970
  618TCM    cl1 3410   2.325   4.358   1.931
  618TCM    cl2 3411   2.156   4.461   2.146
  618TCM     h1 3412   2.213   4.570   1.941
  618TCM    cl3 3413   2.041   4.413   1.881
  619TCM     c1 3414   1.261   1.955   0.508
  619TCM    cl1 3415   1.362   1.849   0.612
  619TCM    cl2 3416   1.120   2.014   0.601
  619TCM     h1 3417   1.320   2.040   0.473
  619TCM    cl3 3418   1.202   1.860   0.367
  620TCM     c1 3419   0.556   2.627   4.326
  620TCM    cl1 3420   0.496   2.770   4.235
  620TCM    cl2 3421   0.550   2.482   4.219
  620TCM     h1 3422   0.659   2.645   4.357
  620TCM    cl3 3423   0.454   2.600   4.471
  621TCM     c1 3424   0.577   1.341   4.410
  621TCM    cl1 3425   0.660   1.499   4.428
  621TCM    cl2 3426   0.696   1.208   4.426
  621TCM     h1 3427   0.501   1.331   4.488
  621TCM    cl3 3428   0.499   1.332   4.248
  622TCM     c1 3429   0.264   2.689   0.371
  622TCM    cl1 3430   0.158   2.777   0.486
  622TCM    cl2 3431   0.330   2.544   0.453
  622TCM     h1 3432   0.206   2.659   0.283
  622TCM    cl3 3433   0.398   2.798   0.321
  623TCM     c1 3434   2.139   4.013   4.490
  623TCM    cl1 3435   2.082   3.885   4.603
  623TCM    cl2 3436   2.094   4.174   4.554
  623TCM     h1 3437   2.248   4.006   4.480
  623TCM    cl3 3438   2.064   3.989   4.329
  624TCM     c1 3439   3.028   3.673   3.102
  624TCM    cl1 3440   2.990   3.515   3.025
  624TCM    cl2 3441   2.995   3.803   2.985
  624TCM     h1 3442   2.964   3.687   3.190
  624TCM    cl3 3443   3.200   3.679   3.152
  625TCM     c1 3444   2.810   4.250   0.463
  625TCM    cl1 3445   2.938   4.125   0.450
  625TCM    cl2 3446   2.729   4.268   0.304
  625TCM     h1 3447   2.736   4.220   0.538
  625TCM    cl3 3448   2.885   4.406   0.508
  626TCM     c1 3449   3.387   4.280   0.182
  626TCM    cl1 3450   3.293   4.303   0.030
  626TCM    cl2 3451   3.280   4.310   0.324
  626TCM     h1 3452   3.425   4.178   0.185
  626TCM    cl3 3453   3.524   4.395   0.186
  627TCM     c1 3454   2.397   3.496   0.512
  627TCM    cl1 3455   2.521   3.625   0.505
  627TCM    cl2 3456   2.319   3.499   0.673
  627TCM     h1 3457   2.322   3.512   0.434
  627TCM    cl3 3458   2.477   3.337   0.488
  628TCM     c1 3459   3.841   3.463   3.428
  628TCM    cl1 3460   3.922   3.579   3.318
  628TCM    cl2 3461   3.821   3.540   3.588
  628TCM     h1 3462   3.743   3.436   3.387
  628TCM    cl3 3463   3.942   3.315   3.444
  629TCM     c1 3464   0.096   4.611   3.972
  629TCM    cl1 3465  -0.029   4.676   3.861
  629TCM    cl2 3466   0.079   4.690   4.132
  629TCM     h1 3467   0.083   4.503   3.984
  629TCM    cl3 3468   0.259   4.645   3.906
  630TCM     c1 3469   4.096   0.117   3.507
  630TCM    cl1 3470   4.194   0.125   3.658
  630TCM    cl2 3471   4.026   0.279   3.472
  630TCM     h1 3472   4.159   0.085   3.424
  630TCM    cl3 3473   3.962  -0.000   3.530
  631TCM     c1 3474   2.403   2.552   3.106
  631TCM    cl1 3475   2.397   2.632   2.946
  631TCM    cl2 3476   2.243   2.568   3.186
  631TCM     h1 3477   2.427   2.446   3.093
  631TCM    cl3 3478   2.527   2.631   3.208
  632TCM     c1 3479   4.781   4.338   2.694
  632TCM    cl1 3480   4.874   4.454   2.794
  632TCM    cl2 3481   4.672   4.242   2.800
  632TCM     h1 3482   4.721   4.393   2.621
  632TCM    cl3 3483   4.894   4.227   2.610
  633TCM     c1 3484   2.536   0.715   1.968
  633TCM    cl1 3485   2.373   0.782   1.937
  633TCM    cl2 3486   2.525   0.590   2.097
  633TCM     h1 3487   2.576   0.670   1.877
  633TCM    cl3 3488   2.645   0.846   2.024
  634TCM     c1 3489   0.124   2.416   3.018
  634TCM    cl1 3490   0.110   2.492   2.856
  634TCM    cl2 3491   0.211   2.259   3.003
  634TCM     h1 3492   0.180   2.482   3.085
  634TCM    cl3 3493  -0.039   2.387   3.085
  635TCM     c1 3494   1.218   4.057   0.649
  635TCM    cl1 3495   1.135   4.072   0.490
  635TCM    cl2 3496   1.357   3.944   0.634
  635TCM     h1 3497   1.254   4.155   0.681
  635TCM    cl3 3498   1.103   3.992   0.771
  636TCM     c1 3499   2.674   2.972   0.437
  636TCM    cl1 3500   2.694   3.094   0.308
  636TCM    cl2 3501   2.501   2.925   0.448
  636TCM     h1 3502   2.735   2.884   0.414
  636TCM    cl3 3503   2.726   3.043   0.593
  637TCM     c1 3504   0.462   0.198   0.775
  637TCM    cl1 3505   0.473   0.055   0.667
  637TCM    cl2 3506   0.400   0.146   0.935
  637TCM     h1 3507   0.562   0.242   0.787
  637TCM    cl3 3508   0.351   0.319   0.704
  638TCM     c1 3509   4.903   2.084   2.877
  638TCM    cl1 3510   4.744   2.087   2.961
  638TCM    cl2 3511   4.879   2.041   2.705
  638TCM     h1 3512   4.950   2.182   2.884
  638TCM    cl3 3513   5.008   1.961   2.955
  639TCM     c1 3514   2.474   0.719   3.320
  639TCM    cl1 3515   2.535   0.587   3.215
  639TCM    cl2 3516   2.590   0.856   3.315
  639TCM     h1 3517   2.376   0.752   3.285
  639TCM    cl3 3518   2.461   0.658   3.488
  640TCM     c1 3519   0.158   0.873   2.038
  640TCM    cl1 3520   0.167   1.050   2.066
  640TCM    cl2 3521   0.297   0.821   1.937
  640TCM     h1 3522   0.162   0.821   2.134
  640TCM    cl3 3523   0.005   0.833   1.954
  641TCM     c1 3524   4.005   0.295   4.375
  641TCM    cl1 3525   3.854   0.200   4.392
  641TCM    cl2 3526   3.965   0.470   4.372
  641TCM     h1 3527   4.071   0.274   4.459
  641TCM    cl3 3528   4.087   0.250   4.222
  642TCM     c1 3529   4.964   0.739   4.661
  642TCM    cl1 3530   4.940   0.596   4.556
  642TCM    cl2 3531   5.136   0.790   4.654
  642TCM     h1 3532   4.900   0.821   4.627
  642TCM    cl3 3533   4.920   0.697   4.830
  643TCM     c1 3534   2.831   0.742   1.496
  643TCM    cl1 3535   3.009   0.744   1.473
  643TCM    cl2 3536   2.790   0.804   1.659
  643TCM     h1 3537   2.784   0.805   1.420
  643TCM    cl3 3538   2.770   0.574   1.481
  644TCM     c1 3539   2.088   1.156   3.709
  644TCM    cl1 3540   2.188   1.112   3.851
  644TCM    cl2 3541   2.080   1.018   3.594
  644TCM     h1 3542   1.987   1.181   3.742
  644TCM    cl3 3543   2.162   1.297   3.627
   5.00000   5.00000   5.00000
