GROningen MAchine for Chemical Simulation
 3543
    1MOP     C1    1   3.017   2.567   3.228
    1MOP     O2    2   2.902   2.561   3.187
    1MOP     C3    3   3.046   2.659   3.341
    1MOP     C4    4   3.165   2.647   3.415
    1MOP     C5    5   3.194   2.734   3.520
    1MOP     C6    6   3.104   2.836   3.555
    1MOP     C7    7   3.131   2.923   3.670
    1MOP     C8    8   3.123   3.065   3.664
    1MOP     C9    9   3.144   3.138   3.782
    1MOP    C10   10   3.175   3.078   3.904
    1MOP    O11   11   3.194   3.161   4.012
    1MOP    C12   12   3.235   3.103   4.136
    1MOP    C13   13   3.184   2.938   3.908
    1MOP    C14   14   3.162   2.862   3.792
    1MOP    C15   15   3.100   3.140   3.539
    1MOP    C16   16   3.001   3.239   3.532
    1MOP    C17   17   2.985   3.313   3.415
    1MOP    C18   18   3.068   3.292   3.305
    1MOP    C19   19   3.169   3.194   3.311
    1MOP    C20   20   3.183   3.119   3.427
    1MOP    C21   21   3.269   3.174   3.197
    1MOP    N22   22   3.206   3.171   3.064
    1MOP    C23   23   3.385   3.270   3.216
    1MOP    C24   24   2.985   2.848   3.482
    1MOP    C25   25   2.957   2.761   3.376
    1MOP    H26   26   3.237   2.569   3.390
    1MOP    H27   27   3.285   2.721   3.576
    1MOP    H28   28   3.140   3.247   3.779
    1MOP    H29   29   3.250   3.182   4.210
    1MOP    H30   30   3.329   3.048   4.124
    1MOP    H31   31   3.158   3.035   4.175
    1MOP    H32   32   3.206   2.885   4.001
    1MOP    H33   33   3.167   2.754   3.799
    1MOP    H34   34   2.937   3.257   3.617
    1MOP    H35   35   2.907   3.389   3.410
    1MOP    H36   36   3.055   3.353   3.216
    1MOP    H37   37   3.261   3.043   3.435
    1MOP    H38   38   3.311   3.074   3.210
    1MOP    H39   39   3.160   3.084   3.039
    1MOP    H40   40   3.350   3.374   3.217
    1MOP    H41   41   3.460   3.256   3.138
    1MOP    H42   42   3.433   3.251   3.312
    1MOP    H43   43   2.914   2.926   3.507
    1MOP    H44   44   2.863   2.774   3.321
    2MOP    C45   45   3.175   3.272   2.975
    2MOP    O46   46   3.106   3.234   2.882
    2MOP    C47   47   3.214   3.414   2.977
    2MOP    C48   48   3.348   3.453   2.961
    2MOP    C49   49   3.382   3.589   2.951
    2MOP    C50   50   3.282   3.686   2.951
    2MOP    C51   51   3.316   3.827   2.925
    2MOP    C52   52   3.272   3.896   2.810
    2MOP    C53   53   3.306   4.032   2.796
    2MOP    C54   54   3.385   4.099   2.890
    2MOP    O55   55   3.414   4.231   2.863
    2MOP    C56   56   3.504   4.301   2.950
    2MOP    C57   57   3.430   4.028   3.002
    2MOP    C58   58   3.395   3.894   3.020
    2MOP    C59   59   3.194   3.832   2.701
    2MOP    C60   60   3.082   3.896   2.645
    2MOP    C61   61   3.010   3.836   2.542
    2MOP    C62   62   3.047   3.710   2.494
    2MOP    C63   63   3.158   3.644   2.548
    2MOP    C64   64   3.231   3.707   2.650
    2MOP    C65   65   3.205   3.509   2.499
    2MOP    N66   66   3.096   3.409   2.499
    2MOP    C67   67   3.284   3.529   2.370
    2MOP    C68   68   3.148   3.648   2.965
    2MOP    C69   69   3.115   3.513   2.978
    2MOP    H70   70   3.426   3.378   2.953
    2MOP    H71   71   3.485   3.618   2.938
    2MOP    H72   72   3.275   4.087   2.708
    2MOP    H73   73   3.519   4.402   2.912
    2MOP    H74   74   3.599   4.250   2.955
    2MOP    H75   75   3.461   4.309   3.051
    2MOP    H76   76   3.490   4.076   3.079
    2MOP    H77   77   3.430   3.841   3.109
    2MOP    H78   78   3.051   3.994   2.682
    2MOP    H79   79   2.924   3.888   2.499
    2MOP    H80   80   2.991   3.666   2.413
    2MOP    H81   81   3.319   3.658   2.690
    2MOP    H82   82   3.277   3.470   2.571
    2MOP    H83   83   3.068   3.379   2.592
    2MOP    H84   84   3.223   3.575   2.292
    2MOP    H85   85   3.324   3.432   2.334
    2MOP    H86   86   3.370   3.595   2.389
    2MOP    H87   87   3.070   3.723   2.962
    2MOP    H88   88   3.010   3.484   2.984
    3MOP    C89   89   2.992   3.392   2.410
    3MOP    O90   90   2.894   3.345   2.464
    3MOP    C91   91   2.990   3.417   2.265
    3MOP    C92   92   3.093   3.374   2.180
    3MOP    C93   93   3.089   3.402   2.043
    3MOP    C94   94   2.977   3.466   1.987
    3MOP    C95   95   2.969   3.494   1.844
    3MOP    C96   96   2.887   3.419   1.756
    3MOP    C97   97   2.879   3.458   1.622
    3MOP    C98   98   2.949   3.567   1.571
    3MOP    O99   99   2.933   3.595   1.437
    3MOP   C100  100   3.013   3.698   1.379
    3MOP   C101  101   3.032   3.640   1.659
    3MOP   C102  102   3.040   3.603   1.793
    3MOP   C103  103   2.815   3.298   1.801
    3MOP   C104  104   2.677   3.283   1.780
    3MOP   C105  105   2.612   3.168   1.823
    3MOP   C106  106   2.684   3.065   1.885
    3MOP   C107  107   2.823   3.076   1.904
    3MOP   C108  108   2.886   3.193   1.861
    3MOP   C109  109   2.906   2.966   1.966
    3MOP   N110  110   2.904   2.976   2.111
    3MOP   C111  111   2.874   2.826   1.911
    3MOP   C112  112   2.871   3.502   2.070
    3MOP   C113  113   2.877   3.478   2.208
    3MOP   H114  114   3.177   3.320   2.220
    3MOP   H115  115   3.170   3.372   1.978
    3MOP   H116  116   2.816   3.400   1.553
    3MOP   H117  117   2.993   3.704   1.272
    3MOP   H118  118   3.119   3.678   1.392
    3MOP   H119  119   2.989   3.796   1.423
    3MOP   H120  120   3.088   3.725   1.625
    3MOP   H121  121   3.103   3.661   1.861
    3MOP   H122  122   2.621   3.362   1.733
    3MOP   H123  123   2.505   3.156   1.809
    3MOP   H124  124   2.632   2.976   1.919
    3MOP   H125  125   2.993   3.203   1.872
    3MOP   H126  126   3.010   2.985   1.936
    3MOP   H127  127   2.987   3.012   2.157
    3MOP   H128  128   2.771   2.798   1.928
    3MOP   H129  129   2.938   2.752   1.960
    3MOP   H130  130   2.893   2.823   1.804
    3MOP   H131  131   2.783   3.549   2.028
    3MOP   H132  132   2.792   3.505   2.271
    4MOP   C133  133   2.810   2.924   2.199
    4MOP   O134  134   2.707   2.872   2.159
    4MOP   C135  135   2.848   2.917   2.341
    4MOP   C136  136   2.921   3.021   2.400
    4MOP   C137  137   2.968   3.010   2.532
    4MOP   C138  138   2.944   2.894   2.607
    4MOP   C139  139   3.005   2.879   2.741
    4MOP   C140  140   2.934   2.832   2.854
    4MOP   C141  141   3.003   2.819   2.975
    4MOP   C142  142   3.139   2.848   2.988
    4MOP   O143  143   3.196   2.833   3.112
    4MOP   C144  144   3.336   2.797   3.115
    4MOP   C145  145   3.207   2.895   2.876
    4MOP   C146  146   3.140   2.911   2.755
    4MOP   C147  147   2.791   2.799   2.854
    4MOP   C148  148   2.744   2.675   2.898
    4MOP   C149  149   2.608   2.644   2.894
    4MOP   C150  150   2.517   2.738   2.847
    4MOP   C151  151   2.560   2.866   2.806
    4MOP   C152  152   2.697   2.894   2.808
    4MOP   C153  153   2.464   2.973   2.759
    4MOP   N154  154   2.436   2.957   2.616
    4MOP   C155  155   2.339   2.988   2.846
    4MOP   C156  156   2.867   2.792   2.549
    4MOP   C157  157   2.817   2.804   2.418
    4MOP   H158  158   2.942   3.112   2.345
    4MOP   H159  159   3.023   3.093   2.576
    4MOP   H160  160   2.948   2.786   3.064
    4MOP   H161  161   3.363   2.766   3.215
    4MOP   H162  162   3.398   2.884   3.088
    4MOP   H163  163   3.357   2.715   3.046
    4MOP   H164  164   3.312   2.922   2.881
    4MOP   H165  165   3.196   2.948   2.669
    4MOP   H166  166   2.814   2.601   2.934
    4MOP   H167  167   2.574   2.547   2.927
    4MOP   H168  168   2.411   2.713   2.843
    4MOP   H169  169   2.733   2.991   2.776
    4MOP   H170  170   2.517   3.069   2.768
    4MOP   H171  171   2.477   3.025   2.553
    4MOP   H172  172   2.280   2.896   2.849
    4MOP   H173  173   2.276   3.069   2.808
    4MOP   H174  174   2.368   3.011   2.948
    4MOP   H175  175   2.846   2.702   2.606
    4MOP   H176  176   2.759   2.723   2.375
    5MOP   C177  177   2.343   2.873   2.557
    5MOP   O178  178   2.280   2.789   2.620
    5MOP   C179  179   2.307   2.902   2.418
    5MOP   C180  180   2.406   2.931   2.322
    5MOP   C181  181   2.370   2.969   2.192
    5MOP   C182  182   2.235   2.981   2.155
    5MOP   C183  183   2.197   3.028   2.020
    5MOP   C184  184   2.096   2.969   1.942
    5MOP   C185  185   2.065   3.027   1.817
    5MOP   C186  186   2.129   3.141   1.770
    5MOP   O187  187   2.090   3.189   1.646
    5MOP   C188  188   2.171   3.289   1.584
    5MOP   C189  189   2.230   3.199   1.849
    5MOP   C190  190   2.263   3.143   1.973
    5MOP   C191  191   2.023   2.846   1.980
    5MOP   C192  192   1.884   2.842   1.976
    5MOP   C193  193   1.814   2.727   2.016
    5MOP   C194  194   1.886   2.614   2.060
    5MOP   C195  195   2.026   2.616   2.063
    5MOP   C196  196   2.093   2.732   2.023
    5MOP   C197  197   2.108   2.496   2.108
    5MOP   N198  198   2.112   2.486   2.253
    5MOP   C199  199   2.067   2.366   2.036
    5MOP   C200  200   2.137   2.950   2.251
    5MOP   C201  201   2.173   2.909   2.380
    5MOP   H202  202   2.511   2.924   2.347
    5MOP   H203  203   2.449   2.990   2.120
    5MOP   H204  204   1.989   2.982   1.754
    5MOP   H205  205   2.134   3.309   1.483
    5MOP   H206  206   2.275   3.257   1.576
    5MOP   H207  207   2.166   3.383   1.640
    5MOP   H208  208   2.282   3.289   1.819
    5MOP   H209  209   2.340   3.191   2.033
    5MOP   H210  210   1.827   2.928   1.944
    5MOP   H211  211   1.706   2.724   2.014
    5MOP   H212  212   1.832   2.527   2.093
    5MOP   H213  213   2.202   2.735   2.024
    5MOP   H214  214   2.212   2.514   2.076
    5MOP   H215  215   2.199   2.512   2.297
    5MOP   H216  216   1.962   2.341   2.053
    5MOP   H217  217   2.128   2.283   2.072
    5MOP   H218  218   2.082   2.376   1.928
    5MOP   H219  219   2.032   2.958   2.226
    5MOP   H220  220   2.095   2.887   2.453
    6MOP   C221  221   2.022   2.422   2.337
    6MOP   O222  222   1.913   2.383   2.298
    6MOP   C223  223   2.069   2.386   2.471
    6MOP   C224  224   2.149   2.474   2.546
    6MOP   C225  225   2.203   2.435   2.669
    6MOP   C226  226   2.180   2.306   2.720
    6MOP   C227  227   2.248   2.261   2.845
    6MOP   C228  228   2.185   2.181   2.944
    6MOP   C229  229   2.261   2.139   3.055
    6MOP   C230  230   2.394   2.174   3.072
    6MOP   O231  231   2.457   2.129   3.185
    6MOP   C232  232   2.588   2.178   3.215
    6MOP   C233  233   2.454   2.254   2.974
    6MOP   C234  234   2.382   2.297   2.862
    6MOP   C235  235   2.042   2.144   2.941
    6MOP   C236  236   2.003   2.010   2.954
    6MOP   C237  237   1.867   1.975   2.948
    6MOP   C238  238   1.771   2.074   2.931
    6MOP   C239  239   1.808   2.209   2.921
    6MOP   C240  240   1.944   2.242   2.927
    6MOP   C241  241   1.706   2.321   2.905
    6MOP   N242  242   1.666   2.332   2.765
    6MOP   C243  243   1.590   2.312   3.005
    6MOP   C244  244   2.098   2.219   2.646
    6MOP   C245  245   2.042   2.260   2.525
    6MOP   H246  246   2.172   2.574   2.510
    6MOP   H247  247   2.264   2.506   2.724
    6MOP   H248  248   2.214   2.079   3.132
    6MOP   H249  249   2.622   2.138   3.312
    6MOP   H250  250   2.590   2.287   3.220
    6MOP   H251  251   2.661   2.145   3.138
    6MOP   H252  252   2.558   2.284   2.981
    6MOP   H253  253   2.433   2.355   2.787
    6MOP   H254  254   2.078   1.931   2.966
    6MOP   H255  255   1.837   1.871   2.956
    6MOP   H256  256   1.665   2.046   2.924
    6MOP   H257  257   1.975   2.345   2.918
    6MOP   H258  258   1.757   2.414   2.930
    6MOP   H259  259   1.706   2.409   2.712
    6MOP   H260  260   1.535   2.218   2.995
    6MOP   H261  261   1.520   2.394   2.987
    6MOP   H262  262   1.628   2.320   3.106
    6MOP   H263  263   2.079   2.118   2.681
    6MOP   H264  264   1.979   2.190   2.469
    7MOP   C265  265   1.567   2.263   2.698
    7MOP   O266  266   1.507   2.170   2.750
    7MOP   C267  267   1.523   2.317   2.570
    7MOP   C268  268   1.615   2.366   2.476
    7MOP   C269  269   1.572   2.428   2.359
    7MOP   C270  270   1.434   2.445   2.331
    7MOP   C271  271   1.390   2.520   2.212
    7MOP   C272  272   1.280   2.482   2.131
    7MOP   C273  273   1.241   2.565   2.026
    7MOP   C274  274   1.308   2.684   1.995
    7MOP   O275  275   1.261   2.755   1.887
    7MOP   C276  276   1.339   2.865   1.839
    7MOP   C277  277   1.417   2.720   2.075
    7MOP   C278  278   1.457   2.639   2.181
    7MOP   C279  279   1.205   2.357   2.151
    7MOP   C280  280   1.066   2.356   2.169
    7MOP   C281  281   0.997   2.238   2.192
    7MOP   C282  282   1.066   2.115   2.196
    7MOP   C283  283   1.205   2.112   2.174
    7MOP   C284  284   1.272   2.233   2.152
    7MOP   C285  285   1.284   1.983   2.175
    7MOP   N286  286   1.304   1.936   2.312
    7MOP   C287  287   1.225   1.878   2.079
    7MOP   C288  288   1.343   2.394   2.424
    7MOP   C289  289   1.385   2.329   2.541
    7MOP   H290  290   1.722   2.357   2.493
    7MOP   H291  291   1.647   2.464   2.287
    7MOP   H292  292   1.157   2.536   1.962
    7MOP   H293  293   1.295   2.906   1.749
    7MOP   H294  294   1.441   2.833   1.816
    7MOP   H295  295   1.344   2.946   1.915
    7MOP   H296  296   1.472   2.812   2.057
    7MOP   H297  297   1.540   2.672   2.242
    7MOP   H298  298   1.012   2.451   2.168
    7MOP   H299  299   0.890   2.238   2.209
    7MOP   H300  300   1.013   2.024   2.216
    7MOP   H301  301   1.380   2.233   2.138
    7MOP   H302  302   1.383   2.005   2.135
    7MOP   H303  303   1.392   1.963   2.355
    7MOP   H304  304   1.121   1.855   2.101
    7MOP   H305  305   1.283   1.785   2.086
    7MOP   H306  306   1.232   1.914   1.975
    7MOP   H307  307   1.237   2.406   2.408
    7MOP   H308  308   1.312   2.292   2.612
    8MOP   C309  309   1.224   1.854   2.389
    8MOP   O310  310   1.115   1.814   2.350
    8MOP   C311  311   1.281   1.804   2.515
    8MOP   C312  312   1.367   1.884   2.593
    8MOP   C313  313   1.427   1.832   2.707
    8MOP   C314  314   1.406   1.700   2.747
    8MOP   C315  315   1.476   1.645   2.865
    8MOP   C316  316   1.412   1.566   2.965
    8MOP   C317  317   1.490   1.513   3.069
    8MOP   C318  318   1.628   1.536   3.078
    8MOP   O319  319   1.693   1.478   3.186
    8MOP   C320  320   1.831   1.512   3.205
    8MOP   C321  321   1.689   1.613   2.979
    8MOP   C322  322   1.613   1.666   2.875
    8MOP   C323  323   1.267   1.539   2.968
    8MOP   C324  324   1.218   1.410   2.987
    8MOP   C325  325   1.080   1.385   2.987
    8MOP   C326  326   0.990   1.489   2.969
    8MOP   C327  327   1.036   1.621   2.951
    8MOP   C328  328   1.175   1.644   2.951
    8MOP   C329  329   0.941   1.737   2.928
    8MOP   N330  330   0.872   1.723   2.800
    8MOP   C331  331   0.850   1.761   3.049
    8MOP   C332  332   1.318   1.620   2.670
    8MOP   C333  333   1.255   1.673   2.556
    8MOP   H334  334   1.386   1.988   2.567
    8MOP   H335  335   1.493   1.897   2.766
    8MOP   H336  336   1.443   1.454   3.147
    8MOP   H337  337   1.867   1.464   3.298
    8MOP   H338  338   1.845   1.619   3.215
    8MOP   H339  339   1.892   1.475   3.123
    8MOP   H340  340   1.795   1.633   2.980
    8MOP   H341  341   1.664   1.725   2.797
    8MOP   H342  342   1.286   1.327   2.999
    8MOP   H343  343   1.043   1.284   3.001
    8MOP   H344  344   0.884   1.469   2.969
    8MOP   H345  345   1.212   1.746   2.939
    8MOP   H346  346   1.001   1.828   2.920
    8MOP   H347  347   0.923   1.752   2.717
    8MOP   H348  348   0.796   1.669   3.078
    8MOP   H349  349   0.777   1.839   3.027
    8MOP   H350  350   0.910   1.792   3.135
    8MOP   H351  351   1.299   1.518   2.699
    8MOP   H352  352   1.189   1.609   2.499
    9CAP   C353  353   3.093   2.423   3.058
    9CAP   O354  354   3.121   2.495   3.179
    9CAP   H355  355   3.014   2.349   3.073
    9CAP   H356  356   3.183   2.371   3.024
    9CAP   H357  357   3.062   2.492   2.977
   10CAP   C358  358   0.608   1.617   2.439
   10CAP   C359  359   0.606   1.591   2.590
   10CAP   C360  360   0.479   1.654   2.648
   10CAP   C361  361   0.607   1.439   2.612
   10CAP   O362  362   0.726   1.654   2.639
   10CAP   C363  363   0.758   1.654   2.771
   10CAP   O364  364   0.695   1.597   2.859
   10CAP   H365  365   0.520   1.574   2.391
   10CAP   H366  366   0.608   1.725   2.419
   10CAP   H367  367   0.697   1.574   2.393
   10CAP   H368  368   0.483   1.763   2.639
   10CAP   H369  369   0.467   1.629   2.754
   10CAP   H370  370   0.391   1.619   2.596
   10CAP   H371  371   0.701   1.396   2.577
   10CAP   H372  372   0.593   1.414   2.717
   10CAP   H373  373   0.525   1.392   2.557
    1TCM     c1  374   4.340   0.335   2.673
    1TCM    cl1  375   4.465   0.360   2.548
    1TCM    cl2  376   4.244   0.484   2.690
    1TCM     h1  377   4.274   0.252   2.642
    1TCM    cl3  378   4.418   0.296   2.828
    1TCM     c1  379   1.695   2.479   4.344
    1TCM    cl1  380   1.604   2.327   4.353
    1TCM    cl2  381   1.628   2.595   4.461
    1TCM     h1  382   1.801   2.460   4.368
    1TCM    cl3  383   1.682   2.547   4.180
    1TCM     c1  384   1.817   2.264   0.994
    1TCM    cl1  385   1.904   2.112   0.964
    1TCM    cl2  386   1.798   2.353   0.842
    1TCM     h1  387   1.718   2.241   1.037
    1TCM    cl3  388   1.910   2.363   1.109
    1TCM     c1  389   2.652   0.611   3.810
    1TCM    cl1  390   2.715   0.515   3.674
    1TCM    cl2  391   2.688   0.527   3.963
    1TCM     h1  392   2.700   0.711   3.810
    1TCM    cl3  393   2.476   0.629   3.792
    1TCM     c1  394   2.201   1.731   2.838
    1TCM    cl1  395   2.054   1.772   2.745
    1TCM    cl2  396   2.156   1.693   3.006
    1TCM     h1  397   2.250   1.643   2.792
    1TCM    cl3  398   2.312   1.870   2.836
    1TCM     c1  399   5.040   1.289   0.555
    1TCM    cl1  400   5.177   1.233   0.457
    1TCM    cl2  401   5.087   1.289   0.727
    1TCM     h1  402   5.011   1.392   0.525
    1TCM    cl3  403   4.902   1.179   0.532
    1TCM     c1  404   2.904   0.791   2.573
    1TCM    cl1  405   2.761   0.889   2.535
    1TCM    cl2  406   2.856   0.621   2.589
    1TCM     h1  407   2.978   0.801   2.491
    1TCM    cl3  408   2.976   0.847   2.725
    1TCM     c1  409   3.776   4.021   4.741
    1TCM    cl1  410   3.713   3.937   4.598
    1TCM    cl2  411   3.652   4.131   4.806
    1TCM     h1  412   3.803   3.946   4.819
    1TCM    cl3  413   3.921   4.114   4.697
    1TCM     c1  414   0.770   4.148   3.478
    1TCM    cl1  415   0.814   3.983   3.429
    1TCM    cl2  416   0.831   4.264   3.357
    1TCM     h1  417   0.659   4.156   3.484
    1TCM    cl3  418   0.841   4.184   3.636
    1TCM     c1  419   3.903   1.342   2.586
    1TCM    cl1  420   3.884   1.340   2.763
    1TCM    cl2  421   4.053   1.258   2.542
    1TCM     h1  422   3.817   1.291   2.539
    1TCM    cl3  423   3.911   1.510   2.530
    1TCM     c1  424   4.919   3.092   4.462
    1TCM    cl1  425   4.743   3.074   4.483
    1TCM    cl2  426   4.989   2.936   4.412
    1TCM     h1  427   4.939   3.168   4.385
    1TCM    cl3  428   4.992   3.142   4.616
    1TCM     c1  429   0.577   2.830   1.448
    1TCM    cl1  430   0.555   3.005   1.470
    1TCM    cl2  431   0.418   2.753   1.428
    1TCM     h1  432   0.638   2.812   1.357
    1TCM    cl3  433   0.659   2.762   1.590
    1TCM     c1  434   1.651   1.947   2.325
    1TCM    cl1  435   1.601   1.810   2.426
    1TCM    cl2  436   1.603   1.917   2.157
    1TCM     h1  437   1.602   2.040   2.362
    1TCM    cl3  438   1.827   1.967   2.334
    1TCM     c1  439   4.284   4.436   0.720
    1TCM    cl1  440   4.452   4.426   0.776
    1TCM    cl2  441   4.249   4.299   0.613
    1TCM     h1  442   4.216   4.433   0.808
    1TCM    cl3  443   4.260   4.588   0.632
    1TCM     c1  444   2.572   5.237   3.819
    1TCM    cl1  445   2.663   5.086   3.839
    1TCM    cl2  446   2.592   5.338   3.964
    1TCM     h1  447   2.611   5.292   3.730
    1TCM    cl3  448   2.400   5.200   3.795
    1TCM     c1  449   2.883   1.888   3.066
    1TCM    cl1  450   3.037   1.815   3.016
    1TCM    cl2  451   2.794   1.774   3.169
    1TCM     h1  452   2.903   1.981   3.123
    1TCM    cl3  453   2.786   1.926   2.922
    1TCM     c1  454   0.684   3.113   5.018
    1TCM    cl1  455   0.815   3.198   4.932
    1TCM    cl2  456   0.695   2.939   4.984
    1TCM     h1  457   0.694   3.131   5.127
    1TCM    cl3  458   0.527   3.175   4.963
    1TCM     c1  459   4.601   3.536   2.146
    1TCM    cl1  460   4.544   3.648   2.020
    1TCM    cl2  461   4.461   3.455   2.221
    1TCM     h1  462   4.668   3.460   2.100
    1TCM    cl3  463   4.690   3.627   2.270
    1TCM     c1  464   5.245   3.664   4.904
    1TCM    cl1  465   5.095   3.744   4.852
    1TCM    cl2  466   5.340   3.777   5.004
    1TCM     h1  467   5.220   3.574   4.963
    1TCM    cl3  468   5.340   3.618   4.761
    1TCM     c1  469   2.176   1.156   3.522
    1TCM    cl1  470   2.306   1.276   3.547
    1TCM    cl2  471   2.199   1.076   3.365
    1TCM     h1  472   2.179   1.081   3.603
    1TCM    cl3  473   2.018   1.239   3.523
    1TCM     c1  474   1.179   2.092   2.773
    1TCM    cl1  475   1.268   1.952   2.836
    1TCM    cl2  476   1.006   2.073   2.809
    1TCM     h1  477   1.217   2.185   2.821
    1TCM    cl3  478   1.202   2.103   2.597
    1TCM     c1  479   3.140   4.711   4.823
    1TCM    cl1  480   3.161   4.698   4.646
    1TCM    cl2  481   3.143   4.549   4.895
    1TCM     h1  482   3.222   4.772   4.865
    1TCM    cl3  483   2.984   4.789   4.858
    1TCM     c1  484   2.715   2.445   2.033
    1TCM    cl1  485   2.626   2.464   1.881
    1TCM    cl2  486   2.672   2.576   2.145
    1TCM     h1  487   2.689   2.347   2.079
    1TCM    cl3  488   2.890   2.450   2.001
    1TCM     c1  489   2.733   2.026   5.067
    1TCM    cl1  490   2.835   1.933   5.179
    1TCM    cl2  491   2.829   2.077   4.927
    1TCM     h1  492   2.648   1.963   5.033
    1TCM    cl3  493   2.670   2.170   5.150
    1TCM     c1  494   4.933   0.262   1.255
    1TCM    cl1  495   4.783   0.167   1.239
    1TCM    cl2  496   4.916   0.376   1.390
    1TCM     h1  497   5.018   0.193   1.275
    1TCM    cl3  498   4.963   0.352   1.105
    1TCM     c1  499   3.039   0.847   1.262
    1TCM    cl1  500   3.109   0.686   1.236
    1TCM    cl2  501   2.864   0.841   1.229
    1TCM     h1  502   3.056   0.878   1.367
    1TCM    cl3  503   3.115   0.964   1.152
    1TCM     c1  504   3.965   3.278   1.868
    1TCM    cl1  505   3.958   3.107   1.820
    1TCM    cl2  506   3.972   3.289   2.046
    1TCM     h1  507   4.056   3.325   1.824
    1TCM    cl3  508   3.820   3.363   1.809
    1TCM     c1  509   1.031   0.851   3.702
    1TCM    cl1  510   0.901   0.896   3.589
    1TCM    cl2  511   0.989   0.905   3.866
    1TCM     h1  512   1.043   0.741   3.702
    1TCM    cl3  513   1.183   0.928   3.651
    1TCM     c1  514   0.702   5.166   4.127
    1TCM    cl1  515   0.600   5.301   4.181
    1TCM    cl2  516   0.858   5.171   4.213
    1TCM     h1  517   0.651   5.070   4.149
    1TCM    cl3  518   0.730   5.180   3.952
    1TCM     c1  519   2.803   3.641   3.436
    1TCM    cl1  520   2.954   3.612   3.525
    1TCM    cl2  521   2.840   3.706   3.275
    1TCM     h1  522   2.747   3.546   3.426
    1TCM    cl3  523   2.703   3.758   3.525
    1TCM     c1  524   0.306   0.962   2.475
    1TCM    cl1  525   0.139   0.973   2.536
    1TCM    cl2  526   0.313   0.845   2.341
    1TCM     h1  527   0.338   1.062   2.439
    1TCM    cl3  528   0.413   0.908   2.606
    1TCM     c1  529   4.983   1.982   2.119
    1TCM    cl1  530   5.095   2.018   2.253
    1TCM    cl2  531   4.978   2.121   2.008
    1TCM     h1  532   5.019   1.893   2.064
    1TCM    cl3  533   4.821   1.952   2.184
    1TCM     c1  534   1.258   3.563   2.326
    1TCM    cl1  535   1.337   3.405   2.341
    1TCM    cl2  536   1.155   3.565   2.181
    1TCM     h1  537   1.196   3.582   2.416
    1TCM    cl3  538   1.382   3.690   2.312
    1TCM     c1  539   3.909   1.415   2.029
    1TCM    cl1  540   3.798   1.278   2.008
    1TCM    cl2  541   3.901   1.473   2.197
    1TCM     h1  542   4.013   1.383   2.006
    1TCM    cl3  543   3.863   1.547   1.919
    1TCM     c1  544   0.823   2.257   1.996
    1TCM    cl1  545   0.676   2.250   2.096
    1TCM    cl2  546   0.778   2.260   1.824
    1TCM     h1  547   0.880   2.349   2.021
    1TCM    cl3  548   0.923   2.114   2.029
    1TCM     c1  549   2.183   3.842   1.754
    1TCM    cl1  550   2.350   3.792   1.720
    1TCM    cl2  551   2.093   3.856   1.602
    1TCM     h1  552   2.134   3.766   1.819
    1TCM    cl3  553   2.184   3.999   1.837
    1TCM     c1  554   1.048   4.557   1.143
    1TCM    cl1  555   0.904   4.551   1.038
    1TCM    cl2  556   1.119   4.395   1.155
    1TCM     h1  557   1.122   4.627   1.101
    1TCM    cl3  558   1.000   4.613   1.306
    1TCM     c1  559   0.240   1.267   4.841
    1TCM    cl1  560   0.071   1.317   4.818
    1TCM    cl2  561   0.325   1.390   4.937
    1TCM     h1  562   0.243   1.170   4.894
    1TCM    cl3  563   0.319   1.251   4.682
    1TCM     c1  564   1.323   3.897   4.779
    1TCM    cl1  565   1.460   4.009   4.787
    1TCM    cl2  566   1.344   3.768   4.900
    1TCM     h1  567   1.229   3.952   4.800
    1TCM    cl3  568   1.314   3.825   4.617
    1TCM     c1  569   0.310   0.744   4.846
    1TCM    cl1  570   0.397   0.700   4.995
    1TCM    cl2  571   0.373   0.647   4.710
    1TCM     h1  572   0.202   0.724   4.859
    1TCM    cl3  573   0.335   0.917   4.812
    1TCM     c1  574   1.066   4.310   2.235
    1TCM    cl1  575   0.949   4.274   2.364
    1TCM    cl2  576   0.986   4.404   2.107
    1TCM     h1  577   1.150   4.368   2.277
    1TCM    cl3  578   1.128   4.157   2.168
    1TCM     c1  579   3.692   4.131   0.168
    1TCM    cl1  580   3.770   4.013   0.060
    1TCM    cl2  581   3.752   4.108   0.334
    1TCM     h1  582   3.716   4.233   0.134
    1TCM    cl3  583   3.516   4.107   0.165
    1TCM     c1  584   1.579   1.543   1.407
    1TCM    cl1  585   1.453   1.629   1.497
    1TCM    cl2  586   1.715   1.653   1.374
    1TCM     h1  587   1.616   1.457   1.467
    1TCM    cl3  588   1.513   1.483   1.253
    1TCM     c1  589   3.470   0.654   2.305
    1TCM    cl1  590   3.299   0.606   2.306
    1TCM    cl2  591   3.565   0.537   2.399
    1TCM     h1  592   3.507   0.657   2.201
    1TCM    cl3  593   3.486   0.815   2.378
    1TCM     c1  594   0.137   0.611   1.986
    1TCM    cl1  595   0.031   0.633   2.127
    1TCM    cl2  596   0.283   0.710   2.005
    1TCM     h1  597   0.165   0.504   1.977
    1TCM    cl3  598   0.051   0.661   1.839
    1TCM     c1  599   3.858   2.614   1.099
    1TCM    cl1  600   3.926   2.476   1.189
    1TCM    cl2  601   3.987   2.695   1.009
    1TCM     h1  602   3.780   2.577   1.029
    1TCM    cl3  603   3.783   2.728   1.214
    1TCM     c1  604   4.175   0.090   0.792
    1TCM    cl1  605   4.058   0.000   0.692
    1TCM    cl2  606   4.201   0.251   0.722
    1TCM     h1  607   4.135   0.100   0.895
    1TCM    cl3  608   4.329   0.001   0.797
    1TCM     c1  609   4.955   1.743   3.392
    1TCM    cl1  610   4.828   1.768   3.270
    1TCM    cl2  611   4.885   1.664   3.535
    1TCM     h1  612   5.035   1.679   3.350
    1TCM    cl3  613   5.024   1.900   3.440
    1TCM     c1  614   1.988   3.589   2.405
    1TCM    cl1  615   2.067   3.523   2.260
    1TCM    cl2  616   1.897   3.736   2.362
    1TCM     h1  617   1.918   3.513   2.447
    1TCM    cl3  618   2.111   3.630   2.527
    1TCM     c1  619   0.572   0.261   4.868
    1TCM    cl1  620   0.458   0.290   5.002
    1TCM    cl2  621   0.562   0.090   4.818
    1TCM     h1  622   0.545   0.326   4.782
    1TCM    cl3  623   0.737   0.297   4.922
    1TCM     c1  624   4.534   0.693   4.556
    1TCM    cl1  625   4.513   0.853   4.480
    1TCM    cl2  626   4.490   0.703   4.728
    1TCM     h1  627   4.469   0.620   4.505
    1TCM    cl3  628   4.704   0.643   4.540
    1TCM     c1  629   3.845   4.617   1.568
    1TCM    cl1  630   3.737   4.742   1.632
    1TCM    cl2  631   3.881   4.652   1.397
    1TCM     h1  632   3.940   4.616   1.626
    1TCM    cl3  633   3.766   4.458   1.580
    1TCM     c1  634   4.495   4.568   4.891
    1TCM    cl1  635   4.331   4.525   4.944
    1TCM    cl2  636   4.609   4.441   4.943
    1TCM     h1  637   4.497   4.576   4.781
    1TCM    cl3  638   4.543   4.723   4.964
    1TCM     c1  639   3.973   4.325   1.754
    1TCM    cl1  640   3.869   4.220   1.655
    1TCM    cl2  641   4.067   4.225   1.867
    1TCM     h1  642   4.042   4.381   1.688
    1TCM    cl3  643   3.872   4.439   1.845
    1TCM     c1  644   3.859   4.070   3.373
    1TCM    cl1  645   3.740   3.938   3.357
    1TCM    cl2  646   3.927   4.068   3.538
    1TCM     h1  647   3.940   4.055   3.299
    1TCM    cl3  648   3.779   4.226   3.344
    1TCM     c1  649   0.368   0.897   3.404
    1TCM    cl1  650   0.275   1.047   3.380
    1TCM    cl2  651   0.409   0.879   3.576
    1TCM     h1  652   0.306   0.810   3.372
    1TCM    cl3  653   0.517   0.903   3.307
    1TCM     c1  654   3.131   2.549   2.699
    1TCM    cl1  655   3.215   2.620   2.839
    1TCM    cl2  656   3.096   2.677   2.580
    1TCM     h1  657   3.196   2.473   2.652
    1TCM    cl3  658   2.980   2.474   2.753
    1TCM     c1  659   3.702   2.448   2.416
    1TCM    cl1  660   3.634   2.458   2.252
    1TCM    cl2  661   3.618   2.321   2.507
    1TCM     h1  662   3.810   2.424   2.410
    1TCM    cl3  663   3.681   2.605   2.498
    1TCM     c1  664   5.014   0.663   2.431
    1TCM    cl1  665   5.119   0.619   2.568
    1TCM    cl2  666   5.107   0.654   2.280
    1TCM     h1  667   4.928   0.593   2.427
    1TCM    cl3  668   4.954   0.829   2.453
    1TCM     c1  669   0.354   0.174   3.011
    1TCM    cl1  670   0.468   0.057   2.939
    1TCM    cl2  671   0.187   0.118   2.986
    1TCM     h1  672   0.374   0.182   3.120
    1TCM    cl3  673   0.376   0.333   2.934
    1TCM     c1  674   5.216   3.673   1.366
    1TCM    cl1  675   5.073   3.686   1.260
    1TCM    cl2  676   5.164   3.629   1.530
    1TCM     h1  677   5.284   3.595   1.326
    1TCM    cl3  678   5.301   3.829   1.370
    1TCM     c1  679   1.558   3.299   0.951
    1TCM    cl1  680   1.520   3.472   0.967
    1TCM    cl2  681   1.679   3.277   0.822
    1TCM     h1  682   1.599   3.262   1.047
    1TCM    cl3  683   1.411   3.208   0.910
    1TCM     c1  684   2.742   4.420   4.199
    1TCM    cl1  685   2.575   4.482   4.209
    1TCM    cl2  686   2.828   4.502   4.067
    1TCM     h1  687   2.794   4.439   4.295
    1TCM    cl3  688   2.738   4.245   4.168
    1TCM     c1  689   4.641   1.694   0.405
    1TCM    cl1  690   4.498   1.643   0.313
    1TCM    cl2  691   4.611   1.855   0.475
    1TCM     h1  692   4.660   1.622   0.487
    1TCM    cl3  693   4.782   1.702   0.297
    1TCM     c1  694   2.932   4.761   4.487
    1TCM    cl1  695   3.024   4.609   4.482
    1TCM    cl2  696   2.823   4.769   4.347
    1TCM     h1  697   2.873   4.766   4.580
    1TCM    cl3  698   3.045   4.899   4.481
    1TCM     c1  699   3.858   4.164   2.051
    1TCM    cl1  700   3.779   4.252   1.918
    1TCM    cl2  701   3.738   4.128   2.177
    1TCM     h1  702   3.900   4.069   2.012
    1TCM    cl3  703   3.988   4.264   2.119
    1TCM     c1  704   0.936   0.234   3.413
    1TCM    cl1  705   0.786   0.237   3.509
    1TCM    cl2  706   0.897   0.272   3.243
    1TCM     h1  707   1.007   0.309   3.452
    1TCM    cl3  708   1.009   0.072   3.421
    1TCM     c1  709   0.964   1.364   2.632
    1TCM    cl1  710   0.900   1.450   2.490
    1TCM    cl2  711   0.829   1.311   2.734
    1TCM     h1  712   1.023   1.276   2.599
    1TCM    cl3  713   1.069   1.474   2.724
    1TCM     c1  714   1.166   0.797   2.301
    1TCM    cl1  715   1.047   0.739   2.182
    1TCM    cl2  716   1.268   0.922   2.228
    1TCM     h1  717   1.112   0.839   2.389
    1TCM    cl3  718   1.267   0.661   2.354
    1TCM     c1  719   2.889   1.136   3.968
    1TCM    cl1  720   2.733   1.130   4.053
    1TCM    cl2  721   2.871   1.232   3.819
    1TCM     h1  722   2.965   1.183   4.034
    1TCM    cl3  723   2.940   0.971   3.927
    1TCM     c1  724   4.626   5.147   1.269
    1TCM    cl1  725   4.753   5.228   1.174
    1TCM    cl2  726   4.641   5.195   1.439
    1TCM     h1  727   4.527   5.177   1.230
    1TCM    cl3  728   4.645   4.971   1.255
    1TCM     c1  729   0.538   4.428   0.330
    1TCM    cl1  730   0.394   4.518   0.383
    1TCM    cl2  731   0.539   4.418   0.153
    1TCM     h1  732   0.629   4.481   0.365
    1TCM    cl3  733   0.534   4.264   0.399
    1TCM     c1  734   2.405   3.424   2.234
    1TCM    cl1  735   2.481   3.571   2.169
    1TCM    cl2  736   2.414   3.425   2.411
    1TCM     h1  737   2.299   3.420   2.202
    1TCM    cl3  738   2.490   3.281   2.171
    1TCM     c1  739   0.361   3.168   1.120
    1TCM    cl1  740   0.531   3.189   1.074
    1TCM    cl2  741   0.331   3.250   1.276
    1TCM     h1  742   0.296   3.213   1.042
    1TCM    cl3  743   0.324   2.995   1.137
    1TCM     c1  744   3.392   3.631   1.045
    1TCM    cl1  745   3.292   3.577   1.181
    1TCM    cl2  746   3.348   3.798   1.002
    1TCM     h1  747   3.499   3.628   1.073
    1TCM    cl3  748   3.364   3.525   0.905
    1TCM     c1  749   3.171   3.034   4.986
    1TCM    cl1  750   3.300   3.026   4.864
    1TCM    cl2  751   3.243   3.046   5.148
    1TCM     h1  752   3.108   3.123   4.967
    1TCM    cl3  753   3.071   2.887   4.976
    1TCM     c1  754   1.135   1.274   1.932
    1TCM    cl1  755   1.265   1.224   1.821
    1TCM    cl2  756   1.201   1.295   2.096
    1TCM     h1  757   1.093   1.371   1.897
    1TCM    cl3  758   1.008   1.151   1.934
    1TCM     c1  759   1.969   2.668   4.756
    1TCM    cl1  760   1.877   2.625   4.610
    1TCM    cl2  761   2.095   2.546   4.785
    1TCM     h1  762   2.016   2.768   4.741
    1TCM    cl3  763   1.859   2.674   4.895
    1TCM     c1  764   2.245   4.129   4.185
    1TCM    cl1  765   2.229   4.040   4.032
    1TCM    cl2  766   2.369   4.051   4.286
    1TCM     h1  767   2.276   4.234   4.164
    1TCM    cl3  768   2.090   4.129   4.271
    1TCM     c1  769   0.770   0.351   0.143
    1TCM    cl1  770   0.895   0.452   0.068
    1TCM    cl2  771   0.795   0.345   0.319
    1TCM     h1  772   0.670   0.394   0.121
    1TCM    cl3  773   0.779   0.186   0.077
    1TCM     c1  774   1.107   0.655   2.965
    1TCM    cl1  775   1.082   0.823   2.911
    1TCM    cl2  776   0.961   0.596   3.047
    1TCM     h1  777   1.128   0.591   2.877
    1TCM    cl3  778   1.245   0.649   3.077
    1TCM     c1  779   4.494   3.213   3.272
    1TCM    cl1  780   4.449   3.165   3.107
    1TCM    cl2  781   4.628   3.330   3.265
    1TCM     h1  782   4.407   3.260   3.322
    1TCM    cl3  783   4.546   3.070   3.364
    1TCM     c1  784   3.215   4.775   5.189
    1TCM    cl1  785   3.210   4.869   5.340
    1TCM    cl2  786   3.244   4.885   5.052
    1TCM     h1  787   3.296   4.701   5.194
    1TCM    cl3  788   3.059   4.693   5.165
    1TCM     c1  789   1.870   0.124   3.628
    1TCM    cl1  790   1.858   0.130   3.451
    1TCM    cl2  791   1.835   0.285   3.695
    1TCM     h1  792   1.796   0.051   3.668
    1TCM    cl3  793   2.034   0.074   3.675
    1TCM     c1  794   0.978   0.818   4.096
    1TCM    cl1  795   1.013   0.721   4.242
    1TCM    cl2  796   0.833   0.916   4.124
    1TCM     h1  797   1.064   0.884   4.075
    1TCM    cl3  798   0.951   0.709   3.958
    1TCM     c1  799   2.061   5.148   2.407
    1TCM    cl1  800   1.942   5.226   2.514
    1TCM    cl2  801   2.035   5.203   2.240
    1TCM     h1  802   2.164   5.176   2.440
    1TCM    cl3  803   2.042   4.972   2.416
    1TCM     c1  804   1.205   1.272   2.382
    1TCM    cl1  805   1.162   1.100   2.364
    1TCM    cl2  806   1.065   1.373   2.340
    1TCM     h1  807   1.235   1.292   2.486
    1TCM    cl3  808   1.340   1.310   2.272
    1TCM     c1  809   1.609   1.635   0.186
    1TCM    cl1  810   1.573   1.803   0.142
    1TCM    cl2  811   1.782   1.618   0.222
    1TCM     h1  812   1.550   1.606   0.276
    1TCM    cl3  813   1.566   1.527   0.051
    1TCM     c1  814   4.229   3.116   2.466
    1TCM    cl1  815   4.398   3.171   2.458
    1TCM    cl2  816   4.153   3.179   2.613
    1TCM     h1  817   4.174   3.152   2.377
    1TCM    cl3  818   4.226   2.938   2.468
    1TCM     c1  819   2.942   4.880   1.403
    1TCM    cl1  820   2.876   5.035   1.345
    1TCM    cl2  821   2.821   4.752   1.378
    1TCM     h1  822   3.034   4.856   1.346
    1TCM    cl3  823   2.980   4.893   1.576
    1TCM     c1  824   4.332   2.471   3.326
    1TCM    cl1  825   4.428   2.531   3.463
    1TCM    cl2  826   4.168   2.432   3.382
    1TCM     h1  827   4.327   2.548   3.247
    1TCM    cl3  828   4.408   2.324   3.260
    1TCM     c1  829   4.281   0.787   3.720
    1TCM    cl1  830   4.347   0.731   3.875
    1TCM    cl2  831   4.300   0.660   3.598
    1TCM     h1  832   4.173   0.811   3.732
    1TCM    cl3  833   4.368   0.933   3.668
    1TCM     c1  834   4.269   0.995   3.310
    1TCM    cl1  835   4.136   0.984   3.193
    1TCM    cl2  836   4.220   0.919   3.463
    1TCM     h1  837   4.359   0.944   3.270
    1TCM    cl3  838   4.307   1.166   3.340
    1TCM     c1  839   2.073   0.287   3.322
    1TCM    cl1  840   1.946   0.387   3.248
    1TCM    cl2  841   2.230   0.326   3.249
    1TCM     h1  842   2.077   0.307   3.431
    1TCM    cl3  843   2.036   0.115   3.295
    1TCM     c1  844   0.508   4.495   3.659
    1TCM    cl1  845   0.572   4.639   3.742
    1TCM    cl2  846   0.412   4.399   3.775
    1TCM     h1  847   0.444   4.526   3.575
    1TCM    cl3  848   0.643   4.397   3.599
    1TCM     c1  849   0.292   1.934   4.819
    1TCM    cl1  850   0.349   1.840   4.959
    1TCM    cl2  851   0.305   1.835   4.672
    1TCM     h1  852   0.186   1.963   4.835
    1TCM    cl3  853   0.392   2.080   4.802
    1TCM     c1  854   1.117   5.108   5.240
    1TCM    cl1  855   1.249   5.193   5.324
    1TCM    cl2  856   1.156   5.095   5.067
    1TCM     h1  857   1.105   5.006   5.284
    1TCM    cl3  858   0.966   5.199   5.260
    1TCM     c1  859   0.864   2.252   1.200
    1TCM    cl1  860   0.711   2.189   1.266
    1TCM    cl2  861   0.998   2.205   1.307
    1TCM     h1  862   0.881   2.209   1.099
    1TCM    cl3  863   0.856   2.429   1.189
    1TCM     c1  864   4.808   1.725   2.326
    1TCM    cl1  865   4.965   1.809   2.317
    1TCM    cl2  866   4.835   1.552   2.358
    1TCM     h1  867   4.748   1.769   2.409
    1TCM    cl3  868   4.721   1.745   2.172
    1TCM     c1  869   2.938   1.336   2.600
    1TCM    cl1  870   2.788   1.364   2.691
    1TCM    cl2  871   2.935   1.429   2.449
    1TCM     h1  872   3.025   1.367   2.661
    1TCM    cl3  873   2.952   1.163   2.562
    1TCM     c1  874   3.212   0.572   2.657
    1TCM    cl1  875   3.059   0.596   2.745
    1TCM    cl2  876   3.310   0.720   2.666
    1TCM     h1  877   3.268   0.488   2.703
    1TCM    cl3  878   3.177   0.534   2.487
    1TCM     c1  879   2.369   4.657   1.101
    1TCM    cl1  880   2.461   4.767   1.207
    1TCM    cl2  881   2.450   4.646   0.943
    1TCM     h1  882   2.365   4.556   1.147
    1TCM    cl3  883   2.204   4.720   1.079
    1TCM     c1  884   0.576   3.421   4.110
    1TCM    cl1  885   0.612   3.596   4.110
    1TCM    cl2  886   0.595   3.357   3.946
    1TCM     h1  887   0.646   3.369   4.179
    1TCM    cl3  888   0.409   3.395   4.166
    1TCM     c1  889   2.529   0.156   1.748
    1TCM    cl1  890   2.484   0.202   1.914
    1TCM    cl2  891   2.456  -0.001   1.708
    1TCM     h1  892   2.493   0.234   1.677
    1TCM    cl3  893   2.706   0.144   1.736
    1TCM     c1  894   2.677   4.936   3.620
    1TCM    cl1  895   2.528   4.947   3.523
    1TCM    cl2  896   2.638   4.871   3.781
    1TCM     h1  897   2.749   4.869   3.569
    1TCM    cl3  898   2.749   5.098   3.637
    1TCM     c1  899   3.665   3.678   4.832
    1TCM    cl1  900   3.595   3.842   4.834
    1TCM    cl2  901   3.816   3.680   4.737
    1TCM     h1  902   3.687   3.646   4.936
    1TCM    cl3  903   3.550   3.565   4.758
    1TCM     c1  904   1.715   0.252   4.771
    1TCM    cl1  905   1.561   0.216   4.851
    1TCM    cl2  906   1.694   0.242   4.595
    1TCM     h1  907   1.748   0.355   4.798
    1TCM    cl3  908   1.838   0.135   4.823
    1TCM     c1  909   3.459   3.773   1.891
    1TCM    cl1  910   3.409   3.629   1.983
    1TCM    cl2  911   3.609   3.839   1.961
    1TCM     h1  912   3.476   3.746   1.785
    1TCM    cl3  913   3.331   3.897   1.900
    1TCM     c1  914   0.241   2.769   2.136
    1TCM    cl1  915   0.313   2.907   2.222
    1TCM    cl2  916   0.280   2.780   1.963
    1TCM     h1  917   0.281   2.674   2.178
    1TCM    cl3  918   0.064   2.772   2.158
    1TCM     c1  919   1.851   0.933   3.524
    1TCM    cl1  920   1.865   1.057   3.398
    1TCM    cl2  921   1.821   0.775   3.448
    1TCM     h1  922   1.946   0.928   3.582
    1TCM    cl3  923   1.717   0.973   3.633
    1TCM     c1  924   1.460   4.572   3.680
    1TCM    cl1  925   1.317   4.677   3.695
    1TCM    cl2  926   1.494   4.543   3.508
    1TCM     h1  927   1.548   4.622   3.727
    1TCM    cl3  928   1.428   4.418   3.761
    1TCM     c1  929   1.301   3.253   3.568
    1TCM    cl1  930   1.327   3.386   3.682
    1TCM    cl2  931   1.394   3.282   3.419
    1TCM     h1  932   1.334   3.158   3.614
    1TCM    cl3  933   1.128   3.242   3.527
    1TCM     c1  934   4.869   2.335   2.484
    1TCM    cl1  935   4.727   2.381   2.387
    1TCM    cl2  936   4.819   2.310   2.653
    1TCM     h1  937   4.912   2.240   2.444
    1TCM    cl3  938   4.992   2.463   2.476
    1TCM     c1  939   2.477   1.459   1.796
    1TCM    cl1  940   2.343   1.450   1.913
    1TCM    cl2  941   2.509   1.629   1.755
    1TCM     h1  942   2.568   1.414   1.840
    1TCM    cl3  943   2.433   1.370   1.648
    1TCM     c1  944   1.354   0.150   3.736
    1TCM    cl1  945   1.177   0.163   3.744
    1TCM    cl2  946   1.404   0.106   3.571
    1TCM     h1  947   1.399   0.248   3.764
    1TCM    cl3  948   1.410   0.025   3.850
    1TCM     c1  949   4.303   3.800   2.734
    1TCM    cl1  950   4.471   3.742   2.742
    1TCM    cl2  951   4.195   3.677   2.805
    1TCM     h1  952   4.293   3.894   2.792
    1TCM    cl3  953   4.258   3.828   2.565
    1TCM     c1  954   4.430   1.294   4.028
    1TCM    cl1  955   4.467   1.151   3.929
    1TCM    cl2  956   4.481   1.266   4.196
    1TCM     h1  957   4.483   1.382   3.987
    1TCM    cl3  958   4.254   1.324   4.024
    1TCM     c1  959   3.749   2.057   2.673
    1TCM    cl1  960   3.690   2.123   2.827
    1TCM    cl2  961   3.897   2.142   2.624
    1TCM     h1  962   3.770   1.949   2.685
    1TCM    cl3  963   3.625   2.079   2.547
    1TCM     c1  964   4.964   4.009   3.376
    1TCM    cl1  965   5.067   3.890   3.459
    1TCM    cl2  966   4.979   3.987   3.200
    1TCM     h1  967   4.859   3.995   3.407
    1TCM    cl3  968   5.017   4.174   3.420
    1TCM     c1  969   0.472   1.824   0.642
    1TCM    cl1  970   0.477   1.735   0.796
    1TCM    cl2  971   0.347   1.951   0.651
    1TCM     h1  972   0.571   1.870   0.623
    1TCM    cl3  973   0.432   1.711   0.510
    1TCM     c1  974   3.709   1.698   3.654
    1TCM    cl1  975   3.870   1.747   3.711
    1TCM    cl2  976   3.701   1.717   3.477
    1TCM     h1  977   3.691   1.592   3.680
    1TCM    cl3  978   3.586   1.801   3.730
    1TCM     c1  979   1.304   2.523   2.934
    1TCM    cl1  980   1.258   2.412   2.803
    1TCM    cl2  981   1.327   2.431   3.085
    1TCM     h1  982   1.398   2.575   2.907
    1TCM    cl3  983   1.175   2.644   2.958
    1TCM     c1  984   0.303   3.047   0.164
    1TCM    cl1  985   0.310   3.224   0.150
    1TCM    cl2  986   0.379   2.997   0.317
    1TCM     h1  987   0.197   3.014   0.163
    1TCM    cl3  988   0.390   2.973   0.028
    1TCM     c1  989   0.830   4.669   5.025
    1TCM    cl1  990   0.702   4.621   5.139
    1TCM    cl2  991   0.761   4.774   4.899
    1TCM     h1  992   0.910   4.724   5.079
    1TCM    cl3  993   0.900   4.524   4.949
    1TCM     c1  994   4.711   4.855   0.139
    1TCM    cl1  995   4.857   4.835   0.039
    1TCM    cl2  996   4.757   4.873   0.309
    1TCM     h1  997   4.656   4.945   0.105
    1TCM    cl3  998   4.607   4.712   0.120
    1TCM     c1  999   0.816   1.552   0.590
    1TCM    cl1 1000   0.954   1.510   0.694
    1TCM    cl2 1001   0.874   1.594   0.428
    1TCM     h1 1002   0.747   1.465   0.584
    1TCM    cl3 1003   0.730   1.691   0.660
    1TCM     c1 1004   2.435   0.380   3.525
    1TCM    cl1 1005   2.368   0.514   3.622
    1TCM    cl2 1006   2.469   0.437   3.360
    1TCM     h1 1007   2.529   0.344   3.572
    1TCM    cl3 1008   2.317   0.247   3.519
    1TCM     c1 1009   0.524   1.538   3.323
    1TCM    cl1 1010   0.538   1.539   3.501
    1TCM    cl2 1011   0.674   1.473   3.253
    1TCM     h1 1012   0.438   1.475   3.293
    1TCM    cl3 1013   0.499   1.704   3.266
    1TCM     c1 1014   0.342   4.408   4.977
    1TCM    cl1 1015   0.316   4.264   4.876
    1TCM    cl2 1016   0.374   4.359   5.144
    1TCM     h1 1017   0.429   4.465   4.938
    1TCM    cl3 1018   0.197   4.511   4.972
    1TCM     c1 1019   4.299   1.434   2.195
    1TCM    cl1 1020   4.464   1.490   2.228
    1TCM    cl2 1021   4.188   1.500   2.318
    1TCM     h1 1022   4.267   1.468   2.095
    1TCM    cl3 1023   4.294   1.256   2.201
    1TCM     c1 1024   1.487   0.669   1.807
    1TCM    cl1 1025   1.452   0.542   1.926
    1TCM    cl2 1026   1.421   0.622   1.649
    1TCM     h1 1027   1.440   0.764   1.840
    1TCM    cl3 1028   1.663   0.692   1.794
    1TCM     c1 1029   2.022   1.887   3.561
    1TCM    cl1 1030   2.000   2.010   3.435
    1TCM    cl2 1031   1.965   1.950   3.717
    1TCM     h1 1032   1.963   1.796   3.534
    1TCM    cl3 1033   2.194   1.844   3.574
    1TCM     c1 1034   2.650   3.611   3.826
    1TCM    cl1 1035   2.766   3.695   3.931
    1TCM    cl2 1036   2.581   3.472   3.913
    1TCM     h1 1037   2.569   3.681   3.798
    1TCM    cl3 1038   2.733   3.555   3.680
    1TCM     c1 1039   0.858   1.374   3.740
    1TCM    cl1 1040   0.824   1.318   3.575
    1TCM    cl2 1041   0.706   1.422   3.819
    1TCM     h1 1042   0.906   1.292   3.798
    1TCM    cl3 1043   0.968   1.514   3.734
    1TCM     c1 1044   0.794   4.414   1.928
    1TCM    cl1 1045   0.663   4.401   1.809
    1TCM    cl2 1046   0.728   4.386   2.091
    1TCM     h1 1047   0.872   4.338   1.906
    1TCM    cl3 1048   0.866   4.576   1.921
    1TCM     c1 1049   3.715   4.171   2.615
    1TCM    cl1 1050   3.874   4.195   2.540
    1TCM    cl2 1051   3.674   3.998   2.611
    1TCM     h1 1052   3.718   4.206   2.720
    1TCM    cl3 1053   3.592   4.263   2.525
    1TCM     c1 1054   0.683   2.570   3.588
    1TCM    cl1 1055   0.682   2.585   3.411
    1TCM    cl2 1056   0.790   2.435   3.635
    1TCM     h1 1057   0.721   2.664   3.633
    1TCM    cl3 1058   0.518   2.538   3.646
    1TCM     c1 1059   1.778   3.879   1.751
    1TCM    cl1 1060   1.790   3.947   1.587
    1TCM    cl2 1061   1.630   3.940   1.829
    1TCM     h1 1062   1.774   3.769   1.745
    1TCM    cl3 1063   1.920   3.929   1.846
    1TCM     c1 1064   1.690   1.531   2.560
    1TCM    cl1 1065   1.571   1.650   2.617
    1TCM    cl2 1066   1.615   1.369   2.556
    1TCM     h1 1067   1.724   1.559   2.458
    1TCM    cl3 1068   1.829   1.529   2.671
    1TCM     c1 1069   3.957   0.135   4.034
    1TCM    cl1 1070   4.039   0.039   3.909
    1TCM    cl2 1071   4.050   0.130   4.185
    1TCM     h1 1072   3.948   0.241   4.000
    1TCM    cl3 1073   3.794   0.068   4.063
    1TCM     c1 1074   0.162   4.542   4.579
    1TCM    cl1 1075   0.311   4.619   4.520
    1TCM    cl2 1076   0.047   4.667   4.632
    1TCM     h1 1077   0.117   4.482   4.498
    1TCM    cl3 1078   0.202   4.436   4.717
    1TCM     c1 1079   1.055   1.732   0.849
    1TCM    cl1 1080   0.969   1.882   0.892
    1TCM    cl2 1081   1.077   1.726   0.672
    1TCM     h1 1082   1.154   1.731   0.899
    1TCM    cl3 1083   0.959   1.592   0.902
    1TCM     c1 1084   2.724   2.851   0.295
    1TCM    cl1 1085   2.662   2.944   0.156
    1TCM    cl2 1086   2.694   2.678   0.269
    1TCM     h1 1087   2.833   2.869   0.305
    1TCM    cl3 1088   2.641   2.905   0.443
    1TCM     c1 1089   3.616   1.425   3.445
    1TCM    cl1 1090   3.493   1.385   3.324
    1TCM    cl2 1091   3.768   1.470   3.364
    1TCM     h1 1092   3.581   1.510   3.507
    1TCM    cl3 1093   3.645   1.283   3.549
    1TCM     c1 1094   3.530   0.283   1.973
    1TCM    cl1 1095   3.582   0.423   2.068
    1TCM    cl2 1096   3.556   0.316   1.800
    1TCM     h1 1097   3.589   0.194   2.002
    1TCM    cl3 1098   3.357   0.252   2.002
    1TCM     c1 1099   4.129   2.685   1.506
    1TCM    cl1 1100   4.087   2.770   1.656
    1TCM    cl2 1101   4.110   2.510   1.530
    1TCM     h1 1102   4.062   2.719   1.424
    1TCM    cl3 1103   4.298   2.721   1.463
    1TCM     c1 1104   3.017   4.244   2.679
    1TCM    cl1 1105   2.880   4.131   2.663
    1TCM    cl2 1106   3.087   4.229   2.842
    1TCM     h1 1107   3.094   4.220   2.603
    1TCM    cl3 1108   2.960   4.410   2.654
    1TCM     c1 1109   4.440   1.113   2.776
    1TCM    cl1 1110   4.531   1.006   2.885
    1TCM    cl2 1111   4.439   1.043   2.612
    1TCM     h1 1112   4.336   1.124   2.812
    1TCM    cl3 1113   4.518   1.273   2.771
    1TCM     c1 1114   1.098   2.092   4.965
    1TCM    cl1 1115   1.067   2.263   5.003
    1TCM    cl2 1116   1.113   1.999   5.116
    1TCM     h1 1117   1.014   2.051   4.905
    1TCM    cl3 1118   1.250   2.078   4.872
    1TCM     c1 1119   2.358   4.576   4.595
    1TCM    cl1 1120   2.516   4.623   4.663
    1TCM    cl2 1121   2.342   4.399   4.600
    1TCM     h1 1122   2.277   4.622   4.656
    1TCM    cl3 1123   2.347   4.633   4.427
    1TCM     c1 1124   2.309   5.079   5.104
    1TCM    cl1 1125   2.280   5.175   5.251
    1TCM    cl2 1126   2.478   5.099   5.052
    1TCM     h1 1127   2.289   4.972   5.125
    1TCM    cl3 1128   2.201   5.135   4.974
    1TCM     c1 1129   2.062   1.268   2.986
    1TCM    cl1 1130   2.060   1.336   3.150
    1TCM    cl2 1131   1.975   1.113   2.984
    1TCM     h1 1132   2.013   1.339   2.916
    1TCM    cl3 1133   2.230   1.242   2.934
    1TCM     c1 1134   1.947   2.211   5.153
    1TCM    cl1 1135   1.870   2.354   5.224
    1TCM    cl2 1136   2.026   2.255   5.001
    1TCM     h1 1137   2.022   2.170   5.224
    1TCM    cl3 1138   1.823   2.087   5.122
    1TCM     c1 1139   2.251   1.827   1.710
    1TCM    cl1 1140   2.222   1.734   1.858
    1TCM    cl2 1141   2.330   1.724   1.589
    1TCM     h1 1142   2.155   1.865   1.670
    1TCM    cl3 1143   2.357   1.965   1.748
    1TCM     c1 1144   2.675   2.711   0.840
    1TCM    cl1 1145   2.743   2.556   0.893
    1TCM    cl2 1146   2.768   2.772   0.701
    1TCM     h1 1147   2.569   2.697   0.810
    1TCM    cl3 1148   2.684   2.828   0.973
    1TCM     c1 1149   3.075   1.880   2.012
    1TCM    cl1 1150   2.981   2.016   1.946
    1TCM    cl2 1151   3.130   1.776   1.878
    1TCM     h1 1152   3.163   1.919   2.067
    1TCM    cl3 1153   2.974   1.785   2.122
    1TCM     c1 1154   4.637   4.633   2.717
    1TCM    cl1 1155   4.628   4.582   2.888
    1TCM    cl2 1156   4.753   4.767   2.702
    1TCM     h1 1157   4.671   4.547   2.655
    1TCM    cl3 1158   4.476   4.686   2.663
    1TCM     c1 1159   3.220   0.416   4.909
    1TCM    cl1 1160   3.362   0.478   4.997
    1TCM    cl2 1161   3.146   0.549   4.818
    1TCM     h1 1162   3.252   0.337   4.839
    1TCM    cl3 1163   3.103   0.350   5.024
    1TCM     c1 1164   3.968   3.998   4.136
    1TCM    cl1 1165   3.956   3.820   4.130
    1TCM    cl2 1166   4.048   4.047   4.287
    1TCM     h1 1167   4.028   4.033   4.049
    1TCM    cl3 1168   3.805   4.069   4.129
    1TCM     c1 1169   1.990   1.380   2.602
    1TCM    cl1 1170   1.866   1.314   2.711
    1TCM    cl2 1171   2.060   1.527   2.676
    1TCM     h1 1172   2.070   1.305   2.587
    1TCM    cl3 1173   1.916   1.422   2.446
    1TCM     c1 1174   2.678   0.496   0.135
    1TCM    cl1 1175   2.832   0.408   0.141
    1TCM    cl2 1176   2.642   0.564   0.296
    1TCM     h1 1177   2.684   0.578   0.061
    1TCM    cl3 1178   2.548   0.383   0.089
    1TCM     c1 1179   2.412   2.723   2.025
    1TCM    cl1 1180   2.585   2.762   2.037
    1TCM    cl2 1181   2.337   2.824   1.898
    1TCM     h1 1182   2.399   2.616   1.999
    1TCM    cl3 1183   2.333   2.756   2.181
    1TCM     c1 1184   1.116   4.963   1.638
    1TCM    cl1 1185   1.099   5.140   1.639
    1TCM    cl2 1186   1.288   4.920   1.649
    1TCM     h1 1187   1.062   4.921   1.725
    1TCM    cl3 1188   1.048   4.898   1.488
    1TCM     c1 1189   4.252   2.316   4.401
    1TCM    cl1 1190   4.127   2.435   4.443
    1TCM    cl2 1191   4.185   2.152   4.414
    1TCM     h1 1192   4.287   2.334   4.297
    1TCM    cl3 1193   4.389   2.333   4.513
    1TCM     c1 1194   1.933   5.127   5.147
    1TCM    cl1 1195   1.848   5.007   5.046
    1TCM    cl2 1196   1.860   5.131   5.309
    1TCM     h1 1197   2.040   5.099   5.155
    1TCM    cl3 1198   1.920   5.288   5.072
    1TCM     c1 1199   3.467   3.799   0.631
    1TCM    cl1 1200   3.353   3.704   0.533
    1TCM    cl2 1201   3.500   3.714   0.783
    1TCM     h1 1202   3.562   3.813   0.575
    1TCM    cl3 1203   3.396   3.958   0.667
    1TCM     c1 1204   4.670   0.982   1.074
    1TCM    cl1 1205   4.706   1.033   1.240
    1TCM    cl2 1206   4.576   1.109   0.992
    1TCM     h1 1207   4.765   0.965   1.019
    1TCM    cl3 1208   4.575   0.832   1.077
    1TCM     c1 1209   4.137   1.839   1.942
    1TCM    cl1 1210   4.189   1.900   1.783
    1TCM    cl2 1211   4.046   1.966   2.027
    1TCM     h1 1212   4.072   1.750   1.928
    1TCM    cl3 1213   4.280   1.794   2.037
    1TCM     c1 1214   4.135   1.741   0.167
    1TCM    cl1 1215   4.198   1.578   0.199
    1TCM    cl2 1216   3.962   1.731   0.130
    1TCM     h1 1217   4.151   1.804   0.257
    1TCM    cl3 1218   4.222   1.812   0.029
    1TCM     c1 1219   3.992   3.240   4.817
    1TCM    cl1 1220   3.941   3.396   4.748
    1TCM    cl2 1221   4.154   3.258   4.888
    1TCM     h1 1222   3.921   3.209   4.896
    1TCM    cl3 1223   3.997   3.117   4.689
    1TCM     c1 1224   1.225   0.545   3.842
    1TCM    cl1 1225   1.231   0.565   4.018
    1TCM    cl2 1226   1.280   0.695   3.763
    1TCM     h1 1227   1.291   0.461   3.812
    1TCM    cl3 1228   1.058   0.509   3.792
    1TCM     c1 1229   3.585   0.362   1.433
    1TCM    cl1 1230   3.408   0.354   1.441
    1TCM    cl2 1231   3.636   0.368   1.262
    1TCM     h1 1232   3.621   0.453   1.485
    1TCM    cl3 1233   3.655   0.218   1.510
    1TCM     c1 1234   1.287   0.323   4.100
    1TCM    cl1 1235   1.419   0.441   4.083
    1TCM    cl2 1236   1.174   0.379   4.225
    1TCM     h1 1237   1.234   0.314   4.003
    1TCM    cl3 1238   1.355   0.165   4.146
    1TCM     c1 1239   3.135   5.264   3.617
    1TCM    cl1 1240   3.230   5.287   3.469
    1TCM    cl2 1241   2.975   5.339   3.597
    1TCM     h1 1242   3.122   5.155   3.636
    1TCM    cl3 1243   3.219   5.339   3.754
    1TCM     c1 1244   2.291   1.133   4.306
    1TCM    cl1 1245   2.282   1.034   4.159
    1TCM    cl2 1246   2.430   1.243   4.295
    1TCM     h1 1247   2.197   1.191   4.317
    1TCM    cl3 1248   2.311   1.026   4.447
    1TCM     c1 1249   3.294   0.743   0.358
    1TCM    cl1 1250   3.463   0.795   0.383
    1TCM    cl2 1251   3.279   0.571   0.399
    1TCM     h1 1252   3.227   0.803   0.422
    1TCM    cl3 1253   3.250   0.768   0.187
    1TCM     c1 1254   1.814   1.956   2.593
    1TCM    cl1 1255   1.663   1.875   2.640
    1TCM    cl2 1256   1.904   2.003   2.739
    1TCM     h1 1257   1.875   1.887   2.532
    1TCM    cl3 1258   1.775   2.102   2.498
    1TCM     c1 1259   5.007   4.021   4.679
    1TCM    cl1 1260   5.079   3.891   4.580
    1TCM    cl2 1261   4.917   4.132   4.573
    1TCM     h1 1262   4.939   3.977   4.754
    1TCM    cl3 1263   5.137   4.110   4.762
    1TCM     c1 1264   0.910   0.933   2.731
    1TCM    cl1 1265   0.851   1.094   2.778
    1TCM    cl2 1266   0.851   0.894   2.568
    1TCM     h1 1267   1.021   0.933   2.731
    1TCM    cl3 1268   0.851   0.812   2.847
    1TCM     c1 1269   4.740   0.997   3.653
    1TCM    cl1 1270   4.788   0.857   3.751
    1TCM    cl2 1271   4.796   0.974   3.485
    1TCM     h1 1272   4.629   1.006   3.654
    1TCM    cl3 1273   4.813   1.144   3.719
    1TCM     c1 1274   5.111   4.817   0.644
    1TCM    cl1 1275   5.242   4.896   0.734
    1TCM    cl2 1276   5.168   4.775   0.481
    1TCM     h1 1277   5.080   4.724   0.697
    1TCM    cl3 1278   4.972   4.927   0.633
    1TCM     c1 1279   0.722   3.400   0.362
    1TCM    cl1 1280   0.808   3.499   0.482
    1TCM    cl2 1281   0.555   3.372   0.417
    1TCM     h1 1282   0.721   3.453   0.265
    1TCM    cl3 1283   0.805   3.243   0.344
    1TCM     c1 1284   1.218   2.467   4.735
    1TCM    cl1 1285   1.206   2.329   4.845
    1TCM    cl2 1286   1.362   2.448   4.633
    1TCM     h1 1287   1.128   2.473   4.671
    1TCM    cl3 1288   1.233   2.617   4.830
    1TCM     c1 1289   0.717   3.245   0.709
    1TCM    cl1 1290   0.682   3.126   0.837
    1TCM    cl2 1291   0.687   3.172   0.550
    1TCM     h1 1292   0.651   3.334   0.722
    1TCM    cl3 1293   0.887   3.295   0.720
    1TCM     c1 1294   4.251   1.631   2.604
    1TCM    cl1 1295   4.322   1.747   2.490
    1TCM    cl2 1296   4.245   1.703   2.766
    1TCM     h1 1297   4.148   1.605   2.571
    1TCM    cl3 1298   4.350   1.483   2.608
    1TCM     c1 1299   2.141   0.584   4.332
    1TCM    cl1 1300   2.186   0.477   4.197
    1TCM    cl2 1301   2.139   0.753   4.275
    1TCM     h1 1302   2.040   0.557   4.369
    1TCM    cl3 1303   2.260   0.567   4.463
    1TCM     c1 1304   0.443   0.158   2.659
    1TCM    cl1 1305   0.522   0.000   2.635
    1TCM    cl2 1306   0.527   0.247   2.788
    1TCM     h1 1307   0.447   0.216   2.565
    1TCM    cl3 1308   0.273   0.133   2.706
    1TCM     c1 1309   1.883   4.546   4.438
    1TCM    cl1 1310   1.908   4.407   4.331
    1TCM    cl2 1311   1.964   4.516   4.594
    1TCM     h1 1312   1.926   4.637   4.391
    1TCM    cl3 1313   1.709   4.570   4.465
    1TCM     c1 1314   4.300   4.634   1.529
    1TCM    cl1 1315   4.193   4.694   1.400
    1TCM    cl2 1316   4.432   4.540   1.457
    1TCM     h1 1317   4.341   4.720   1.586
    1TCM    cl3 1318   4.207   4.530   1.639
    1TCM     c1 1319   1.135   2.612   0.558
    1TCM    cl1 1320   1.305   2.637   0.604
    1TCM    cl2 1321   1.123   2.474   0.446
    1TCM     h1 1322   1.075   2.591   0.649
    1TCM    cl3 1323   1.073   2.758   0.479
    1TCM     c1 1324   1.319   0.960   4.260
    1TCM    cl1 1325   1.217   1.075   4.350
    1TCM    cl2 1326   1.330   1.011   4.090
    1TCM     h1 1327   1.421   0.958   4.305
    1TCM    cl3 1328   1.247   0.798   4.268
    1TCM     c1 1329   1.873   1.526   0.877
    1TCM    cl1 1330   1.859   1.696   0.825
    1TCM    cl2 1331   1.876   1.520   1.055
    1TCM     h1 1332   1.786   1.469   0.840
    1TCM    cl3 1333   2.023   1.456   0.813
    1TCM     c1 1334   1.228   4.577   1.452
    1TCM    cl1 1335   1.232   4.408   1.397
    1TCM    cl2 1336   1.242   4.685   1.311
    1TCM     h1 1337   1.133   4.596   1.504
    1TCM    cl3 1338   1.364   4.606   1.562
    1TCM     c1 1339   5.114   2.791   2.639
    1TCM    cl1 1340   5.044   2.672   2.752
    1TCM    cl2 1341   5.057   2.757   2.474
    1TCM     h1 1342   5.083   2.893   2.669
    1TCM    cl3 1343   5.292   2.779   2.644
    1TCM     c1 1344   0.864   2.456   0.238
    1TCM    cl1 1345   0.827   2.405   0.072
    1TCM    cl2 1346   0.713   2.477   0.330
    1TCM     h1 1347   0.927   2.379   0.287
    1TCM    cl3 1348   0.952   2.611   0.234
    1TCM     c1 1349   3.686   4.704   3.438
    1TCM    cl1 1350   3.775   4.804   3.321
    1TCM    cl2 1351   3.797   4.589   3.515
    1TCM     h1 1352   3.641   4.769   3.516
    1TCM    cl3 1353   3.557   4.615   3.354
    1TCM     c1 1354   2.168   1.026   2.402
    1TCM    cl1 1355   2.345   1.036   2.380
    1TCM    cl2 1356   2.097   1.187   2.380
    1TCM     h1 1357   2.126   0.956   2.327
    1TCM    cl3 1358   2.132   0.967   2.566
    1TCM     c1 1359   0.716   4.619   4.518
    1TCM    cl1 1360   0.621   4.604   4.668
    1TCM    cl2 1361   0.606   4.634   4.379
    1TCM     h1 1362   0.780   4.710   4.524
    1TCM    cl3 1363   0.819   4.475   4.498
    1TCM     c1 1364   2.053   4.832   3.931
    1TCM    cl1 1365   2.098   4.950   4.056
    1TCM    cl2 1366   2.181   4.826   3.807
    1TCM     h1 1367   2.041   4.732   3.977
    1TCM    cl3 1368   1.900   4.881   3.855
    1TCM     c1 1369   1.193   0.281   1.290
    1TCM    cl1 1370   1.183   0.105   1.263
    1TCM    cl2 1371   1.135   0.320   1.453
    1TCM     h1 1372   1.299   0.314   1.279
    1TCM    cl3 1373   1.093   0.365   1.170
    1TCM     c1 1374   2.469   3.131   1.101
    1TCM    cl1 1375   2.445   3.130   1.278
    1TCM    cl2 1376   2.634   3.076   1.064
    1TCM     h1 1377   2.396   3.063   1.054
    1TCM    cl3 1378   2.447   3.296   1.039
    1TCM     c1 1379   1.025   3.620   1.108
    1TCM    cl1 1380   1.068   3.738   0.982
    1TCM    cl2 1381   0.927   3.490   1.036
    1TCM     h1 1382   1.117   3.577   1.151
    1TCM    cl3 1383   0.931   3.701   1.235
    1TCM     c1 1384   3.763   2.391   2.045
    1TCM    cl1 1385   3.843   2.538   2.102
    1TCM    cl2 1386   3.796   2.257   2.158
    1TCM     h1 1387   3.654   2.408   2.038
    1TCM    cl3 1388   3.826   2.348   1.884
    1TCM     c1 1389   2.783   2.485   1.272
    1TCM    cl1 1390   2.723   2.457   1.107
    1TCM    cl2 1391   2.905   2.615   1.269
    1TCM     h1 1392   2.699   2.515   1.338
    1TCM    cl3 1393   2.857   2.336   1.334
    1TCM     c1 1394   2.755   3.505   4.297
    1TCM    cl1 1395   2.728   3.626   4.170
    1TCM    cl2 1396   2.907   3.418   4.265
    1TCM     h1 1397   2.761   3.556   4.396
    1TCM    cl3 1398   2.620   3.390   4.299
    1TCM     c1 1399   1.191   2.796   4.174
    1TCM    cl1 1400   1.204   2.805   4.351
    1TCM    cl2 1401   1.020   2.779   4.128
    1TCM     h1 1402   1.232   2.888   4.129
    1TCM    cl3 1403   1.282   2.655   4.115
    1TCM     c1 1404   1.517   2.929   3.466
    1TCM    cl1 1405   1.540   2.780   3.560
    1TCM    cl2 1406   1.467   2.888   3.300
    1TCM     h1 1407   1.439   2.992   3.513
    1TCM    cl3 1408   1.670   3.020   3.460
    1TCM     c1 1409   3.800   4.793   3.859
    1TCM    cl1 1410   3.739   4.699   3.722
    1TCM    cl2 1411   3.791   4.695   4.007
    1TCM     h1 1412   3.905   4.822   3.841
    1TCM    cl3 1413   3.701   4.939   3.880
    1TCM     c1 1414   0.160   3.224   0.516
    1TCM    cl1 1415   0.238   3.236   0.676
    1TCM    cl2 1416   0.152   3.053   0.467
    1TCM     h1 1417   0.058   3.266   0.522
    1TCM    cl3 1418   0.255   3.316   0.397
    1TCM     c1 1419   1.462   2.286   5.093
    1TCM    cl1 1420   1.490   2.118   5.144
    1TCM    cl2 1421   1.551   2.396   5.200
    1TCM     h1 1422   1.498   2.299   4.988
    1TCM    cl3 1423   1.288   2.322   5.101
    1TCM     c1 1424   0.258   1.945   3.022
    1TCM    cl1 1425   0.297   1.780   2.970
    1TCM    cl2 1426   0.384   2.056   2.965
    1TCM     h1 1427   0.160   1.975   2.978
    1TCM    cl3 1428   0.249   1.951   3.199
    1TCM     c1 1429   3.696   0.231   4.946
    1TCM    cl1 1430   3.635   0.321   4.806
    1TCM    cl2 1431   3.567   0.128   5.011
    1TCM     h1 1432   3.782   0.168   4.916
    1TCM    cl3 1433   3.748   0.346   5.072
    1TCM     c1 1434   1.762   2.859   2.313
    1TCM    cl1 1435   1.618   2.853   2.418
    1TCM    cl2 1436   1.743   2.989   2.194
    1TCM     h1 1437   1.852   2.878   2.376
    1TCM    cl3 1438   1.780   2.703   2.229
    1TCM     c1 1439   4.180   0.701   4.244
    1TCM    cl1 1440   4.215   0.573   4.126
    1TCM    cl2 1441   4.003   0.716   4.265
    1TCM     h1 1442   4.226   0.675   4.341
    1TCM    cl3 1443   4.246   0.855   4.186
    1TCM     c1 1444   0.328   3.833   1.609
    1TCM    cl1 1445   0.365   3.955   1.485
    1TCM    cl2 1446   0.171   3.871   1.684
    1TCM     h1 1447   0.323   3.733   1.562
    1TCM    cl3 1448   0.455   3.835   1.733
    1TCM     c1 1449   0.260   1.622   0.915
    1TCM    cl1 1450   0.119   1.541   0.987
    1TCM    cl2 1451   0.356   1.697   1.043
    1TCM     h1 1452   0.322   1.547   0.861
    1TCM    cl3 1453   0.205   1.746   0.800
    1TCM     c1 1454   3.732   2.546   2.847
    1TCM    cl1 1455   3.648   2.697   2.888
    1TCM    cl2 1456   3.613   2.423   2.800
    1TCM     h1 1457   3.802   2.564   2.762
    1TCM    cl3 1458   3.825   2.489   2.988
    1TCM     c1 1459   0.290   4.832   2.861
    1TCM    cl1 1460   0.371   4.677   2.828
    1TCM    cl2 1461   0.141   4.803   2.953
    1TCM     h1 1462   0.358   4.898   2.919
    1TCM    cl3 1463   0.250   4.911   2.707
    1TCM     c1 1464   0.132   4.655   2.492
    1TCM    cl1 1465   0.067   4.687   2.654
    1TCM    cl2 1466   0.210   4.802   2.429
    1TCM     h1 1467   0.207   4.573   2.497
    1TCM    cl3 1468   0.000   4.607   2.383
    1TCM     c1 1469   0.480   2.507   2.420
    1TCM    cl1 1470   0.303   2.519   2.421
    1TCM    cl2 1471   0.540   2.530   2.254
    1TCM     h1 1472   0.523   2.585   2.486
    1TCM    cl3 1473   0.529   2.346   2.478
    1TCM     c1 1474   0.643   4.030   2.890
    1TCM    cl1 1475   0.474   4.000   2.937
    1TCM    cl2 1476   0.705   3.890   2.799
    1TCM     h1 1477   0.648   4.121   2.826
    1TCM    cl3 1478   0.741   4.055   3.036
    1TCM     c1 1479   2.391   0.721   4.079
    1TCM    cl1 1480   2.366   0.696   4.253
    1TCM    cl2 1481   2.233   0.735   3.998
    1TCM     h1 1482   2.449   0.814   4.063
    1TCM    cl3 1483   2.480   0.583   4.011
    1TCM     c1 1484   1.840   1.952   2.109
    1TCM    cl1 1485   1.806   1.931   1.936
    1TCM    cl2 1486   1.800   1.801   2.196
    1TCM     h1 1487   1.947   1.975   2.123
    1TCM    cl3 1488   1.741   2.085   2.174
    1TCM     c1 1489   0.961   3.192   2.348
    1TCM    cl1 1490   1.027   3.204   2.513
    1TCM    cl2 1491   0.964   3.352   2.271
    1TCM     h1 1492   1.022   3.121   2.289
    1TCM    cl3 1493   0.793   3.133   2.356
    1TCM     c1 1494   4.768   3.759   3.072
    1TCM    cl1 1495   4.721   3.856   2.930
    1TCM    cl2 1496   4.812   3.595   3.020
    1TCM     h1 1497   4.855   3.807   3.122
    1TCM    cl3 1498   4.631   3.750   3.186
    1TCM     c1 1499   4.309   1.066   4.577
    1TCM    cl1 1500   4.398   1.106   4.725
    1TCM    cl2 1501   4.417   1.083   4.436
    1TCM     h1 1502   4.272   0.961   4.583
    1TCM    cl3 1503   4.171   1.176   4.559
    1TCM     c1 1504   0.144   3.112   4.633
    1TCM    cl1 1505   0.312   3.067   4.600
    1TCM    cl2 1506   0.130   3.175   4.798
    1TCM     h1 1507   0.112   3.190   4.561
    1TCM    cl3 1508   0.039   2.969   4.615
    1TCM     c1 1509   1.050   1.938   0.282
    1TCM    cl1 1510   0.978   1.894   0.439
    1TCM    cl2 1511   1.145   2.087   0.299
    1TCM     h1 1512   1.116   1.855   0.247
    1TCM    cl3 1513   0.920   1.963   0.163
    1TCM     c1 1514   1.917   2.155   1.764
    1TCM    cl1 1515   1.813   2.157   1.908
    1TCM    cl2 1516   1.820   2.108   1.622
    1TCM     h1 1517   1.959   2.257   1.748
    1TCM    cl3 1518   2.049   2.039   1.787
    1TCM     c1 1519   2.580   4.472   3.879
    1TCM    cl1 1520   2.420   4.541   3.913
    1TCM    cl2 1521   2.673   4.585   3.778
    1TCM     h1 1522   2.634   4.456   3.975
    1TCM    cl3 1523   2.561   4.318   3.794
    1TCM     c1 1524   3.295   0.534   1.667
    1TCM    cl1 1525   3.198   0.425   1.768
    1TCM    cl2 1526   3.230   0.535   1.502
    1TCM     h1 1527   3.291   0.637   1.709
    1TCM    cl3 1528   3.464   0.478   1.663
    1TCM     c1 1529   2.479   4.828   4.879
    1TCM    cl1 1530   2.360   4.696   4.867
    1TCM    cl2 1531   2.543   4.866   4.718
    1TCM     h1 1532   2.430   4.918   4.922
    1TCM    cl3 1533   2.613   4.777   4.985
    1TCM     c1 1534   2.668   1.875   3.425
    1TCM    cl1 1535   2.725   1.800   3.576
    1TCM    cl2 1536   2.611   1.748   3.314
    1TCM     h1 1537   2.585   1.945   3.447
    1TCM    cl3 1538   2.802   1.964   3.348
    1TCM     c1 1539   0.842   1.811   4.962
    1TCM    cl1 1540   0.851   1.722   5.116
    1TCM    cl2 1541   0.998   1.799   4.877
    1TCM     h1 1542   0.762   1.767   4.899
    1TCM    cl3 1543   0.805   1.982   4.994
    1TCM     c1 1544   3.150   1.170   3.109
    1TCM    cl1 1545   3.199   1.036   3.216
    1TCM    cl2 1546   3.282   1.206   2.996
    1TCM     h1 1547   3.059   1.140   3.052
    1TCM    cl3 1548   3.114   1.314   3.207
    1TCM     c1 1549   3.711   0.765   1.662
    1TCM    cl1 1550   3.807   0.769   1.513
    1TCM    cl2 1551   3.631   0.922   1.686
    1TCM     h1 1552   3.634   0.686   1.654
    1TCM    cl3 1553   3.818   0.732   1.800
    1TCM     c1 1554   0.549   0.463   0.573
    1TCM    cl1 1555   0.655   0.596   0.625
    1TCM    cl2 1556   0.390   0.480   0.651
    1TCM     h1 1557   0.537   0.466   0.463
    1TCM    cl3 1558   0.622   0.308   0.621
    1TCM     c1 1559   0.843   3.830   3.732
    1TCM    cl1 1560   0.891   3.975   3.824
    1TCM    cl2 1561   0.831   3.691   3.842
    1TCM     h1 1562   0.745   3.848   3.684
    1TCM    cl3 1563   0.966   3.796   3.608
    1TCM     c1 1564   5.173   4.208   4.465
    1TCM    cl1 1565   5.283   4.260   4.594
    1TCM    cl2 1566   5.252   4.228   4.307
    1TCM     h1 1567   5.146   4.102   4.480
    1TCM    cl3 1568   5.025   4.308   4.470
    1TCM     c1 1569   3.752   1.790   0.935
    1TCM    cl1 1570   3.658   1.935   0.892
    1TCM    cl2 1571   3.785   1.791   1.110
    1TCM     h1 1572   3.694   1.699   0.909
    1TCM    cl3 1573   3.906   1.791   0.846
    1TCM     c1 1574   3.411   4.550   3.820
    1TCM    cl1 1575   3.332   4.400   3.876
    1TCM    cl2 1576   3.429   4.546   3.644
    1TCM     h1 1577   3.348   4.637   3.849
    1TCM    cl3 1578   3.571   4.565   3.896
    1TCM     c1 1579   1.683   4.734   3.218
    1TCM    cl1 1580   1.716   4.561   3.194
    1TCM    cl2 1581   1.809   4.830   3.136
    1TCM     h1 1582   1.584   4.760   3.175
    1TCM    cl3 1583   1.684   4.771   3.392
    1TCM     c1 1584   2.588   0.509   2.619
    1TCM    cl1 1585   2.651   0.613   2.749
    1TCM    cl2 1586   2.450   0.590   2.540
    1TCM     h1 1587   2.668   0.491   2.544
    1TCM    cl3 1588   2.534   0.354   2.688
    1TCM     c1 1589   3.330   2.126   4.220
    1TCM    cl1 1590   3.351   2.014   4.357
    1TCM    cl2 1591   3.464   2.243   4.219
    1TCM     h1 1592   3.331   2.068   4.125
    1TCM    cl3 1593   3.176   2.213   4.237
    1TCM     c1 1594   2.965   2.444   0.630
    1TCM    cl1 1595   2.879   2.570   0.538
    1TCM    cl2 1596   3.138   2.485   0.641
    1TCM     h1 1597   2.922   2.437   0.732
    1TCM    cl3 1598   2.947   2.287   0.547
    1TCM     c1 1599   1.604   0.448   5.024
    1TCM    cl1 1600   1.603   0.525   4.864
    1TCM    cl2 1601   1.437   0.422   5.078
    1TCM     h1 1602   1.657   0.351   5.019
    1TCM    cl3 1603   1.688   0.555   5.140
    1TCM     c1 1604   0.765   1.627   1.651
    1TCM    cl1 1605   0.688   1.640   1.811
    1TCM    cl2 1606   0.803   1.456   1.617
    1TCM     h1 1607   0.696   1.666   1.573
    1TCM    cl3 1608   0.916   1.722   1.649
    1TCM     c1 1609   5.011   3.162   0.358
    1TCM    cl1 1610   4.970   3.005   0.285
    1TCM    cl2 1611   4.880   3.213   0.467
    1TCM     h1 1612   5.105   3.154   0.415
    1TCM    cl3 1613   5.030   3.284   0.229
    1TCM     c1 1614   0.676   1.726   3.995
    1TCM    cl1 1615   0.725   1.592   4.101
    1TCM    cl2 1616   0.654   1.874   4.092
    1TCM     h1 1617   0.754   1.744   3.918
    1TCM    cl3 1618   0.523   1.685   3.915
    1TCM     c1 1619   0.963   0.804   0.461
    1TCM    cl1 1620   0.805   0.771   0.386
    1TCM    cl2 1621   1.046   0.651   0.494
    1TCM     h1 1622   1.025   0.865   0.391
    1TCM    cl3 1623   0.939   0.893   0.613
    1TCM     c1 1624   3.507   4.945   4.930
    1TCM    cl1 1625   3.474   4.982   5.101
    1TCM    cl2 1626   3.497   4.770   4.904
    1TCM     h1 1627   3.432   4.997   4.866
    1TCM    cl3 1628   3.670   5.002   4.887
    1TCM     c1 1629   3.134   3.871   3.647
    1TCM    cl1 1630   2.972   3.810   3.690
    1TCM    cl2 1631   3.151   3.873   3.470
    1TCM     h1 1632   3.146   3.974   3.687
    1TCM    cl3 1633   3.258   3.766   3.718
    1TCM     c1 1634   2.820   4.330   3.323
    1TCM    cl1 1635   2.777   4.450   3.199
    1TCM    cl2 1636   2.796   4.401   3.484
    1TCM     h1 1637   2.756   4.241   3.312
    1TCM    cl3 1638   2.991   4.284   3.304
    1TCM     c1 1639   3.501   1.336   2.704
    1TCM    cl1 1640   3.356   1.436   2.677
    1TCM    cl2 1641   3.497   1.270   2.869
    1TCM     h1 1642   3.502   1.253   2.631
    1TCM    cl3 1643   3.646   1.436   2.683
    1TCM     c1 1644   4.572   2.111   5.139
    1TCM    cl1 1645   4.694   2.099   5.268
    1TCM    cl2 1646   4.470   1.965   5.140
    1TCM     h1 1647   4.509   2.200   5.156
    1TCM    cl3 1648   4.654   2.125   4.982
    1TCM     c1 1649   3.175   2.185   0.795
    1TCM    cl1 1650   3.267   2.253   0.658
    1TCM    cl2 1651   3.211   2.278   0.942
    1TCM     h1 1652   3.067   2.190   0.773
    1TCM    cl3 1653   3.223   2.015   0.820
    1TCM     c1 1654   4.610   4.819   1.566
    1TCM    cl1 1655   4.676   4.654   1.552
    1TCM    cl2 1656   4.498   4.827   1.704
    1TCM     h1 1657   4.693   4.890   1.582
    1TCM    cl3 1658   4.524   4.861   1.416
    1TCM     c1 1659   4.631   0.718   3.261
    1TCM    cl1 1660   4.655   0.546   3.299
    1TCM    cl2 1661   4.577   0.734   3.092
    1TCM     h1 1662   4.554   0.761   3.329
    1TCM    cl3 1663   4.785   0.805   3.283
    1TCM     c1 1664   3.558   2.213   0.447
    1TCM    cl1 1665   3.675   2.346   0.435
    1TCM    cl2 1666   3.639   2.068   0.510
    1TCM     h1 1667   3.475   2.241   0.515
    1TCM    cl3 1668   3.493   2.177   0.285
    1TCM     c1 1669   1.772   0.143   2.733
    1TCM    cl1 1670   1.671   0.210   2.862
    1TCM    cl2 1671   1.921   0.239   2.719
    1TCM     h1 1672   1.798   0.038   2.757
    1TCM    cl3 1673   1.683   0.149   2.579
    1TCM     c1 1674   1.218   4.691   5.049
    1TCM    cl1 1675   1.394   4.708   5.069
    1TCM    cl2 1676   1.143   4.661   5.208
    1TCM     h1 1677   1.176   4.784   5.006
    1TCM    cl3 1678   1.183   4.554   4.941
    1TCM     c1 1679   5.132   0.296   4.512
    1TCM    cl1 1680   5.187   0.215   4.364
    1TCM    cl2 1681   5.166   0.192   4.653
    1TCM     h1 1682   5.186   0.393   4.524
    1TCM    cl3 1683   4.957   0.327   4.502
    1TCM     c1 1684   4.383   4.857   0.244
    1TCM    cl1 1685   4.217   4.886   0.303
    1TCM    cl2 1686   4.492   4.838   0.383
    1TCM     h1 1687   4.384   4.765   0.183
    1TCM    cl3 1688   4.436   4.995   0.145
    1TCM     c1 1689   0.570   2.540   3.915
    1TCM    cl1 1690   0.689   2.671   3.903
    1TCM    cl2 1691   0.566   2.478   4.082
    1TCM     h1 1692   0.470   2.579   3.888
    1TCM    cl3 1693   0.615   2.409   3.804
    1TCM     c1 1694   4.073   1.349   1.712
    1TCM    cl1 1695   4.165   1.382   1.563
    1TCM    cl2 1696   4.092   1.487   1.823
    1TCM     h1 1697   3.966   1.336   1.687
    1TCM    cl3 1698   4.136   1.202   1.789
    1TCM     c1 1699   1.435   4.923   0.403
    1TCM    cl1 1700   1.567   5.040   0.378
    1TCM    cl2 1701   1.424   4.881   0.575
    1TCM     h1 1702   1.339   4.967   0.369
    1TCM    cl3 1703   1.468   4.775   0.308
    1TCM     c1 1704   3.325   1.128   4.018
    1TCM    cl1 1705   3.297   1.152   3.844
    1TCM    cl2 1706   3.452   1.006   4.042
    1TCM     h1 1707   3.356   1.224   4.064
    1TCM    cl3 1708   3.174   1.071   4.095
    1TCM     c1 1709   4.658   3.549   3.718
    1TCM    cl1 1710   4.766   3.482   3.593
    1TCM    cl2 1711   4.556   3.419   3.784
    1TCM     h1 1712   4.719   3.594   3.799
    1TCM    cl3 1713   4.554   3.674   3.645
    1TCM     c1 1714   1.395   0.831   0.616
    1TCM    cl1 1715   1.278   0.927   0.708
    1TCM    cl2 1716   1.474   0.714   0.725
    1TCM     h1 1717   1.343   0.776   0.535
    1TCM    cl3 1718   1.518   0.938   0.546
    1TCM     c1 1719   1.188   2.015   1.108
    1TCM    cl1 1720   1.280   1.903   1.211
    1TCM    cl2 1721   1.173   1.947   0.944
    1TCM     h1 1722   1.087   2.031   1.151
    1TCM    cl3 1723   1.273   2.171   1.099
    1TCM     c1 1724   3.607   3.063   2.425
    1TCM    cl1 1725   3.754   3.098   2.331
    1TCM    cl2 1726   3.525   3.215   2.466
    1TCM     h1 1727   3.539   2.999   2.365
    1TCM    cl3 1728   3.651   2.977   2.575
    1TCM     c1 1729   3.312   3.270   2.715
    1TCM    cl1 1730   3.200   3.398   2.768
    1TCM    cl2 1731   3.303   3.253   2.539
    1TCM     h1 1732   3.415   3.297   2.745
    1TCM    cl3 1733   3.266   3.117   2.793
    1TCM     c1 1734   1.309   1.199   0.313
    1TCM    cl1 1735   1.302   1.051   0.412
    1TCM    cl2 1736   1.178   1.195   0.192
    1TCM     h1 1737   1.297   1.288   0.378
    1TCM    cl3 1738   1.465   1.207   0.229
    1TCM     c1 1739   3.055   0.246   0.873
    1TCM    cl1 1740   3.127   0.293   1.029
    1TCM    cl2 1741   2.929   0.124   0.899
    1TCM     h1 1742   3.011   0.336   0.824
    1TCM    cl3 1743   3.182   0.179   0.767
    1TCM     c1 1744   1.917   3.344   1.032
    1TCM    cl1 1745   1.806   3.476   0.989
    1TCM    cl2 1746   1.945   3.344   1.208
    1TCM     h1 1747   1.872   3.247   1.002
    1TCM    cl3 1748   2.072   3.366   0.947
    1TCM     c1 1749   2.908   3.887   2.059
    1TCM    cl1 1750   3.064   3.833   1.993
    1TCM    cl2 1751   2.919   3.898   2.236
    1TCM     h1 1752   2.883   3.987   2.017
    1TCM    cl3 1753   2.781   3.771   2.014
    1TCM     c1 1754   4.567   0.510   4.119
    1TCM    cl1 1755   4.683   0.380   4.150
    1TCM    cl2 1756   4.636   0.665   4.169
    1TCM     h1 1757   4.543   0.513   4.011
    1TCM    cl3 1758   4.418   0.479   4.211
    1TCM     c1 1759   4.670   3.018   4.764
    1TCM    cl1 1760   4.821   2.976   4.681
    1TCM    cl2 1761   4.665   2.938   4.923
    1TCM     h1 1762   4.665   3.128   4.778
    1TCM    cl3 1763   4.531   2.965   4.666
    1TCM     c1 1764   1.115   4.675   2.409
    1TCM    cl1 1765   1.024   4.755   2.279
    1TCM    cl2 1766   1.164   4.796   2.530
    1TCM     h1 1767   1.051   4.599   2.457
    1TCM    cl3 1768   1.260   4.597   2.341
    1TCM     c1 1769   5.138   0.238   0.368
    1TCM    cl1 1770   4.965   0.204   0.342
    1TCM    cl2 1771   5.212   0.291   0.215
    1TCM     h1 1772   5.149   0.319   0.444
    1TCM    cl3 1773   5.220   0.091   0.425
    1TCM     c1 1774   4.580   0.469   3.655
    1TCM    cl1 1775   4.594   0.367   3.510
    1TCM    cl2 1776   4.618   0.638   3.613
    1TCM     h1 1777   4.477   0.463   3.695
    1TCM    cl3 1778   4.695   0.412   3.779
    1TCM     c1 1779   3.612   5.098   4.455
    1TCM    cl1 1780   3.569   5.222   4.575
    1TCM    cl2 1781   3.789   5.079   4.451
    1TCM     h1 1782   3.565   5.002   4.482
    1TCM    cl3 1783   3.555   5.149   4.294
    1TCM     c1 1784   1.466   1.874   1.594
    1TCM    cl1 1785   1.536   1.854   1.432
    1TCM    cl2 1786   1.289   1.871   1.584
    1TCM     h1 1787   1.500   1.791   1.659
    1TCM    cl3 1788   1.519   2.029   1.663
    1TCM     c1 1789   5.272   0.242   1.507
    1TCM    cl1 1790   5.110   0.255   1.579
    1TCM    cl2 1791   5.260   0.264   1.331
    1TCM     h1 1792   5.339   0.320   1.549
    1TCM    cl3 1793   5.340   0.081   1.542
    1TCM     c1 1794   3.320   1.767   2.802
    1TCM    cl1 1795   3.205   1.759   2.667
    1TCM    cl2 1796   3.243   1.846   2.941
    1TCM     h1 1797   3.351   1.664   2.831
    1TCM    cl3 1798   3.463   1.860   2.753
    1TCM     c1 1799   3.632   0.404   0.550
    1TCM    cl1 1800   3.706   0.563   0.519
    1TCM    cl2 1801   3.690   0.287   0.429
    1TCM     h1 1802   3.660   0.369   0.652
    1TCM    cl3 1803   3.455   0.418   0.539
    1TCM     c1 1804   0.666   1.400   2.001
    1TCM    cl1 1805   0.530   1.506   1.961
    1TCM    cl2 1806   0.605   1.240   2.049
    1TCM     h1 1807   0.732   1.389   1.912
    1TCM    cl3 1808   0.760   1.471   2.134
    1TCM     c1 1809   2.734   3.897   1.303
    1TCM    cl1 1810   2.687   3.759   1.201
    1TCM    cl2 1811   2.761   3.842   1.469
    1TCM     h1 1812   2.827   3.942   1.263
    1TCM    cl3 1813   2.604   4.018   1.301
    1TCM     c1 1814   2.416   2.574   4.423
    1TCM    cl1 1815   2.517   2.515   4.289
    1TCM    cl2 1816   2.455   2.484   4.571
    1TCM     h1 1817   2.435   2.682   4.439
    1TCM    cl3 1818   2.244   2.550   4.383
    1TCM     c1 1819   0.605   2.322   0.858
    1TCM    cl1 1820   0.739   2.426   0.803
    1TCM    cl2 1821   0.466   2.343   0.749
    1TCM     h1 1822   0.638   2.216   0.856
    1TCM    cl3 1823   0.559   2.367   1.023
    1TCM     c1 1824   2.615   0.442   1.640
    1TCM    cl1 1825   2.761   0.345   1.611
    1TCM    cl2 1826   2.552   0.405   1.802
    1TCM     h1 1827   2.640   0.550   1.634
    1TCM    cl3 1828   2.492   0.403   1.518
    1TCM     c1 1829   2.481   3.636   0.165
    1TCM    cl1 1830   2.424   3.593   0.003
    1TCM    cl2 1831   2.411   3.525   0.285
    1TCM     h1 1832   2.592   3.629   0.168
    1TCM    cl3 1833   2.432   3.803   0.203
    1TCM     c1 1834   0.151   3.441   4.970
    1TCM    cl1 1835   0.257   3.306   5.018
    1TCM    cl2 1836   0.143   3.450   4.793
    1TCM     h1 1837   0.049   3.424   5.011
    1TCM    cl3 1838   0.216   3.594   5.034
    1TCM     c1 1839   3.938   1.949   1.695
    1TCM    cl1 1840   3.794   1.879   1.773
    1TCM    cl2 1841   4.025   2.051   1.811
    1TCM     h1 1842   4.004   1.867   1.660
    1TCM    cl3 1843   3.888   2.047   1.555
    1TCM     c1 1844   2.099   2.786   2.928
    1TCM    cl1 1845   2.038   2.943   2.870
    1TCM    cl2 1846   2.190   2.705   2.798
    1TCM     h1 1847   2.166   2.802   3.015
    1TCM    cl3 1848   1.962   2.684   2.977
    1TCM     c1 1849   4.441   2.779   0.693
    1TCM    cl1 1850   4.593   2.828   0.615
    1TCM    cl2 1851   4.423   2.866   0.847
    1TCM     h1 1852   4.355   2.803   0.627
    1TCM    cl3 1853   4.444   2.604   0.725
    1TCM     c1 1854   5.127   4.284   1.792
    1TCM    cl1 1855   4.992   4.168   1.791
    1TCM    cl2 1856   5.132   4.371   1.637
    1TCM     h1 1857   5.112   4.356   1.875
    1TCM    cl3 1858   5.280   4.197   1.816
    1TCM     c1 1859   3.273   1.765   3.804
    1TCM    cl1 1860   3.230   1.592   3.797
    1TCM    cl2 1861   3.426   1.784   3.894
    1TCM     h1 1862   3.286   1.804   3.701
    1TCM    cl3 1863   3.144   1.855   3.888
    1TCM     c1 1864   0.936   3.789   2.391
    1TCM    cl1 1865   0.977   3.733   2.228
    1TCM    cl2 1866   0.985   3.667   2.510
    1TCM     h1 1867   0.988   3.884   2.412
    1TCM    cl3 1868   0.760   3.815   2.403
    1TCM     c1 1869   3.035   4.177   2.311
    1TCM    cl1 1870   3.012   4.111   2.147
    1TCM    cl2 1871   3.123   4.058   2.410
    1TCM     h1 1872   3.094   4.271   2.305
    1TCM    cl3 1873   2.877   4.210   2.385
    1TCM     c1 1874   1.328   3.060   2.315
    1TCM    cl1 1875   1.486   3.140   2.336
    1TCM    cl2 1876   1.230   3.087   2.461
    1TCM     h1 1877   1.276   3.103   2.227
    1TCM    cl3 1878   1.352   2.886   2.291
    1TCM     c1 1879   4.603   0.155   5.160
    1TCM    cl1 1880   4.698   0.273   5.066
    1TCM    cl2 1881   4.521   0.238   5.294
    1TCM     h1 1882   4.527   0.108   5.094
    1TCM    cl3 1883   4.711   0.030   5.225
    1TCM     c1 1884   4.159   4.924   2.378
    1TCM    cl1 1885   4.004   4.905   2.464
    1TCM    cl2 1886   4.128   4.973   2.210
    1TCM     h1 1887   4.220   5.001   2.429
    1TCM    cl3 1888   4.246   4.769   2.379
    1TCM     c1 1889   1.431   5.024   3.124
    1TCM    cl1 1890   1.307   5.144   3.167
    1TCM    cl2 1891   1.571   5.043   3.232
    1TCM     h1 1892   1.390   4.922   3.135
    1TCM    cl3 1893   1.482   5.050   2.956
    1TCM     c1 1894   3.400   5.015   3.750
    1TCM    cl1 1895   3.426   5.189   3.771
    1TCM    cl2 1896   3.466   4.928   3.891
    1TCM     h1 1897   3.292   4.994   3.741
    1TCM    cl3 1898   3.483   4.960   3.603
    1TCM     c1 1899   3.637   2.204   4.862
    1TCM    cl1 1900   3.800   2.168   4.801
    1TCM    cl2 1901   3.649   2.265   5.029
    1TCM     h1 1902   3.589   2.280   4.798
    1TCM    cl3 1903   3.539   2.056   4.861
    1TCM     c1 1904   4.867   4.222   2.576
    1TCM    cl1 1905   4.813   4.391   2.563
    1TCM    cl2 1906   4.786   4.124   2.451
    1TCM     h1 1907   4.977   4.216   2.563
    1TCM    cl3 1908   4.824   4.159   2.737
    1TCM     c1 1909   5.020   3.140   2.468
    1TCM    cl1 1910   5.186   3.076   2.461
    1TCM    cl2 1911   4.998   3.229   2.620
    1TCM     h1 1912   5.004   3.209   2.382
    1TCM    cl3 1913   4.904   3.006   2.460
    1TCM     c1 1914   1.444   2.377   0.930
    1TCM    cl1 1915   1.529   2.412   1.083
    1TCM    cl2 1916   1.551   2.284   0.823
    1TCM     h1 1917   1.352   2.319   0.952
    1TCM    cl3 1918   1.399   2.530   0.851
    1TCM     c1 1919   1.109   1.981   4.052
    1TCM    cl1 1920   1.204   1.834   4.087
    1TCM    cl2 1921   1.212   2.099   3.968
    1TCM     h1 1922   1.022   1.954   3.988
    1TCM    cl3 1923   1.051   2.051   4.205
    1TCM     c1 1924   4.132   3.590   1.303
    1TCM    cl1 1925   4.083   3.758   1.334
    1TCM    cl2 1926   4.024   3.519   1.181
    1TCM     h1 1927   4.236   3.588   1.265
    1TCM    cl3 1928   4.122   3.496   1.453
    1TCM     c1 1929   0.262   5.173   2.131
    1TCM    cl1 1930   0.313   5.017   2.062
    1TCM    cl2 1931   0.310   5.180   2.302
    1TCM     h1 1932   0.311   5.256   2.075
    1TCM    cl3 1933   0.086   5.189   2.118
    1TCM     c1 1934   1.328   2.526   1.735
    1TCM    cl1 1935   1.444   2.489   1.605
    1TCM    cl2 1936   1.411   2.522   1.891
    1TCM     h1 1937   1.285   2.626   1.718
    1TCM    cl3 1938   1.198   2.405   1.733
    1TCM     c1 1939   0.868   2.382   4.152
    1TCM    cl1 1940   0.844   2.517   4.038
    1TCM    cl2 1941   1.032   2.316   4.133
    1TCM     h1 1942   0.854   2.418   4.256
    1TCM    cl3 1943   0.749   2.254   4.118
    1TCM     c1 1944   1.108   0.888   5.165
    1TCM    cl1 1945   0.934   0.920   5.142
    1TCM    cl2 1946   1.148   0.896   5.338
    1TCM     h1 1947   1.132   0.788   5.125
    1TCM    cl3 1948   1.202   1.011   5.077
    1TCM     c1 1949   3.702   2.960   1.029
    1TCM    cl1 1950   3.555   2.983   1.127
    1TCM    cl2 1951   3.705   3.081   0.898
    1TCM     h1 1952   3.792   2.973   1.093
    1TCM    cl3 1953   3.703   2.797   0.959
    1TCM     c1 1954   3.686   5.011   3.027
    1TCM    cl1 1955   3.668   5.185   3.061
    1TCM    cl2 1956   3.766   4.990   2.869
    1TCM     h1 1957   3.748   4.964   3.106
    1TCM    cl3 1958   3.526   4.934   3.023
    1TCM     c1 1959   4.626   3.195   5.179
    1TCM    cl1 1960   4.515   3.298   5.086
    1TCM    cl2 1961   4.557   3.164   5.340
    1TCM     h1 1962   4.640   3.099   5.126
    1TCM    cl3 1963   4.782   3.277   5.197
    1TCM     c1 1964   4.468   2.820   2.968
    1TCM    cl1 1965   4.374   2.866   2.824
    1TCM    cl2 1966   4.359   2.758   3.093
    1TCM     h1 1967   4.542   2.741   2.940
    1TCM    cl3 1968   4.555   2.962   3.030
    1TCM     c1 1969   2.325   4.450   3.609
    1TCM    cl1 1970   2.466   4.350   3.566
    1TCM    cl2 1971   2.380   4.602   3.683
    1TCM     h1 1972   2.267   4.472   3.517
    1TCM    cl3 1973   2.223   4.361   3.724
    1TCM     c1 1974   3.575   2.261   0.944
    1TCM    cl1 1975   3.522   2.328   1.100
    1TCM    cl2 1976   3.517   2.365   0.812
    1TCM     h1 1977   3.686   2.256   0.942
    1TCM    cl3 1978   3.509   2.097   0.924
    1TCM     c1 1979   2.456   2.022   2.634
    1TCM    cl1 1980   2.567   2.113   2.740
    1TCM    cl2 1981   2.484   2.068   2.465
    1TCM     h1 1982   2.475   1.913   2.646
    1TCM    cl3 1983   2.288   2.058   2.678
    1TCM     c1 1984   2.760   3.121   3.468
    1TCM    cl1 1985   2.660   3.267   3.467
    1TCM    cl2 1986   2.670   2.987   3.394
    1TCM     h1 1987   2.853   3.139   3.411
    1TCM    cl3 1988   2.802   3.078   3.636
    1TCM     c1 1989   5.022   1.906   1.684
    1TCM    cl1 1990   4.894   1.936   1.564
    1TCM    cl2 1991   4.987   1.755   1.771
    1TCM     h1 1992   5.120   1.897   1.632
    1TCM    cl3 1993   5.029   2.041   1.799
    1TCM     c1 1994   1.655   1.365   3.584
    1TCM    cl1 1995   1.544   1.264   3.680
    1TCM    cl2 1996   1.818   1.358   3.656
    1TCM     h1 1997   1.659   1.327   3.480
    1TCM    cl3 1998   1.597   1.533   3.583
    1TCM     c1 1999   3.436   4.199   2.241
    1TCM    cl1 2000   3.418   4.125   2.402
    1TCM    cl2 2001   3.307   4.319   2.216
    1TCM     h1 2002   3.535   4.248   2.234
    1TCM    cl3 2003   3.424   4.072   2.117
    1TCM     c1 2004   2.065   3.572   0.471
    1TCM    cl1 2005   2.215   3.571   0.375
    1TCM    cl2 2006   2.035   3.736   0.533
    1TCM     h1 2007   1.980   3.540   0.407
    1TCM    cl3 2008   2.081   3.459   0.608
    1TCM     c1 2009   4.610   2.138   3.264
    1TCM    cl1 2010   4.758   2.156   3.167
    1TCM    cl2 2011   4.469   2.136   3.156
    1TCM     h1 2012   4.615   2.044   3.321
    1TCM    cl3 2013   4.596   2.275   3.376
    1TCM     c1 2014   2.400   3.907   1.422
    1TCM    cl1 2015   2.540   3.889   1.531
    1TCM    cl2 2016   2.445   3.853   1.258
    1TCM     h1 2017   2.316   3.846   1.459
    1TCM    cl3 2018   2.351   4.078   1.416
    1TCM     c1 2019   1.051   4.903   4.753
    1TCM    cl1 2020   1.215   4.963   4.787
    1TCM    cl2 2021   0.943   4.948   4.887
    1TCM     h1 2022   1.013   4.948   4.659
    1TCM    cl3 2023   1.054   4.726   4.737
    1TCM     c1 2024   3.638   3.222   3.698
    1TCM    cl1 2025   3.559   3.095   3.794
    1TCM    cl2 2026   3.572   3.221   3.533
    1TCM     h1 2027   3.619   3.321   3.745
    1TCM    cl3 2028   3.813   3.191   3.693
    1TCM     c1 2029   3.764   3.877   1.237
    1TCM    cl1 2030   3.875   3.833   1.105
    1TCM    cl2 2031   3.857   3.928   1.379
    1TCM     h1 2032   3.699   3.960   1.204
    1TCM    cl3 2033   3.664   3.736   1.279
    1TCM     c1 2034   2.515   1.282   3.875
    1TCM    cl1 2035   2.375   1.293   3.984
    1TCM    cl2 2036   2.467   1.333   3.711
    1TCM     h1 2037   2.596   1.348   3.912
    1TCM    cl3 2038   2.573   1.114   3.870
    1TCM     c1 2039   2.189   3.616   4.835
    1TCM    cl1 2040   2.069   3.506   4.906
    1TCM    cl2 2041   2.346   3.592   4.916
    1TCM     h1 2042   2.199   3.595   4.727
    1TCM    cl3 2043   2.136   3.785   4.858
    1TCM     c1 2044   4.331   3.837   3.203
    1TCM    cl1 2045   4.446   3.965   3.158
    1TCM    cl2 2046   4.224   3.896   3.332
    1TCM     h1 2047   4.270   3.809   3.115
    1TCM    cl3 2048   4.421   3.695   3.261
    1TCM     c1 2049   2.483   5.225   4.724
    1TCM    cl1 2050   2.658   5.225   4.756
    1TCM    cl2 2051   2.454   5.275   4.556
    1TCM     h1 2052   2.442   5.123   4.740
    1TCM    cl3 2053   2.402   5.340   4.834
    1TCM     c1 2054   3.078   1.578   5.020
    1TCM    cl1 2055   3.070   1.450   4.897
    1TCM    cl2 2056   2.937   1.685   5.003
    1TCM     h1 2057   3.079   1.533   5.121
    1TCM    cl3 2058   3.227   1.673   4.996
    1TCM     c1 2059   0.648   0.648   4.127
    1TCM    cl1 2060   0.557   0.565   4.256
    1TCM    cl2 2061   0.595   0.587   3.969
    1TCM     h1 2062   0.629   0.757   4.133
    1TCM    cl3 2063   0.822   0.616   4.148
    1TCM     c1 2064   3.536   0.953   2.021
    1TCM    cl1 2065   3.677   0.930   1.916
    1TCM    cl2 2066   3.584   0.931   2.191
    1TCM     h1 2067   3.496   1.056   2.008
    1TCM    cl3 2068   3.410   0.835   1.980
    1TCM     c1 2069   2.835   0.086   2.585
    1TCM    cl1 2070   3.008   0.125   2.574
    1TCM    cl2 2071   2.782   0.013   2.431
    1TCM     h1 2072   2.818   0.014   2.667
    1TCM    cl3 2073   2.742   0.234   2.615
    1TCM     c1 2074   2.697   4.553   2.488
    1TCM    cl1 2075   2.761   4.521   2.651
    1TCM    cl2 2076   2.641   4.400   2.416
    1TCM     h1 2077   2.613   4.624   2.494
    1TCM    cl3 2078   2.826   4.622   2.386
    1TCM     c1 2079   0.850   1.039   2.204
    1TCM    cl1 2080   1.028   1.044   2.199
    1TCM    cl2 2081   0.789   0.966   2.053
    1TCM     h1 2082   0.817   0.979   2.290
    1TCM    cl3 2083   0.787   1.205   2.219
    1TCM     c1 2084   2.377   4.400   3.128
    1TCM    cl1 2085   2.202   4.379   3.153
    1TCM    cl2 2086   2.406   4.485   2.975
    1TCM     h1 2087   2.419   4.459   3.212
    1TCM    cl3 2088   2.455   4.240   3.124
    1TCM     c1 2089   4.251   1.859   4.758
    1TCM    cl1 2090   4.372   1.789   4.648
    1TCM    cl2 2091   4.088   1.805   4.710
    1TCM     h1 2092   4.272   1.825   4.862
    1TCM    cl3 2093   4.259   2.036   4.752
    1TCM     c1 2094   0.296   0.506   0.296
    1TCM    cl1 2095   0.313   0.656   0.391
    1TCM    cl2 2096   0.457   0.440   0.260
    1TCM     h1 2097   0.238   0.432   0.355
    1TCM    cl3 2098   0.210   0.542   0.145
    1TCM     c1 2099   3.910   3.857   5.188
    1TCM    cl1 2100   3.976   3.764   5.051
    1TCM    cl2 2101   3.959   3.780   5.340
    1TCM     h1 2102   3.950   3.961   5.184
    1TCM    cl3 2103   3.733   3.860   5.177
    1TCM     c1 2104   1.939   2.510   2.744
    1TCM    cl1 2105   1.910   2.338   2.710
    1TCM    cl2 2106   1.973   2.596   2.592
    1TCM     h1 2107   1.849   2.554   2.792
    1TCM    cl3 2108   2.078   2.527   2.853
    1TCM     c1 2109   2.123   4.129   1.632
    1TCM    cl1 2110   2.093   4.212   1.477
    1TCM    cl2 2111   2.144   4.250   1.760
    1TCM     h1 2112   2.036   4.064   1.656
    1TCM    cl3 2113   2.270   4.030   1.618
    1TCM     c1 2114   4.093   3.629   1.886
    1TCM    cl1 2115   4.253   3.582   1.823
    1TCM    cl2 2116   4.108   3.781   1.976
    1TCM     h1 2117   4.023   3.643   1.801
    1TCM    cl3 2118   4.032   3.501   1.993
    1TCM     c1 2119   2.573   4.597   0.584
    1TCM    cl1 2120   2.506   4.567   0.746
    1TCM    cl2 2121   2.750   4.582   0.590
    1TCM     h1 2122   2.533   4.522   0.512
    1TCM    cl3 2123   2.529   4.760   0.530
    1TCM     c1 2124   2.789   2.378   4.751
    1TCM    cl1 2125   2.825   2.228   4.662
    1TCM    cl2 2126   2.787   2.515   4.637
    1TCM     h1 2127   2.691   2.369   4.800
    1TCM    cl3 2128   2.915   2.406   4.874
    1TCM     c1 2129   1.559   3.356   2.679
    1TCM    cl1 2130   1.568   3.214   2.572
    1TCM    cl2 2131   1.601   3.307   2.845
    1TCM     h1 2132   1.630   3.433   2.644
    1TCM    cl3 2133   1.394   3.421   2.676
    1TCM     c1 2134   0.676   4.229   4.942
    1TCM    cl1 2135   0.749   4.253   5.102
    1TCM    cl2 2136   0.755   4.092   4.861
    1TCM     h1 2137   0.568   4.208   4.953
    1TCM    cl3 2138   0.697   4.376   4.845
    1TCM     c1 2139   0.223   2.459   1.775
    1TCM    cl1 2140   0.106   2.524   1.892
    1TCM    cl2 2141   0.253   2.580   1.648
    1TCM     h1 2142   0.319   2.437   1.827
    1TCM    cl3 2143   0.159   2.310   1.702
    1TCM     c1 2144   4.494   0.946   4.181
    1TCM    cl1 2145   4.362   1.064   4.170
    1TCM    cl2 2146   4.441   0.806   4.278
    1TCM     h1 2147   4.522   0.912   4.079
    1TCM    cl3 2148   4.635   1.021   4.259
    1TCM     c1 2149   3.998   1.129   0.467
    1TCM    cl1 2150   3.990   0.980   0.370
    1TCM    cl2 2151   4.019   1.087   0.638
    1TCM     h1 2152   4.085   1.190   0.433
    1TCM    cl3 2153   3.848   1.222   0.446
    1TCM     c1 2154   1.954   1.733   3.961
    1TCM    cl1 2155   1.979   1.877   4.062
    1TCM    cl2 2156   2.031   1.758   3.802
    1TCM     h1 2157   2.000   1.645   4.010
    1TCM    cl3 2158   1.780   1.705   3.938
    1TCM     c1 2159   0.294   1.875   2.007
    1TCM    cl1 2160   0.129   1.880   1.942
    1TCM    cl2 2161   0.401   1.976   1.908
    1TCM     h1 2162   0.294   1.912   2.112
    1TCM    cl3 2163   0.353   1.707   2.006
    1TCM     c1 2164   1.645   0.546   3.465
    1TCM    cl1 2165   1.702   0.553   3.297
    1TCM    cl2 2166   1.597   0.709   3.518
    1TCM     h1 2167   1.558   0.478   3.472
    1TCM    cl3 2168   1.776   0.486   3.569
    1TCM     c1 2169   2.306   4.218   1.181
    1TCM    cl1 2170   2.365   4.243   1.015
    1TCM    cl2 2171   2.240   4.053   1.195
    1TCM     h1 2172   2.390   4.230   1.252
    1TCM    cl3 2173   2.179   4.337   1.217
    1TCM     c1 2174   3.480   1.777   4.386
    1TCM    cl1 2175   3.336   1.735   4.481
    1TCM    cl2 2176   3.432   1.824   4.222
    1TCM     h1 2177   3.533   1.862   4.435
    1TCM    cl3 2178   3.589   1.637   4.378
    1TCM     c1 2179   2.234   3.789   4.153
    1TCM    cl1 2180   2.244   3.612   4.158
    1TCM    cl2 2181   2.271   3.855   4.314
    1TCM     h1 2182   2.307   3.828   4.079
    1TCM    cl3 2183   2.070   3.838   4.105
    1TCM     c1 2184   3.183   0.984   4.950
    1TCM    cl1 2185   3.148   0.858   4.830
    1TCM    cl2 2186   3.132   0.928   5.111
    1TCM     h1 2187   3.292   1.006   4.951
    1TCM    cl3 2188   3.094   1.133   4.908
    1TCM     c1 2189   3.251   2.741   2.359
    1TCM    cl1 2190   3.370   2.830   2.458
    1TCM    cl2 2191   3.302   2.744   2.189
    1TCM     h1 2192   3.245   2.636   2.394
    1TCM    cl3 2193   3.092   2.818   2.375
    1TCM     c1 2194   4.715   4.220   0.887
    1TCM    cl1 2195   4.794   4.278   0.739
    1TCM    cl2 2196   4.727   4.345   1.014
    1TCM     h1 2197   4.608   4.200   0.866
    1TCM    cl3 2198   4.794   4.072   0.943
    1TCM     c1 2199   2.133   2.855   4.422
    1TCM    cl1 2200   2.063   3.004   4.353
    1TCM    cl2 2201   2.279   2.897   4.515
    1TCM     h1 2202   2.059   2.807   4.489
    1TCM    cl3 2203   2.176   2.744   4.291
    1TCM     c1 2204   2.594   4.151   4.506
    1TCM    cl1 2205   2.655   4.305   4.440
    1TCM    cl2 2206   2.622   4.146   4.681
    1TCM     h1 2207   2.485   4.143   4.485
    1TCM    cl3 2208   2.679   4.016   4.428
    1TCM     c1 2209   4.429   5.187   2.673
    1TCM    cl1 2210   4.576   5.271   2.620
    1TCM    cl2 2211   4.367   5.263   2.821
    1TCM     h1 2212   4.352   5.193   2.593
    1TCM    cl3 2213   4.467   5.016   2.706
    1TCM     c1 2214   1.873   3.699   2.068
    1TCM    cl1 2215   1.866   3.617   1.910
    1TCM    cl2 2216   2.043   3.728   2.112
    1TCM     h1 2217   1.819   3.795   2.062
    1TCM    cl3 2218   1.797   3.596   2.191
    1TCM     c1 2219   3.500   0.776   1.041
    1TCM    cl1 2220   3.493   0.766   1.219
    1TCM    cl2 2221   3.362   0.689   0.971
    1TCM     h1 2222   3.496   0.882   1.010
    1TCM    cl3 2223   3.652   0.703   0.984
    1TCM     c1 2224   0.296   3.751   2.997
    1TCM    cl1 2225   0.137   3.679   2.964
    1TCM    cl2 2226   0.396   3.635   3.089
    1TCM     h1 2227   0.347   3.775   2.901
    1TCM    cl3 2228   0.276   3.899   3.092
    1TCM     c1 2229   2.934   2.702   4.823
    1TCM    cl1 2230   2.976   2.686   4.995
    1TCM    cl2 2231   2.757   2.705   4.805
    1TCM     h1 2232   2.977   2.796   4.783
    1TCM    cl3 2233   3.000   2.564   4.732
    1TCM     c1 2234   2.282   0.657   0.695
    1TCM    cl1 2235   2.302   0.797   0.804
    1TCM    cl2 2236   2.326   0.704   0.530
    1TCM     h1 2237   2.348   0.575   0.729
    1TCM    cl3 2238   2.112   0.603   0.698
    1TCM     c1 2239   2.915   0.313   2.230
    1TCM    cl1 2240   2.993   0.249   2.084
    1TCM    cl2 2241   2.925   0.193   2.361
    1TCM     h1 2242   2.966   0.407   2.261
    1TCM    cl3 2243   2.744   0.348   2.195
    1TCM     c1 2244   1.784   3.541   4.680
    1TCM    cl1 2245   1.779   3.524   4.503
    1TCM    cl2 2246   1.661   3.435   4.753
    1TCM     h1 2247   1.885   3.512   4.717
    1TCM    cl3 2248   1.751   3.710   4.724
    1TCM     c1 2249   0.818   2.842   0.699
    1TCM    cl1 2250   0.949   2.938   0.771
    1TCM    cl2 2251   0.667   2.875   0.787
    1TCM     h1 2252   0.806   2.870   0.593
    1TCM    cl3 2253   0.858   2.670   0.712
    1TCM     c1 2254   2.926   0.201   3.317
    1TCM    cl1 2255   3.078   0.270   3.378
    1TCM    cl2 2256   2.926   0.025   3.343
    1TCM     h1 2257   2.841   0.247   3.370
    1TCM    cl3 2258   2.912   0.234   3.143
    1TCM     c1 2259   2.103   3.011   1.114
    1TCM    cl1 2260   2.224   2.884   1.085
    1TCM    cl2 2261   2.179   3.145   1.203
    1TCM     h1 2262   2.065   3.048   1.017
    1TCM    cl3 2263   1.969   2.944   1.209
    1TCM     c1 2264   3.126   5.170   4.040
    1TCM    cl1 2265   2.990   5.223   4.141
    1TCM    cl2 2266   3.086   5.013   3.966
    1TCM     h1 2267   3.144   5.245   3.960
    1TCM    cl3 2268   3.272   5.154   4.139
    1TCM     c1 2269   0.272   0.413   4.166
    1TCM    cl1 2270   0.315   0.420   4.338
    1TCM    cl2 2271   0.101   0.367   4.150
    1TCM     h1 2272   0.287   0.513   4.120
    1TCM    cl3 2273   0.374   0.293   4.083
    1TCM     c1 2274   2.447   2.655   3.959
    1TCM    cl1 2275   2.573   2.618   4.079
    1TCM    cl2 2276   2.515   2.642   3.796
    1TCM     h1 2277   2.363   2.584   3.970
    1TCM    cl3 2278   2.387   2.821   3.985
    1TCM     c1 2279   0.783   1.367   0.265
    1TCM    cl1 2280   0.708   1.382   0.104
    1TCM    cl2 2281   0.959   1.385   0.250
    1TCM     h1 2282   0.743   1.445   0.332
    1TCM    cl3 2283   0.745   1.207   0.332
    1TCM     c1 2284   4.679   2.993   1.932
    1TCM    cl1 2285   4.651   2.818   1.921
    1TCM    cl2 2286   4.720   3.037   2.099
    1TCM     h1 2287   4.763   3.021   1.865
    1TCM    cl3 2288   4.532   3.080   1.882
    1TCM     c1 2289   3.118   3.235   0.594
    1TCM    cl1 2290   3.011   3.354   0.516
    1TCM    cl2 2291   3.126   3.268   0.769
    1TCM     h1 2292   3.078   3.133   0.578
    1TCM    cl3 2293   3.281   3.247   0.524
    1TCM     c1 2294   2.597   4.879   1.562
    1TCM    cl1 2295   2.443   4.929   1.635
    1TCM    cl2 2296   2.565   4.789   1.412
    1TCM     h1 2297   2.658   4.969   1.539
    1TCM    cl3 2298   2.685   4.774   1.676
    1TCM     c1 2299   2.698   4.037   4.913
    1TCM    cl1 2300   2.640   3.902   4.814
    1TCM    cl2 2301   2.724   3.981   5.080
    1TCM     h1 2302   2.794   4.075   4.872
    1TCM    cl3 2303   2.578   4.168   4.912
    1TCM     c1 2304   3.997   3.979   2.773
    1TCM    cl1 2305   4.014   4.155   2.793
    1TCM    cl2 2306   4.098   3.895   2.893
    1TCM     h1 2307   3.891   3.950   2.788
    1TCM    cl3 2308   4.048   3.933   2.609
    1TCM     c1 2309   2.397   1.508   2.445
    1TCM    cl1 2310   2.483   1.516   2.600
    1TCM    cl2 2311   2.490   1.594   2.320
    1TCM     h1 2312   2.384   1.402   2.415
    1TCM    cl3 2313   2.237   1.584   2.462
    1TCM     c1 2314   4.911   2.379   0.643
    1TCM    cl1 2315   4.866   2.241   0.539
    1TCM    cl2 2316   4.800   2.386   0.782
    1TCM     h1 2317   5.015   2.366   0.678
    1TCM    cl3 2318   4.898   2.530   0.549
    1TCM     c1 2319   4.233   0.556   3.197
    1TCM    cl1 2320   4.200   0.664   3.334
    1TCM    cl2 2321   4.243   0.652   3.047
    1TCM     h1 2322   4.329   0.504   3.214
    1TCM    cl3 2323   4.102   0.437   3.183
    1TCM     c1 2324   4.818   2.342   0.199
    1TCM    cl1 2325   4.860   2.170   0.214
    1TCM    cl2 2326   4.666   2.358   0.108
    1TCM     h1 2327   4.805   2.386   0.301
    1TCM    cl3 2328   4.948   2.428   0.113
    1TCM     c1 2329   3.385   1.245   1.068
    1TCM    cl1 2330   3.207   1.238   1.076
    1TCM    cl2 2331   3.436   1.412   1.035
    1TCM     h1 2332   3.428   1.211   1.164
    1TCM    cl3 2333   3.443   1.138   0.937
    1TCM     c1 2334   2.817   4.538   4.711
    1TCM    cl1 2335   2.761   4.698   4.766
    1TCM    cl2 2336   2.682   4.423   4.717
    1TCM     h1 2337   2.854   4.546   4.606
    1TCM    cl3 2338   2.948   4.482   4.816
    1TCM     c1 2339   1.532   5.269   0.605
    1TCM    cl1 2340   1.704   5.286   0.647
    1TCM    cl2 2341   1.489   5.096   0.602
    1TCM     h1 2342   1.469   5.321   0.680
    1TCM    cl3 2343   1.503   5.340   0.444
    1TCM     c1 2344   1.421   3.325   4.484
    1TCM    cl1 2345   1.431   3.405   4.642
    1TCM    cl2 2346   1.271   3.230   4.474
    1TCM     h1 2347   1.421   3.401   4.404
    1TCM    cl3 2348   1.561   3.217   4.464
    1TCM     c1 2349   1.001   2.335   2.508
    1TCM    cl1 2350   1.036   2.350   2.682
    1TCM    cl2 2351   1.109   2.214   2.437
    1TCM     h1 2352   0.896   2.304   2.494
    1TCM    cl3 2353   1.027   2.492   2.428
    1TCM     c1 2354   1.405   1.406   0.624
    1TCM    cl1 2355   1.240   1.406   0.556
    1TCM    cl2 2356   1.519   1.349   0.501
    1TCM     h1 2357   1.432   1.510   0.654
    1TCM    cl3 2358   1.411   1.299   0.765
    1TCM     c1 2359   0.346   5.182   3.253
    1TCM    cl1 2360   0.439   5.231   3.396
    1TCM    cl2 2361   0.417   5.257   3.108
    1TCM     h1 2362   0.350   5.071   3.243
    1TCM    cl3 2363   0.177   5.234   3.271
    1TCM     c1 2364   2.798   3.964   0.325
    1TCM    cl1 2365   2.860   4.130   0.307
    1TCM    cl2 2366   2.885   3.856   0.214
    1TCM     h1 2367   2.814   3.930   0.430
    1TCM    cl3 2368   2.625   3.961   0.287
    1TCM     c1 2369   5.057   1.849   0.894
    1TCM    cl1 2370   5.135   1.976   0.991
    1TCM    cl2 2371   5.177   1.773   0.787
    1TCM     h1 2372   5.014   1.772   0.962
    1TCM    cl3 2373   4.927   1.921   0.797
    1TCM     c1 2374   3.288   4.756   4.123
    1TCM    cl1 2375   3.221   4.783   3.961
    1TCM    cl2 2376   3.458   4.705   4.109
    1TCM     h1 2377   3.282   4.850   4.181
    1TCM    cl3 2378   3.195   4.629   4.205
    1TCM     c1 2379   0.445   3.267   3.421
    1TCM    cl1 2380   0.337   3.194   3.300
    1TCM    cl2 2381   0.439   3.444   3.406
    1TCM     h1 2382   0.413   3.237   3.523
    1TCM    cl3 2383   0.611   3.211   3.393
    1TCM     c1 2384   2.881   0.553   1.979
    1TCM    cl1 2385   2.950   0.708   2.033
    1TCM    cl2 2386   3.010   0.452   1.910
    1TCM     h1 2387   2.836   0.501   2.065
    1TCM    cl3 2388   2.757   0.584   1.855
    1TCM     c1 2389   4.855   5.001   4.344
    1TCM    cl1 2390   4.853   5.101   4.197
    1TCM    cl2 2391   4.728   4.877   4.333
    1TCM     h1 2392   4.954   4.953   4.355
    1TCM    cl3 2393   4.824   5.105   4.486
    1TCM     c1 2394   4.072   0.999   2.046
    1TCM    cl1 2395   4.010   0.877   2.159
    1TCM    cl2 2396   3.970   1.001   1.900
    1TCM     h1 2397   4.069   1.099   2.094
    1TCM    cl3 2398   4.239   0.960   2.001
    1TCM     c1 2399   2.296   4.756   2.390
    1TCM    cl1 2400   2.299   4.883   2.515
    1TCM    cl2 2401   2.236   4.605   2.462
    1TCM     h1 2402   2.228   4.787   2.308
    1TCM    cl3 2403   2.460   4.731   2.327
    1TCM     c1 2404   2.280   2.634   0.908
    1TCM    cl1 2405   2.171   2.674   1.044
    1TCM    cl2 2406   2.184   2.565   0.775
    1TCM     h1 2407   2.331   2.726   0.873
    1TCM    cl3 2408   2.401   2.515   0.962
    1TCM     c1 2409   2.233   4.755   0.417
    1TCM    cl1 2410   2.316   4.708   0.567
    1TCM    cl2 2411   2.198   4.929   0.421
    1TCM     h1 2412   2.297   4.732   0.330
    1TCM    cl3 2413   2.080   4.664   0.403
    1TCM     c1 2414   3.663   1.214   2.303
    1TCM    cl1 2415   3.817   1.143   2.250
    1TCM    cl2 2416   3.634   1.172   2.473
    1TCM     h1 2417   3.668   1.325   2.293
    1TCM    cl3 2418   3.530   1.152   2.203
    1TCM     c1 2419   3.727   4.083   0.831
    1TCM    cl1 2420   3.642   3.965   0.729
    1TCM    cl2 2421   3.769   4.008   0.987
    1TCM     h1 2422   3.820   4.116   0.780
    1TCM    cl3 2423   3.622   4.224   0.859
    1TCM     c1 2424   1.752   4.291   2.174
    1TCM    cl1 2425   1.882   4.173   2.146
    1TCM    cl2 2426   1.702   4.363   2.019
    1TCM     h1 2427   1.665   4.240   2.221
    1TCM    cl3 2428   1.811   4.420   2.282
    1TCM     c1 2429   4.968   2.767   3.005
    1TCM    cl1 2430   5.138   2.733   2.965
    1TCM    cl2 2431   4.866   2.631   2.952
    1TCM     h1 2432   4.958   2.781   3.115
    1TCM    cl3 2433   4.916   2.916   2.922
    1TCM     c1 2434   1.618   1.255   2.203
    1TCM    cl1 2435   1.592   1.351   2.055
    1TCM    cl2 2436   1.540   1.096   2.185
    1TCM     h1 2437   1.727   1.242   2.219
    1TCM    cl3 2438   1.547   1.340   2.342
    1TCM     c1 2439   0.947   4.344   0.285
    1TCM    cl1 2440   0.991   4.483   0.184
    1TCM    cl2 2441   0.904   4.401   0.448
    1TCM     h1 2442   0.860   4.291   0.240
    1TCM    cl3 2443   1.084   4.232   0.296
    1TCM     c1 2444   3.147   2.675   0.922
    1TCM    cl1 2445   3.039   2.613   0.795
    1TCM    cl2 2446   3.180   2.546   1.039
    1TCM     h1 2447   3.242   2.709   0.876
    1TCM    cl3 2448   3.069   2.812   1.004
    1TCM     c1 2449   0.639   2.008   2.568
    1TCM    cl1 2450   0.724   2.160   2.604
    1TCM    cl2 2451   0.466   2.041   2.542
    1TCM     h1 2452   0.682   1.963   2.476
    1TCM    cl3 2453   0.658   1.895   2.704
    1TCM     c1 2454   2.630   0.788   4.992
    1TCM    cl1 2455   2.683   0.713   4.840
    1TCM    cl2 2456   2.697   0.698   5.130
    1TCM     h1 2457   2.666   0.893   4.996
    1TCM    cl3 2458   2.452   0.786   5.000
    1TCM     c1 2459   0.395   4.304   4.200
    1TCM    cl1 2460   0.475   4.405   4.323
    1TCM    cl2 2461   0.290   4.185   4.281
    1TCM     h1 2462   0.334   4.368   4.133
    1TCM    cl3 2463   0.518   4.218   4.105
    1TCM     c1 2464   5.043   4.040   1.517
    1TCM    cl1 2465   4.938   4.003   1.656
    1TCM    cl2 2466   5.205   4.083   1.576
    1TCM     h1 2467   5.050   3.950   1.451
    1TCM    cl3 2468   4.975   4.175   1.425
    1TCM     c1 2469   2.600   2.332   0.445
    1TCM    cl1 2470   2.585   2.424   0.293
    1TCM    cl2 2471   2.621   2.445   0.581
    1TCM     h1 2472   2.508   2.272   0.461
    1TCM    cl3 2473   2.740   2.224   0.434
    1TCM     c1 2474   3.383   2.459   2.181
    1TCM    cl1 2475   3.496   2.592   2.145
    1TCM    cl2 2476   3.216   2.516   2.157
    1TCM     h1 2477   3.403   2.374   2.114
    1TCM    cl3 2478   3.404   2.408   2.350
    1TCM     c1 2479   4.066   1.225   5.180
    1TCM    cl1 2480   4.105   1.354   5.295
    1TCM    cl2 2481   4.172   1.085   5.209
    1TCM     h1 2482   3.960   1.194   5.193
    1TCM    cl3 2483   4.090   1.284   5.013
    1TCM     c1 2484   1.104   2.026   4.497
    1TCM    cl1 2485   1.158   1.972   4.657
    1TCM    cl2 2486   1.015   1.894   4.417
    1TCM     h1 2487   1.037   2.114   4.508
    1TCM    cl3 2488   1.245   2.071   4.398
    1TCM     c1 2489   0.450   0.329   2.146
    1TCM    cl1 2490   0.509   0.230   2.010
    1TCM    cl2 2491   0.535   0.282   2.295
    1TCM     h1 2492   0.469   0.436   2.125
    1TCM    cl3 2493   0.275   0.303   2.167
    1TCM     c1 2494   3.822   0.432   1.084
    1TCM    cl1 2495   3.935   0.556   1.143
    1TCM    cl2 2496   3.657   0.497   1.085
    1TCM     h1 2497   3.850   0.402   0.981
    1TCM    cl3 2498   3.831   0.289   1.191
    1TCM     c1 2499   3.178   2.267   3.632
    1TCM    cl1 2500   3.292   2.372   3.546
    1TCM    cl2 2501   3.171   2.315   3.803
    1TCM     h1 2502   3.077   2.277   3.586
    1TCM    cl3 2503   3.232   2.098   3.620
    1TCM     c1 2504   3.741   2.889   3.588
    1TCM    cl1 2505   3.870   2.881   3.710
    1TCM    cl2 2506   3.712   2.727   3.522
    1TCM     h1 2507   3.649   2.928   3.635
    1TCM    cl3 2508   3.792   2.999   3.457
    1TCM     c1 2509   3.259   4.439   1.766
    1TCM    cl1 2510   3.254   4.616   1.780
    1TCM    cl2 2511   3.250   4.393   1.594
    1TCM     h1 2512   3.353   4.401   1.810
    1TCM    cl3 2513   3.120   4.369   1.853
    1TCM     c1 2514   0.528   1.309   4.234
    1TCM    cl1 2515   0.437   1.157   4.253
    1TCM    cl2 2516   0.522   1.360   4.064
    1TCM     h1 2517   0.483   1.387   4.299
    1TCM    cl3 2518   0.697   1.283   4.282
    1TCM     c1 2519   0.361   1.885   1.625
    1TCM    cl1 2520   0.530   1.864   1.677
    1TCM    cl2 2521   0.320   1.758   1.506
    1TCM     h1 2522   0.294   1.877   1.712
    1TCM    cl3 2523   0.342   2.045   1.549
    1TCM     c1 2524   0.101   2.918   1.353
    1TCM    cl1 2525   0.213   2.802   1.280
    1TCM    cl2 2526   0.094   3.066   1.254
    1TCM     h1 2527  -0.000   2.873   1.360
    1TCM    cl3 2528   0.157   2.960   1.517
    1TCM     c1 2529   0.943   3.693   0.096
    1TCM    cl1 2530   0.778   3.669   0.159
    1TCM    cl2 2531   0.946   3.841  -0.004
    1TCM     h1 2532   1.013   3.704   0.180
    1TCM    cl3 2533   0.990   3.553  -0.003
    1TCM     c1 2534   3.615   1.304   1.482
    1TCM    cl1 2535   3.438   1.321   1.489
    1TCM    cl2 2536   3.660   1.136   1.520
    1TCM     h1 2537   3.650   1.330   1.380
    1TCM    cl3 2538   3.689   1.413   1.601
    1TCM     c1 2539   3.509   1.721   4.715
    1TCM    cl1 2540   3.360   1.630   4.751
    1TCM    cl2 2541   3.622   1.706   4.852
    1TCM     h1 2542   3.556   1.680   4.624
    1TCM    cl3 2543   3.468   1.892   4.690
    1TCM     c1 2544   0.698   3.996   4.309
    1TCM    cl1 2545   0.572   4.120   4.332
    1TCM    cl2 2546   0.844   4.073   4.244
    1TCM     h1 2547   0.721   3.949   4.407
    1TCM    cl3 2548   0.640   3.872   4.196
    1TCM     c1 2549   3.628   3.217   5.182
    1TCM    cl1 2550   3.591   3.129   5.032
    1TCM    cl2 2551   3.517   3.164   5.311
    1TCM     h1 2552   3.732   3.195   5.213
    1TCM    cl3 2553   3.609   3.391   5.155
    1TCM     c1 2554   0.954   2.727   1.510
    1TCM    cl1 2555   0.901   2.574   1.585
    1TCM    cl2 2556   1.126   2.715   1.467
    1TCM     h1 2557   0.894   2.745   1.418
    1TCM    cl3 2558   0.930   2.860   1.624
    1TCM     c1 2559   4.405   5.072   5.200
    1TCM    cl1 2560   4.284   5.092   5.329
    1TCM    cl2 2561   4.565   5.116   5.262
    1TCM     h1 2562   4.405   4.966   5.167
    1TCM    cl3 2563   4.363   5.177   5.063
    1TCM     c1 2564   4.404   1.120   0.288
    1TCM    cl1 2565   4.264   1.155   0.184
    1TCM    cl2 2566   4.349   1.092   0.455
    1TCM     h1 2567   4.456   1.030   0.250
    1TCM    cl3 2568   4.515   1.259   0.285
    1TCM     c1 2569   3.076   0.828   3.489
    1TCM    cl1 2570   3.020   0.829   3.320
    1TCM    cl2 2571   3.185   0.966   3.517
    1TCM     h1 2572   2.989   0.835   3.557
    1TCM    cl3 2573   3.163   0.676   3.522
    1TCM     c1 2574   4.352   1.432   4.918
    1TCM    cl1 2575   4.497   1.534   4.907
    1TCM    cl2 2576   4.351   1.316   4.783
    1TCM     h1 2577   4.353   1.377   5.014
    1TCM    cl3 2578   4.206   1.533   4.909
    1TCM     c1 2579   4.773   2.153   3.824
    1TCM    cl1 2580   4.677   2.003   3.823
    1TCM    cl2 2581   4.690   2.277   3.728
    1TCM     h1 2582   4.784   2.189   3.928
    1TCM    cl3 2583   4.933   2.122   3.754
    1TCM     c1 2584   0.113   4.967   3.725
    1TCM    cl1 2585   0.028   4.920   3.576
    1TCM    cl2 2586   0.265   4.874   3.738
    1TCM     h1 2587   0.136   5.075   3.722
    1TCM    cl3 2588   0.010   4.931   3.865
    1TCM     c1 2589   3.392   0.742   3.840
    1TCM    cl1 2590   3.218   0.744   3.805
    1TCM    cl2 2591   3.481   0.689   3.696
    1TCM     h1 2592   3.425   0.843   3.870
    1TCM    cl3 2593   3.424   0.628   3.974
    1TCM     c1 2594   3.836   3.719   1.630
    1TCM    cl1 2595   3.961   3.811   1.544
    1TCM    cl2 2596   3.836   3.765   1.801
    1TCM     h1 2597   3.737   3.741   1.585
    1TCM    cl3 2598   3.870   3.545   1.615
    1TCM     c1 2599   0.540   0.175   1.379
    1TCM    cl1 2600   0.637   0.045   1.452
    1TCM    cl2 2601   0.396   0.105   1.301
    1TCM     h1 2602   0.508   0.246   1.458
    1TCM    cl3 2603   0.637   0.261   1.258
    1TCM     c1 2604   2.165   3.966   3.691
    1TCM    cl1 2605   2.295   3.939   3.809
    1TCM    cl2 2606   2.211   3.895   3.534
    1TCM     h1 2607   2.072   3.917   3.727
    1TCM    cl3 2608   2.137   4.140   3.672
    1TCM     c1 2609   4.524   3.947   1.340
    1TCM    cl1 2610   4.553   3.926   1.514
    1TCM    cl2 2611   4.655   4.046   1.270
    1TCM     h1 2612   4.522   3.848   1.290
    1TCM    cl3 2613   4.369   4.030   1.315
    1TCM     c1 2614   3.148   4.315   4.570
    1TCM    cl1 2615   2.989   4.239   4.596
    1TCM    cl2 2616   3.277   4.199   4.611
    1TCM     h1 2617   3.158   4.345   4.463
    1TCM    cl3 2618   3.163   4.459   4.673
    1TCM     c1 2619   2.077   1.869   4.792
    1TCM    cl1 2620   1.939   1.976   4.828
    1TCM    cl2 2621   2.049   1.786   4.637
    1TCM     h1 2622   2.170   1.930   4.785
    1TCM    cl3 2623   2.094   1.748   4.921
    1TCM     c1 2624   1.556   3.454   2.048
    1TCM    cl1 2625   1.588   3.605   1.959
    1TCM    cl2 2626   1.528   3.491   2.220
    1TCM     h1 2627   1.465   3.405   2.005
    1TCM    cl3 2628   1.695   3.345   2.032
    1TCM     c1 2629   1.812   0.118   1.507
    1TCM    cl1 2630   1.900   0.093   1.660
    1TCM    cl2 2631   1.927   0.151   1.377
    1TCM     h1 2632   1.753   0.027   1.483
    1TCM    cl3 2633   1.701   0.256   1.525
    1TCM     c1 2634   4.215   4.352   3.795
    1TCM    cl1 2635   4.099   4.424   3.680
    1TCM    cl2 2636   4.146   4.355   3.959
    1TCM     h1 2637   4.236   4.247   3.765
    1TCM    cl3 2638   4.366   4.446   3.792
    1TCM     c1 2639   0.708   1.026   3.775
    1TCM    cl1 2640   0.631   1.010   3.615
    1TCM    cl2 2641   0.643   0.902   3.884
    1TCM     h1 2642   0.818   1.013   3.764
    1TCM    cl3 2643   0.674   1.188   3.841
    1TCM     c1 2644   1.689   4.456   0.702
    1TCM    cl1 2645   1.816   4.578   0.679
    1TCM    cl2 2646   1.577   4.510   0.830
    1TCM     h1 2647   1.633   4.442   0.607
    1TCM    cl3 2648   1.764   4.302   0.750
    1TCM     c1 2649   3.297   0.443   0.171
    1TCM    cl1 2650   3.144   0.432   0.261
    1TCM    cl2 2651   3.264   0.426  -0.003
    1TCM     h1 2652   3.344   0.541   0.191
    1TCM    cl3 2653   3.406   0.312   0.223
    1TCM     c1 2654   3.800   0.931   3.288
    1TCM    cl1 2655   3.843   0.924   3.116
    1TCM    cl2 2656   3.948   0.950   3.385
    1TCM     h1 2657   3.733   1.017   3.306
    1TCM    cl3 2658   3.718   0.781   3.335
    1TCM     c1 2659   0.154   4.600   4.003
    1TCM    cl1 2660   0.284   4.503   3.931
    1TCM    cl2 2661   0.220   4.701   4.133
    1TCM     h1 2662   0.109   4.665   3.925
    1TCM    cl3 2663   0.029   4.492   4.069
    1TCM     c1 2664   4.441   1.667   5.262
    1TCM    cl1 2665   4.514   1.818   5.322
    1TCM    cl2 2666   4.421   1.677   5.086
    1TCM     h1 2667   4.507   1.582   5.288
    1TCM    cl3 2668   4.282   1.645   5.339
    1TCM     c1 2669   0.541   0.627   2.752
    1TCM    cl1 2670   0.583   0.629   2.579
    1TCM    cl2 2671   0.427   0.495   2.784
    1TCM     h1 2672   0.633   0.613   2.812
    1TCM    cl3 2673   0.465   0.782   2.796
    1TCM     c1 2674   0.437   2.106   2.210
    1TCM    cl1 2675   0.508   1.956   2.149
    1TCM    cl2 2676   0.433   2.227   2.079
    1TCM     h1 2677   0.333   2.087   2.245
    1TCM    cl3 2678   0.534   2.168   2.345
    1TCM     c1 2679   3.663   2.203   1.684
    1TCM    cl1 2680   3.677   2.171   1.509
    1TCM    cl2 2681   3.806   2.139   1.768
    1TCM     h1 2682   3.655   2.312   1.701
    1TCM    cl3 2683   3.517   2.122   1.747
    1TCM     c1 2684   2.635   0.929   4.336
    1TCM    cl1 2685   2.517   0.978   4.213
    1TCM    cl2 2686   2.562   0.809   4.445
    1TCM     h1 2687   2.724   0.885   4.287
    1TCM    cl3 2688   2.684   1.072   4.431
    1TCM     c1 2689   4.641   2.543   4.917
    1TCM    cl1 2690   4.620   2.673   5.036
    1TCM    cl2 2691   4.533   2.407   4.959
    1TCM     h1 2692   4.615   2.580   4.816
    1TCM    cl3 2693   4.810   2.487   4.919
    1TCM     c1 2694   3.824   0.777   2.864
    1TCM    cl1 2695   3.704   0.766   2.733
    1TCM    cl2 2696   3.912   0.931   2.851
    1TCM     h1 2697   3.772   0.773   2.962
    1TCM    cl3 2698   3.939   0.642   2.852
    1TCM     c1 2699   3.318   2.182   3.304
    1TCM    cl1 2700   3.311   2.027   3.218
    1TCM    cl2 2701   3.331   2.315   3.187
    1TCM     h1 2702   3.226   2.194   3.365
    1TCM    cl3 2703   3.460   2.183   3.411
    1TCM     c1 2704   3.825   1.624   1.487
    1TCM    cl1 2705   3.889   1.773   1.415
    1TCM    cl2 2706   3.735   1.664   1.635
    1TCM     h1 2707   3.757   1.574   1.415
    1TCM    cl3 2708   3.960   1.515   1.527
    1TCM     c1 2709   0.426   3.421   1.585
    1TCM    cl1 2710   0.251   3.424   1.615
    1TCM    cl2 2711   0.463   3.294   1.465
    1TCM     h1 2712   0.459   3.519   1.545
    1TCM    cl3 2713   0.512   3.386   1.736
    1TCM     c1 2714   2.514   3.739   4.570
    1TCM    cl1 2715   2.391   3.757   4.696
    1TCM    cl2 2716   2.460   3.820   4.421
    1TCM     h1 2717   2.609   3.784   4.604
    1TCM    cl3 2718   2.539   3.566   4.536
    1TCM     c1 2719   1.930   1.612   1.962
    1TCM    cl1 2720   2.056   1.691   2.060
    1TCM    cl2 2721   1.985   1.600   1.794
    1TCM     h1 2722   1.910   1.510   2.002
    1TCM    cl3 2723   1.780   1.708   1.969
    1TCM     c1 2724   4.586   2.606   0.353
    1TCM    cl1 2725   4.733   2.622   0.255
    1TCM    cl2 2726   4.630   2.593   0.525
    1TCM     h1 2727   4.521   2.695   0.338
    1TCM    cl3 2728   4.497   2.460   0.304
    1TCM     c1 2729   3.128   4.606   3.566
    1TCM    cl1 2730   2.965   4.594   3.495
    1TCM    cl2 2731   3.218   4.456   3.531
    1TCM     h1 2732   3.181   4.692   3.522
    1TCM    cl3 2733   3.115   4.627   3.742
    1TCM     c1 2734   5.016   3.880   5.226
    1TCM    cl1 2735   4.878   3.786   5.288
    1TCM    cl2 2736   4.994   4.052   5.266
    1TCM     h1 2737   5.110   3.843   5.272
    1TCM    cl3 2738   5.025   3.862   5.049
    1TCM     c1 2739   1.188   2.687   3.349
    1TCM    cl1 2740   1.128   2.554   3.450
    1TCM    cl2 2741   1.139   2.659   3.180
    1TCM     h1 2742   1.144   2.783   3.384
    1TCM    cl3 2743   1.365   2.695   3.358
    1TCM     c1 2744   2.540   2.797   1.292
    1TCM    cl1 2745   2.517   2.894   1.145
    1TCM    cl2 2746   2.419   2.666   1.296
    1TCM     h1 2747   2.642   2.753   1.292
    1TCM    cl3 2748   2.520   2.900   1.435
    1TCM     c1 2749   0.131   3.563   3.584
    1TCM    cl1 2750   0.248   3.571   3.451
    1TCM    cl2 2751   0.000   3.450   3.542
    1TCM     h1 2752   0.182   3.528   3.676
    1TCM    cl3 2753   0.062   3.725   3.612
    1TCM     c1 2754   2.474   4.847   3.305
    1TCM    cl1 2755   2.626   4.801   3.385
    1TCM    cl2 2756   2.339   4.828   3.418
    1TCM     h1 2757   2.481   4.953   3.272
    1TCM    cl3 2758   2.448   4.743   3.163
    1TCM     c1 2759   5.004   2.730   4.195
    1TCM    cl1 2760   5.174   2.778   4.202
    1TCM    cl2 2761   4.901   2.875   4.191
    1TCM     h1 2762   4.986   2.669   4.104
    1TCM    cl3 2763   4.964   2.633   4.339
    1TCM     c1 2764   2.581   2.257   3.616
    1TCM    cl1 2765   2.441   2.148   3.608
    1TCM    cl2 2766   2.621   2.313   3.452
    1TCM     h1 2767   2.556   2.345   3.680
    1TCM    cl3 2768   2.720   2.171   3.685
    1TCM     c1 2769   1.975   0.907   3.885
    1TCM    cl1 2770   1.993   0.791   4.018
    1TCM    cl2 2771   1.914   1.061   3.948
    1TCM     h1 2772   2.074   0.923   3.836
    1TCM    cl3 2773   1.860   0.842   3.765
    1TCM     c1 2774   0.934   0.361   0.888
    1TCM    cl1 2775   0.968   0.516   0.967
    1TCM    cl2 2776   0.969   0.374   0.714
    1TCM     h1 2777   0.999   0.282   0.932
    1TCM    cl3 2778   0.763   0.317   0.911
    1TCM     c1 2779   4.155   1.432   3.648
    1TCM    cl1 2780   4.052   1.576   3.664
    1TCM    cl2 2781   4.189   1.367   3.810
    1TCM     h1 2782   4.103   1.355   3.588
    1TCM    cl3 2783   4.308   1.477   3.569
    1TCM     c1 2784   3.220   4.928   3.416
    1TCM    cl1 2785   3.260   4.778   3.329
    1TCM    cl2 2786   3.052   4.919   3.474
    1TCM     h1 2787   3.288   4.939   3.503
    1TCM    cl3 2788   3.237   5.067   3.307
    1TCM     c1 2789   2.221   2.554   3.141
    1TCM    cl1 2790   2.136   2.421   3.058
    1TCM    cl2 2791   2.104   2.680   3.186
    1TCM     h1 2792   2.270   2.515   3.232
    1TCM    cl3 2793   2.343   2.623   3.032
    1TCM     c1 2794   1.544   0.753   5.235
    1TCM    cl1 2795   1.450   0.861   5.340
    1TCM    cl2 2796   1.487   0.768   5.068
    1TCM     h1 2797   1.651   0.781   5.240
    1TCM    cl3 2798   1.524   0.585   5.290
    1TCM     c1 2799   2.205   4.400   4.401
    1TCM    cl1 2800   2.130   4.387   4.240
    1TCM    cl2 2801   2.150   4.549   4.481
    1TCM     h1 2802   2.176   4.312   4.463
    1TCM    cl3 2803   2.382   4.404   4.384
    1TCM     c1 2804   0.784   3.747   5.056
    1TCM    cl1 2805   0.770   3.875   4.933
    1TCM    cl2 2806   0.622   3.691   5.102
    1TCM     h1 2807   0.842   3.662   5.015
    1TCM    cl3 2808   0.867   3.812   5.199
    1TCM     c1 2809   5.096   3.052   1.872
    1TCM    cl1 2810   5.080   3.195   1.767
    1TCM    cl2 2811   5.090   3.103   2.043
    1TCM     h1 2812   5.013   2.982   1.851
    1TCM    cl3 2813   5.252   2.973   1.840
    1TCM     c1 2814   3.311   1.182   3.597
    1TCM    cl1 2815   3.399   1.302   3.694
    1TCM    cl2 2816   3.366   1.191   3.428
    1TCM     h1 2817   3.330   1.081   3.637
    1TCM    cl3 2818   3.137   1.217   3.605
    1TCM     c1 2819   0.084   1.323   1.830
    1TCM    cl1 2820   0.252   1.270   1.851
    1TCM    cl2 2821   0.001   1.320   1.987
    1TCM     h1 2822   0.083   1.427   1.790
    1TCM    cl3 2823   0.000   1.215   1.717
    1TCM     c1 2824   1.559   0.128   1.259
    1TCM    cl1 2825   1.419   0.075   1.163
    1TCM    cl2 2826   1.683   0.000   1.258
    1TCM     h1 2827   1.601   0.221   1.214
    1TCM    cl3 2828   1.508   0.160   1.426
    1TCM     c1 2829   2.759   2.934   3.895
    1TCM    cl1 2830   2.830   2.810   4.000
    1TCM    cl2 2831   2.886   3.046   3.841
    1TCM     h1 2832   2.713   2.885   3.806
    1TCM    cl3 2833   2.634   3.023   3.985
    1TCM     c1 2834   5.130   3.329   1.241
    1TCM    cl1 2835   5.194   3.463   1.144
    1TCM    cl2 2836   5.031   3.394   1.374
    1TCM     h1 2837   5.068   3.263   1.177
    1TCM    cl3 2838   5.265   3.234   1.308
    1TCM     c1 2839   1.889   0.289   0.188
    1TCM    cl1 2840   1.758   0.170   0.197
    1TCM    cl2 2841   2.015   0.229   0.076
    1TCM     h1 2842   1.849   0.385   0.150
    1TCM    cl3 2843   1.960   0.313   0.349
    1TCM     c1 2844   1.159   1.994   3.090
    1TCM    cl1 2845   1.151   1.825   3.146
    1TCM    cl2 2846   1.328   2.049   3.093
    1TCM     h1 2847   1.120   2.000   2.986
    1TCM    cl3 2848   1.061   2.096   3.197
    1TCM     c1 2849   2.644   3.840   2.447
    1TCM    cl1 2850   2.765   3.725   2.385
    1TCM    cl2 2851   2.724   3.965   2.544
    1TCM     h1 2852   2.592   3.888   2.361
    1TCM    cl3 2853   2.525   3.754   2.547
    1TCM     c1 2854   1.532   0.633   2.914
    1TCM    cl1 2855   1.559   0.757   2.789
    1TCM    cl2 2856   1.469   0.710   3.062
    1TCM     h1 2857   1.458   0.559   2.877
    1TCM    cl3 2858   1.685   0.551   2.950
    1TCM     c1 2859   5.137   5.025   2.827
    1TCM    cl1 2860   5.100   4.901   2.705
    1TCM    cl2 2861   5.160   4.948   2.985
    1TCM     h1 2862   5.230   5.079   2.798
    1TCM    cl3 2863   5.003   5.141   2.836
    1TCM     c1 2864   2.631   3.893   3.231
    1TCM    cl1 2865   2.491   3.934   3.333
    1TCM    cl2 2866   2.648   4.015   3.102
    1TCM     h1 2867   2.723   3.892   3.293
    1TCM    cl3 2868   2.606   3.733   3.158
    1TCM     c1 2869   5.027   5.003   0.269
    1TCM    cl1 2870   4.921   5.038   0.130
    1TCM    cl2 2871   5.066   4.830   0.272
    1TCM     h1 2872   5.120   5.063   0.260
    1TCM    cl3 2873   4.943   5.048   0.419
    1TCM     c1 2874   1.542   4.064   5.169
    1TCM    cl1 2875   1.392   4.050   5.075
    1TCM    cl2 2876   1.631   3.911   5.161
    1TCM     h1 2877   1.604   4.146   5.128
    1TCM    cl3 2878   1.502   4.101   5.339
    1TCM     c1 2879   0.481   1.916   3.516
    1TCM    cl1 2880   0.325   1.854   3.458
    1TCM    cl2 2881   0.481   1.918   3.694
    1TCM     h1 2882   0.563   1.851   3.480
    1TCM    cl3 2883   0.505   2.082   3.455
    1TCM     c1 2884   4.639   0.366   4.811
    1TCM    cl1 2885   4.585   0.506   4.908
    1TCM    cl2 2886   4.665   0.418   4.643
    1TCM     h1 2887   4.733   0.326   4.852
    1TCM    cl3 2888   4.514   0.240   4.815
    1TCM     c1 2889   4.346   2.428   2.476
    1TCM    cl1 2890   4.262   2.304   2.572
    1TCM    cl2 2891   4.489   2.485   2.565
    1TCM     h1 2892   4.379   2.383   2.379
    1TCM    cl3 2893   4.237   2.564   2.445
    1TCM     c1 2894   3.481   4.748   1.715
    1TCM    cl1 2895   3.557   4.612   1.628
    1TCM    cl2 2896   3.594   4.885   1.719
    1TCM     h1 2897   3.388   4.777   1.663
    1TCM    cl3 2898   3.443   4.698   1.882
    1TCM     c1 2899   5.207   5.170   0.749
    1TCM    cl1 2900   5.218   5.341   0.700
    1TCM    cl2 2901   5.037   5.125   0.770
    1TCM     h1 2902   5.253   5.107   0.670
    1TCM    cl3 2903   5.294   5.147   0.902
    1TCM     c1 2904   3.977   5.145   0.254
    1TCM    cl1 2905   4.021   5.085   0.416
    1TCM    cl2 2906   4.125   5.184   0.163
    1TCM     h1 2907   3.920   5.067   0.200
    1TCM    cl3 2908   3.877   5.291   0.271
    1TCM     c1 2909   0.708   5.230   2.439
    1TCM    cl1 2910   0.612   5.339   2.541
    1TCM    cl2 2911   0.693   5.280   2.269
    1TCM     h1 2912   0.814   5.234   2.470
    1TCM    cl3 2913   0.648   5.063   2.457
    1TCM     c1 2914   2.876   5.151   4.385
    1TCM    cl1 2915   2.802   5.272   4.278
    1TCM    cl2 2916   2.954   5.025   4.287
    1TCM     h1 2917   2.953   5.201   4.449
    1TCM    cl3 2918   2.751   5.078   4.488
    1TCM     c1 2919   4.414   4.191   1.835
    1TCM    cl1 2920   4.276   4.197   1.723
    1TCM    cl2 2921   4.357   4.205   2.002
    1TCM     h1 2922   4.468   4.095   1.822
    1TCM    cl3 2923   4.525   4.326   1.798
    1TCM     c1 2924   3.280   3.672   4.887
    1TCM    cl1 2925   3.353   3.575   5.017
    1TCM    cl2 2926   3.300   3.587   4.732
    1TCM     h1 2927   3.171   3.685   4.907
    1TCM    cl3 2928   3.359   3.830   4.879
    1TCM     c1 2929   2.769   0.534   4.351
    1TCM    cl1 2930   2.687   0.512   4.507
    1TCM    cl2 2931   2.732   0.396   4.245
    1TCM     h1 2932   2.734   0.628   4.303
    1TCM    cl3 2933   2.945   0.543   4.377
    1TCM     c1 2934   3.367   3.357   1.814
    1TCM    cl1 2935   3.506   3.400   1.713
    1TCM    cl2 2936   3.397   3.410   1.982
    1TCM     h1 2937   3.276   3.407   1.776
    1TCM    cl3 2938   3.343   3.180   1.811
    1TCM     c1 2939   0.182   3.080   3.549
    1TCM    cl1 2940   0.315   2.984   3.481
    1TCM    cl2 2941   0.211   3.108   3.722
    1TCM     h1 2942   0.176   3.178   3.496
    1TCM    cl3 2943   0.029   2.992   3.528
    1TCM     c1 2944   1.511   3.838   3.102
    1TCM    cl1 2945   1.602   3.867   3.252
    1TCM    cl2 2946   1.516   3.985   3.001
    1TCM     h1 2947   1.557   3.754   3.046
    1TCM    cl3 2948   1.342   3.799   3.141
    1TCM     c1 2949   2.850   4.221   1.742
    1TCM    cl1 2950   2.717   4.103   1.756
    1TCM    cl2 2951   2.924   4.245   1.902
    1TCM     h1 2952   2.926   4.182   1.671
    1TCM    cl3 2953   2.786   4.376   1.682
    1TCM     c1 2954   5.144   1.676   2.961
    1TCM    cl1 2955   5.081   1.635   2.799
    1TCM    cl2 2956   5.321   1.659   2.961
    1TCM     h1 2957   5.117   1.781   2.986
    1TCM    cl3 2958   5.073   1.566   3.081
    1TCM     c1 2959   4.444   3.474   3.035
    1TCM    cl1 2960   4.569   3.347   3.041
    1TCM    cl2 2961   4.300   3.420   3.124
    1TCM     h1 2962   4.483   3.567   3.081
    1TCM    cl3 2963   4.400   3.505   2.865
    1TCM     c1 2964   2.733   4.931   2.624
    1TCM    cl1 2965   2.869   4.816   2.619
    1TCM    cl2 2966   2.737   5.021   2.777
    1TCM     h1 2967   2.740   5.001   2.539
    1TCM    cl3 2968   2.579   4.841   2.613
    1TCM     c1 2969   3.308   3.096   2.357
    1TCM    cl1 2970   3.271   2.947   2.268
    1TCM    cl2 2971   3.386   3.056   2.511
    1TCM     h1 2972   3.376   3.159   2.296
    1TCM    cl3 2973   3.157   3.185   2.388
    1TCM     c1 2974   1.918   3.508   4.154
    1TCM    cl1 2975   1.904   3.652   4.052
    1TCM    cl2 2976   1.944   3.557   4.323
    1TCM     h1 2977   1.825   3.447   4.147
    1TCM    cl3 2978   2.056   3.410   4.100
    1TCM     c1 2979   4.991   1.870   0.512
    1TCM    cl1 2980   5.013   1.845   0.338
    1TCM    cl2 2981   4.946   1.716   0.589
    1TCM     h1 2982   5.085   1.908   0.557
    1TCM    cl3 2983   4.861   1.989   0.539
    1TCM     c1 2984   1.921   3.254   2.177
    1TCM    cl1 2985   2.066   3.159   2.140
    1TCM    cl2 2986   1.909   3.390   2.062
    1TCM     h1 2987   1.831   3.190   2.167
    1TCM    cl3 2988   1.930   3.317   2.342
    1TCM     c1 2989   1.994   0.949   4.969
    1TCM    cl1 2990   2.042   1.117   4.935
    1TCM    cl2 2991   2.113   0.837   4.899
    1TCM     h1 2992   1.988   0.934   5.078
    1TCM    cl3 2993   1.834   0.918   4.896
    1TCM     c1 2994   0.296   5.090   3.997
    1TCM    cl1 2995   0.364   5.209   4.111
    1TCM    cl2 2996   0.328   5.143   3.831
    1TCM     h1 2997   0.343   4.991   4.015
    1TCM    cl3 2998   0.120   5.079   4.023
    1TCM     c1 2999   1.661   4.492   1.725
    1TCM    cl1 3000   1.652   4.627   1.609
    1TCM    cl2 3001   1.828   4.476   1.784
    1TCM     h1 3002   1.594   4.513   1.810
    1TCM    cl3 3003   1.612   4.342   1.645
    1TCM     c1 3004   4.940   0.989   4.263
    1TCM    cl1 3005   4.848   0.898   4.385
    1TCM    cl2 3006   4.864   0.967   4.103
    1TCM     h1 3007   4.939   1.097   4.289
    1TCM    cl3 3008   5.107   0.930   4.258
    1TCM     c1 3009   2.340   3.227   0.254
    1TCM    cl1 3010   2.312   3.342   0.122
    1TCM    cl2 3011   2.265   3.288   0.403
    1TCM     h1 3012   2.296   3.128   0.228
    1TCM    cl3 3013   2.515   3.207   0.280
    1TCM     c1 3014   2.681   4.256   1.395
    1TCM    cl1 3015   2.722   4.425   1.428
    1TCM    cl2 3016   2.700   4.223   1.221
    1TCM     h1 3017   2.747   4.189   1.453
    1TCM    cl3 3018   2.512   4.226   1.442
    1TCM     c1 3019   1.664   0.950   4.113
    1TCM    cl1 3020   1.775   0.818   4.160
    1TCM    cl2 3021   1.702   1.002   3.947
    1TCM     h1 3022   1.560   0.914   4.118
    1TCM    cl3 3023   1.685   1.087   4.224
    1TCM     c1 3024   1.587   1.124   2.860
    1TCM    cl1 3025   1.595   1.140   2.683
    1TCM    cl2 3026   1.528   0.962   2.902
    1TCM     h1 3027   1.688   1.139   2.903
    1TCM    cl3 3028   1.477   1.247   2.925
    1TCM     c1 3029   1.992   3.192   3.478
    1TCM    cl1 3030   1.964   3.170   3.304
    1TCM    cl2 3031   2.035   3.362   3.510
    1TCM     h1 3032   1.900   3.166   3.534
    1TCM    cl3 3033   2.125   3.086   3.530
    1TCM     c1 3034   3.879   4.287   3.056
    1TCM    cl1 3035   3.756   4.391   3.131
    1TCM    cl2 3036   3.868   4.301   2.879
    1TCM     h1 3037   3.980   4.318   3.090
    1TCM    cl3 3038   3.849   4.118   3.103
    1TCM     c1 3039   2.705   5.131   0.530
    1TCM    cl1 3040   2.881   5.126   0.509
    1TCM    cl2 3041   2.653   5.301   0.548
    1TCM     h1 3042   2.656   5.087   0.442
    1TCM    cl3 3043   2.660   5.040   0.676
    1TCM     c1 3044   1.652   3.805   4.112
    1TCM    cl1 3045   1.774   3.934   4.103
    1TCM    cl2 3046   1.699   3.687   4.236
    1TCM     h1 3047   1.554   3.849   4.138
    1TCM    cl3 3048   1.641   3.725   3.954
    1TCM     c1 3049   2.370   2.236   1.327
    1TCM    cl1 3050   2.510   2.341   1.359
    1TCM    cl2 3051   2.234   2.335   1.268
    1TCM     h1 3052   2.398   2.162   1.249
    1TCM    cl3 3053   2.323   2.153   1.476
    1TCM     c1 3054   3.141   0.138   3.823
    1TCM    cl1 3055   3.189   0.079   3.984
    1TCM    cl2 3056   3.126   0.316   3.827
    1TCM     h1 3057   3.218   0.110   3.749
    1TCM    cl3 3058   2.985   0.066   3.777
    1TCM     c1 3059   2.055   1.217   2.102
    1TCM    cl1 3060   2.053   1.344   1.978
    1TCM    cl2 3061   1.947   1.262   2.236
    1TCM     h1 3062   2.021   1.121   2.057
    1TCM    cl3 3063   2.221   1.197   2.164
    1TCM     c1 3064   2.332   2.799   0.410
    1TCM    cl1 3065   2.208   2.864   0.521
    1TCM    cl2 3066   2.282   2.829   0.242
    1TCM     h1 3067   2.429   2.850   0.429
    1TCM    cl3 3068   2.350   2.624   0.436
    1TCM     c1 3069   3.606   2.511   4.373
    1TCM    cl1 3070   3.694   2.661   4.411
    1TCM    cl2 3071   3.720   2.390   4.312
    1TCM     h1 3072   3.557   2.473   4.465
    1TCM    cl3 3073   3.483   2.545   4.249
    1TCM     c1 3074   0.770   0.434   1.992
    1TCM    cl1 3075   0.627   0.410   1.890
    1TCM    cl2 3076   0.731   0.389   2.160
    1TCM     h1 3077   0.853   0.370   1.955
    1TCM    cl3 3078   0.820   0.604   1.987
    1TCM     c1 3079   0.069   2.892   3.874
    1TCM    cl1 3080   0.086   3.064   3.914
    1TCM    cl2 3081   0.004   2.804   4.014
    1TCM     h1 3082  -0.000   2.881   3.788
    1TCM    cl3 3083   0.228   2.825   3.831
    1TCM     c1 3084   4.297   4.858   0.793
    1TCM    cl1 3085   4.328   4.858   0.968
    1TCM    cl2 3086   4.334   5.019   0.727
    1TCM     h1 3087   4.361   4.782   0.744
    1TCM    cl3 3088   4.126   4.820   0.763
    1TCM     c1 3089   0.298   4.306   1.100
    1TCM    cl1 3090   0.251   4.135   1.097
    1TCM    cl2 3091   0.166   4.405   1.034
    1TCM     h1 3092   0.319   4.338   1.204
    1TCM    cl3 3093   0.444   4.329   1.000
    1TCM     c1 3094   2.196   2.353   3.820
    1TCM    cl1 3095   2.265   2.385   3.659
    1TCM    cl2 3096   2.328   2.329   3.937
    1TCM     h1 3097   2.134   2.439   3.851
    1TCM    cl3 3098   2.096   2.206   3.813
    1TCM     c1 3099   0.579   4.089   1.294
    1TCM    cl1 3100   0.473   4.121   1.155
    1TCM    cl2 3101   0.519   4.177   1.436
    1TCM     h1 3102   0.580   3.980   1.315
    1TCM    cl3 3103   0.744   4.143   1.256
    1TCM     c1 3104   1.466   3.890   0.401
    1TCM    cl1 3105   1.318   3.868   0.497
    1TCM    cl2 3106   1.589   3.773   0.452
    1TCM     h1 3107   1.443   3.875   0.293
    1TCM    cl3 3108   1.528   4.055   0.425
    1TCM     c1 3109   3.183   2.130   2.555
    1TCM    cl1 3110   3.324   2.024   2.536
    1TCM    cl2 3111   3.179   2.248   2.422
    1TCM     h1 3112   3.090   2.069   2.553
    1TCM    cl3 3113   3.194   2.217   2.710
    1TCM     c1 3114   1.819   2.807   2.636
    1TCM    cl1 3115   1.987   2.792   2.693
    1TCM    cl2 3116   1.709   2.791   2.775
    1TCM     h1 3117   1.805   2.906   2.589
    1TCM    cl3 3118   1.785   2.678   2.519
    1TCM     c1 3119   3.416   5.124   2.095
    1TCM    cl1 3120   3.351   5.242   1.979
    1TCM    cl2 3121   3.282   5.039   2.175
    1TCM     h1 3122   3.480   5.051   2.041
    1TCM    cl3 3123   3.513   5.209   2.217
    1TCM     c1 3124   1.044   2.540   4.398
    1TCM    cl1 3125   1.153   2.628   4.508
    1TCM    cl2 3126   1.078   2.588   4.231
    1TCM     h1 3127   1.061   2.431   4.410
    1TCM    cl3 3128   0.875   2.579   4.438
    1TCM     c1 3129   4.629   3.899   4.931
    1TCM    cl1 3130   4.690   3.758   5.021
    1TCM    cl2 3131   4.723   3.919   4.782
    1TCM     h1 3132   4.522   3.883   4.906
    1TCM    cl3 3133   4.645   4.044   5.032
    1TCM     c1 3134   4.923   1.880   4.163
    1TCM    cl1 3135   5.090   1.821   4.184
    1TCM    cl2 3136   4.873   1.855   3.994
    1TCM     h1 3137   4.855   1.824   4.230
    1TCM    cl3 3138   4.916   2.053   4.201
    1TCM     c1 3139   4.126   2.242   2.861
    1TCM    cl1 3140   4.029   2.389   2.839
    1TCM    cl2 3141   4.150   2.163   2.703
    1TCM     h1 3142   4.225   2.269   2.904
    1TCM    cl3 3143   4.042   2.130   2.970
    1TCM     c1 3144   1.469   2.828   5.168
    1TCM    cl1 3145   1.452   2.997   5.221
    1TCM    cl2 3146   1.312   2.745   5.184
    1TCM     h1 3147   1.502   2.825   5.062
    1TCM    cl3 3148   1.590   2.747   5.270
    1TCM     c1 3149   3.671   2.144   3.130
    1TCM    cl1 3150   3.520   2.231   3.099
    1TCM    cl2 3151   3.725   2.177   3.296
    1TCM     h1 3152   3.655   2.035   3.117
    1TCM    cl3 3153   3.796   2.199   3.016
    1TCM     c1 3154   2.758   4.871   1.042
    1TCM    cl1 3155   2.710   5.028   1.111
    1TCM    cl2 3156   2.669   4.844   0.890
    1TCM     h1 3157   2.867   4.871   1.022
    1TCM    cl3 3158   2.718   4.741   1.158
    1TCM     c1 3159   1.660   3.844   0.888
    1TCM    cl1 3160   1.823   3.790   0.934
    1TCM    cl2 3161   1.620   3.783   0.726
    1TCM     h1 3162   1.586   3.805   0.962
    1TCM    cl3 3163   1.654   4.022   0.888
    1TCM     c1 3164   5.075   3.219   5.124
    1TCM    cl1 3165   5.007   3.342   5.234
    1TCM    cl2 3166   4.960   3.085   5.107
    1TCM     h1 3167   5.094   3.265   5.025
    1TCM    cl3 3168   5.228   3.158   5.191
    1TCM     c1 3169   2.954   5.035   3.100
    1TCM    cl1 3170   3.040   5.188   3.081
    1TCM    cl2 3171   2.885   4.985   2.944
    1TCM     h1 3172   3.024   4.957   3.136
    1TCM    cl3 3173   2.823   5.055   3.219
    1TCM     c1 3174   4.807   3.871   3.668
    1TCM    cl1 3175   4.774   3.846   3.841
    1TCM    cl2 3176   4.655   3.907   3.583
    1TCM     h1 3177   4.877   3.957   3.656
    1TCM    cl3 3178   4.881   3.724   3.600
    1TCM     c1 3179   1.701   0.900   3.173
    1TCM    cl1 3180   1.867   0.959   3.201
    1TCM    cl2 3181   1.590   1.038   3.161
    1TCM     h1 3182   1.698   0.841   3.079
    1TCM    cl3 3183   1.652   0.795   3.309
    1TCM     c1 3184   3.322   2.736   4.575
    1TCM    cl1 3185   3.461   2.845   4.556
    1TCM    cl2 3186   3.288   2.654   4.421
    1TCM     h1 3187   3.345   2.660   4.653
    1TCM    cl3 3188   3.179   2.830   4.625
    1TCM     c1 3189   2.355   4.268   0.615
    1TCM    cl1 3190   2.477   4.204   0.503
    1TCM    cl2 3191   2.427   4.289   0.776
    1TCM     h1 3192   2.318   4.365   0.577
    1TCM    cl3 3193   2.219   4.153   0.626
    1TCM     c1 3194   3.242   1.592   0.296
    1TCM    cl1 3195   3.358   1.686   0.199
    1TCM    cl2 3196   3.159   1.474   0.192
    1TCM     h1 3197   3.297   1.538   0.377
    1TCM    cl3 3198   3.123   1.702   0.369
    1TCM     c1 3199   2.382   1.753   4.032
    1TCM    cl1 3200   2.410   1.806   4.200
    1TCM    cl2 3201   2.219   1.801   3.981
    1TCM     h1 3202   2.457   1.800   3.966
    1TCM    cl3 3203   2.398   1.576   4.022
    1TCM     c1 3204   1.268   0.940   2.714
    1TCM    cl1 3205   1.442   0.977   2.699
    1TCM    cl2 3206   1.188   0.966   2.558
    1TCM     h1 3207   1.256   0.834   2.745
    1TCM    cl3 3208   1.196   1.046   2.837
    1TCM     c1 3209   2.826   4.329   5.121
    1TCM    cl1 3210   2.778   4.268   5.280
    1TCM    cl2 3211   2.681   4.365   5.025
    1TCM     h1 3212   2.886   4.422   5.133
    1TCM    cl3 3213   2.924   4.207   5.036
    1TCM     c1 3214   2.316   4.477   1.615
    1TCM    cl1 3215   2.145   4.517   1.644
    1TCM    cl2 3216   2.372   4.560   1.467
    1TCM     h1 3217   2.377   4.510   1.701
    1TCM    cl3 3218   2.332   4.301   1.594
    1TCM     c1 3219   0.969   2.566   5.141
    1TCM    cl1 3220   0.819   2.532   5.230
    1TCM    cl2 3221   0.970   2.474   4.989
    1TCM     h1 3222   0.975   2.674   5.120
    1TCM    cl3 3223   1.109   2.517   5.240
    1TCM     c1 3224   1.708   1.196   1.843
    1TCM    cl1 3225   1.641   1.309   1.723
    1TCM    cl2 3226   1.578   1.097   1.911
    1TCM     h1 3227   1.783   1.130   1.793
    1TCM    cl3 3228   1.788   1.287   1.973
    1TCM     c1 3229   0.520   3.624   3.642
    1TCM    cl1 3230   0.393   3.748   3.637
    1TCM    cl2 3231   0.588   3.602   3.479
    1TCM     h1 3232   0.601   3.655   3.711
    1TCM    cl3 3233   0.451   3.470   3.697
    1TCM     c1 3234   2.333   0.076   1.421
    1TCM    cl1 3235   2.327   0.253   1.401
    1TCM    cl2 3236   2.489   0.015   1.361
    1TCM     h1 3237   2.323   0.051   1.528
    1TCM    cl3 3238   2.201   0.001   1.329
    1TCM     c1 3239   0.259   0.164   3.830
    1TCM    cl1 3240   0.369   0.073   3.936
    1TCM    cl2 3241   0.243   0.080   3.674
    1TCM     h1 3242   0.159   0.171   3.878
    1TCM    cl3 3243   0.324   0.327   3.803
    1TCM     c1 3244   3.251   4.022   1.530
    1TCM    cl1 3245   3.385   4.121   1.593
    1TCM    cl2 3246   3.284   3.850   1.564
    1TCM     h1 3247   3.156   4.051   1.580
    1TCM    cl3 3248   3.236   4.047   1.355
    1TCM     c1 3249   4.643   4.324   3.840
    1TCM    cl1 3250   4.566   4.471   3.903
    1TCM    cl2 3251   4.742   4.249   3.968
    1TCM     h1 3252   4.565   4.252   3.807
    1TCM    cl3 3253   4.747   4.365   3.702
    1TCM     c1 3254   0.947   3.713   0.399
    1TCM    cl1 3255   0.954   3.551   0.326
    1TCM    cl2 3256   0.864   3.824   0.288
    1TCM     h1 3257   0.891   3.707   0.495
    1TCM    cl3 3258   1.112   3.771   0.431
    1TCM     c1 3259   5.129   2.332   5.095
    1TCM    cl1 3260   5.066   2.266   5.248
    1TCM    cl2 3261   5.304   2.356   5.109
    1TCM     h1 3262   5.107   2.261   5.012
    1TCM    cl3 3263   5.050   2.488   5.062
    1TCM     c1 3264   0.994   5.023   2.475
    1TCM    cl1 3265   0.917   5.092   2.620
    1TCM    cl2 3266   0.975   5.135   2.339
    1TCM     h1 3267   1.102   5.006   2.495
    1TCM    cl3 3268   0.917   4.867   2.436
    1TCM     c1 3269   1.015   1.249   4.194
    1TCM    cl1 3270   0.922   1.333   4.321
    1TCM    cl2 3271   0.945   1.288   4.035
    1TCM     h1 3272   1.120   1.282   4.198
    1TCM    cl3 3273   1.006   1.074   4.221
    1TCM     c1 3274   3.915   2.698   4.212
    1TCM    cl1 3275   3.792   2.628   4.105
    1TCM    cl2 3276   3.908   2.619   4.371
    1TCM     h1 3277   4.015   2.684   4.168
    1TCM    cl3 3278   3.883   2.872   4.232
    1TCM     c1 3279   2.295   3.523   5.213
    1TCM    cl1 3280   2.444   3.544   5.117
    1TCM    cl2 3281   2.184   3.414   5.127
    1TCM     h1 3282   2.321   3.480   5.312
    1TCM    cl3 3283   2.217   3.681   5.236
    1TCM     c1 3284   1.280   0.595   0.975
    1TCM    cl1 3285   1.278   0.613   0.798
    1TCM    cl2 3286   1.255   0.754   1.050
    1TCM     h1 3287   1.199   0.526   1.006
    1TCM    cl3 3288   1.437   0.530   1.026
    1TCM     c1 3289   0.413   3.660   0.561
    1TCM    cl1 3290   0.474   3.631   0.397
    1TCM    cl2 3291   0.406   3.506   0.650
    1TCM     h1 3292   0.482   3.730   0.614
    1TCM    cl3 3293   0.251   3.731   0.553
    1TCM     c1 3294   3.220   1.683   3.449
    1TCM    cl1 3295   3.217   1.825   3.343
    1TCM    cl2 3296   3.217   1.535   3.350
    1TCM     h1 3297   3.312   1.684   3.511
    1TCM    cl3 3298   3.077   1.685   3.555
    1TCM     c1 3299   2.852   4.763   0.319
    1TCM    cl1 3300   2.928   4.868   0.198
    1TCM    cl2 3301   2.825   4.601   0.249
    1TCM     h1 3302   2.918   4.754   0.408
    1TCM    cl3 3303   2.695   4.832   0.368
    1TCM     c1 3304   3.743   3.530   3.398
    1TCM    cl1 3305   3.919   3.524   3.421
    1TCM    cl2 3306   3.705   3.642   3.265
    1TCM     h1 3307   3.706   3.429   3.372
    1TCM    cl3 3308   3.665   3.586   3.547
    1TCM     c1 3309   2.957   3.946   0.979
    1TCM    cl1 3310   3.006   4.103   1.047
    1TCM    cl2 3311   2.780   3.937   0.973
    1TCM     h1 3312   2.999   3.935   0.877
    1TCM    cl3 3313   3.019   3.815   1.082
    1TCM     c1 3314   4.483   4.352   1.189
    1TCM    cl1 3315   4.491   4.445   1.038
    1TCM    cl2 3316   4.644   4.286   1.227
    1TCM     h1 3317   4.450   4.418   1.272
    1TCM    cl3 3318   4.368   4.218   1.170
    1TCM     c1 3319   4.575   3.077   0.259
    1TCM    cl1 3320   4.517   3.223   0.341
    1TCM    cl2 3321   4.733   3.031   0.324
    1TCM     h1 3322   4.503   2.994   0.275
    1TCM    cl3 3323   4.590   3.109   0.084
    1TCM     c1 3324   2.929   1.032   2.244
    1TCM    cl1 3325   2.831   0.900   2.310
    1TCM    cl2 3326   2.838   1.115   2.115
    1TCM     h1 3327   2.953   1.105   2.325
    1TCM    cl3 3328   3.080   0.967   2.176
    1TCM     c1 3329   3.425   4.625   3.008
    1TCM    cl1 3330   3.463   4.764   2.904
    1TCM    cl2 3331   3.332   4.680   3.149
    1TCM     h1 3332   3.366   4.551   2.951
    1TCM    cl3 3333   3.577   4.550   3.063
    1TCM     c1 3334   3.727   3.480   3.939
    1TCM    cl1 3335   3.820   3.579   4.054
    1TCM    cl2 3336   3.742   3.308   3.984
    1TCM     h1 3337   3.621   3.510   3.942
    1TCM    cl3 3338   3.791   3.503   3.775
    1TCM     c1 3339   4.173   0.315   0.213
    1TCM    cl1 3340   4.321   0.303   0.310
    1TCM    cl2 3341   4.202   0.248   0.051
    1TCM     h1 3342   4.092   0.257   0.262
    1TCM    cl3 3343   4.124   0.485   0.199
    1TCM     c1 3344   3.328   3.338   3.603
    1TCM    cl1 3345   3.390   3.182   3.663
    1TCM    cl2 3346   3.438   3.401   3.478
    1TCM     h1 3347   3.227   3.323   3.560
    1TCM    cl3 3348   3.319   3.454   3.738
    1TCM     c1 3349   0.660   2.614   1.918
    1TCM    cl1 3350   0.784   2.694   1.819
    1TCM    cl2 3351   0.636   2.448   1.860
    1TCM     h1 3352   0.693   2.612   2.024
    1TCM    cl3 3353   0.507   2.704   1.905
    1TCM     c1 3354   5.196   4.295   3.021
    1TCM    cl1 3355   5.205   4.454   2.942
    1TCM    cl2 3356   5.247   4.309   3.191
    1TCM     h1 3357   5.091   4.258   3.017
    1TCM    cl3 3358   5.302   4.180   2.936
    1TCM     c1 3359   2.404   3.516   1.519
    1TCM    cl1 3360   2.467   3.637   1.404
    1TCM    cl2 3361   2.493   3.529   1.673
    1TCM     h1 3362   2.296   3.535   1.537
    1TCM    cl3 3363   2.426   3.353   1.451
    1TCM     c1 3364   5.090   1.371   2.445
    1TCM    cl1 3365   5.133   1.503   2.333
    1TCM    cl2 3366   5.238   1.294   2.505
    1TCM     h1 3367   5.032   1.413   2.530
    1TCM    cl3 3368   4.990   1.251   2.360
    1TCM     c1 3369   4.195   3.119   3.998
    1TCM    cl1 3370   4.038   3.060   4.058
    1TCM    cl2 3371   4.317   2.992   4.019
    1TCM     h1 3372   4.186   3.145   3.891
    1TCM    cl3 3373   4.243   3.263   4.090
    1TCM     c1 3374   1.609   3.548   3.477
    1TCM    cl1 3375   1.661   3.655   3.345
    1TCM    cl2 3376   1.631   3.379   3.427
    1TCM     h1 3377   1.671   3.568   3.567
    1TCM    cl3 3378   1.438   3.578   3.514
    1TCM     c1 3379   2.547   3.299   2.628
    1TCM    cl1 3380   2.412   3.276   2.742
    1TCM    cl2 3381   2.699   3.247   2.707
    1TCM     h1 3382   2.530   3.237   2.538
    1TCM    cl3 3383   2.559   3.470   2.583
    1TCM     c1 3384   1.896   2.892   0.172
    1TCM    cl1 3385   1.797   2.781   0.270
    1TCM    cl2 3386   1.874   2.855  -0.000
    1TCM     h1 3387   1.865   2.997   0.192
    1TCM    cl3 3388   2.067   2.872   0.216
    1TCM     c1 3389   4.825   0.836   2.890
    1TCM    cl1 3390   4.778   0.671   2.937
    1TCM    cl2 3391   4.725   0.888   2.752
    1TCM     h1 3392   4.808   0.905   2.975
    1TCM    cl3 3393   4.996   0.839   2.843
    1TCM     c1 3394   4.890   2.048   1.275
    1TCM    cl1 3395   4.764   2.017   1.154
    1TCM    cl2 3396   4.846   2.189   1.373
    1TCM     h1 3397   4.900   1.959   1.341
    1TCM    cl3 3398   5.045   2.078   1.193
    1TCM     c1 3399   3.206   4.076   0.420
    1TCM    cl1 3400   3.253   3.917   0.484
    1TCM    cl2 3401   3.233   4.080   0.244
    1TCM     h1 3402   3.099   4.094   0.442
    1TCM    cl3 3403   3.305   4.202   0.498
    1TCM     c1 3404   2.740   4.026   3.595
    1TCM    cl1 3405   2.825   3.998   3.748
    1TCM    cl2 3406   2.842   3.972   3.459
    1TCM     h1 3407   2.644   3.969   3.594
    1TCM    cl3 3408   2.705   4.200   3.577
    1TCM     c1 3409   2.044   4.558   2.221
    1TCM    cl1 3410   2.067   4.390   2.167
    1TCM    cl2 3411   2.006   4.559   2.395
    1TCM     h1 3412   2.137   4.615   2.203
    1TCM    cl3 3413   1.910   4.632   2.131
    1TCM     c1 3414   1.604   1.705   0.689
    1TCM    cl1 3415   1.453   1.695   0.784
    1TCM    cl2 3416   1.691   1.854   0.732
    1TCM     h1 3417   1.668   1.617   0.712
    1TCM    cl3 3418   1.565   1.706   0.516
    1TCM     c1 3419   0.277   2.832   4.380
    1TCM    cl1 3420   0.312   2.998   4.325
    1TCM    cl2 3421   0.315   2.717   4.251
    1TCM     h1 3422   0.340   2.810   4.469
    1TCM    cl3 3423   0.105   2.819   4.424
    1TCM     c1 3424   0.502   1.615   4.677
    1TCM    cl1 3425   0.551   1.765   4.759
    1TCM    cl2 3426   0.584   1.476   4.753
    1TCM     h1 3427   0.392   1.602   4.687
    1TCM    cl3 3428   0.547   1.623   4.506
    1TCM     c1 3429   5.034   2.940   0.629
    1TCM    cl1 3430   5.007   2.950   0.805
    1TCM    cl2 3431   5.043   2.770   0.580
    1TCM     h1 3432   4.950   2.990   0.576
    1TCM    cl3 3433   5.186   3.022   0.588
    1TCM     c1 3434   2.220   4.216   4.835
    1TCM    cl1 3435   2.275   4.065   4.911
    1TCM    cl2 3436   2.222   4.347   4.955
    1TCM     h1 3437   2.287   4.242   4.751
    1TCM    cl3 3438   2.054   4.195   4.774
    1TCM     c1 3439   3.071   3.570   3.273
    1TCM    cl1 3440   2.924   3.524   3.184
    1TCM    cl2 3441   3.067   3.744   3.307
    1TCM     h1 3442   3.076   3.513   3.368
    1TCM    cl3 3443   3.214   3.532   3.174
    1TCM     c1 3444   2.963   4.383   0.393
    1TCM    cl1 3445   2.979   4.261   0.521
    1TCM    cl2 3446   3.103   4.373   0.284
    1TCM     h1 3447   2.870   4.364   0.336
    1TCM    cl3 3448   2.957   4.545   0.466
    1TCM     c1 3449   3.452   4.479   0.470
    1TCM    cl1 3450   3.479   4.354   0.346
    1TCM    cl2 3451   3.511   4.420   0.627
    1TCM     h1 3452   3.507   4.571   0.442
    1TCM    cl3 3453   3.279   4.515   0.481
    1TCM     c1 3454   2.330   3.762   1.037
    1TCM    cl1 3455   2.478   3.860   1.041
    1TCM    cl2 3456   2.290   3.707   1.201
    1TCM     h1 3457   2.246   3.823   0.997
    1TCM    cl3 3458   2.356   3.621   0.932
    1TCM     c1 3459   4.098   3.936   3.741
    1TCM    cl1 3460   4.169   3.882   3.588
    1TCM    cl2 3461   4.227   3.973   3.858
    1TCM     h1 3462   4.037   4.027   3.724
    1TCM    cl3 3463   3.994   3.807   3.807
    1TCM     c1 3464   5.221   4.780   4.201
    1TCM    cl1 3465   5.067   4.742   4.121
    1TCM    cl2 3466   5.189   4.839   4.366
    1TCM     h1 3467   5.283   4.689   4.206
    1TCM    cl3 3468   5.306   4.906   4.109
    1TCM     c1 3469   4.212   0.353   3.543
    1TCM    cl1 3470   4.241   0.212   3.647
    1TCM    cl2 3471   4.058   0.430   3.589
    1TCM     h1 3472   4.294   0.426   3.555
    1TCM    cl3 3473   4.203   0.301   3.373
    1TCM     c1 3474   2.444   2.663   3.449
    1TCM    cl1 3475   2.391   2.798   3.346
    1TCM    cl2 3476   2.388   2.691   3.616
    1TCM     h1 3477   2.401   2.569   3.411
    1TCM    cl3 3478   2.622   2.654   3.447
    1TCM     c1 3479   5.024   4.587   2.605
    1TCM    cl1 3480   4.993   4.711   2.729
    1TCM    cl2 3481   5.000   4.426   2.675
    1TCM     h1 3482   4.954   4.601   2.520
    1TCM    cl3 3483   5.192   4.602   2.547
    1TCM     c1 3484   2.386   0.840   2.065
    1TCM    cl1 3485   2.293   0.726   1.965
    1TCM    cl2 3486   2.391   0.781   2.233
    1TCM     h1 3487   2.490   0.848   2.025
    1TCM    cl3 3488   2.309   1.000   2.060
    1TCM     c1 3489   0.277   2.364   3.077
    1TCM    cl1 3490   0.160   2.348   2.944
    1TCM    cl2 3491   0.320   2.203   3.139
    1TCM     h1 3492   0.369   2.414   3.040
    1TCM    cl3 3493   0.206   2.460   3.208
    1TCM     c1 3494   1.099   4.056   1.113
    1TCM    cl1 3495   1.102   4.056   0.935
    1TCM    cl2 3496   1.232   3.955   1.174
    1TCM     h1 3497   1.112   4.159   1.150
    1TCM    cl3 3498   0.944   3.990   1.169
    1TCM     c1 3499   2.666   3.017   0.721
    1TCM    cl1 3500   2.705   3.085   0.562
    1TCM    cl2 3501   2.579   3.139   0.818
    1TCM     h1 3502   2.602   2.928   0.708
    1TCM    cl3 3503   2.816   2.971   0.804
    1TCM     c1 3504   0.643   0.652   0.942
    1TCM    cl1 3505   0.746   0.541   0.849
    1TCM    cl2 3506   0.541   0.559   1.054
    1TCM     h1 3507   0.707   0.722   0.999
    1TCM    cl3 3508   0.540   0.744   0.830
    1TCM     c1 3509   5.079   2.179   3.242
    1TCM    cl1 3510   5.000   2.303   3.342
    1TCM    cl2 3511   5.093   2.237   3.075
    1TCM     h1 3512   5.180   2.157   3.282
    1TCM    cl3 3513   4.981   2.030   3.244
    1TCM     c1 3514   2.502   1.014   3.494
    1TCM    cl1 3515   2.631   1.016   3.371
    1TCM    cl2 3516   2.565   1.077   3.648
    1TCM     h1 3517   2.418   1.078   3.460
    1TCM    cl3 3518   2.444   0.848   3.517
    1TCM     c1 3519   5.075   1.021   2.252
    1TCM    cl1 3520   5.195   1.146   2.211
    1TCM    cl2 3521   5.133   0.862   2.195
    1TCM     h1 3522   5.061   1.018   2.362
    1TCM    cl3 3523   4.920   1.059   2.173
    1TCM     c1 3524   3.976   0.490   4.529
    1TCM    cl1 3525   3.833   0.445   4.626
    1TCM    cl2 3526   4.004   0.665   4.543
    1TCM     h1 3527   4.065   0.435   4.567
    1TCM    cl3 3528   3.947   0.447   4.359
    1TCM     c1 3529   5.112   0.885   5.065
    1TCM    cl1 3530   5.207   0.802   4.940
    1TCM    cl2 3531   5.190   0.861   5.224
    1TCM     h1 3532   5.106   0.993   5.043
    1TCM    cl3 3533   4.948   0.817   5.070
    1TCM     c1 3534   2.910   0.626   1.531
    1TCM    cl1 3535   3.061   0.719   1.524
    1TCM    cl2 3536   2.806   0.692   1.659
    1TCM     h1 3537   2.857   0.633   1.433
    1TCM    cl3 3538   2.946   0.456   1.566
    1TCM     c1 3539   2.125   1.387   3.823
    1TCM    cl1 3540   2.135   1.399   4.000
    1TCM    cl2 3541   2.137   1.217   3.774
    1TCM     h1 3542   2.028   1.429   3.789
    1TCM    cl3 3543   2.259   1.479   3.750
   5.54000   5.54000   5.54000
