Generated by Interchange
197
    1MOP     C1    1  -0.314  -0.504   0.007
    1MOP     O2    2  -0.405  -0.539  -0.072
    1MOP     C3    3  -0.283  -0.360   0.009
    1MOP     C4    4  -0.178  -0.302   0.098
    1MOP     C5    5  -0.149  -0.160   0.102
    1MOP     C6    6  -0.219  -0.064   0.016
    1MOP     C7    7  -0.188   0.079   0.013
    1MOP     C8    8  -0.050   0.132  -0.014
    1MOP     C9    9  -0.027   0.277  -0.002
    1MOP    C10   10  -0.134   0.369   0.022
    1MOP    O11   11  -0.098   0.501   0.024
    1MOP    C12   12  -0.200   0.595   0.051
    1MOP    C13   13  -0.270   0.321   0.037
    1MOP    C14   14  -0.296   0.178   0.033
    1MOP    C15   15   0.063   0.045  -0.051
    1MOP    C16   16   0.058  -0.046  -0.166
    1MOP    C17   17   0.170  -0.132  -0.200
    1MOP    C18   18   0.291  -0.128  -0.120
    1MOP    C19   19   0.299  -0.039  -0.003
    1MOP    C20   20   0.186   0.046   0.030
    1MOP    C21   21   0.411  -0.052   0.098
    1MOP    N22   22   0.422  -0.187   0.156
    1MOP    C23   23   0.542  -0.016   0.025
    1MOP    C24   24  -0.320  -0.120  -0.076
    1MOP    C25   25  -0.349  -0.261  -0.079
    1MOP    H26   26  -0.114  -0.369   0.155
    1MOP    H27   27  -0.063  -0.128   0.160
    1MOP    H28   28   0.075   0.314  -0.013
    1MOP    H29   29  -0.154   0.695   0.053
    1MOP    H30   30  -0.245   0.578   0.150
    1MOP    H31   31  -0.276   0.594  -0.028
    1MOP    H32   32  -0.353   0.386   0.059
    1MOP    H33   33  -0.396   0.141   0.050
    1MOP    H34   34  -0.036  -0.060  -0.218
    1MOP    H35   35   0.153  -0.217  -0.264
    1MOP    H36   36   0.358  -0.213  -0.124
    1MOP    H37   37   0.184   0.094   0.127
    1MOP    H38   38   0.399   0.022   0.178
    1MOP    H39   39   0.417  -0.254   0.081
    1MOP    H40   40   0.568  -0.090  -0.051
    1MOP    H41   41   0.626  -0.008   0.095
    1MOP    H42   42   0.532   0.081  -0.025
    1MOP    H43   43  -0.370  -0.055  -0.146
    1MOP    H44   44  -0.423  -0.298  -0.148
    2MOP    C45   45   0.308  -0.218   0.236
    2MOP    O46   46   0.235  -0.309   0.190
    2MOP    C47   47   0.305  -0.193   0.380
    2MOP    C48   48   0.422  -0.140   0.452
    2MOP    C49   49   0.424  -0.123   0.596
    2MOP    C50   50   0.305  -0.151   0.677
    2MOP    C51   51   0.303  -0.126   0.822
    2MOP    C52   52   0.337   0.007   0.881
    2MOP    C53   53   0.345   0.018   1.027
    2MOP    C54   54   0.311  -0.093   1.113
    2MOP    O55   55   0.317  -0.064   1.248
    2MOP    C56   56   0.289  -0.171   1.337
    2MOP    C57   57   0.270  -0.219   1.057
    2MOP    C58   58   0.264  -0.235   0.913
    2MOP    C59   59   0.361   0.128   0.801
    2MOP    C60   60   0.263   0.176   0.702
    2MOP    C61   61   0.289   0.294   0.622
    2MOP    C62   62   0.413   0.368   0.638
    2MOP    C63   63   0.513   0.322   0.736
    2MOP    C64   64   0.487   0.203   0.815
    2MOP    C65   65   0.653   0.381   0.739
    2MOP    N66   66   0.724   0.370   0.610
    2MOP    C67   67   0.640   0.528   0.779
    2MOP    C68   68   0.185  -0.198   0.607
    2MOP    C69   69   0.185  -0.217   0.463
    2MOP    H70   70   0.508  -0.106   0.395
    2MOP    H71   71   0.511  -0.073   0.639
    2MOP    H72   72   0.374   0.113   1.071
    2MOP    H73   73   0.301  -0.132   1.438
    2MOP    H74   74   0.360  -0.253   1.323
    2MOP    H75   75   0.186  -0.205   1.325
    2MOP    H76   76   0.251  -0.307   1.117
    2MOP    H77   77   0.241  -0.331   0.870
    2MOP    H78   78   0.177   0.115   0.678
    2MOP    H79   79   0.231   0.310   0.532
    2MOP    H80   80   0.446   0.432   0.557
    2MOP    H81   81   0.570   0.156   0.866
    2MOP    H82   82   0.712   0.333   0.817
    2MOP    H83   83   0.660   0.401   0.537
    2MOP    H84   84   0.590   0.588   0.701
    2MOP    H85   85   0.738   0.573   0.799
    2MOP    H86   86   0.580   0.538   0.870
    2MOP    H87   87   0.093  -0.211   0.661
    2MOP    H88   88   0.096  -0.253   0.414
    3MOP    C89   89   0.749   0.235   0.575
    3MOP    O90   90   0.685   0.194   0.475
    3MOP    C91   91   0.874   0.166   0.609
    3MOP    C92   92   0.985   0.238   0.673
    3MOP    C93   93   1.113   0.174   0.700
    3MOP    C94   94   1.135   0.032   0.670
    3MOP    C95   95   1.261  -0.035   0.704
    3MOP    C96   96   1.317  -0.036   0.843
    3MOP    C97   97   1.451  -0.092   0.863
    3MOP    C98   98   1.524  -0.156   0.756
    3MOP    O99   99   1.644  -0.209   0.793
    3MOP   C100  100   1.721  -0.270   0.691
    3MOP   C101  101   1.467  -0.164   0.624
    3MOP   C102  102   1.337  -0.103   0.598
    3MOP   C103  103   1.244   0.017   0.959
    3MOP   C104  104   1.108  -0.027   0.993
    3MOP   C105  105   1.036   0.030   1.106
    3MOP   C106  106   1.099   0.131   1.188
    3MOP   C107  107   1.235   0.178   1.156
    3MOP   C108  108   1.305   0.121   1.043
    3MOP   C109  109   1.293   0.300   1.223
    3MOP   N110  110   1.210   0.421   1.209
    3MOP   C111  111   1.312   0.268   1.372
    3MOP   C112  112   1.024  -0.041   0.609
    3MOP   C113  113   0.897   0.023   0.582
    3MOP   H114  114   0.970   0.339   0.708
    3MOP   H115  115   1.185   0.231   0.758
    3MOP   H116  116   1.496  -0.085   0.962
    3MOP   H117  117   1.814  -0.304   0.736
    3MOP   H118  118   1.747  -0.197   0.612
    3MOP   H119  119   1.669  -0.357   0.649
    3MOP   H120  120   1.519  -0.207   0.541
    3MOP   H121  121   1.299  -0.099   0.496
    3MOP   H122  122   1.054  -0.092   0.925
    3MOP   H123  123   0.928   0.020   1.109
    3MOP   H124  124   1.036   0.194   1.249
    3MOP   H125  125   1.393   0.173   1.006
    3MOP   H126  126   1.394   0.321   1.184
    3MOP   H127  127   1.115   0.396   1.233
    3MOP   H128  128   1.216   0.252   1.423
    3MOP   H129  129   1.366   0.347   1.424
    3MOP   H130  130   1.370   0.175   1.384
    3MOP   H131  131   1.033  -0.148   0.591
    3MOP   H132  132   0.816  -0.034   0.538
    4MOP   C133  133   1.198   0.462   1.072
    4MOP   O134  134   1.083   0.451   1.025
    4MOP   C135  135   1.286   0.562   1.012
    4MOP   C136  136   1.385   0.632   1.093
    4MOP   C137  137   1.476   0.727   1.034
    4MOP   C138  138   1.465   0.773   0.896
    4MOP   C139  139   1.558   0.874   0.842
    4MOP   C140  140   1.707   0.864   0.859
    4MOP   C141  141   1.788   0.978   0.815
    4MOP   C142  142   1.730   1.092   0.751
    4MOP   O143  143   1.822   1.188   0.712
    4MOP   C144  144   1.772   1.302   0.648
    4MOP   C145  145   1.588   1.101   0.730
    4MOP   C146  146   1.503   0.993   0.776
    4MOP   C147  147   1.776   0.747   0.916
    4MOP   C148  148   1.754   0.611   0.865
    4MOP   C149  149   1.818   0.496   0.927
    4MOP   C150  150   1.907   0.515   1.040
    4MOP   C151  151   1.932   0.649   1.093
    4MOP   C152  152   1.867   0.763   1.030
    4MOP   C153  153   2.011   0.673   1.220
    4MOP   N154  154   1.953   0.612   1.339
    4MOP   C155  155   2.154   0.620   1.198
    4MOP   C156  156   1.366   0.704   0.813
    4MOP   C157  157   1.281   0.600   0.869
    4MOP   H158  158   1.402   0.598   1.195
    4MOP   H159  159   1.571   0.736   1.082
    4MOP   H160  160   1.896   0.972   0.828
    4MOP   H161  161   1.856   1.366   0.622
    4MOP   H162  162   1.706   1.359   0.715
    4MOP   H163  163   1.719   1.276   0.555
    4MOP   H164  164   1.540   1.188   0.687
    4MOP   H165  165   1.395   1.003   0.770
    4MOP   H166  166   1.674   0.593   0.794
    4MOP   H167  167   1.780   0.397   0.905
    4MOP   H168  168   1.933   0.428   1.101
    4MOP   H169  169   1.867   0.857   1.084
    4MOP   H170  170   2.022   0.780   1.237
    4MOP   H171  171   1.935   0.513   1.326
    4MOP   H172  172   2.157   0.512   1.182
    4MOP   H173  173   2.218   0.643   1.284
    4MOP   H174  174   2.199   0.668   1.110
    4MOP   H175  175   1.363   0.722   0.707
    4MOP   H176  176   1.212   0.546   0.805
    5CAP   C177  177  -0.300  -0.705   0.122
    5CAP   O178  178  -0.244  -0.579   0.099
    5CAP   H179  179  -0.399  -0.693   0.167
    5CAP   H180  180  -0.237  -0.760   0.194
    5CAP   H181  181  -0.306  -0.765   0.031
    6CAP   C182  182   1.717   1.017   1.408
    6CAP   C183  183   1.688   0.866   1.412
    6CAP   C184  184   1.629   0.828   1.548
    6CAP   C185  185   1.586   0.844   1.303
    6CAP   O186  186   1.815   0.804   1.383
    6CAP   C187  187   1.828   0.666   1.380
    6CAP   O188  188   1.751   0.573   1.410
    6CAP   H189  189   1.626   1.076   1.426
    6CAP   H190  190   1.793   1.045   1.482
    6CAP   H191  191   1.757   1.047   1.310
    6CAP   H192  192   1.704   0.839   1.627
    6CAP   H193  193   1.594   0.725   1.550
    6CAP   H194  194   1.542   0.890   1.571
    6CAP   H195  195   1.628   0.876   1.207
    6CAP   H196  196   1.558   0.738   1.297
    6CAP   H197  197   1.494   0.901   1.318
  5.0000000  5.0000000  5.0000000
