Generated by Interchange
197
    1MOP     C1    1  -0.289  -0.616  -0.112
    1MOP     O2    2  -0.379  -0.633  -0.192
    1MOP     C3    3  -0.248  -0.484  -0.059
    1MOP     C4    4  -0.151  -0.472   0.042
    1MOP     C5    5  -0.131  -0.351   0.106
    1MOP     C6    6  -0.205  -0.239   0.068
    1MOP     C7    7  -0.184  -0.111   0.135
    1MOP     C8    8  -0.062  -0.041   0.125
    1MOP     C9    9  -0.056   0.087   0.184
    1MOP    C10   10  -0.165   0.143   0.250
    1MOP    O11   11  -0.155   0.275   0.287
    1MOP    C12   12  -0.280   0.343   0.281
    1MOP    C13   13  -0.279   0.067   0.272
    1MOP    C14   14  -0.289  -0.059   0.213
    1MOP    C15   15   0.057  -0.093   0.052
    1MOP    C16   16   0.052  -0.126  -0.084
    1MOP    C17   17   0.166  -0.165  -0.154
    1MOP    C18   18   0.288  -0.176  -0.088
    1MOP    C19   19   0.297  -0.150   0.050
    1MOP    C20   20   0.179  -0.111   0.118
    1MOP    C21   21   0.428  -0.175   0.125
    1MOP    N22   22   0.433  -0.126   0.263
    1MOP    C23   23   0.559  -0.146   0.050
    1MOP    C24   24  -0.298  -0.249  -0.036
    1MOP    C25   25  -0.320  -0.371  -0.100
    1MOP    H26   26  -0.093  -0.558   0.074
    1MOP    H27   27  -0.058  -0.344   0.186
    1MOP    H28   28   0.034   0.146   0.173
    1MOP    H29   29  -0.261   0.450   0.270
    1MOP    H30   30  -0.335   0.326   0.373
    1MOP    H31   31  -0.341   0.315   0.195
    1MOP    H32   32  -0.363   0.104   0.330
    1MOP    H33   33  -0.381  -0.116   0.226
    1MOP    H34   34  -0.042  -0.121  -0.139
    1MOP    H35   35   0.160  -0.186  -0.260
    1MOP    H36   36   0.375  -0.207  -0.145
    1MOP    H37   37   0.181  -0.095   0.225
    1MOP    H38   38   0.427  -0.284   0.139
    1MOP    H39   39   0.453  -0.196   0.333
    1MOP    H40   40   0.630  -0.090   0.111
    1MOP    H41   41   0.545  -0.092  -0.044
    1MOP    H42   42   0.610  -0.240   0.024
    1MOP    H43   43  -0.355  -0.161  -0.068
    1MOP    H44   44  -0.396  -0.378  -0.178
    2MOP    C45   45   0.414  -0.003   0.322
    2MOP    O46   46   0.420   0.005   0.444
    2MOP    C47   47   0.377   0.118   0.244
    2MOP    C48   48   0.432   0.147   0.120
    2MOP    C49   49   0.385   0.253   0.044
    2MOP    C50   50   0.285   0.338   0.094
    2MOP    C51   51   0.245   0.453   0.014
    2MOP    C52   52   0.188   0.443  -0.115
    2MOP    C53   53   0.156   0.564  -0.180
    2MOP    C54   54   0.180   0.690  -0.125
    2MOP    O55   55   0.135   0.796  -0.199
    2MOP    C56   56   0.104   0.915  -0.128
    2MOP    C57   57   0.242   0.699  -0.002
    2MOP    C58   58   0.273   0.582   0.067
    2MOP    C59   59   0.146   0.318  -0.185
    2MOP    C60   60   0.047   0.237  -0.130
    2MOP    C61   61  -0.024   0.147  -0.208
    2MOP    C62   62   0.011   0.123  -0.340
    2MOP    C63   63   0.118   0.192  -0.398
    2MOP    C64   64   0.185   0.288  -0.317
    2MOP    C65   65   0.166   0.158  -0.538
    2MOP    N66   66   0.245   0.263  -0.602
    2MOP    C67   67   0.067   0.099  -0.641
    2MOP    C68   68   0.237   0.314   0.224
    2MOP    C69   69   0.281   0.205   0.298
    2MOP    H70   70   0.513   0.090   0.079
    2MOP    H71   71   0.427   0.271  -0.054
    2MOP    H72   72   0.106   0.558  -0.276
    2MOP    H73   73   0.027   0.968  -0.185
    2MOP    H74   74   0.192   0.979  -0.123
    2MOP    H75   75   0.064   0.897  -0.028
    2MOP    H76   76   0.266   0.794   0.044
    2MOP    H77   77   0.320   0.590   0.165
    2MOP    H78   78   0.017   0.251  -0.027
    2MOP    H79   79  -0.110   0.094  -0.165
    2MOP    H80   80  -0.046   0.048  -0.395
    2MOP    H81   81   0.267   0.346  -0.359
    2MOP    H82   82   0.238   0.078  -0.521
    2MOP    H83   83   0.336   0.234  -0.637
    2MOP    H84   84   0.049   0.167  -0.725
    2MOP    H85   85  -0.030   0.070  -0.600
    2MOP    H86   86   0.110   0.009  -0.686
    2MOP    H87   87   0.161   0.380   0.267
    2MOP    H88   88   0.240   0.186   0.397
    3MOP    C89   89   0.222   0.396  -0.630
    3MOP    O90   90   0.312   0.458  -0.687
    3MOP    C91   91   0.100   0.469  -0.585
    3MOP    C92   92  -0.028   0.416  -0.583
    3MOP    C93   93  -0.135   0.488  -0.528
    3MOP    C94   94  -0.118   0.616  -0.476
    3MOP    C95   95  -0.231   0.691  -0.415
    3MOP    C96   96  -0.330   0.630  -0.333
    3MOP    C97   97  -0.436   0.712  -0.287
    3MOP    C98   98  -0.440   0.849  -0.307
    3MOP    O99   99  -0.543   0.915  -0.246
    3MOP   C100  100  -0.514   1.047  -0.201
    3MOP   C101  101  -0.341   0.909  -0.383
    3MOP   C102  102  -0.240   0.830  -0.438
    3MOP   C103  103  -0.318   0.498  -0.264
    3MOP   C104  104  -0.212   0.482  -0.176
    3MOP   C105  105  -0.214   0.387  -0.077
    3MOP   C106  106  -0.313   0.290  -0.074
    3MOP   C107  107  -0.421   0.297  -0.162
    3MOP   C108  108  -0.421   0.402  -0.258
    3MOP   C109  109  -0.532   0.193  -0.152
    3MOP   N110  110  -0.661   0.240  -0.201
    3MOP   C111  111  -0.555   0.119  -0.019
    3MOP   C112  112   0.011   0.673  -0.488
    3MOP   C113  113   0.118   0.600  -0.541
    3MOP   H114  114  -0.050   0.318  -0.621
    3MOP   H115  115  -0.233   0.441  -0.527
    3MOP   H116  116  -0.511   0.668  -0.222
    3MOP   H117  117  -0.593   1.077  -0.132
    3MOP   H118  118  -0.514   1.117  -0.285
    3MOP   H119  119  -0.419   1.051  -0.146
    3MOP   H120  120  -0.341   1.016  -0.402
    3MOP   H121  121  -0.166   0.880  -0.500
    3MOP   H122  122  -0.128   0.552  -0.180
    3MOP   H123  123  -0.136   0.387  -0.001
    3MOP   H124  124  -0.303   0.211  -0.002
    3MOP   H125  125  -0.506   0.412  -0.326
    3MOP   H126  126  -0.502   0.116  -0.225
    3MOP   H127  127  -0.712   0.174  -0.259
    3MOP   H128  128  -0.648   0.149   0.030
    3MOP   H129  129  -0.476   0.130   0.055
    3MOP   H130  130  -0.566   0.011  -0.038
    3MOP   H131  131   0.032   0.772  -0.449
    3MOP   H132  132   0.217   0.646  -0.543
    4MOP   C133  133  -0.743   0.343  -0.161
    4MOP   O134  134  -0.858   0.343  -0.205
    4MOP   C135  135  -0.698   0.458  -0.078
    4MOP   C136  136  -0.616   0.454   0.035
    4MOP   C137  137  -0.576   0.573   0.101
    4MOP   C138  138  -0.620   0.699   0.058
    4MOP   C139  139  -0.589   0.827   0.129
    4MOP   C140  140  -0.463   0.870   0.179
    4MOP   C141  141  -0.453   1.000   0.237
    4MOP   C142  142  -0.562   1.087   0.245
    4MOP   O143  143  -0.534   1.210   0.297
    4MOP   C144  144  -0.635   1.309   0.283
    4MOP   C145  145  -0.685   1.044   0.201
    4MOP   C146  146  -0.698   0.916   0.146
    4MOP   C147  147  -0.335   0.798   0.168
    4MOP   C148  148  -0.277   0.778   0.043
    4MOP   C149  149  -0.151   0.722   0.032
    4MOP   C150  150  -0.082   0.676   0.145
    4MOP   C151  151  -0.133   0.697   0.272
    4MOP   C152  152  -0.258   0.763   0.282
    4MOP   C153  153  -0.052   0.650   0.393
    4MOP   N154  154  -0.128   0.562   0.480
    4MOP   C155  155   0.020   0.764   0.463
    4MOP   C156  156  -0.706   0.700  -0.053
    4MOP   C157  157  -0.744   0.583  -0.120
    4MOP   H158  158  -0.580   0.360   0.075
    4MOP   H159  159  -0.511   0.565   0.188
    4MOP   H160  160  -0.357   1.035   0.272
    4MOP   H161  161  -0.594   1.403   0.321
    4MOP   H162  162  -0.722   1.284   0.344
    4MOP   H163  163  -0.662   1.323   0.178
    4MOP   H164  164  -0.774   1.106   0.207
    4MOP   H165  165  -0.798   0.886   0.113
    4MOP   H166  166  -0.328   0.812  -0.047
    4MOP   H167  167  -0.105   0.714  -0.066
    4MOP   H168  168   0.012   0.624   0.131
    4MOP   H169  169  -0.296   0.790   0.379
    4MOP   H170  170   0.027   0.584   0.355
    4MOP   H171  171  -0.140   0.468   0.445
    4MOP   H172  172  -0.048   0.838   0.505
    4MOP   H173  173   0.088   0.816   0.394
    4MOP   H174  174   0.082   0.725   0.545
    4MOP   H175  175  -0.742   0.794  -0.094
    4MOP   H176  176  -0.809   0.591  -0.208
    5CAP   C177  177  -0.301  -0.829  -0.020
    5CAP   O178  178  -0.224  -0.712  -0.041
    5CAP   H179  179  -0.390  -0.804   0.039
    5CAP   H180  180  -0.240  -0.898   0.039
    5CAP   H181  181  -0.329  -0.876  -0.114
    6CAP   C182  182  -0.556   0.436   0.508
    6CAP   C183  183  -0.471   0.548   0.572
    6CAP   C184  184  -0.518   0.680   0.510
    6CAP   C185  185  -0.491   0.546   0.723
    6CAP   O186  186  -0.334   0.515   0.539
    6CAP   C187  187  -0.234   0.605   0.553
    6CAP   O188  188  -0.242   0.712   0.611
    6CAP   H189  189  -0.663   0.449   0.528
    6CAP   H190  190  -0.542   0.435   0.399
    6CAP   H191  191  -0.525   0.338   0.544
    6CAP   H192  192  -0.501   0.680   0.402
    6CAP   H193  193  -0.466   0.767   0.551
    6CAP   H194  194  -0.625   0.696   0.527
    6CAP   H195  195  -0.462   0.449   0.765
    6CAP   H196  196  -0.428   0.622   0.772
    6CAP   H197  197  -0.595   0.566   0.750
  5.0000000  5.0000000  5.0000000
