[ defaults ]
; nbfunc	comb-rule	gen-pairs	fudgeLJ	fudgeQQ
     1	     2	yes   	0.500000	0.833333

[ atomtypes ]
;type, bondingtype, atomic_number, mass, charge, ptype, sigma, epsilon
mop_tetramer.pdb_0	     6	12.01078	0.0000000000000000	A    	0.3480646886945065	0.3635030558377792
mop_tetramer.pdb_1	     8	15.99943	0.0000000000000000	A    	0.3039812205065809	0.8795023257036865
mop_tetramer.pdb_2	     6	12.01078	0.0000000000000000	A    	0.3480646886945065	0.3635030558377792
mop_tetramer.pdb_3	     6	12.01078	0.0000000000000000	A    	0.3480646886945065	0.3635030558377792
mop_tetramer.pdb_4	     6	12.01078	0.0000000000000000	A    	0.3480646886945065	0.3635030558377792
mop_tetramer.pdb_5	     6	12.01078	0.0000000000000000	A    	0.3480646886945065	0.3635030558377792
mop_tetramer.pdb_6	     6	12.01078	0.0000000000000000	A    	0.3480646886945065	0.3635030558377792
mop_tetramer.pdb_7	     6	12.01078	0.0000000000000000	A    	0.3480646886945065	0.3635030558377792
mop_tetramer.pdb_8	     6	12.01078	0.0000000000000000	A    	0.3480646886945065	0.3635030558377792
mop_tetramer.pdb_9	     6	12.01078	0.0000000000000000	A    	0.3480646886945065	0.3635030558377792
mop_tetramer.pdb_10	     8	15.99943	0.0000000000000000	A    	0.3025106490435313	0.7048581468486769
mop_tetramer.pdb_11	     6	12.01078	0.0000000000000000	A    	0.337953176162662	0.4553891161106184
mop_tetramer.pdb_12	     6	12.01078	0.0000000000000000	A    	0.3480646886945065	0.3635030558377792
mop_tetramer.pdb_13	     6	12.01078	0.0000000000000000	A    	0.3480646886945065	0.3635030558377792
mop_tetramer.pdb_14	     6	12.01078	0.0000000000000000	A    	0.3480646886945065	0.3635030558377792
mop_tetramer.pdb_15	     6	12.01078	0.0000000000000000	A    	0.3480646886945065	0.3635030558377792
mop_tetramer.pdb_16	     6	12.01078	0.0000000000000000	A    	0.3480646886945065	0.3635030558377792
mop_tetramer.pdb_17	     6	12.01078	0.0000000000000000	A    	0.3480646886945065	0.3635030558377792
mop_tetramer.pdb_18	     6	12.01078	0.0000000000000000	A    	0.3480646886945065	0.3635030558377792
mop_tetramer.pdb_19	     6	12.01078	0.0000000000000000	A    	0.3480646886945065	0.3635030558377792
mop_tetramer.pdb_20	     6	12.01078	0.0000000000000000	A    	0.337953176162662	0.4553891161106184
mop_tetramer.pdb_21	     7	14.00672	0.0000000000000000	A    	0.3206876023663901	0.7016212989374017
mop_tetramer.pdb_22	     6	12.01078	0.0000000000000000	A    	0.337953176162662	0.4553891161106184
mop_tetramer.pdb_23	     6	12.01078	0.0000000000000000	A    	0.3480646886945065	0.3635030558377792
mop_tetramer.pdb_24	     6	12.01078	0.0000000000000000	A    	0.3480646886945065	0.3635030558377792
mop_tetramer.pdb_25	     1	1.007947	0.0000000000000000	A    	0.2572581535063279	0.06531785996356952
mop_tetramer.pdb_26	     1	1.007947	0.0000000000000000	A    	0.2572581535063279	0.06531785996356952
mop_tetramer.pdb_27	     1	1.007947	0.0000000000000000	A    	0.2572581535063279	0.06531785996356952
mop_tetramer.pdb_28	     1	1.007947	0.0000000000000000	A    	0.2583225710839196	0.068656285380106
mop_tetramer.pdb_29	     1	1.007947	0.0000000000000000	A    	0.2583225710839196	0.068656285380106
mop_tetramer.pdb_30	     1	1.007947	0.0000000000000000	A    	0.2583225710839196	0.068656285380106
mop_tetramer.pdb_31	     1	1.007947	0.0000000000000000	A    	0.2572581535063279	0.06531785996356952
mop_tetramer.pdb_32	     1	1.007947	0.0000000000000000	A    	0.2572581535063279	0.06531785996356952
mop_tetramer.pdb_33	     1	1.007947	0.0000000000000000	A    	0.2572581535063279	0.06531785996356952
mop_tetramer.pdb_34	     1	1.007947	0.0000000000000000	A    	0.2572581535063279	0.06531785996356952
mop_tetramer.pdb_35	     1	1.007947	0.0000000000000000	A    	0.2572581535063279	0.06531785996356952
mop_tetramer.pdb_36	     1	1.007947	0.0000000000000000	A    	0.2572581535063279	0.06531785996356952
mop_tetramer.pdb_37	     1	1.007947	0.0000000000000000	A    	0.2583225710839196	0.068656285380106
mop_tetramer.pdb_38	     1	1.007947	0.0000000000000000	A    	0.1103427677297317	0.05895596890015097
mop_tetramer.pdb_39	     1	1.007947	0.0000000000000000	A    	0.2644543413268124	0.06602135607582665
mop_tetramer.pdb_40	     1	1.007947	0.0000000000000000	A    	0.2644543413268124	0.06602135607582665
mop_tetramer.pdb_41	     1	1.007947	0.0000000000000000	A    	0.2644543413268124	0.06602135607582665
mop_tetramer.pdb_42	     1	1.007947	0.0000000000000000	A    	0.2572581535063279	0.06531785996356952
mop_tetramer.pdb_43	     1	1.007947	0.0000000000000000	A    	0.2572581535063279	0.06531785996356952
mop_tetramer.pdb_44	     6	12.01078	0.0000000000000000	A    	0.3480646886945065	0.3635030558377792
mop_tetramer.pdb_45	     8	15.99943	0.0000000000000000	A    	0.3039812205065809	0.8795023257036865
mop_tetramer.pdb_46	     6	12.01078	0.0000000000000000	A    	0.3480646886945065	0.3635030558377792
mop_tetramer.pdb_47	     6	12.01078	0.0000000000000000	A    	0.3480646886945065	0.3635030558377792
mop_tetramer.pdb_48	     6	12.01078	0.0000000000000000	A    	0.3480646886945065	0.3635030558377792
mop_tetramer.pdb_49	     6	12.01078	0.0000000000000000	A    	0.3480646886945065	0.3635030558377792
mop_tetramer.pdb_50	     6	12.01078	0.0000000000000000	A    	0.3480646886945065	0.3635030558377792
mop_tetramer.pdb_51	     6	12.01078	0.0000000000000000	A    	0.3480646886945065	0.3635030558377792
mop_tetramer.pdb_52	     6	12.01078	0.0000000000000000	A    	0.3480646886945065	0.3635030558377792
mop_tetramer.pdb_53	     6	12.01078	0.0000000000000000	A    	0.3480646886945065	0.3635030558377792
mop_tetramer.pdb_54	     8	15.99943	0.0000000000000000	A    	0.3025106490435313	0.7048581468486769
mop_tetramer.pdb_55	     6	12.01078	0.0000000000000000	A    	0.337953176162662	0.4553891161106184
mop_tetramer.pdb_56	     6	12.01078	0.0000000000000000	A    	0.3480646886945065	0.3635030558377792
mop_tetramer.pdb_57	     6	12.01078	0.0000000000000000	A    	0.3480646886945065	0.3635030558377792
mop_tetramer.pdb_58	     6	12.01078	0.0000000000000000	A    	0.3480646886945065	0.3635030558377792
mop_tetramer.pdb_59	     6	12.01078	0.0000000000000000	A    	0.3480646886945065	0.3635030558377792
mop_tetramer.pdb_60	     6	12.01078	0.0000000000000000	A    	0.3480646886945065	0.3635030558377792
mop_tetramer.pdb_61	     6	12.01078	0.0000000000000000	A    	0.3480646886945065	0.3635030558377792
mop_tetramer.pdb_62	     6	12.01078	0.0000000000000000	A    	0.3480646886945065	0.3635030558377792
mop_tetramer.pdb_63	     6	12.01078	0.0000000000000000	A    	0.3480646886945065	0.3635030558377792
mop_tetramer.pdb_64	     6	12.01078	0.0000000000000000	A    	0.337953176162662	0.4553891161106184
mop_tetramer.pdb_65	     7	14.00672	0.0000000000000000	A    	0.3206876023663901	0.7016212989374017
mop_tetramer.pdb_66	     6	12.01078	0.0000000000000000	A    	0.337953176162662	0.4553891161106184
mop_tetramer.pdb_67	     6	12.01078	0.0000000000000000	A    	0.3480646886945065	0.3635030558377792
mop_tetramer.pdb_68	     6	12.01078	0.0000000000000000	A    	0.3480646886945065	0.3635030558377792
mop_tetramer.pdb_69	     1	1.007947	0.0000000000000000	A    	0.2572581535063279	0.06531785996356952
mop_tetramer.pdb_70	     1	1.007947	0.0000000000000000	A    	0.2572581535063279	0.06531785996356952
mop_tetramer.pdb_71	     1	1.007947	0.0000000000000000	A    	0.2572581535063279	0.06531785996356952
mop_tetramer.pdb_72	     1	1.007947	0.0000000000000000	A    	0.2583225710839196	0.068656285380106
mop_tetramer.pdb_73	     1	1.007947	0.0000000000000000	A    	0.2583225710839196	0.068656285380106
mop_tetramer.pdb_74	     1	1.007947	0.0000000000000000	A    	0.2583225710839196	0.068656285380106
mop_tetramer.pdb_75	     1	1.007947	0.0000000000000000	A    	0.2572581535063279	0.06531785996356952
mop_tetramer.pdb_76	     1	1.007947	0.0000000000000000	A    	0.2572581535063279	0.06531785996356952
mop_tetramer.pdb_77	     1	1.007947	0.0000000000000000	A    	0.2572581535063279	0.06531785996356952
mop_tetramer.pdb_78	     1	1.007947	0.0000000000000000	A    	0.2572581535063279	0.06531785996356952
mop_tetramer.pdb_79	     1	1.007947	0.0000000000000000	A    	0.2572581535063279	0.06531785996356952
mop_tetramer.pdb_80	     1	1.007947	0.0000000000000000	A    	0.2572581535063279	0.06531785996356952
mop_tetramer.pdb_81	     1	1.007947	0.0000000000000000	A    	0.2583225710839196	0.068656285380106
mop_tetramer.pdb_82	     1	1.007947	0.0000000000000000	A    	0.1103427677297317	0.05895596890015097
mop_tetramer.pdb_83	     1	1.007947	0.0000000000000000	A    	0.2644543413268124	0.06602135607582665
mop_tetramer.pdb_84	     1	1.007947	0.0000000000000000	A    	0.2644543413268124	0.06602135607582665
mop_tetramer.pdb_85	     1	1.007947	0.0000000000000000	A    	0.2644543413268124	0.06602135607582665
mop_tetramer.pdb_86	     1	1.007947	0.0000000000000000	A    	0.2572581535063279	0.06531785996356952
mop_tetramer.pdb_87	     1	1.007947	0.0000000000000000	A    	0.2572581535063279	0.06531785996356952
mop_tetramer.pdb_88	     6	12.01078	0.0000000000000000	A    	0.3480646886945065	0.3635030558377792
mop_tetramer.pdb_89	     8	15.99943	0.0000000000000000	A    	0.3039812205065809	0.8795023257036865
mop_tetramer.pdb_90	     6	12.01078	0.0000000000000000	A    	0.3480646886945065	0.3635030558377792
mop_tetramer.pdb_91	     6	12.01078	0.0000000000000000	A    	0.3480646886945065	0.3635030558377792
mop_tetramer.pdb_92	     6	12.01078	0.0000000000000000	A    	0.3480646886945065	0.3635030558377792
mop_tetramer.pdb_93	     6	12.01078	0.0000000000000000	A    	0.3480646886945065	0.3635030558377792
mop_tetramer.pdb_94	     6	12.01078	0.0000000000000000	A    	0.3480646886945065	0.3635030558377792
mop_tetramer.pdb_95	     6	12.01078	0.0000000000000000	A    	0.3480646886945065	0.3635030558377792
mop_tetramer.pdb_96	     6	12.01078	0.0000000000000000	A    	0.3480646886945065	0.3635030558377792
mop_tetramer.pdb_97	     6	12.01078	0.0000000000000000	A    	0.3480646886945065	0.3635030558377792
mop_tetramer.pdb_98	     8	15.99943	0.0000000000000000	A    	0.3025106490435313	0.7048581468486769
mop_tetramer.pdb_99	     6	12.01078	0.0000000000000000	A    	0.337953176162662	0.4553891161106184
mop_tetramer.pdb_100	     6	12.01078	0.0000000000000000	A    	0.3480646886945065	0.3635030558377792
mop_tetramer.pdb_101	     6	12.01078	0.0000000000000000	A    	0.3480646886945065	0.3635030558377792
mop_tetramer.pdb_102	     6	12.01078	0.0000000000000000	A    	0.3480646886945065	0.3635030558377792
mop_tetramer.pdb_103	     6	12.01078	0.0000000000000000	A    	0.3480646886945065	0.3635030558377792
mop_tetramer.pdb_104	     6	12.01078	0.0000000000000000	A    	0.3480646886945065	0.3635030558377792
mop_tetramer.pdb_105	     6	12.01078	0.0000000000000000	A    	0.3480646886945065	0.3635030558377792
mop_tetramer.pdb_106	     6	12.01078	0.0000000000000000	A    	0.3480646886945065	0.3635030558377792
mop_tetramer.pdb_107	     6	12.01078	0.0000000000000000	A    	0.3480646886945065	0.3635030558377792
mop_tetramer.pdb_108	     6	12.01078	0.0000000000000000	A    	0.337953176162662	0.4553891161106184
mop_tetramer.pdb_109	     7	14.00672	0.0000000000000000	A    	0.3206876023663901	0.7016212989374017
mop_tetramer.pdb_110	     6	12.01078	0.0000000000000000	A    	0.337953176162662	0.4553891161106184
mop_tetramer.pdb_111	     6	12.01078	0.0000000000000000	A    	0.3480646886945065	0.3635030558377792
mop_tetramer.pdb_112	     6	12.01078	0.0000000000000000	A    	0.3480646886945065	0.3635030558377792
mop_tetramer.pdb_113	     1	1.007947	0.0000000000000000	A    	0.2572581535063279	0.06531785996356952
mop_tetramer.pdb_114	     1	1.007947	0.0000000000000000	A    	0.2572581535063279	0.06531785996356952
mop_tetramer.pdb_115	     1	1.007947	0.0000000000000000	A    	0.2572581535063279	0.06531785996356952
mop_tetramer.pdb_116	     1	1.007947	0.0000000000000000	A    	0.2583225710839196	0.068656285380106
mop_tetramer.pdb_117	     1	1.007947	0.0000000000000000	A    	0.2583225710839196	0.068656285380106
mop_tetramer.pdb_118	     1	1.007947	0.0000000000000000	A    	0.2583225710839196	0.068656285380106
mop_tetramer.pdb_119	     1	1.007947	0.0000000000000000	A    	0.2572581535063279	0.06531785996356952
mop_tetramer.pdb_120	     1	1.007947	0.0000000000000000	A    	0.2572581535063279	0.06531785996356952
mop_tetramer.pdb_121	     1	1.007947	0.0000000000000000	A    	0.2572581535063279	0.06531785996356952
mop_tetramer.pdb_122	     1	1.007947	0.0000000000000000	A    	0.2572581535063279	0.06531785996356952
mop_tetramer.pdb_123	     1	1.007947	0.0000000000000000	A    	0.2572581535063279	0.06531785996356952
mop_tetramer.pdb_124	     1	1.007947	0.0000000000000000	A    	0.2572581535063279	0.06531785996356952
mop_tetramer.pdb_125	     1	1.007947	0.0000000000000000	A    	0.2583225710839196	0.068656285380106
mop_tetramer.pdb_126	     1	1.007947	0.0000000000000000	A    	0.1103427677297317	0.05895596890015097
mop_tetramer.pdb_127	     1	1.007947	0.0000000000000000	A    	0.2644543413268124	0.06602135607582665
mop_tetramer.pdb_128	     1	1.007947	0.0000000000000000	A    	0.2644543413268124	0.06602135607582665
mop_tetramer.pdb_129	     1	1.007947	0.0000000000000000	A    	0.2644543413268124	0.06602135607582665
mop_tetramer.pdb_130	     1	1.007947	0.0000000000000000	A    	0.2572581535063279	0.06531785996356952
mop_tetramer.pdb_131	     1	1.007947	0.0000000000000000	A    	0.2572581535063279	0.06531785996356952
mop_tetramer.pdb_132	     6	12.01078	0.0000000000000000	A    	0.3480646886945065	0.3635030558377792
mop_tetramer.pdb_133	     8	15.99943	0.0000000000000000	A    	0.3039812205065809	0.8795023257036865
mop_tetramer.pdb_134	     6	12.01078	0.0000000000000000	A    	0.3480646886945065	0.3635030558377792
mop_tetramer.pdb_135	     6	12.01078	0.0000000000000000	A    	0.3480646886945065	0.3635030558377792
mop_tetramer.pdb_136	     6	12.01078	0.0000000000000000	A    	0.3480646886945065	0.3635030558377792
mop_tetramer.pdb_137	     6	12.01078	0.0000000000000000	A    	0.3480646886945065	0.3635030558377792
mop_tetramer.pdb_138	     6	12.01078	0.0000000000000000	A    	0.3480646886945065	0.3635030558377792
mop_tetramer.pdb_139	     6	12.01078	0.0000000000000000	A    	0.3480646886945065	0.3635030558377792
mop_tetramer.pdb_140	     6	12.01078	0.0000000000000000	A    	0.3480646886945065	0.3635030558377792
mop_tetramer.pdb_141	     6	12.01078	0.0000000000000000	A    	0.3480646886945065	0.3635030558377792
mop_tetramer.pdb_142	     8	15.99943	0.0000000000000000	A    	0.3025106490435313	0.7048581468486769
mop_tetramer.pdb_143	     6	12.01078	0.0000000000000000	A    	0.337953176162662	0.4553891161106184
mop_tetramer.pdb_144	     6	12.01078	0.0000000000000000	A    	0.3480646886945065	0.3635030558377792
mop_tetramer.pdb_145	     6	12.01078	0.0000000000000000	A    	0.3480646886945065	0.3635030558377792
mop_tetramer.pdb_146	     6	12.01078	0.0000000000000000	A    	0.3480646886945065	0.3635030558377792
mop_tetramer.pdb_147	     6	12.01078	0.0000000000000000	A    	0.3480646886945065	0.3635030558377792
mop_tetramer.pdb_148	     6	12.01078	0.0000000000000000	A    	0.3480646886945065	0.3635030558377792
mop_tetramer.pdb_149	     6	12.01078	0.0000000000000000	A    	0.3480646886945065	0.3635030558377792
mop_tetramer.pdb_150	     6	12.01078	0.0000000000000000	A    	0.3480646886945065	0.3635030558377792
mop_tetramer.pdb_151	     6	12.01078	0.0000000000000000	A    	0.3480646886945065	0.3635030558377792
mop_tetramer.pdb_152	     6	12.01078	0.0000000000000000	A    	0.337953176162662	0.4553891161106184
mop_tetramer.pdb_153	     7	14.00672	0.0000000000000000	A    	0.3206876023663901	0.7016212989374017
mop_tetramer.pdb_154	     6	12.01078	0.0000000000000000	A    	0.337953176162662	0.4553891161106184
mop_tetramer.pdb_155	     6	12.01078	0.0000000000000000	A    	0.3480646886945065	0.3635030558377792
mop_tetramer.pdb_156	     6	12.01078	0.0000000000000000	A    	0.3480646886945065	0.3635030558377792
mop_tetramer.pdb_157	     1	1.007947	0.0000000000000000	A    	0.2572581535063279	0.06531785996356952
mop_tetramer.pdb_158	     1	1.007947	0.0000000000000000	A    	0.2572581535063279	0.06531785996356952
mop_tetramer.pdb_159	     1	1.007947	0.0000000000000000	A    	0.2572581535063279	0.06531785996356952
mop_tetramer.pdb_160	     1	1.007947	0.0000000000000000	A    	0.2583225710839196	0.068656285380106
mop_tetramer.pdb_161	     1	1.007947	0.0000000000000000	A    	0.2583225710839196	0.068656285380106
mop_tetramer.pdb_162	     1	1.007947	0.0000000000000000	A    	0.2583225710839196	0.068656285380106
mop_tetramer.pdb_163	     1	1.007947	0.0000000000000000	A    	0.2572581535063279	0.06531785996356952
mop_tetramer.pdb_164	     1	1.007947	0.0000000000000000	A    	0.2572581535063279	0.06531785996356952
mop_tetramer.pdb_165	     1	1.007947	0.0000000000000000	A    	0.2572581535063279	0.06531785996356952
mop_tetramer.pdb_166	     1	1.007947	0.0000000000000000	A    	0.2572581535063279	0.06531785996356952
mop_tetramer.pdb_167	     1	1.007947	0.0000000000000000	A    	0.2572581535063279	0.06531785996356952
mop_tetramer.pdb_168	     1	1.007947	0.0000000000000000	A    	0.2572581535063279	0.06531785996356952
mop_tetramer.pdb_169	     1	1.007947	0.0000000000000000	A    	0.2583225710839196	0.068656285380106
mop_tetramer.pdb_170	     1	1.007947	0.0000000000000000	A    	0.1103427677297317	0.05895596890015097
mop_tetramer.pdb_171	     1	1.007947	0.0000000000000000	A    	0.2644543413268124	0.06602135607582665
mop_tetramer.pdb_172	     1	1.007947	0.0000000000000000	A    	0.2644543413268124	0.06602135607582665
mop_tetramer.pdb_173	     1	1.007947	0.0000000000000000	A    	0.2644543413268124	0.06602135607582665
mop_tetramer.pdb_174	     1	1.007947	0.0000000000000000	A    	0.2572581535063279	0.06531785996356952
mop_tetramer.pdb_175	     1	1.007947	0.0000000000000000	A    	0.2572581535063279	0.06531785996356952
mop_tetramer.pdb_176	     6	12.01078	0.0000000000000000	A    	0.337953176162662	0.4553891161106184
mop_tetramer.pdb_177	     8	15.99943	0.0000000000000000	A    	0.3025106490435313	0.7048581468486769
mop_tetramer.pdb_178	     1	1.007947	0.0000000000000000	A    	0.2583225710839196	0.068656285380106
mop_tetramer.pdb_179	     1	1.007947	0.0000000000000000	A    	0.2583225710839196	0.068656285380106
mop_tetramer.pdb_180	     1	1.007947	0.0000000000000000	A    	0.2583225710839196	0.068656285380106
mop_tetramer.pdb_181	     6	12.01078	0.0000000000000000	A    	0.337953176162662	0.4553891161106184
mop_tetramer.pdb_182	     6	12.01078	0.0000000000000000	A    	0.337953176162662	0.4553891161106184
mop_tetramer.pdb_183	     6	12.01078	0.0000000000000000	A    	0.337953176162662	0.4553891161106184
mop_tetramer.pdb_184	     6	12.01078	0.0000000000000000	A    	0.337953176162662	0.4553891161106184
mop_tetramer.pdb_185	     8	15.99943	0.0000000000000000	A    	0.3025106490435313	0.7048581468486769
mop_tetramer.pdb_186	     6	12.01078	0.0000000000000000	A    	0.3480646886945065	0.3635030558377792
mop_tetramer.pdb_187	     8	15.99943	0.0000000000000000	A    	0.3039812205065809	0.8795023257036865
mop_tetramer.pdb_188	     1	1.007947	0.0000000000000000	A    	0.2644543413268124	0.06602135607582665
mop_tetramer.pdb_189	     1	1.007947	0.0000000000000000	A    	0.2644543413268124	0.06602135607582665
mop_tetramer.pdb_190	     1	1.007947	0.0000000000000000	A    	0.2644543413268124	0.06602135607582665
mop_tetramer.pdb_191	     1	1.007947	0.0000000000000000	A    	0.2644543413268124	0.06602135607582665
mop_tetramer.pdb_192	     1	1.007947	0.0000000000000000	A    	0.2644543413268124	0.06602135607582665
mop_tetramer.pdb_193	     1	1.007947	0.0000000000000000	A    	0.2644543413268124	0.06602135607582665
mop_tetramer.pdb_194	     1	1.007947	0.0000000000000000	A    	0.2644543413268124	0.06602135607582665
mop_tetramer.pdb_195	     1	1.007947	0.0000000000000000	A    	0.2644543413268124	0.06602135607582665
mop_tetramer.pdb_196	     1	1.007947	0.0000000000000000	A    	0.2644543413268124	0.06602135607582665

[ moleculetype ]
mop_tetramer.pdb	         3

[ atoms ]
;index, atom type, resnum, resname, name, cgnr, charge, mass
     1 mop_tetramer.pdb_0       1 MOP      C1         1      0.648129998652     12.010780000000
     2 mop_tetramer.pdb_1       1 MOP      O2         1     -0.538280011209     15.999430000000
     3 mop_tetramer.pdb_2       1 MOP      C3         1     -0.139280007275     12.010780000000
     4 mop_tetramer.pdb_3       1 MOP      C4         1     -0.079999999198     12.010780000000
     5 mop_tetramer.pdb_4       1 MOP      C5         1     -0.127360002192     12.010780000000
     6 mop_tetramer.pdb_5       1 MOP      C6         1      0.002939999049     12.010780000000
     7 mop_tetramer.pdb_6       1 MOP      C7         1     -0.075470001491     12.010780000000
     8 mop_tetramer.pdb_7       1 MOP      C8         1      0.008719999289     12.010780000000
     9 mop_tetramer.pdb_8       1 MOP      C9         1     -0.193959997090     12.010780000000
    10 mop_tetramer.pdb_9       1 MOP      C10        1      0.124980001656     12.010780000000
    11 mop_tetramer.pdb_10       1 MOP      O11        1     -0.329169989618     15.999430000000
    12 mop_tetramer.pdb_11       1 MOP      C12        1      0.111759996919     12.010780000000
    13 mop_tetramer.pdb_12       1 MOP      C13        1     -0.152610004934     12.010780000000
    14 mop_tetramer.pdb_13       1 MOP      C14        1     -0.076690004262     12.010780000000
    15 mop_tetramer.pdb_14       1 MOP      C15        1     -0.042539999875     12.010780000000
    16 mop_tetramer.pdb_15       1 MOP      C16        1     -0.112030000480     12.010780000000
    17 mop_tetramer.pdb_16       1 MOP      C17        1     -0.129270003232     12.010780000000
    18 mop_tetramer.pdb_17       1 MOP      C18        1     -0.113760002943     12.010780000000
    19 mop_tetramer.pdb_18       1 MOP      C19        1     -0.103479997309     12.010780000000
    20 mop_tetramer.pdb_19       1 MOP      C20        1     -0.104460001978     12.010780000000
    21 mop_tetramer.pdb_20       1 MOP      C21        1      0.146280004589     12.010780000000
    22 mop_tetramer.pdb_21       1 MOP      N22        1     -0.565289975198     14.006720000000
    23 mop_tetramer.pdb_22       1 MOP      C23        1     -0.103820004555     12.010780000000
    24 mop_tetramer.pdb_23       1 MOP      C24        1     -0.127360002192     12.010780000000
    25 mop_tetramer.pdb_24       1 MOP      C25        1     -0.079999999198     12.010780000000
    26 mop_tetramer.pdb_25       1 MOP      H26        1      0.150590001551      1.007947000000
    27 mop_tetramer.pdb_26       1 MOP      H27        1      0.146349995343      1.007947000000
    28 mop_tetramer.pdb_27       1 MOP      H28        1      0.146369992701      1.007947000000
    29 mop_tetramer.pdb_28       1 MOP      H29        1      0.045159998295      1.007947000000
    30 mop_tetramer.pdb_29       1 MOP      H30        1      0.045159998295      1.007947000000
    31 mop_tetramer.pdb_30       1 MOP      H31        1      0.045159998295      1.007947000000
    32 mop_tetramer.pdb_31       1 MOP      H32        1      0.152810006348      1.007947000000
    33 mop_tetramer.pdb_32       1 MOP      H33        1      0.146070002524      1.007947000000
    34 mop_tetramer.pdb_33       1 MOP      H34        1      0.135839997736      1.007947000000
    35 mop_tetramer.pdb_34       1 MOP      H35        1      0.133540003506      1.007947000000
    36 mop_tetramer.pdb_35       1 MOP      H36        1      0.134800000993      1.007947000000
    37 mop_tetramer.pdb_36       1 MOP      H37        1      0.132990001646      1.007947000000
    38 mop_tetramer.pdb_37       1 MOP      H38        1      0.089689998833      1.007947000000
    39 mop_tetramer.pdb_38       1 MOP      H39        1      0.304269998280      1.007947000000
    40 mop_tetramer.pdb_39       1 MOP      H40        1      0.045419997481      1.007947000000
    41 mop_tetramer.pdb_40       1 MOP      H41        1      0.045419997481      1.007947000000
    42 mop_tetramer.pdb_41       1 MOP      H42        1      0.045419997481      1.007947000000
    43 mop_tetramer.pdb_42       1 MOP      H43        1      0.146349995343      1.007947000000
    44 mop_tetramer.pdb_43       1 MOP      H44        1      0.150590001551      1.007947000000
    45 mop_tetramer.pdb_44       2 MOP      C45        1      0.675450026003     12.010780000000
    46 mop_tetramer.pdb_45       2 MOP      O46        1     -0.600399971994     15.999430000000
    47 mop_tetramer.pdb_46       2 MOP      C47        1     -0.143220008405     12.010780000000
    48 mop_tetramer.pdb_47       2 MOP      C48        1     -0.096440003308     12.010780000000
    49 mop_tetramer.pdb_48       2 MOP      C49        1     -0.124330000075     12.010780000000
    50 mop_tetramer.pdb_49       2 MOP      C50        1     -0.012670001069     12.010780000000
    51 mop_tetramer.pdb_50       2 MOP      C51        1     -0.066200004014     12.010780000000
    52 mop_tetramer.pdb_51       2 MOP      C52        1      0.009389999268     12.010780000000
    53 mop_tetramer.pdb_52       2 MOP      C53        1     -0.194989995154     12.010780000000
    54 mop_tetramer.pdb_53       2 MOP      C54        1      0.125410004465     12.010780000000
    55 mop_tetramer.pdb_54       2 MOP      O55        1     -0.327809990438     15.999430000000
    56 mop_tetramer.pdb_55       2 MOP      C56        1      0.112669995932     12.010780000000
    57 mop_tetramer.pdb_56       2 MOP      C57        1     -0.153439999612     12.010780000000
    58 mop_tetramer.pdb_57       2 MOP      C58        1     -0.083980002495     12.010780000000
    59 mop_tetramer.pdb_58       2 MOP      C59        1     -0.043680002036     12.010780000000
    60 mop_tetramer.pdb_59       2 MOP      C60        1     -0.110550002249     12.010780000000
    61 mop_tetramer.pdb_60       2 MOP      C61        1     -0.134149999412     12.010780000000
    62 mop_tetramer.pdb_61       2 MOP      C62        1     -0.107440003248     12.010780000000
    63 mop_tetramer.pdb_62       2 MOP      C63        1     -0.101080001386     12.010780000000
    64 mop_tetramer.pdb_63       2 MOP      C64        1     -0.108310000094     12.010780000000
    65 mop_tetramer.pdb_64       2 MOP      C65        1      0.151299997178     12.010780000000
    66 mop_tetramer.pdb_65       2 MOP      N66        1     -0.566129983457     14.006720000000
    67 mop_tetramer.pdb_66       2 MOP      C67        1     -0.111950003596     12.010780000000
    68 mop_tetramer.pdb_67       2 MOP      C68        1     -0.124330000075     12.010780000000
    69 mop_tetramer.pdb_68       2 MOP      C69        1     -0.096440003308     12.010780000000
    70 mop_tetramer.pdb_69       2 MOP      H70        1      0.145390002934      1.007947000000
    71 mop_tetramer.pdb_70       2 MOP      H71        1      0.149920000640      1.007947000000
    72 mop_tetramer.pdb_71       2 MOP      H72        1      0.143450005857      1.007947000000
    73 mop_tetramer.pdb_72       2 MOP      H73        1      0.044410000501      1.007947000000
    74 mop_tetramer.pdb_73       2 MOP      H74        1      0.044410000501      1.007947000000
    75 mop_tetramer.pdb_74       2 MOP      H75        1      0.044410000501      1.007947000000
    76 mop_tetramer.pdb_75       2 MOP      H76        1      0.151169999448      1.007947000000
    77 mop_tetramer.pdb_76       2 MOP      H77        1      0.143810003010      1.007947000000
    78 mop_tetramer.pdb_77       2 MOP      H78        1      0.136389999596      1.007947000000
    79 mop_tetramer.pdb_78       2 MOP      H79        1      0.132630004493      1.007947000000
    80 mop_tetramer.pdb_79       2 MOP      H80        1      0.144109993187      1.007947000000
    81 mop_tetramer.pdb_80       2 MOP      H81        1      0.139950006215      1.007947000000
    82 mop_tetramer.pdb_81       2 MOP      H82        1      0.090329996256      1.007947000000
    83 mop_tetramer.pdb_82       2 MOP      H83        1      0.318179993836      1.007947000000
    84 mop_tetramer.pdb_83       2 MOP      H84        1      0.043189997730      1.007947000000
    85 mop_tetramer.pdb_84       2 MOP      H85        1      0.043189997730      1.007947000000
    86 mop_tetramer.pdb_85       2 MOP      H86        1      0.043189997730      1.007947000000
    87 mop_tetramer.pdb_86       2 MOP      H87        1      0.149920000640      1.007947000000
    88 mop_tetramer.pdb_87       2 MOP      H88        1      0.145390002934      1.007947000000
    89 mop_tetramer.pdb_88       3 MOP      C89        1      0.674399970976     12.010780000000
    90 mop_tetramer.pdb_89       3 MOP      O90        1     -0.613039971384     15.999430000000
    91 mop_tetramer.pdb_90       3 MOP      C91        1     -0.141810000928     12.010780000000
    92 mop_tetramer.pdb_91       3 MOP      C92        1     -0.093039997908     12.010780000000
    93 mop_tetramer.pdb_92       3 MOP      C93        1     -0.129299999269     12.010780000000
    94 mop_tetramer.pdb_93       3 MOP      C94        1     -0.006850000991     12.010780000000
    95 mop_tetramer.pdb_94       3 MOP      C95        1     -0.076720000299     12.010780000000
    96 mop_tetramer.pdb_95       3 MOP      C96        1      0.008539998850     12.010780000000
    97 mop_tetramer.pdb_96       3 MOP      C97        1     -0.148049996289     12.010780000000
    98 mop_tetramer.pdb_97       3 MOP      C98        1      0.126420005170     12.010780000000
    99 mop_tetramer.pdb_98       3 MOP      O99        1     -0.325910002979     15.999430000000
   100 mop_tetramer.pdb_99       3 MOP      C100       1      0.113259999958     12.010780000000
   101 mop_tetramer.pdb_100       3 MOP      C101       1     -0.202850000056     12.010780000000
   102 mop_tetramer.pdb_101       3 MOP      C102       1     -0.081770003828     12.010780000000
   103 mop_tetramer.pdb_102       3 MOP      C103       1     -0.040660002323     12.010780000000
   104 mop_tetramer.pdb_103       3 MOP      C104       1     -0.109509998056     12.010780000000
   105 mop_tetramer.pdb_104       3 MOP      C105       1     -0.127609998973     12.010780000000
   106 mop_tetramer.pdb_105       3 MOP      C106       1     -0.118550003561     12.010780000000
   107 mop_tetramer.pdb_106       3 MOP      C107       1     -0.108050004633     12.010780000000
   108 mop_tetramer.pdb_107       3 MOP      C108       1     -0.100470000001     12.010780000000
   109 mop_tetramer.pdb_108       3 MOP      C109       1      0.145750000087     12.010780000000
   110 mop_tetramer.pdb_109       3 MOP      N110       1     -0.557829977068     14.006720000000
   111 mop_tetramer.pdb_110       3 MOP      C111       1     -0.100920000168     12.010780000000
   112 mop_tetramer.pdb_111       3 MOP      C112       1     -0.129299999269     12.010780000000
   113 mop_tetramer.pdb_112       3 MOP      C113       1     -0.093039997908     12.010780000000
   114 mop_tetramer.pdb_113       3 MOP      H114       1      0.148619993535      1.007947000000
   115 mop_tetramer.pdb_114       3 MOP      H115       1      0.140740006176      1.007947000000
   116 mop_tetramer.pdb_115       3 MOP      H116       1      0.155949993936      1.007947000000
   117 mop_tetramer.pdb_116       3 MOP      H117       1      0.045119999854      1.007947000000
   118 mop_tetramer.pdb_117       3 MOP      H118       1      0.045119999854      1.007947000000
   119 mop_tetramer.pdb_118       3 MOP      H119       1      0.045119999854      1.007947000000
   120 mop_tetramer.pdb_119       3 MOP      H120       1      0.142149998752      1.007947000000
   121 mop_tetramer.pdb_120       3 MOP      H121       1      0.146730004755      1.007947000000
   122 mop_tetramer.pdb_121       3 MOP      H122       1      0.137989996878      1.007947000000
   123 mop_tetramer.pdb_122       3 MOP      H123       1      0.135529993979      1.007947000000
   124 mop_tetramer.pdb_123       3 MOP      H124       1      0.128780006377      1.007947000000
   125 mop_tetramer.pdb_124       3 MOP      H125       1      0.137950002161      1.007947000000
   126 mop_tetramer.pdb_125       3 MOP      H126       1      0.086409999935      1.007947000000
   127 mop_tetramer.pdb_126       3 MOP      H127       1      0.306089996306      1.007947000000
   128 mop_tetramer.pdb_127       3 MOP      H128       1      0.045559997616      1.007947000000
   129 mop_tetramer.pdb_128       3 MOP      H129       1      0.045559997616      1.007947000000
   130 mop_tetramer.pdb_129       3 MOP      H130       1      0.045559997616      1.007947000000
   131 mop_tetramer.pdb_130       3 MOP      H131       1      0.140740006176      1.007947000000
   132 mop_tetramer.pdb_131       3 MOP      H132       1      0.148619993535      1.007947000000
   133 mop_tetramer.pdb_132       4 MOP      C133       1      0.680429994074     12.010780000000
   134 mop_tetramer.pdb_133       4 MOP      O134       1     -0.613110006841     15.999430000000
   135 mop_tetramer.pdb_134       4 MOP      C135       1     -0.144180000814     12.010780000000
   136 mop_tetramer.pdb_135       4 MOP      C136       1     -0.090820000561     12.010780000000
   137 mop_tetramer.pdb_136       4 MOP      C137       1     -0.126179994138     12.010780000000
   138 mop_tetramer.pdb_137       4 MOP      C138       1     -0.006610001026     12.010780000000
   139 mop_tetramer.pdb_138       4 MOP      C139       1     -0.077349999043     12.010780000000
   140 mop_tetramer.pdb_139       4 MOP      C140       1      0.006749999189     12.010780000000
   141 mop_tetramer.pdb_140       4 MOP      C141       1     -0.145490006598     12.010780000000
   142 mop_tetramer.pdb_141       4 MOP      C142       1      0.128810002414     12.010780000000
   143 mop_tetramer.pdb_142       4 MOP      O143       1     -0.325379998478     15.999430000000
   144 mop_tetramer.pdb_143       4 MOP      C144       1      0.113039999215     12.010780000000
   145 mop_tetramer.pdb_144       4 MOP      C145       1     -0.202170000466     12.010780000000
   146 mop_tetramer.pdb_145       4 MOP      C146       1     -0.082690001520     12.010780000000
   147 mop_tetramer.pdb_146       4 MOP      C147       1     -0.041809999438     12.010780000000
   148 mop_tetramer.pdb_147       4 MOP      C148       1     -0.105329998823     12.010780000000
   149 mop_tetramer.pdb_148       4 MOP      C149       1     -0.129449994358     12.010780000000
   150 mop_tetramer.pdb_149       4 MOP      C150       1     -0.106780001017     12.010780000000
   151 mop_tetramer.pdb_150       4 MOP      C151       1     -0.102969997617     12.010780000000
   152 mop_tetramer.pdb_151       4 MOP      C152       1     -0.106569998952     12.010780000000
   153 mop_tetramer.pdb_152       4 MOP      C153       1      0.161549999324     12.010780000000
   154 mop_tetramer.pdb_153       4 MOP      N154       1     -0.554759980234     14.006720000000
   155 mop_tetramer.pdb_154       4 MOP      C155       1     -0.116770000251     12.010780000000
   156 mop_tetramer.pdb_155       4 MOP      C156       1     -0.126179994138     12.010780000000
   157 mop_tetramer.pdb_156       4 MOP      C157       1     -0.090820000561     12.010780000000
   158 mop_tetramer.pdb_157       4 MOP      H158       1      0.145359991995      1.007947000000
   159 mop_tetramer.pdb_158       4 MOP      H159       1      0.140909998623      1.007947000000
   160 mop_tetramer.pdb_159       4 MOP      H160       1      0.157759993283      1.007947000000
   161 mop_tetramer.pdb_160       4 MOP      H161       1      0.045949998257      1.007947000000
   162 mop_tetramer.pdb_161       4 MOP      H162       1      0.045949998257      1.007947000000
   163 mop_tetramer.pdb_162       4 MOP      H163       1      0.045949998257      1.007947000000
   164 mop_tetramer.pdb_163       4 MOP      H164       1      0.141080005971      1.007947000000
   165 mop_tetramer.pdb_164       4 MOP      H165       1      0.142049997059      1.007947000000
   166 mop_tetramer.pdb_165       4 MOP      H166       1      0.138689993826      1.007947000000
   167 mop_tetramer.pdb_166       4 MOP      H167       1      0.137899993864      1.007947000000
   168 mop_tetramer.pdb_167       4 MOP      H168       1      0.140589996187      1.007947000000
   169 mop_tetramer.pdb_168       4 MOP      H169       1      0.136539994685      1.007947000000
   170 mop_tetramer.pdb_169       4 MOP      H170       1      0.083750001100      1.007947000000
   171 mop_tetramer.pdb_170       4 MOP      H171       1      0.326579987017      1.007947000000
   172 mop_tetramer.pdb_171       4 MOP      H172       1      0.048109999803      1.007947000000
   173 mop_tetramer.pdb_172       4 MOP      H173       1      0.048109999803      1.007947000000
   174 mop_tetramer.pdb_173       4 MOP      H174       1      0.048109999803      1.007947000000
   175 mop_tetramer.pdb_174       4 MOP      H175       1      0.140909998623      1.007947000000
   176 mop_tetramer.pdb_175       4 MOP      H176       1      0.145359991995      1.007947000000
   177 mop_tetramer.pdb_176       5 CAP      C177       1      0.124190001694     12.010780000000
   178 mop_tetramer.pdb_177       5 CAP      O178       1     -0.433120013269     15.999430000000
   179 mop_tetramer.pdb_178       5 CAP      H179       1      0.049819997457      1.007947000000
   180 mop_tetramer.pdb_179       5 CAP      H180       1      0.049819997457      1.007947000000
   181 mop_tetramer.pdb_180       5 CAP      H181       1      0.049819997457      1.007947000000
   182 mop_tetramer.pdb_181       6 CAP      C182       1     -0.114400000366     12.010780000000
   183 mop_tetramer.pdb_182       6 CAP      C183       1      0.187089993564     12.010780000000
   184 mop_tetramer.pdb_183       6 CAP      C184       1     -0.114400000366     12.010780000000
   185 mop_tetramer.pdb_184       6 CAP      C185       1     -0.114400000366     12.010780000000
   186 mop_tetramer.pdb_185       6 CAP      O186       1     -0.454849989208     15.999430000000
   187 mop_tetramer.pdb_186       6 CAP      C187       1      0.750190018622     12.010780000000
   188 mop_tetramer.pdb_187       6 CAP      O188       1     -0.601679981741     15.999430000000
   189 mop_tetramer.pdb_188       6 CAP      H189       1      0.051729998497      1.007947000000
   190 mop_tetramer.pdb_189       6 CAP      H190       1      0.051729998497      1.007947000000
   191 mop_tetramer.pdb_190       6 CAP      H191       1      0.051729998497      1.007947000000
   192 mop_tetramer.pdb_191       6 CAP      H192       1      0.051729998497      1.007947000000
   193 mop_tetramer.pdb_192       6 CAP      H193       1      0.051729998497      1.007947000000
   194 mop_tetramer.pdb_193       6 CAP      H194       1      0.051729998497      1.007947000000
   195 mop_tetramer.pdb_194       6 CAP      H195       1      0.051729998497      1.007947000000
   196 mop_tetramer.pdb_195       6 CAP      H196       1      0.051729998497      1.007947000000
   197 mop_tetramer.pdb_196       6 CAP      H197       1      0.051729998497      1.007947000000

[ pairs ]
;ai    aj   funct
   110	   157	     1
   133	   137	     1
   150	   155	     1
   185	   191	     1
    66	   113	     1
    26	    27	     1
    54	    75	     1
    56	    57	     1
   182	   196	     1
    19	    41	     1
    46	    69	     1
    19	    42	     1
   109	   135	     1
     6	     9	     1
    51	    72	     1
   102	   112	     1
     5	     8	     1
    98	   119	     1
   151	   171	     1
     5	    25	     1
   146	   147	     1
   142	   147	     1
    67	    89	     1
    50	    59	     1
   138	   158	     1
   133	   176	     1
   147	   150	     1
    11	    14	     1
     1	     5	     1
    95	   116	     1
   170	   173	     1
     9	    14	     1
   110	   130	     1
   186	   190	     1
   150	   169	     1
   149	   152	     1
   139	   142	     1
   126	   128	     1
   126	   133	     1
   185	   190	     1
    61	    64	     1
   143	   160	     1
    50	    77	     1
    38	    45	     1
    69	    70	     1
   134	   136	     1
   136	   156	     1
   139	   148	     1
    50	    88	     1
   148	   151	     1
   154	   172	     1
   133	   158	     1
   164	   165	     1
    94	   101	     1
    11	    32	     1
     8	    17	     1
     8	    19	     1
    19	    40	     1
   127	   134	     1
   140	   166	     1
     1	   180	     1
     9	    32	     1
    20	    22	     1
    16	    19	     1
   108	   122	     1
   100	   101	     1
   167	   168	     1
   141	   146	     1
    93	   131	     1
   122	   123	     1
    91	    94	     1
   141	   164	     1
    22	    41	     1
    22	    42	     1
   146	   156	     1
    45	    88	     1
   152	   155	     1
   101	   116	     1
    99	   102	     1
     8	    33	     1
     6	    44	     1
   152	   154	     1
    59	    65	     1
   186	   189	     1
   135	   159	     1
   149	   153	     1
   106	   125	     1
   185	   187	     1
   182	   195	     1
    66	    84	     1
   185	   189	     1
   182	   193	     1
     8	    34	     1
   139	   159	     1
     8	    11	     1
     8	    13	     1
    18	    34	     1
     7	    20	     1
    52	    57	     1
   109	   125	     1
    53	    58	     1
    55	    72	     1
    94	   103	     1
    89	    93	     1
    45	    49	     1
   148	   169	     1
   108	   111	     1
     7	    16	     1
     1	    24	     1
    62	    67	     1
    92	   132	     1
   108	   110	     1
   133	   156	     1
    13	    28	     1
   108	   126	     1
     1	    26	     1
    51	    71	     1
   151	   174	     1
    47	    87	     1
    83	    90	     1
   137	   140	     1
     3	     6	     1
   156	   159	     1
   141	   152	     1
   103	   123	     1
   184	   196	     1
    15	    28	     1
    64	    67	     1
   126	   129	     1
    34	    35	     1
    51	    60	     1
   142	   162	     1
    22	    40	     1
     8	    37	     1
     6	    33	     1
    10	    30	     1
    99	   120	     1
   150	   154	     1
   186	   192	     1
    53	    60	     1
     4	    44	     1
   139	   164	     1
    76	    77	     1
   185	   192	     1
    54	    74	     1
    18	    37	     1
    16	    37	     1
    47	    50	     1
    64	    80	     1
   107	   129	     1
    65	    81	     1
   154	   174	     1
    14	    15	     1
    58	    59	     1
    19	    45	     1
    60	    81	     1
     6	    13	     1
    51	    69	     1
   109	   124	     1
    10	    15	     1
    97	   108	     1
   144	   145	     1
   134	   157	     1
   140	   156	     1
   102	   103	     1
    51	    76	     1
   151	   172	     1
    59	    72	     1
    67	    83	     1
   103	   116	     1
   170	   171	     1
    53	    76	     1
    95	   108	     1
    97	   102	     1
    96	    99	     1
   138	   165	     1
    96	   107	     1
    95	   113	     1
    90	    92	     1
     9	    20	     1
   103	   106	     1
   183	   188	     1
     9	    16	     1
     2	    25	     1
   110	   136	     1
   139	   152	     1
   186	   194	     1
   152	   170	     1
    61	    65	     1
    20	    36	     1
    49	    52	     1
    20	    38	     1
   185	   194	     1
   140	   151	     1
    55	    58	     1
    25	   178	     1
   140	   149	     1
   182	   197	     1
     7	    10	     1
   147	   160	     1
   109	   134	     1
     4	   178	     1
   154	   183	     1
   104	   107	     1
   112	   115	     1
    78	    79	     1
    32	    33	     1
    63	    84	     1
   151	   167	     1
    18	    22	     1
   137	   146	     1
    45	    68	     1
    57	    72	     1
   105	   109	     1
    54	    59	     1
   184	   195	     1
     3	    27	     1
   141	   144	     1
    82	    84	     1
     9	    12	     1
    49	    87	     1
     2	   177	     1
   166	   167	     1
    22	    48	     1
    99	   116	     1
   110	   129	     1
    14	    24	     1
     5	    43	     1
   152	   168	     1
    90	   113	     1
    50	    70	     1
   120	   121	     1
    17	    20	     1
    59	    62	     1
   153	   168	     1
    53	    56	     1
   150	   170	     1
   186	   196	     1
    21	    37	     1
    54	    77	     1
    52	    61	     1
    52	    63	     1
    66	    92	     1
     7	    28	     1
     7	    25	     1
    63	    79	     1
    92	   112	     1
   107	   130	     1
   140	   169	     1
   153	   186	     1
     3	   177	     1
    98	   121	     1
     1	   181	     1
    94	   132	     1
     6	    26	     1
    20	    23	     1
   153	   188	     1
    98	   118	     1
    63	    89	     1
     1	   179	     1
    55	    76	     1
    63	    86	     1
    89	   132	     1
   138	   141	     1
   145	   160	     1
   158	   159	     1
    52	    68	     1
    45	    70	     1
    96	   121	     1
    82	    89	     1
    52	    77	     1
   142	   163	     1
    97	   104	     1
    95	   115	     1
    82	    86	     1
    23	    39	     1
    96	   101	     1
    95	   131	     1
    95	    98	     1
   170	   174	     1
    10	    31	     1
    87	    88	     1
   111	   127	     1
   155	   187	     1
    95	   104	     1
    51	    54	     1
   150	   166	     1
    21	    46	     1
   143	   146	     1
    15	    18	     1
    66	    86	     1
    21	    47	     1
    22	    69	     1
    66	    85	     1
   143	   164	     1
   182	   187	     1
   131	   132	     1
     3	    43	     1
     2	     4	     1
    21	    36	     1
     5	    14	     1
    70	    71	     1
    65	    90	     1
   107	   127	     1
    19	    35	     1
   142	   161	     1
   139	   175	     1
    25	    26	     1
     4	    24	     1
    19	    39	     1
   127	   135	     1
     6	    15	     1
   151	   173	     1
    96	   112	     1
   138	   147	     1
    58	    68	     1
    98	   103	     1
    59	    79	     1
    97	   100	     1
   103	   109	     1
    11	    28	     1
   108	   124	     1
    83	    91	     1
   155	   171	     1
    96	   125	     1
    96	   105	     1
   184	   191	     1
   142	   165	     1
    50	    57	     1
   170	   172	     1
    52	    78	     1
   184	   197	     1
    50	    53	     1
    48	    51	     1
     7	    43	     1
   138	   145	     1
   175	   176	     1
   186	   195	     1
   111	   133	     1
   186	   193	     1
   106	   122	     1
    39	    46	     1
   154	   173	     1
    16	    36	     1
    39	    47	     1
   185	   193	     1
    18	    38	     1
     8	    24	     1
   139	   160	     1
    48	    68	     1
    38	    39	     1
   182	   192	     1
   107	   123	     1
    65	    80	     1
    38	    41	     1
    94	    97	     1
    38	    42	     1
   104	   125	     1
    49	    58	     1
    60	    80	     1
    48	    88	     1
    12	    13	     1
    94	   121	     1
   107	   128	     1
   107	   133	     1
    65	    91	     1
   105	   108	     1
   148	   168	     1
    35	    36	     1
   140	   143	     1
    62	    66	     1
   147	   167	     1
     4	     7	     1
    97	   120	     1
    15	    35	     1
   184	   190	     1
    79	    80	     1
   137	   157	     1
    91	   115	     1
    62	    82	     1
    95	   120	     1
    62	    81	     1
   152	   166	     1
    64	    66	     1
    91	   131	     1
    17	    21	     1
   126	   130	     1
   106	   111	     1
   137	   175	     1
   106	   110	     1
   171	   186	     1
    10	    29	     1
    68	    71	     1
   106	   126	     1
   171	   188	     1
    51	    64	     1
     1	    44	     1
     7	    27	     1
    46	    48	     1
    64	    82	     1
    52	    55	     1
    54	    73	     1
    94	   114	     1
   182	   194	     1
    53	    64	     1
   104	   124	     1
   140	   165	     1
    38	    40	     1
    92	    95	     1
    89	   114	     1
   136	   176	     1
    89	   112	     1
    20	    34	     1
    18	    23	     1
    98	   117	     1
   113	   114	     1
    63	    85	     1
    24	    27	     1
    49	    69	     1
   114	   115	     1
    63	    83	     1
   157	   158	     1
   147	   153	     1
   140	   145	     1
    47	    71	     1
   136	   139	     1
    62	    78	     1
    51	    87	     1
    82	    85	     1
    93	    96	     1
   184	   187	     1
    82	    83	     1
    60	    63	     1
   151	   187	     1
   184	   189	     1
    23	    45	     1
    93	   113	     1
   123	   124	     1
    52	    81	     1
    96	   122	     1
    10	    33	     1
    93	   102	     1
   126	   127	     1
   138	   176	     1
    15	    21	     1
    43	    44	     1
   139	   157	     1
     7	    32	     1
   135	   138	     1
   141	   148	     1
    64	    78	     1
   153	   169	     1
   186	   191	     1
   110	   128	     1
   135	   175	     1
   170	   187	     1
   186	   197	     1

[ bonds ]
;ai    aj   funct r k
     1      2      1      0.122500229618  637673.816836400889 
     1      3      1      0.146787322362  223784.907186336932 
     1    178      1      0.135606196339  243795.038367059984 
     3      4      1      0.140070606401  315369.603109081567 
     3     25      1      0.140070606401  315369.603109081567 
     4      5      1      0.140070606401  315369.603109081567 
     4     26      1      0.108603610657  323372.939138590940 
     5      6      1      0.140070606401  315369.603109081567 
     5     27      1      0.108603610657  323372.939138590940 
     6      7      1      0.146787322362  223784.907186336932 
     6     24      1      0.140070606401  315369.603109081567 
     7      8      1      0.140070606401  315369.603109081567 
     7     14      1      0.140070606401  315369.603109081567 
     8      9      1      0.140070606401  315369.603109081567 
     8     15      1      0.146787322362  223784.907186336932 
     9     10      1      0.140070606401  315369.603109081567 
     9     28      1      0.108603610657  323372.939138590940 
    10     11      1      0.137202606628  266731.066406706930 
    10     13      1      0.140070606401  315369.603109081567 
    11     12      1      0.143632390591  189984.684332368197 
    12     29      1      0.109420646075  299423.062557625177 
    12     30      1      0.109420646075  299423.062557625177 
    12     31      1      0.109420646075  299423.062557625177 
    13     14      1      0.140070606401  315369.603109081567 
    13     32      1      0.108603610657  323372.939138590940 
    14     33      1      0.108603610657  323372.939138590940 
    15     16      1      0.140070606401  315369.603109081567 
    15     20      1      0.140070606401  315369.603109081567 
    16     17      1      0.140070606401  315369.603109081567 
    16     34      1      0.108603610657  323372.939138590940 
    17     18      1      0.140070606401  315369.603109081567 
    17     35      1      0.108603610657  323372.939138590940 
    18     19      1      0.140070606401  315369.603109081567 
    18     36      1      0.108603610657  323372.939138590940 
    19     20      1      0.140070606401  315369.603109081567 
    19     21      1      0.150959128588  200304.454300773097 
    20     37      1      0.108603610657  323372.939138590940 
    21     22      1      0.146209979488  202028.005744964030 
    21     23      1      0.153362760384  180164.203623913403 
    21     38      1      0.109420646075  299423.062557625177 
    22     39      1      0.101860473038  402492.840307690029 
    22     45      1      0.138376574172  273614.770187574963 
    23     40      1      0.109420646075  299423.062557625177 
    23     41      1      0.109420646075  299423.062557625177 
    23     42      1      0.109420646075  299423.062557625177 
    24     25      1      0.140070606401  315369.603109081567 
    24     43      1      0.108603610657  323372.939138590940 
    25     44      1      0.108603610657  323372.939138590940 
    45     46      1      0.122500229618  637673.816836400889 
    45     47      1      0.146787322362  223784.907186336932 
    47     48      1      0.140070606401  315369.603109081567 
    47     69      1      0.140070606401  315369.603109081567 
    48     49      1      0.140070606401  315369.603109081567 
    48     70      1      0.108603610657  323372.939138590940 
    49     50      1      0.140070606401  315369.603109081567 
    49     71      1      0.108603610657  323372.939138590940 
    50     51      1      0.146787322362  223784.907186336932 
    50     68      1      0.140070606401  315369.603109081567 
    51     52      1      0.140070606401  315369.603109081567 
    51     58      1      0.140070606401  315369.603109081567 
    52     53      1      0.140070606401  315369.603109081567 
    52     59      1      0.146787322362  223784.907186336932 
    53     54      1      0.140070606401  315369.603109081567 
    53     72      1      0.108603610657  323372.939138590940 
    54     55      1      0.137202606628  266731.066406706930 
    54     57      1      0.140070606401  315369.603109081567 
    55     56      1      0.143632390591  189984.684332368197 
    56     73      1      0.109420646075  299423.062557625177 
    56     74      1      0.109420646075  299423.062557625177 
    56     75      1      0.109420646075  299423.062557625177 
    57     58      1      0.140070606401  315369.603109081567 
    57     76      1      0.108603610657  323372.939138590940 
    58     77      1      0.108603610657  323372.939138590940 
    59     60      1      0.140070606401  315369.603109081567 
    59     64      1      0.140070606401  315369.603109081567 
    60     61      1      0.140070606401  315369.603109081567 
    60     78      1      0.108603610657  323372.939138590940 
    61     62      1      0.140070606401  315369.603109081567 
    61     79      1      0.108603610657  323372.939138590940 
    62     63      1      0.140070606401  315369.603109081567 
    62     80      1      0.108603610657  323372.939138590940 
    63     64      1      0.140070606401  315369.603109081567 
    63     65      1      0.150959128588  200304.454300773097 
    64     81      1      0.108603610657  323372.939138590940 
    65     66      1      0.146209979488  202028.005744964030 
    65     67      1      0.153362760384  180164.203623913403 
    65     82      1      0.109420646075  299423.062557625177 
    66     83      1      0.101860473038  402492.840307690029 
    66     89      1      0.138376574172  273614.770187574963 
    67     84      1      0.109420646075  299423.062557625177 
    67     85      1      0.109420646075  299423.062557625177 
    67     86      1      0.109420646075  299423.062557625177 
    68     69      1      0.140070606401  315369.603109081567 
    68     87      1      0.108603610657  323372.939138590940 
    69     88      1      0.108603610657  323372.939138590940 
    89     90      1      0.122500229618  637673.816836400889 
    89     91      1      0.146787322362  223784.907186336932 
    91     92      1      0.140070606401  315369.603109081567 
    91    113      1      0.140070606401  315369.603109081567 
    92     93      1      0.140070606401  315369.603109081567 
    92    114      1      0.108603610657  323372.939138590940 
    93     94      1      0.140070606401  315369.603109081567 
    93    115      1      0.108603610657  323372.939138590940 
    94     95      1      0.146787322362  223784.907186336932 
    94    112      1      0.140070606401  315369.603109081567 
    95     96      1      0.140070606401  315369.603109081567 
    95    102      1      0.140070606401  315369.603109081567 
    96     97      1      0.140070606401  315369.603109081567 
    96    103      1      0.146787322362  223784.907186336932 
    97     98      1      0.140070606401  315369.603109081567 
    97    116      1      0.108603610657  323372.939138590940 
    98     99      1      0.137202606628  266731.066406706930 
    98    101      1      0.140070606401  315369.603109081567 
    99    100      1      0.143632390591  189984.684332368197 
   100    117      1      0.109420646075  299423.062557625177 
   100    118      1      0.109420646075  299423.062557625177 
   100    119      1      0.109420646075  299423.062557625177 
   101    102      1      0.140070606401  315369.603109081567 
   101    120      1      0.108603610657  323372.939138590940 
   102    121      1      0.108603610657  323372.939138590940 
   103    104      1      0.140070606401  315369.603109081567 
   103    108      1      0.140070606401  315369.603109081567 
   104    105      1      0.140070606401  315369.603109081567 
   104    122      1      0.108603610657  323372.939138590940 
   105    106      1      0.140070606401  315369.603109081567 
   105    123      1      0.108603610657  323372.939138590940 
   106    107      1      0.140070606401  315369.603109081567 
   106    124      1      0.108603610657  323372.939138590940 
   107    108      1      0.140070606401  315369.603109081567 
   107    109      1      0.150959128588  200304.454300773097 
   108    125      1      0.108603610657  323372.939138590940 
   109    110      1      0.146209979488  202028.005744964030 
   109    111      1      0.153362760384  180164.203623913403 
   109    126      1      0.109420646075  299423.062557625177 
   110    127      1      0.101860473038  402492.840307690029 
   110    133      1      0.138376574172  273614.770187574963 
   111    128      1      0.109420646075  299423.062557625177 
   111    129      1      0.109420646075  299423.062557625177 
   111    130      1      0.109420646075  299423.062557625177 
   112    113      1      0.140070606401  315369.603109081567 
   112    131      1      0.108603610657  323372.939138590940 
   113    132      1      0.108603610657  323372.939138590940 
   133    134      1      0.122500229618  637673.816836400889 
   133    135      1      0.146787322362  223784.907186336932 
   135    136      1      0.140070606401  315369.603109081567 
   135    157      1      0.140070606401  315369.603109081567 
   136    137      1      0.140070606401  315369.603109081567 
   136    158      1      0.108603610657  323372.939138590940 
   137    138      1      0.140070606401  315369.603109081567 
   137    159      1      0.108603610657  323372.939138590940 
   138    139      1      0.146787322362  223784.907186336932 
   138    156      1      0.140070606401  315369.603109081567 
   139    140      1      0.140070606401  315369.603109081567 
   139    146      1      0.140070606401  315369.603109081567 
   140    141      1      0.140070606401  315369.603109081567 
   140    147      1      0.146787322362  223784.907186336932 
   141    142      1      0.140070606401  315369.603109081567 
   141    160      1      0.108603610657  323372.939138590940 
   142    143      1      0.137202606628  266731.066406706930 
   142    145      1      0.140070606401  315369.603109081567 
   143    144      1      0.143632390591  189984.684332368197 
   144    161      1      0.109420646075  299423.062557625177 
   144    162      1      0.109420646075  299423.062557625177 
   144    163      1      0.109420646075  299423.062557625177 
   145    146      1      0.140070606401  315369.603109081567 
   145    164      1      0.108603610657  323372.939138590940 
   146    165      1      0.108603610657  323372.939138590940 
   147    148      1      0.140070606401  315369.603109081567 
   147    152      1      0.140070606401  315369.603109081567 
   148    149      1      0.140070606401  315369.603109081567 
   148    166      1      0.108603610657  323372.939138590940 
   149    150      1      0.140070606401  315369.603109081567 
   149    167      1      0.108603610657  323372.939138590940 
   150    151      1      0.140070606401  315369.603109081567 
   150    168      1      0.108603610657  323372.939138590940 
   151    152      1      0.140070606401  315369.603109081567 
   151    153      1      0.150959128588  200304.454300773097 
   152    169      1      0.108603610657  323372.939138590940 
   153    154      1      0.146209979488  202028.005744964030 
   153    155      1      0.153362760384  180164.203623913403 
   153    170      1      0.109420646075  299423.062557625177 
   154    171      1      0.101860473038  402492.840307690029 
   154    187      1      0.138376574172  273614.770187574963 
   155    172      1      0.109420646075  299423.062557625177 
   155    173      1      0.109420646075  299423.062557625177 
   155    174      1      0.109420646075  299423.062557625177 
   156    157      1      0.140070606401  315369.603109081567 
   156    175      1      0.108603610657  323372.939138590940 
   157    176      1      0.108603610657  323372.939138590940 
   177    178      1      0.143632390591  189984.684332368197 
   177    179      1      0.109420646075  299423.062557625177 
   177    180      1      0.109420646075  299423.062557625177 
   177    181      1      0.109420646075  299423.062557625177 
   182    183      1      0.153362760384  180164.203623913403 
   182    189      1      0.109420646075  299423.062557625177 
   182    190      1      0.109420646075  299423.062557625177 
   182    191      1      0.109420646075  299423.062557625177 
   183    184      1      0.153362760384  180164.203623913403 
   183    185      1      0.153362760384  180164.203623913403 
   183    186      1      0.143632390591  189984.684332368197 
   184    192      1      0.109420646075  299423.062557625177 
   184    193      1      0.109420646075  299423.062557625177 
   184    194      1      0.109420646075  299423.062557625177 
   185    195      1      0.109420646075  299423.062557625177 
   185    196      1      0.109420646075  299423.062557625177 
   185    197      1      0.109420646075  299423.062557625177 
   186    187      1      0.135606196339  243795.038367059984 
   187    188      1      0.122500229618  637673.816836400889 

[ angles ]
;ai    aj   ak   funct theta  k
     1      3      4      1     120.104999638600     707.494800457430 
     1      3     25      1     120.104999638600     707.494800457430 
     1    178    177      1     112.873616114500    1003.288803783688 
     2      1      3      1     120.104999638600     707.494800457430 
     2      1    178      1     123.605890003500     529.778359969850 
     3      1    178      1     120.104999638600     707.494800457430 
     3      4      5      1     120.104999638600     707.494800457430 
     3      4     26      1     119.854485991700     275.494453586476 
     3     25     24      1     120.104999638600     707.494800457430 
     3     25     44      1     119.854485991700     275.494453586476 
     4      3     25      1     120.104999638600     707.494800457430 
     4      5      6      1     120.104999638600     707.494800457430 
     4      5     27      1     119.854485991700     275.494453586476 
     5      4     26      1     119.854485991700     275.494453586476 
     5      6      7      1     120.104999638600     707.494800457430 
     5      6     24      1     120.104999638600     707.494800457430 
     6      5     27      1     119.854485991700     275.494453586476 
     6      7      8      1     120.104999638600     707.494800457430 
     6      7     14      1     120.104999638600     707.494800457430 
     6     24     25      1     120.104999638600     707.494800457430 
     6     24     43      1     119.854485991700     275.494453586476 
     7      6     24      1     120.104999638600     707.494800457430 
     7      8      9      1     120.104999638600     707.494800457430 
     7      8     15      1     120.104999638600     707.494800457430 
     7     14     13      1     120.104999638600     707.494800457430 
     7     14     33      1     119.854485991700     275.494453586476 
     8      7     14      1     120.104999638600     707.494800457430 
     8      9     10      1     120.104999638600     707.494800457430 
     8      9     28      1     119.854485991700     275.494453586476 
     8     15     16      1     120.104999638600     707.494800457430 
     8     15     20      1     120.104999638600     707.494800457430 
     9      8     15      1     120.104999638600     707.494800457430 
     9     10     11      1     120.104999638600     707.494800457430 
     9     10     13      1     120.104999638600     707.494800457430 
    10      9     28      1     119.854485991700     275.494453586476 
    10     11     12      1     112.873616114500    1003.288803783688 
    10     13     14      1     120.104999638600     707.494800457430 
    10     13     32      1     119.854485991700     275.494453586476 
    11     10     13      1     120.104999638600     707.494800457430 
    11     12     29      1     109.938052758400     558.616871667870 
    11     12     30      1     109.938052758400     558.616871667870 
    11     12     31      1     109.938052758400     558.616871667870 
    13     14     33      1     119.854485991700     275.494453586476 
    14     13     32      1     119.854485991700     275.494453586476 
    15     16     17      1     120.104999638600     707.494800457430 
    15     16     34      1     119.854485991700     275.494453586476 
    15     20     19      1     120.104999638600     707.494800457430 
    15     20     37      1     119.854485991700     275.494453586476 
    16     15     20      1     120.104999638600     707.494800457430 
    16     17     18      1     120.104999638600     707.494800457430 
    16     17     35      1     119.854485991700     275.494453586476 
    17     16     34      1     119.854485991700     275.494453586476 
    17     18     19      1     120.104999638600     707.494800457430 
    17     18     36      1     119.854485991700     275.494453586476 
    18     17     35      1     119.854485991700     275.494453586476 
    18     19     20      1     120.104999638600     707.494800457430 
    18     19     21      1     120.104999638600     707.494800457430 
    19     18     36      1     119.854485991700     275.494453586476 
    19     20     37      1     119.854485991700     275.494453586476 
    19     21     22      1     109.938052758400     558.616871667870 
    19     21     23      1     109.938052758400     558.616871667870 
    19     21     38      1     109.938052758400     558.616871667870 
    20     19     21      1     120.104999638600     707.494800457430 
    21     22     39      1     118.063661129300     310.493309961378 
    21     22     45      1     121.770534386700     665.074567904266 
    21     23     40      1     109.938052758400     558.616871667870 
    21     23     41      1     109.938052758400     558.616871667870 
    21     23     42      1     109.938052758400     558.616871667870 
    22     21     23      1     109.938052758400     558.616871667870 
    22     21     38      1     109.938052758400     558.616871667870 
    22     45     46      1     120.104999638600     707.494800457430 
    22     45     47      1     120.104999638600     707.494800457430 
    23     21     38      1     109.938052758400     558.616871667870 
    24     25     44      1     119.854485991700     275.494453586476 
    25     24     43      1     119.854485991700     275.494453586476 
    29     12     30      1     108.354313526900     307.746905535118 
    29     12     31      1     108.354313526900     307.746905535118 
    30     12     31      1     108.354313526900     307.746905535118 
    39     22     45      1     118.063661129300     310.493309961378 
    40     23     41      1     108.354313526900     307.746905535118 
    40     23     42      1     108.354313526900     307.746905535118 
    41     23     42      1     108.354313526900     307.746905535118 
    45     47     48      1     120.104999638600     707.494800457430 
    45     47     69      1     120.104999638600     707.494800457430 
    46     45     47      1     120.104999638600     707.494800457430 
    47     48     49      1     120.104999638600     707.494800457430 
    47     48     70      1     119.854485991700     275.494453586476 
    47     69     68      1     120.104999638600     707.494800457430 
    47     69     88      1     119.854485991700     275.494453586476 
    48     47     69      1     120.104999638600     707.494800457430 
    48     49     50      1     120.104999638600     707.494800457430 
    48     49     71      1     119.854485991700     275.494453586476 
    49     48     70      1     119.854485991700     275.494453586476 
    49     50     51      1     120.104999638600     707.494800457430 
    49     50     68      1     120.104999638600     707.494800457430 
    50     49     71      1     119.854485991700     275.494453586476 
    50     51     52      1     120.104999638600     707.494800457430 
    50     51     58      1     120.104999638600     707.494800457430 
    50     68     69      1     120.104999638600     707.494800457430 
    50     68     87      1     119.854485991700     275.494453586476 
    51     50     68      1     120.104999638600     707.494800457430 
    51     52     53      1     120.104999638600     707.494800457430 
    51     52     59      1     120.104999638600     707.494800457430 
    51     58     57      1     120.104999638600     707.494800457430 
    51     58     77      1     119.854485991700     275.494453586476 
    52     51     58      1     120.104999638600     707.494800457430 
    52     53     54      1     120.104999638600     707.494800457430 
    52     53     72      1     119.854485991700     275.494453586476 
    52     59     60      1     120.104999638600     707.494800457430 
    52     59     64      1     120.104999638600     707.494800457430 
    53     52     59      1     120.104999638600     707.494800457430 
    53     54     55      1     120.104999638600     707.494800457430 
    53     54     57      1     120.104999638600     707.494800457430 
    54     53     72      1     119.854485991700     275.494453586476 
    54     55     56      1     112.873616114500    1003.288803783688 
    54     57     58      1     120.104999638600     707.494800457430 
    54     57     76      1     119.854485991700     275.494453586476 
    55     54     57      1     120.104999638600     707.494800457430 
    55     56     73      1     109.938052758400     558.616871667870 
    55     56     74      1     109.938052758400     558.616871667870 
    55     56     75      1     109.938052758400     558.616871667870 
    57     58     77      1     119.854485991700     275.494453586476 
    58     57     76      1     119.854485991700     275.494453586476 
    59     60     61      1     120.104999638600     707.494800457430 
    59     60     78      1     119.854485991700     275.494453586476 
    59     64     63      1     120.104999638600     707.494800457430 
    59     64     81      1     119.854485991700     275.494453586476 
    60     59     64      1     120.104999638600     707.494800457430 
    60     61     62      1     120.104999638600     707.494800457430 
    60     61     79      1     119.854485991700     275.494453586476 
    61     60     78      1     119.854485991700     275.494453586476 
    61     62     63      1     120.104999638600     707.494800457430 
    61     62     80      1     119.854485991700     275.494453586476 
    62     61     79      1     119.854485991700     275.494453586476 
    62     63     64      1     120.104999638600     707.494800457430 
    62     63     65      1     120.104999638600     707.494800457430 
    63     62     80      1     119.854485991700     275.494453586476 
    63     64     81      1     119.854485991700     275.494453586476 
    63     65     66      1     109.938052758400     558.616871667870 
    63     65     67      1     109.938052758400     558.616871667870 
    63     65     82      1     109.938052758400     558.616871667870 
    64     63     65      1     120.104999638600     707.494800457430 
    65     66     83      1     118.063661129300     310.493309961378 
    65     66     89      1     121.770534386700     665.074567904266 
    65     67     84      1     109.938052758400     558.616871667870 
    65     67     85      1     109.938052758400     558.616871667870 
    65     67     86      1     109.938052758400     558.616871667870 
    66     65     67      1     109.938052758400     558.616871667870 
    66     65     82      1     109.938052758400     558.616871667870 
    66     89     90      1     120.104999638600     707.494800457430 
    66     89     91      1     120.104999638600     707.494800457430 
    67     65     82      1     109.938052758400     558.616871667870 
    68     69     88      1     119.854485991700     275.494453586476 
    69     68     87      1     119.854485991700     275.494453586476 
    73     56     74      1     108.354313526900     307.746905535118 
    73     56     75      1     108.354313526900     307.746905535118 
    74     56     75      1     108.354313526900     307.746905535118 
    83     66     89      1     118.063661129300     310.493309961378 
    84     67     85      1     108.354313526900     307.746905535118 
    84     67     86      1     108.354313526900     307.746905535118 
    85     67     86      1     108.354313526900     307.746905535118 
    89     91     92      1     120.104999638600     707.494800457430 
    89     91    113      1     120.104999638600     707.494800457430 
    90     89     91      1     120.104999638600     707.494800457430 
    91     92     93      1     120.104999638600     707.494800457430 
    91     92    114      1     119.854485991700     275.494453586476 
    91    113    112      1     120.104999638600     707.494800457430 
    91    113    132      1     119.854485991700     275.494453586476 
    92     91    113      1     120.104999638600     707.494800457430 
    92     93     94      1     120.104999638600     707.494800457430 
    92     93    115      1     119.854485991700     275.494453586476 
    93     92    114      1     119.854485991700     275.494453586476 
    93     94     95      1     120.104999638600     707.494800457430 
    93     94    112      1     120.104999638600     707.494800457430 
    94     93    115      1     119.854485991700     275.494453586476 
    94     95     96      1     120.104999638600     707.494800457430 
    94     95    102      1     120.104999638600     707.494800457430 
    94    112    113      1     120.104999638600     707.494800457430 
    94    112    131      1     119.854485991700     275.494453586476 
    95     94    112      1     120.104999638600     707.494800457430 
    95     96     97      1     120.104999638600     707.494800457430 
    95     96    103      1     120.104999638600     707.494800457430 
    95    102    101      1     120.104999638600     707.494800457430 
    95    102    121      1     119.854485991700     275.494453586476 
    96     95    102      1     120.104999638600     707.494800457430 
    96     97     98      1     120.104999638600     707.494800457430 
    96     97    116      1     119.854485991700     275.494453586476 
    96    103    104      1     120.104999638600     707.494800457430 
    96    103    108      1     120.104999638600     707.494800457430 
    97     96    103      1     120.104999638600     707.494800457430 
    97     98     99      1     120.104999638600     707.494800457430 
    97     98    101      1     120.104999638600     707.494800457430 
    98     97    116      1     119.854485991700     275.494453586476 
    98     99    100      1     112.873616114500    1003.288803783688 
    98    101    102      1     120.104999638600     707.494800457430 
    98    101    120      1     119.854485991700     275.494453586476 
    99     98    101      1     120.104999638600     707.494800457430 
    99    100    117      1     109.938052758400     558.616871667870 
    99    100    118      1     109.938052758400     558.616871667870 
    99    100    119      1     109.938052758400     558.616871667870 
   101    102    121      1     119.854485991700     275.494453586476 
   102    101    120      1     119.854485991700     275.494453586476 
   103    104    105      1     120.104999638600     707.494800457430 
   103    104    122      1     119.854485991700     275.494453586476 
   103    108    107      1     120.104999638600     707.494800457430 
   103    108    125      1     119.854485991700     275.494453586476 
   104    103    108      1     120.104999638600     707.494800457430 
   104    105    106      1     120.104999638600     707.494800457430 
   104    105    123      1     119.854485991700     275.494453586476 
   105    104    122      1     119.854485991700     275.494453586476 
   105    106    107      1     120.104999638600     707.494800457430 
   105    106    124      1     119.854485991700     275.494453586476 
   106    105    123      1     119.854485991700     275.494453586476 
   106    107    108      1     120.104999638600     707.494800457430 
   106    107    109      1     120.104999638600     707.494800457430 
   107    106    124      1     119.854485991700     275.494453586476 
   107    108    125      1     119.854485991700     275.494453586476 
   107    109    110      1     109.938052758400     558.616871667870 
   107    109    111      1     109.938052758400     558.616871667870 
   107    109    126      1     109.938052758400     558.616871667870 
   108    107    109      1     120.104999638600     707.494800457430 
   109    110    127      1     118.063661129300     310.493309961378 
   109    110    133      1     121.770534386700     665.074567904266 
   109    111    128      1     109.938052758400     558.616871667870 
   109    111    129      1     109.938052758400     558.616871667870 
   109    111    130      1     109.938052758400     558.616871667870 
   110    109    111      1     109.938052758400     558.616871667870 
   110    109    126      1     109.938052758400     558.616871667870 
   110    133    134      1     120.104999638600     707.494800457430 
   110    133    135      1     120.104999638600     707.494800457430 
   111    109    126      1     109.938052758400     558.616871667870 
   112    113    132      1     119.854485991700     275.494453586476 
   113    112    131      1     119.854485991700     275.494453586476 
   117    100    118      1     108.354313526900     307.746905535118 
   117    100    119      1     108.354313526900     307.746905535118 
   118    100    119      1     108.354313526900     307.746905535118 
   127    110    133      1     118.063661129300     310.493309961378 
   128    111    129      1     108.354313526900     307.746905535118 
   128    111    130      1     108.354313526900     307.746905535118 
   129    111    130      1     108.354313526900     307.746905535118 
   133    135    136      1     120.104999638600     707.494800457430 
   133    135    157      1     120.104999638600     707.494800457430 
   134    133    135      1     120.104999638600     707.494800457430 
   135    136    137      1     120.104999638600     707.494800457430 
   135    136    158      1     119.854485991700     275.494453586476 
   135    157    156      1     120.104999638600     707.494800457430 
   135    157    176      1     119.854485991700     275.494453586476 
   136    135    157      1     120.104999638600     707.494800457430 
   136    137    138      1     120.104999638600     707.494800457430 
   136    137    159      1     119.854485991700     275.494453586476 
   137    136    158      1     119.854485991700     275.494453586476 
   137    138    139      1     120.104999638600     707.494800457430 
   137    138    156      1     120.104999638600     707.494800457430 
   138    137    159      1     119.854485991700     275.494453586476 
   138    139    140      1     120.104999638600     707.494800457430 
   138    139    146      1     120.104999638600     707.494800457430 
   138    156    157      1     120.104999638600     707.494800457430 
   138    156    175      1     119.854485991700     275.494453586476 
   139    138    156      1     120.104999638600     707.494800457430 
   139    140    141      1     120.104999638600     707.494800457430 
   139    140    147      1     120.104999638600     707.494800457430 
   139    146    145      1     120.104999638600     707.494800457430 
   139    146    165      1     119.854485991700     275.494453586476 
   140    139    146      1     120.104999638600     707.494800457430 
   140    141    142      1     120.104999638600     707.494800457430 
   140    141    160      1     119.854485991700     275.494453586476 
   140    147    148      1     120.104999638600     707.494800457430 
   140    147    152      1     120.104999638600     707.494800457430 
   141    140    147      1     120.104999638600     707.494800457430 
   141    142    143      1     120.104999638600     707.494800457430 
   141    142    145      1     120.104999638600     707.494800457430 
   142    141    160      1     119.854485991700     275.494453586476 
   142    143    144      1     112.873616114500    1003.288803783688 
   142    145    146      1     120.104999638600     707.494800457430 
   142    145    164      1     119.854485991700     275.494453586476 
   143    142    145      1     120.104999638600     707.494800457430 
   143    144    161      1     109.938052758400     558.616871667870 
   143    144    162      1     109.938052758400     558.616871667870 
   143    144    163      1     109.938052758400     558.616871667870 
   145    146    165      1     119.854485991700     275.494453586476 
   146    145    164      1     119.854485991700     275.494453586476 
   147    148    149      1     120.104999638600     707.494800457430 
   147    148    166      1     119.854485991700     275.494453586476 
   147    152    151      1     120.104999638600     707.494800457430 
   147    152    169      1     119.854485991700     275.494453586476 
   148    147    152      1     120.104999638600     707.494800457430 
   148    149    150      1     120.104999638600     707.494800457430 
   148    149    167      1     119.854485991700     275.494453586476 
   149    148    166      1     119.854485991700     275.494453586476 
   149    150    151      1     120.104999638600     707.494800457430 
   149    150    168      1     119.854485991700     275.494453586476 
   150    149    167      1     119.854485991700     275.494453586476 
   150    151    152      1     120.104999638600     707.494800457430 
   150    151    153      1     120.104999638600     707.494800457430 
   151    150    168      1     119.854485991700     275.494453586476 
   151    152    169      1     119.854485991700     275.494453586476 
   151    153    154      1     109.938052758400     558.616871667870 
   151    153    155      1     109.938052758400     558.616871667870 
   151    153    170      1     109.938052758400     558.616871667870 
   152    151    153      1     120.104999638600     707.494800457430 
   153    154    171      1     118.063661129300     310.493309961378 
   153    154    187      1     121.770534386700     665.074567904266 
   153    155    172      1     109.938052758400     558.616871667870 
   153    155    173      1     109.938052758400     558.616871667870 
   153    155    174      1     109.938052758400     558.616871667870 
   154    153    155      1     109.938052758400     558.616871667870 
   154    153    170      1     109.938052758400     558.616871667870 
   154    187    186      1     120.104999638600     707.494800457430 
   154    187    188      1     120.104999638600     707.494800457430 
   155    153    170      1     109.938052758400     558.616871667870 
   156    157    176      1     119.854485991700     275.494453586476 
   157    156    175      1     119.854485991700     275.494453586476 
   161    144    162      1     108.354313526900     307.746905535118 
   161    144    163      1     108.354313526900     307.746905535118 
   162    144    163      1     108.354313526900     307.746905535118 
   171    154    187      1     118.063661129300     310.493309961378 
   172    155    173      1     108.354313526900     307.746905535118 
   172    155    174      1     108.354313526900     307.746905535118 
   173    155    174      1     108.354313526900     307.746905535118 
   178    177    179      1     109.938052758400     558.616871667870 
   178    177    180      1     109.938052758400     558.616871667870 
   178    177    181      1     109.938052758400     558.616871667870 
   179    177    180      1     108.354313526900     307.746905535118 
   179    177    181      1     108.354313526900     307.746905535118 
   180    177    181      1     108.354313526900     307.746905535118 
   182    183    184      1     109.938052758400     558.616871667870 
   182    183    185      1     109.938052758400     558.616871667870 
   182    183    186      1     109.938052758400     558.616871667870 
   183    182    189      1     109.938052758400     558.616871667870 
   183    182    190      1     109.938052758400     558.616871667870 
   183    182    191      1     109.938052758400     558.616871667870 
   183    184    192      1     109.938052758400     558.616871667870 
   183    184    193      1     109.938052758400     558.616871667870 
   183    184    194      1     109.938052758400     558.616871667870 
   183    185    195      1     109.938052758400     558.616871667870 
   183    185    196      1     109.938052758400     558.616871667870 
   183    185    197      1     109.938052758400     558.616871667870 
   183    186    187      1     112.873616114500    1003.288803783688 
   184    183    185      1     109.938052758400     558.616871667870 
   184    183    186      1     109.938052758400     558.616871667870 
   185    183    186      1     109.938052758400     558.616871667870 
   186    187    188      1     123.605890003500     529.778359969850 
   189    182    190      1     108.354313526900     307.746905535118 
   189    182    191      1     108.354313526900     307.746905535118 
   190    182    191      1     108.354313526900     307.746905535118 
   192    184    193      1     108.354313526900     307.746905535118 
   192    184    194      1     108.354313526900     307.746905535118 
   193    184    194      1     108.354313526900     307.746905535118 
   195    185    196      1     108.354313526900     307.746905535118 
   195    185    197      1     108.354313526900     307.746905535118 
   196    185    197      1     108.354313526900     307.746905535118 

[ dihedrals ]
;ai    aj   ak   al   funct phi  k
     1     3     4     5     1    180.000000000000     13.675298757543                 2
     1     3     4    26     1    180.000000000000     13.675298757543                 2
     1     3    25    24     1    180.000000000000     13.675298757543                 2
     1     3    25    44     1    180.000000000000     13.675298757543                 2
     1   178   177   179     1      0.000000000000      1.100857953953                 3
     1   178   177   180     1      0.000000000000      1.100857953953                 3
     1   178   177   181     1      0.000000000000      1.100857953953                 3
     2     1     3     4     1      0.000000000000      0.107055651103                 1
     2     1     3     4     1    180.000000000000      1.816904651887                 2
     2     1     3     4     1      0.000000000000      0.160225412296                 3
     2     1     3     4     1    180.000000000000      0.243831718846                 4
     2     1     3    25     1      0.000000000000      0.107055651103                 1
     2     1     3    25     1    180.000000000000      1.816904651887                 2
     2     1     3    25     1      0.000000000000      0.160225412296                 3
     2     1     3    25     1    180.000000000000      0.243831718846                 4
     2     1   178   177     1      0.000000000000      4.021638603702                 1
     2     1   178   177     1    180.000000000000      3.196157922441                 2
     2     1   178   177     1      0.000000000000     -2.476400861278                 3
     2     1   178   177     1    180.000000000000      0.452215411827                 4
     3     1   178   177     1      0.000000000000      1.484081527090                 1
     3     1   178   177     1    180.000000000000     16.355095386872                 2
     3     1   178   177     1      0.000000000000      3.206488967918                 3
     3     1   178   177     1    180.000000000000      2.382262993899                 4
     3     4     5     6     1    180.000000000000     13.675298757543                 2
     3     4     5    27     1    180.000000000000     13.675298757543                 2
     3    25    24     6     1    180.000000000000     13.675298757543                 2
     3    25    24    43     1    180.000000000000     13.675298757543                 2
     4     3     1   178     1      0.000000000000     -0.098260483771                 1
     4     3     1   178     1    180.000000000000      2.074805946964                 2
     4     3     1   178     1      0.000000000000     -0.187455731877                 3
     4     3     1   178     1    180.000000000000     -0.081106129487                 4
     4     3    25    24     1    180.000000000000     13.675298757543                 2
     4     3    25    44     1    180.000000000000     13.675298757543                 2
     4     5     6     7     1    180.000000000000     13.675298757543                 2
     4     5     6    24     1    180.000000000000     13.675298757543                 2
     5     4     3    25     1    180.000000000000     13.675298757543                 2
     5     6     7     8     1      0.000000000000     -0.308947894954                 1
     5     6     7     8     1    180.000000000000      5.619524369057                 2
     5     6     7     8     1      0.000000000000     -0.340046447031                 3
     5     6     7     8     1    180.000000000000     -0.290340039238                 4
     5     6     7    14     1      0.000000000000      0.332737679989                 1
     5     6     7    14     1    180.000000000000      6.241045531363                 2
     5     6     7    14     1      0.000000000000      0.350594573617                 3
     5     6     7    14     1    180.000000000000      2.040976776260                 4
     5     6    24    25     1    180.000000000000     13.675298757543                 2
     5     6    24    43     1    180.000000000000     13.675298757543                 2
     6     5     4    26     1    180.000000000000     13.675298757543                 2
     6     7     8     9     1    180.000000000000     13.675298757543                 2
     6     7     8    15     1    180.000000000000     13.675298757543                 2
     6     7    14    13     1    180.000000000000     13.675298757543                 2
     6     7    14    33     1    180.000000000000     13.675298757543                 2
     6    24    25    44     1    180.000000000000     13.675298757543                 2
     7     6     5    27     1    180.000000000000     13.675298757543                 2
     7     6    24    25     1    180.000000000000     13.675298757543                 2
     7     6    24    43     1    180.000000000000     13.675298757543                 2
     7     8     9    10     1    180.000000000000     13.675298757543                 2
     7     8     9    28     1    180.000000000000     13.675298757543                 2
     7     8    15    16     1    180.000000000000      5.177721731788                 2
     7     8    15    20     1    180.000000000000      5.177721731788                 2
     7    14    13    10     1    180.000000000000     13.675298757543                 2
     7    14    13    32     1    180.000000000000     13.675298757543                 2
     8     7     6    24     1      0.000000000000     -0.308947894954                 1
     8     7     6    24     1    180.000000000000      5.619524369057                 2
     8     7     6    24     1      0.000000000000     -0.340046447031                 3
     8     7     6    24     1    180.000000000000     -0.290340039238                 4
     8     7    14    13     1    180.000000000000     13.675298757543                 2
     8     7    14    33     1    180.000000000000     13.675298757543                 2
     8     9    10    11     1    180.000000000000     13.675298757543                 2
     8     9    10    13     1    180.000000000000     13.675298757543                 2
     8    15    16    17     1    180.000000000000     13.675298757543                 2
     8    15    16    34     1    180.000000000000     13.675298757543                 2
     8    15    20    19     1    180.000000000000     13.675298757543                 2
     8    15    20    37     1    180.000000000000     13.675298757543                 2
     9     8     7    14     1    180.000000000000     13.675298757543                 2
     9     8    15    16     1    180.000000000000      5.177721731788                 2
     9     8    15    20     1    180.000000000000      5.177721731788                 2
     9    10    11    12     1      0.000000000000      0.236078017091                 1
     9    10    11    12     1    180.000000000000      9.740730435859                 2
     9    10    11    12     1      0.000000000000      1.170361052752                 3
     9    10    11    12     1    180.000000000000      0.673323435809                 4
     9    10    13    14     1    180.000000000000     13.675298757543                 2
     9    10    13    32     1    180.000000000000     13.675298757543                 2
    10     9     8    15     1    180.000000000000     13.675298757543                 2
    10    11    12    29     1      0.000000000000      1.100857953953                 3
    10    11    12    30     1      0.000000000000      1.100857953953                 3
    10    11    12    31     1      0.000000000000      1.100857953953                 3
    10    13    14    33     1    180.000000000000     13.675298757543                 2
    11    10     9    28     1    180.000000000000     13.675298757543                 2
    11    10    13    14     1    180.000000000000     13.675298757543                 2
    11    10    13    32     1    180.000000000000     13.675298757543                 2
    12    11    10    13     1      0.000000000000      0.236078017091                 1
    12    11    10    13     1    180.000000000000      9.740730435859                 2
    12    11    10    13     1      0.000000000000      1.170361052752                 3
    12    11    10    13     1    180.000000000000      0.673323435809                 4
    13    10     9    28     1    180.000000000000     13.675298757543                 2
    14     7     6    24     1      0.000000000000      0.332737679989                 1
    14     7     6    24     1    180.000000000000      6.241045531363                 2
    14     7     6    24     1      0.000000000000      0.350594573617                 3
    14     7     6    24     1    180.000000000000      2.040976776260                 4
    14     7     8    15     1    180.000000000000     13.675298757543                 2
    15     8     9    28     1    180.000000000000     13.675298757543                 2
    15    16    17    18     1    180.000000000000     13.675298757543                 2
    15    16    17    35     1    180.000000000000     13.675298757543                 2
    15    20    19    18     1    180.000000000000     13.675298757543                 2
    15    20    19    21     1    180.000000000000     13.675298757543                 2
    16    15    20    19     1    180.000000000000     13.675298757543                 2
    16    15    20    37     1    180.000000000000     13.675298757543                 2
    16    17    18    19     1    180.000000000000     13.675298757543                 2
    16    17    18    36     1    180.000000000000     13.675298757543                 2
    17    16    15    20     1    180.000000000000     13.675298757543                 2
    17    18    19    20     1    180.000000000000     13.675298757543                 2
    17    18    19    21     1    180.000000000000     13.675298757543                 2
    18    17    16    34     1    180.000000000000     13.675298757543                 2
    18    19    20    37     1    180.000000000000     13.675298757543                 2
    18    19    21    22     1      0.000000000000      0.221753326088                 1
    18    19    21    22     1    180.000000000000      1.299862458481                 2
    18    19    21    22     1      0.000000000000      0.118966423346                 3
    18    19    21    22     1    180.000000000000      0.003887768499                 4
    18    19    21    23     1      0.000000000000     -0.108767185266                 1
    18    19    21    23     1    180.000000000000     -0.237337950820                 2
    18    19    21    23     1      0.000000000000      0.141283238172                 3
    18    19    21    23     1    180.000000000000     -0.018362932561                 4
    18    19    21    38     1      0.000000000000     -0.117001047566                 1
    18    19    21    38     1    180.000000000000     -0.964209023021                 2
    18    19    21    38     1      0.000000000000      0.135262462157                 3
    18    19    21    38     1    180.000000000000      0.143125188126                 4
    19    18    17    35     1    180.000000000000     13.675298757543                 2
    19    21    22    39     1      0.000000000000      3.795206736392                 1
    19    21    22    39     1    180.000000000000      2.731992010365                 2
    19    21    22    39     1      0.000000000000      1.178490203127                 3
    19    21    22    39     1    180.000000000000      0.680982368201                 4
    19    21    22    45     1      0.000000000000     -5.283416253109                 1
    19    21    22    45     1    180.000000000000      1.969468013709                 2
    19    21    22    45     1      0.000000000000     -0.684733966080                 3
    19    21    22    45     1    180.000000000000     -0.696312453945                 4
    19    21    23    40     1      0.000000000000      0.602098025234                 3
    19    21    23    41     1      0.000000000000      0.602098025234                 3
    19    21    23    42     1      0.000000000000      0.602098025234                 3
    20    15    16    34     1    180.000000000000     13.675298757543                 2
    20    19    18    36     1    180.000000000000     13.675298757543                 2
    20    19    21    22     1      0.000000000000      0.221753326088                 1
    20    19    21    22     1    180.000000000000      1.299862458481                 2
    20    19    21    22     1      0.000000000000      0.118966423346                 3
    20    19    21    22     1    180.000000000000      0.003887768499                 4
    20    19    21    23     1      0.000000000000     -0.108767185266                 1
    20    19    21    23     1    180.000000000000     -0.237337950820                 2
    20    19    21    23     1      0.000000000000      0.141283238172                 3
    20    19    21    23     1    180.000000000000     -0.018362932561                 4
    20    19    21    38     1      0.000000000000     -0.117001047566                 1
    20    19    21    38     1    180.000000000000     -0.964209023021                 2
    20    19    21    38     1      0.000000000000      0.135262462157                 3
    20    19    21    38     1    180.000000000000      0.143125188126                 4
    21    19    18    36     1    180.000000000000     13.675298757543                 2
    21    19    20    37     1    180.000000000000     13.675298757543                 2
    21    22    45    46     1      0.000000000000     -2.041329782339                 1
    21    22    45    46     1    180.000000000000      9.219714113350                 2
    21    22    45    46     1      0.000000000000      0.863845426974                 3
    21    22    45    46     1    180.000000000000     -1.039854456000                 4
    21    22    45    47     1      0.000000000000      0.964446782444                 1
    21    22    45    47     1    180.000000000000      8.660184024737                 2
    21    22    45    47     1      0.000000000000      1.675061635045                 3
    21    22    45    47     1    180.000000000000      2.299777089918                 4
    22    21    23    40     1      0.000000000000      0.602098025234                 3
    22    21    23    41     1      0.000000000000      0.602098025234                 3
    22    21    23    42     1      0.000000000000      0.602098025234                 3
    22    45    47    48     1      0.000000000000     -0.033440213172                 1
    22    45    47    48     1    180.000000000000      4.258742274293                 2
    22    45    47    48     1      0.000000000000     -0.109840488793                 3
    22    45    47    48     1    180.000000000000      0.083151508471                 4
    22    45    47    69     1      0.000000000000     -0.033440213172                 1
    22    45    47    69     1    180.000000000000      4.258742274293                 2
    22    45    47    69     1      0.000000000000     -0.109840488793                 3
    22    45    47    69     1    180.000000000000      0.083151508471                 4
    23    21    22    39     1      0.000000000000     -1.862873888189                 1
    23    21    22    39     1    180.000000000000      0.858578748757                 2
    23    21    22    39     1      0.000000000000      0.737867203340                 3
    23    21    22    39     1    180.000000000000     -0.404407247806                 4
    23    21    22    45     1      0.000000000000     -0.139073761561                 1
    23    21    22    45     1    180.000000000000      0.341942067192                 2
    23    21    22    45     1      0.000000000000     -1.198869313279                 3
    23    21    22    45     1    180.000000000000      0.108189160319                 4
    24     6     5    27     1    180.000000000000     13.675298757543                 2
    25     3     1   178     1      0.000000000000     -0.098260483771                 1
    25     3     1   178     1    180.000000000000      2.074805946964                 2
    25     3     1   178     1      0.000000000000     -0.187455731877                 3
    25     3     1   178     1    180.000000000000     -0.081106129487                 4
    25     3     4    26     1    180.000000000000     13.675298757543                 2
    26     4     5    27     1    180.000000000000     13.675298757543                 2
    32    13    14    33     1    180.000000000000     13.675298757543                 2
    34    16    17    35     1    180.000000000000     13.675298757543                 2
    35    17    18    36     1    180.000000000000     13.675298757543                 2
    38    21    22    39     1      0.000000000000     -2.109892557646                 1
    38    21    22    39     1    180.000000000000      0.758386257489                 2
    38    21    22    39     1      0.000000000000      1.023903228026                 3
    38    21    22    39     1    180.000000000000     -0.093457700696                 4
    38    21    22    45     1      0.000000000000      2.571821252737                 1
    38    21    22    45     1    180.000000000000      0.402264212368                 2
    38    21    22    45     1      0.000000000000      0.544808351066                 3
    38    21    22    45     1    180.000000000000      0.326656958037                 4
    38    21    23    40     1      0.000000000000      0.953929629431                 3
    38    21    23    41     1      0.000000000000      0.953929629431                 3
    38    21    23    42     1      0.000000000000      0.953929629431                 3
    39    22    45    46     1      0.000000000000      4.104753371999                 1
    39    22    45    46     1    180.000000000000      5.123642872582                 2
    39    22    45    46     1      0.000000000000     -0.314903082047                 3
    39    22    45    46     1    180.000000000000     -0.876500443746                 4
    39    22    45    47     1      0.000000000000      2.331208824521                 1
    39    22    45    47     1    180.000000000000      9.201282503573                 2
    39    22    45    47     1      0.000000000000     -0.116794304380                 3
    39    22    45    47     1    180.000000000000      1.090641712785                 4
    43    24    25    44     1    180.000000000000     13.675298757543                 2
    45    47    48    49     1    180.000000000000     13.675298757543                 2
    45    47    48    70     1    180.000000000000     13.675298757543                 2
    45    47    69    68     1    180.000000000000     13.675298757543                 2
    45    47    69    88     1    180.000000000000     13.675298757543                 2
    46    45    47    48     1      0.000000000000      0.023354911645                 1
    46    45    47    48     1    180.000000000000     -0.257015164946                 2
    46    45    47    48     1      0.000000000000      0.162670670970                 3
    46    45    47    48     1    180.000000000000      0.368049731448                 4
    46    45    47    69     1      0.000000000000      0.023354911645                 1
    46    45    47    69     1    180.000000000000     -0.257015164946                 2
    46    45    47    69     1      0.000000000000      0.162670670970                 3
    46    45    47    69     1    180.000000000000      0.368049731448                 4
    47    48    49    50     1    180.000000000000     13.675298757543                 2
    47    48    49    71     1    180.000000000000     13.675298757543                 2
    47    69    68    50     1    180.000000000000     13.675298757543                 2
    47    69    68    87     1    180.000000000000     13.675298757543                 2
    48    47    69    68     1    180.000000000000     13.675298757543                 2
    48    47    69    88     1    180.000000000000     13.675298757543                 2
    48    49    50    51     1    180.000000000000     13.675298757543                 2
    48    49    50    68     1    180.000000000000     13.675298757543                 2
    49    48    47    69     1    180.000000000000     13.675298757543                 2
    49    50    51    52     1      0.000000000000     -0.308947894954                 1
    49    50    51    52     1    180.000000000000      5.619524369057                 2
    49    50    51    52     1      0.000000000000     -0.340046447031                 3
    49    50    51    52     1    180.000000000000     -0.290340039238                 4
    49    50    51    58     1      0.000000000000      0.332737679989                 1
    49    50    51    58     1    180.000000000000      6.241045531363                 2
    49    50    51    58     1      0.000000000000      0.350594573617                 3
    49    50    51    58     1    180.000000000000      2.040976776260                 4
    49    50    68    69     1    180.000000000000     13.675298757543                 2
    49    50    68    87     1    180.000000000000     13.675298757543                 2
    50    49    48    70     1    180.000000000000     13.675298757543                 2
    50    51    52    53     1    180.000000000000     13.675298757543                 2
    50    51    52    59     1    180.000000000000     13.675298757543                 2
    50    51    58    57     1    180.000000000000     13.675298757543                 2
    50    51    58    77     1    180.000000000000     13.675298757543                 2
    50    68    69    88     1    180.000000000000     13.675298757543                 2
    51    50    49    71     1    180.000000000000     13.675298757543                 2
    51    50    68    69     1    180.000000000000     13.675298757543                 2
    51    50    68    87     1    180.000000000000     13.675298757543                 2
    51    52    53    54     1    180.000000000000     13.675298757543                 2
    51    52    53    72     1    180.000000000000     13.675298757543                 2
    51    52    59    60     1    180.000000000000      5.177721731788                 2
    51    52    59    64     1    180.000000000000      5.177721731788                 2
    51    58    57    54     1    180.000000000000     13.675298757543                 2
    51    58    57    76     1    180.000000000000     13.675298757543                 2
    52    51    50    68     1      0.000000000000     -0.308947894954                 1
    52    51    50    68     1    180.000000000000      5.619524369057                 2
    52    51    50    68     1      0.000000000000     -0.340046447031                 3
    52    51    50    68     1    180.000000000000     -0.290340039238                 4
    52    51    58    57     1    180.000000000000     13.675298757543                 2
    52    51    58    77     1    180.000000000000     13.675298757543                 2
    52    53    54    55     1    180.000000000000     13.675298757543                 2
    52    53    54    57     1    180.000000000000     13.675298757543                 2
    52    59    60    61     1    180.000000000000     13.675298757543                 2
    52    59    60    78     1    180.000000000000     13.675298757543                 2
    52    59    64    63     1    180.000000000000     13.675298757543                 2
    52    59    64    81     1    180.000000000000     13.675298757543                 2
    53    52    51    58     1    180.000000000000     13.675298757543                 2
    53    52    59    60     1    180.000000000000      5.177721731788                 2
    53    52    59    64     1    180.000000000000      5.177721731788                 2
    53    54    55    56     1      0.000000000000      0.236078017091                 1
    53    54    55    56     1    180.000000000000      9.740730435859                 2
    53    54    55    56     1      0.000000000000      1.170361052752                 3
    53    54    55    56     1    180.000000000000      0.673323435809                 4
    53    54    57    58     1    180.000000000000     13.675298757543                 2
    53    54    57    76     1    180.000000000000     13.675298757543                 2
    54    53    52    59     1    180.000000000000     13.675298757543                 2
    54    55    56    73     1      0.000000000000      1.100857953953                 3
    54    55    56    74     1      0.000000000000      1.100857953953                 3
    54    55    56    75     1      0.000000000000      1.100857953953                 3
    54    57    58    77     1    180.000000000000     13.675298757543                 2
    55    54    53    72     1    180.000000000000     13.675298757543                 2
    55    54    57    58     1    180.000000000000     13.675298757543                 2
    55    54    57    76     1    180.000000000000     13.675298757543                 2
    56    55    54    57     1      0.000000000000      0.236078017091                 1
    56    55    54    57     1    180.000000000000      9.740730435859                 2
    56    55    54    57     1      0.000000000000      1.170361052752                 3
    56    55    54    57     1    180.000000000000      0.673323435809                 4
    57    54    53    72     1    180.000000000000     13.675298757543                 2
    58    51    50    68     1      0.000000000000      0.332737679989                 1
    58    51    50    68     1    180.000000000000      6.241045531363                 2
    58    51    50    68     1      0.000000000000      0.350594573617                 3
    58    51    50    68     1    180.000000000000      2.040976776260                 4
    58    51    52    59     1    180.000000000000     13.675298757543                 2
    59    52    53    72     1    180.000000000000     13.675298757543                 2
    59    60    61    62     1    180.000000000000     13.675298757543                 2
    59    60    61    79     1    180.000000000000     13.675298757543                 2
    59    64    63    62     1    180.000000000000     13.675298757543                 2
    59    64    63    65     1    180.000000000000     13.675298757543                 2
    60    59    64    63     1    180.000000000000     13.675298757543                 2
    60    59    64    81     1    180.000000000000     13.675298757543                 2
    60    61    62    63     1    180.000000000000     13.675298757543                 2
    60    61    62    80     1    180.000000000000     13.675298757543                 2
    61    60    59    64     1    180.000000000000     13.675298757543                 2
    61    62    63    64     1    180.000000000000     13.675298757543                 2
    61    62    63    65     1    180.000000000000     13.675298757543                 2
    62    61    60    78     1    180.000000000000     13.675298757543                 2
    62    63    64    81     1    180.000000000000     13.675298757543                 2
    62    63    65    66     1      0.000000000000      0.221753326088                 1
    62    63    65    66     1    180.000000000000      1.299862458481                 2
    62    63    65    66     1      0.000000000000      0.118966423346                 3
    62    63    65    66     1    180.000000000000      0.003887768499                 4
    62    63    65    67     1      0.000000000000     -0.108767185266                 1
    62    63    65    67     1    180.000000000000     -0.237337950820                 2
    62    63    65    67     1      0.000000000000      0.141283238172                 3
    62    63    65    67     1    180.000000000000     -0.018362932561                 4
    62    63    65    82     1      0.000000000000     -0.117001047566                 1
    62    63    65    82     1    180.000000000000     -0.964209023021                 2
    62    63    65    82     1      0.000000000000      0.135262462157                 3
    62    63    65    82     1    180.000000000000      0.143125188126                 4
    63    62    61    79     1    180.000000000000     13.675298757543                 2
    63    65    66    83     1      0.000000000000      3.795206736392                 1
    63    65    66    83     1    180.000000000000      2.731992010365                 2
    63    65    66    83     1      0.000000000000      1.178490203127                 3
    63    65    66    83     1    180.000000000000      0.680982368201                 4
    63    65    66    89     1      0.000000000000     -5.283416253109                 1
    63    65    66    89     1    180.000000000000      1.969468013709                 2
    63    65    66    89     1      0.000000000000     -0.684733966080                 3
    63    65    66    89     1    180.000000000000     -0.696312453945                 4
    63    65    67    84     1      0.000000000000      0.602098025234                 3
    63    65    67    85     1      0.000000000000      0.602098025234                 3
    63    65    67    86     1      0.000000000000      0.602098025234                 3
    64    59    60    78     1    180.000000000000     13.675298757543                 2
    64    63    62    80     1    180.000000000000     13.675298757543                 2
    64    63    65    66     1      0.000000000000      0.221753326088                 1
    64    63    65    66     1    180.000000000000      1.299862458481                 2
    64    63    65    66     1      0.000000000000      0.118966423346                 3
    64    63    65    66     1    180.000000000000      0.003887768499                 4
    64    63    65    67     1      0.000000000000     -0.108767185266                 1
    64    63    65    67     1    180.000000000000     -0.237337950820                 2
    64    63    65    67     1      0.000000000000      0.141283238172                 3
    64    63    65    67     1    180.000000000000     -0.018362932561                 4
    64    63    65    82     1      0.000000000000     -0.117001047566                 1
    64    63    65    82     1    180.000000000000     -0.964209023021                 2
    64    63    65    82     1      0.000000000000      0.135262462157                 3
    64    63    65    82     1    180.000000000000      0.143125188126                 4
    65    63    62    80     1    180.000000000000     13.675298757543                 2
    65    63    64    81     1    180.000000000000     13.675298757543                 2
    65    66    89    90     1      0.000000000000     -2.041329782339                 1
    65    66    89    90     1    180.000000000000      9.219714113350                 2
    65    66    89    90     1      0.000000000000      0.863845426974                 3
    65    66    89    90     1    180.000000000000     -1.039854456000                 4
    65    66    89    91     1      0.000000000000      0.964446782444                 1
    65    66    89    91     1    180.000000000000      8.660184024737                 2
    65    66    89    91     1      0.000000000000      1.675061635045                 3
    65    66    89    91     1    180.000000000000      2.299777089918                 4
    66    65    67    84     1      0.000000000000      0.602098025234                 3
    66    65    67    85     1      0.000000000000      0.602098025234                 3
    66    65    67    86     1      0.000000000000      0.602098025234                 3
    66    89    91    92     1      0.000000000000     -0.033440213172                 1
    66    89    91    92     1    180.000000000000      4.258742274293                 2
    66    89    91    92     1      0.000000000000     -0.109840488793                 3
    66    89    91    92     1    180.000000000000      0.083151508471                 4
    66    89    91   113     1      0.000000000000     -0.033440213172                 1
    66    89    91   113     1    180.000000000000      4.258742274293                 2
    66    89    91   113     1      0.000000000000     -0.109840488793                 3
    66    89    91   113     1    180.000000000000      0.083151508471                 4
    67    65    66    83     1      0.000000000000     -1.862873888189                 1
    67    65    66    83     1    180.000000000000      0.858578748757                 2
    67    65    66    83     1      0.000000000000      0.737867203340                 3
    67    65    66    83     1    180.000000000000     -0.404407247806                 4
    67    65    66    89     1      0.000000000000     -0.139073761561                 1
    67    65    66    89     1    180.000000000000      0.341942067192                 2
    67    65    66    89     1      0.000000000000     -1.198869313279                 3
    67    65    66    89     1    180.000000000000      0.108189160319                 4
    68    50    49    71     1    180.000000000000     13.675298757543                 2
    69    47    48    70     1    180.000000000000     13.675298757543                 2
    70    48    49    71     1    180.000000000000     13.675298757543                 2
    76    57    58    77     1    180.000000000000     13.675298757543                 2
    78    60    61    79     1    180.000000000000     13.675298757543                 2
    79    61    62    80     1    180.000000000000     13.675298757543                 2
    82    65    66    83     1      0.000000000000     -2.109892557646                 1
    82    65    66    83     1    180.000000000000      0.758386257489                 2
    82    65    66    83     1      0.000000000000      1.023903228026                 3
    82    65    66    83     1    180.000000000000     -0.093457700696                 4
    82    65    66    89     1      0.000000000000      2.571821252737                 1
    82    65    66    89     1    180.000000000000      0.402264212368                 2
    82    65    66    89     1      0.000000000000      0.544808351066                 3
    82    65    66    89     1    180.000000000000      0.326656958037                 4
    82    65    67    84     1      0.000000000000      0.953929629431                 3
    82    65    67    85     1      0.000000000000      0.953929629431                 3
    82    65    67    86     1      0.000000000000      0.953929629431                 3
    83    66    89    90     1      0.000000000000      4.104753371999                 1
    83    66    89    90     1    180.000000000000      5.123642872582                 2
    83    66    89    90     1      0.000000000000     -0.314903082047                 3
    83    66    89    90     1    180.000000000000     -0.876500443746                 4
    83    66    89    91     1      0.000000000000      2.331208824521                 1
    83    66    89    91     1    180.000000000000      9.201282503573                 2
    83    66    89    91     1      0.000000000000     -0.116794304380                 3
    83    66    89    91     1    180.000000000000      1.090641712785                 4
    87    68    69    88     1    180.000000000000     13.675298757543                 2
    89    91    92    93     1    180.000000000000     13.675298757543                 2
    89    91    92   114     1    180.000000000000     13.675298757543                 2
    89    91   113   112     1    180.000000000000     13.675298757543                 2
    89    91   113   132     1    180.000000000000     13.675298757543                 2
    90    89    91    92     1      0.000000000000      0.023354911645                 1
    90    89    91    92     1    180.000000000000     -0.257015164946                 2
    90    89    91    92     1      0.000000000000      0.162670670970                 3
    90    89    91    92     1    180.000000000000      0.368049731448                 4
    90    89    91   113     1      0.000000000000      0.023354911645                 1
    90    89    91   113     1    180.000000000000     -0.257015164946                 2
    90    89    91   113     1      0.000000000000      0.162670670970                 3
    90    89    91   113     1    180.000000000000      0.368049731448                 4
    91    92    93    94     1    180.000000000000     13.675298757543                 2
    91    92    93   115     1    180.000000000000     13.675298757543                 2
    91   113   112    94     1    180.000000000000     13.675298757543                 2
    91   113   112   131     1    180.000000000000     13.675298757543                 2
    92    91   113   112     1    180.000000000000     13.675298757543                 2
    92    91   113   132     1    180.000000000000     13.675298757543                 2
    92    93    94    95     1    180.000000000000     13.675298757543                 2
    92    93    94   112     1    180.000000000000     13.675298757543                 2
    93    92    91   113     1    180.000000000000     13.675298757543                 2
    93    94    95    96     1      0.000000000000     -0.308947894954                 1
    93    94    95    96     1    180.000000000000      5.619524369057                 2
    93    94    95    96     1      0.000000000000     -0.340046447031                 3
    93    94    95    96     1    180.000000000000     -0.290340039238                 4
    93    94    95   102     1      0.000000000000      0.332737679989                 1
    93    94    95   102     1    180.000000000000      6.241045531363                 2
    93    94    95   102     1      0.000000000000      0.350594573617                 3
    93    94    95   102     1    180.000000000000      2.040976776260                 4
    93    94   112   113     1    180.000000000000     13.675298757543                 2
    93    94   112   131     1    180.000000000000     13.675298757543                 2
    94    93    92   114     1    180.000000000000     13.675298757543                 2
    94    95    96    97     1    180.000000000000     13.675298757543                 2
    94    95    96   103     1    180.000000000000     13.675298757543                 2
    94    95   102   101     1    180.000000000000     13.675298757543                 2
    94    95   102   121     1    180.000000000000     13.675298757543                 2
    94   112   113   132     1    180.000000000000     13.675298757543                 2
    95    94    93   115     1    180.000000000000     13.675298757543                 2
    95    94   112   113     1    180.000000000000     13.675298757543                 2
    95    94   112   131     1    180.000000000000     13.675298757543                 2
    95    96    97    98     1    180.000000000000     13.675298757543                 2
    95    96    97   116     1    180.000000000000     13.675298757543                 2
    95    96   103   104     1    180.000000000000      5.177721731788                 2
    95    96   103   108     1    180.000000000000      5.177721731788                 2
    95   102   101    98     1    180.000000000000     13.675298757543                 2
    95   102   101   120     1    180.000000000000     13.675298757543                 2
    96    95    94   112     1      0.000000000000     -0.308947894954                 1
    96    95    94   112     1    180.000000000000      5.619524369057                 2
    96    95    94   112     1      0.000000000000     -0.340046447031                 3
    96    95    94   112     1    180.000000000000     -0.290340039238                 4
    96    95   102   101     1    180.000000000000     13.675298757543                 2
    96    95   102   121     1    180.000000000000     13.675298757543                 2
    96    97    98    99     1    180.000000000000     13.675298757543                 2
    96    97    98   101     1    180.000000000000     13.675298757543                 2
    96   103   104   105     1    180.000000000000     13.675298757543                 2
    96   103   104   122     1    180.000000000000     13.675298757543                 2
    96   103   108   107     1    180.000000000000     13.675298757543                 2
    96   103   108   125     1    180.000000000000     13.675298757543                 2
    97    96    95   102     1    180.000000000000     13.675298757543                 2
    97    96   103   104     1    180.000000000000      5.177721731788                 2
    97    96   103   108     1    180.000000000000      5.177721731788                 2
    97    98    99   100     1      0.000000000000      0.236078017091                 1
    97    98    99   100     1    180.000000000000      9.740730435859                 2
    97    98    99   100     1      0.000000000000      1.170361052752                 3
    97    98    99   100     1    180.000000000000      0.673323435809                 4
    97    98   101   102     1    180.000000000000     13.675298757543                 2
    97    98   101   120     1    180.000000000000     13.675298757543                 2
    98    97    96   103     1    180.000000000000     13.675298757543                 2
    98    99   100   117     1      0.000000000000      1.100857953953                 3
    98    99   100   118     1      0.000000000000      1.100857953953                 3
    98    99   100   119     1      0.000000000000      1.100857953953                 3
    98   101   102   121     1    180.000000000000     13.675298757543                 2
    99    98    97   116     1    180.000000000000     13.675298757543                 2
    99    98   101   102     1    180.000000000000     13.675298757543                 2
    99    98   101   120     1    180.000000000000     13.675298757543                 2
   100    99    98   101     1      0.000000000000      0.236078017091                 1
   100    99    98   101     1    180.000000000000      9.740730435859                 2
   100    99    98   101     1      0.000000000000      1.170361052752                 3
   100    99    98   101     1    180.000000000000      0.673323435809                 4
   101    98    97   116     1    180.000000000000     13.675298757543                 2
   102    95    94   112     1      0.000000000000      0.332737679989                 1
   102    95    94   112     1    180.000000000000      6.241045531363                 2
   102    95    94   112     1      0.000000000000      0.350594573617                 3
   102    95    94   112     1    180.000000000000      2.040976776260                 4
   102    95    96   103     1    180.000000000000     13.675298757543                 2
   103    96    97   116     1    180.000000000000     13.675298757543                 2
   103   104   105   106     1    180.000000000000     13.675298757543                 2
   103   104   105   123     1    180.000000000000     13.675298757543                 2
   103   108   107   106     1    180.000000000000     13.675298757543                 2
   103   108   107   109     1    180.000000000000     13.675298757543                 2
   104   103   108   107     1    180.000000000000     13.675298757543                 2
   104   103   108   125     1    180.000000000000     13.675298757543                 2
   104   105   106   107     1    180.000000000000     13.675298757543                 2
   104   105   106   124     1    180.000000000000     13.675298757543                 2
   105   104   103   108     1    180.000000000000     13.675298757543                 2
   105   106   107   108     1    180.000000000000     13.675298757543                 2
   105   106   107   109     1    180.000000000000     13.675298757543                 2
   106   105   104   122     1    180.000000000000     13.675298757543                 2
   106   107   108   125     1    180.000000000000     13.675298757543                 2
   106   107   109   110     1      0.000000000000      0.221753326088                 1
   106   107   109   110     1    180.000000000000      1.299862458481                 2
   106   107   109   110     1      0.000000000000      0.118966423346                 3
   106   107   109   110     1    180.000000000000      0.003887768499                 4
   106   107   109   111     1      0.000000000000     -0.108767185266                 1
   106   107   109   111     1    180.000000000000     -0.237337950820                 2
   106   107   109   111     1      0.000000000000      0.141283238172                 3
   106   107   109   111     1    180.000000000000     -0.018362932561                 4
   106   107   109   126     1      0.000000000000     -0.117001047566                 1
   106   107   109   126     1    180.000000000000     -0.964209023021                 2
   106   107   109   126     1      0.000000000000      0.135262462157                 3
   106   107   109   126     1    180.000000000000      0.143125188126                 4
   107   106   105   123     1    180.000000000000     13.675298757543                 2
   107   109   110   127     1      0.000000000000      3.795206736392                 1
   107   109   110   127     1    180.000000000000      2.731992010365                 2
   107   109   110   127     1      0.000000000000      1.178490203127                 3
   107   109   110   127     1    180.000000000000      0.680982368201                 4
   107   109   110   133     1      0.000000000000     -5.283416253109                 1
   107   109   110   133     1    180.000000000000      1.969468013709                 2
   107   109   110   133     1      0.000000000000     -0.684733966080                 3
   107   109   110   133     1    180.000000000000     -0.696312453945                 4
   107   109   111   128     1      0.000000000000      0.602098025234                 3
   107   109   111   129     1      0.000000000000      0.602098025234                 3
   107   109   111   130     1      0.000000000000      0.602098025234                 3
   108   103   104   122     1    180.000000000000     13.675298757543                 2
   108   107   106   124     1    180.000000000000     13.675298757543                 2
   108   107   109   110     1      0.000000000000      0.221753326088                 1
   108   107   109   110     1    180.000000000000      1.299862458481                 2
   108   107   109   110     1      0.000000000000      0.118966423346                 3
   108   107   109   110     1    180.000000000000      0.003887768499                 4
   108   107   109   111     1      0.000000000000     -0.108767185266                 1
   108   107   109   111     1    180.000000000000     -0.237337950820                 2
   108   107   109   111     1      0.000000000000      0.141283238172                 3
   108   107   109   111     1    180.000000000000     -0.018362932561                 4
   108   107   109   126     1      0.000000000000     -0.117001047566                 1
   108   107   109   126     1    180.000000000000     -0.964209023021                 2
   108   107   109   126     1      0.000000000000      0.135262462157                 3
   108   107   109   126     1    180.000000000000      0.143125188126                 4
   109   107   106   124     1    180.000000000000     13.675298757543                 2
   109   107   108   125     1    180.000000000000     13.675298757543                 2
   109   110   133   134     1      0.000000000000     -2.041329782339                 1
   109   110   133   134     1    180.000000000000      9.219714113350                 2
   109   110   133   134     1      0.000000000000      0.863845426974                 3
   109   110   133   134     1    180.000000000000     -1.039854456000                 4
   109   110   133   135     1      0.000000000000      0.964446782444                 1
   109   110   133   135     1    180.000000000000      8.660184024737                 2
   109   110   133   135     1      0.000000000000      1.675061635045                 3
   109   110   133   135     1    180.000000000000      2.299777089918                 4
   110   109   111   128     1      0.000000000000      0.602098025234                 3
   110   109   111   129     1      0.000000000000      0.602098025234                 3
   110   109   111   130     1      0.000000000000      0.602098025234                 3
   110   133   135   136     1      0.000000000000     -0.033440213172                 1
   110   133   135   136     1    180.000000000000      4.258742274293                 2
   110   133   135   136     1      0.000000000000     -0.109840488793                 3
   110   133   135   136     1    180.000000000000      0.083151508471                 4
   110   133   135   157     1      0.000000000000     -0.033440213172                 1
   110   133   135   157     1    180.000000000000      4.258742274293                 2
   110   133   135   157     1      0.000000000000     -0.109840488793                 3
   110   133   135   157     1    180.000000000000      0.083151508471                 4
   111   109   110   127     1      0.000000000000     -1.862873888189                 1
   111   109   110   127     1    180.000000000000      0.858578748757                 2
   111   109   110   127     1      0.000000000000      0.737867203340                 3
   111   109   110   127     1    180.000000000000     -0.404407247806                 4
   111   109   110   133     1      0.000000000000     -0.139073761561                 1
   111   109   110   133     1    180.000000000000      0.341942067192                 2
   111   109   110   133     1      0.000000000000     -1.198869313279                 3
   111   109   110   133     1    180.000000000000      0.108189160319                 4
   112    94    93   115     1    180.000000000000     13.675298757543                 2
   113    91    92   114     1    180.000000000000     13.675298757543                 2
   114    92    93   115     1    180.000000000000     13.675298757543                 2
   120   101   102   121     1    180.000000000000     13.675298757543                 2
   122   104   105   123     1    180.000000000000     13.675298757543                 2
   123   105   106   124     1    180.000000000000     13.675298757543                 2
   126   109   110   127     1      0.000000000000     -2.109892557646                 1
   126   109   110   127     1    180.000000000000      0.758386257489                 2
   126   109   110   127     1      0.000000000000      1.023903228026                 3
   126   109   110   127     1    180.000000000000     -0.093457700696                 4
   126   109   110   133     1      0.000000000000      2.571821252737                 1
   126   109   110   133     1    180.000000000000      0.402264212368                 2
   126   109   110   133     1      0.000000000000      0.544808351066                 3
   126   109   110   133     1    180.000000000000      0.326656958037                 4
   126   109   111   128     1      0.000000000000      0.953929629431                 3
   126   109   111   129     1      0.000000000000      0.953929629431                 3
   126   109   111   130     1      0.000000000000      0.953929629431                 3
   127   110   133   134     1      0.000000000000      4.104753371999                 1
   127   110   133   134     1    180.000000000000      5.123642872582                 2
   127   110   133   134     1      0.000000000000     -0.314903082047                 3
   127   110   133   134     1    180.000000000000     -0.876500443746                 4
   127   110   133   135     1      0.000000000000      2.331208824521                 1
   127   110   133   135     1    180.000000000000      9.201282503573                 2
   127   110   133   135     1      0.000000000000     -0.116794304380                 3
   127   110   133   135     1    180.000000000000      1.090641712785                 4
   131   112   113   132     1    180.000000000000     13.675298757543                 2
   133   135   136   137     1    180.000000000000     13.675298757543                 2
   133   135   136   158     1    180.000000000000     13.675298757543                 2
   133   135   157   156     1    180.000000000000     13.675298757543                 2
   133   135   157   176     1    180.000000000000     13.675298757543                 2
   134   133   135   136     1      0.000000000000      0.023354911645                 1
   134   133   135   136     1    180.000000000000     -0.257015164946                 2
   134   133   135   136     1      0.000000000000      0.162670670970                 3
   134   133   135   136     1    180.000000000000      0.368049731448                 4
   134   133   135   157     1      0.000000000000      0.023354911645                 1
   134   133   135   157     1    180.000000000000     -0.257015164946                 2
   134   133   135   157     1      0.000000000000      0.162670670970                 3
   134   133   135   157     1    180.000000000000      0.368049731448                 4
   135   136   137   138     1    180.000000000000     13.675298757543                 2
   135   136   137   159     1    180.000000000000     13.675298757543                 2
   135   157   156   138     1    180.000000000000     13.675298757543                 2
   135   157   156   175     1    180.000000000000     13.675298757543                 2
   136   135   157   156     1    180.000000000000     13.675298757543                 2
   136   135   157   176     1    180.000000000000     13.675298757543                 2
   136   137   138   139     1    180.000000000000     13.675298757543                 2
   136   137   138   156     1    180.000000000000     13.675298757543                 2
   137   136   135   157     1    180.000000000000     13.675298757543                 2
   137   138   139   140     1      0.000000000000     -0.308947894954                 1
   137   138   139   140     1    180.000000000000      5.619524369057                 2
   137   138   139   140     1      0.000000000000     -0.340046447031                 3
   137   138   139   140     1    180.000000000000     -0.290340039238                 4
   137   138   139   146     1      0.000000000000      0.332737679989                 1
   137   138   139   146     1    180.000000000000      6.241045531363                 2
   137   138   139   146     1      0.000000000000      0.350594573617                 3
   137   138   139   146     1    180.000000000000      2.040976776260                 4
   137   138   156   157     1    180.000000000000     13.675298757543                 2
   137   138   156   175     1    180.000000000000     13.675298757543                 2
   138   137   136   158     1    180.000000000000     13.675298757543                 2
   138   139   140   141     1    180.000000000000     13.675298757543                 2
   138   139   140   147     1    180.000000000000     13.675298757543                 2
   138   139   146   145     1    180.000000000000     13.675298757543                 2
   138   139   146   165     1    180.000000000000     13.675298757543                 2
   138   156   157   176     1    180.000000000000     13.675298757543                 2
   139   138   137   159     1    180.000000000000     13.675298757543                 2
   139   138   156   157     1    180.000000000000     13.675298757543                 2
   139   138   156   175     1    180.000000000000     13.675298757543                 2
   139   140   141   142     1    180.000000000000     13.675298757543                 2
   139   140   141   160     1    180.000000000000     13.675298757543                 2
   139   140   147   148     1    180.000000000000      5.177721731788                 2
   139   140   147   152     1    180.000000000000      5.177721731788                 2
   139   146   145   142     1    180.000000000000     13.675298757543                 2
   139   146   145   164     1    180.000000000000     13.675298757543                 2
   140   139   138   156     1      0.000000000000     -0.308947894954                 1
   140   139   138   156     1    180.000000000000      5.619524369057                 2
   140   139   138   156     1      0.000000000000     -0.340046447031                 3
   140   139   138   156     1    180.000000000000     -0.290340039238                 4
   140   139   146   145     1    180.000000000000     13.675298757543                 2
   140   139   146   165     1    180.000000000000     13.675298757543                 2
   140   141   142   143     1    180.000000000000     13.675298757543                 2
   140   141   142   145     1    180.000000000000     13.675298757543                 2
   140   147   148   149     1    180.000000000000     13.675298757543                 2
   140   147   148   166     1    180.000000000000     13.675298757543                 2
   140   147   152   151     1    180.000000000000     13.675298757543                 2
   140   147   152   169     1    180.000000000000     13.675298757543                 2
   141   140   139   146     1    180.000000000000     13.675298757543                 2
   141   140   147   148     1    180.000000000000      5.177721731788                 2
   141   140   147   152     1    180.000000000000      5.177721731788                 2
   141   142   143   144     1      0.000000000000      0.236078017091                 1
   141   142   143   144     1    180.000000000000      9.740730435859                 2
   141   142   143   144     1      0.000000000000      1.170361052752                 3
   141   142   143   144     1    180.000000000000      0.673323435809                 4
   141   142   145   146     1    180.000000000000     13.675298757543                 2
   141   142   145   164     1    180.000000000000     13.675298757543                 2
   142   141   140   147     1    180.000000000000     13.675298757543                 2
   142   143   144   161     1      0.000000000000      1.100857953953                 3
   142   143   144   162     1      0.000000000000      1.100857953953                 3
   142   143   144   163     1      0.000000000000      1.100857953953                 3
   142   145   146   165     1    180.000000000000     13.675298757543                 2
   143   142   141   160     1    180.000000000000     13.675298757543                 2
   143   142   145   146     1    180.000000000000     13.675298757543                 2
   143   142   145   164     1    180.000000000000     13.675298757543                 2
   144   143   142   145     1      0.000000000000      0.236078017091                 1
   144   143   142   145     1    180.000000000000      9.740730435859                 2
   144   143   142   145     1      0.000000000000      1.170361052752                 3
   144   143   142   145     1    180.000000000000      0.673323435809                 4
   145   142   141   160     1    180.000000000000     13.675298757543                 2
   146   139   138   156     1      0.000000000000      0.332737679989                 1
   146   139   138   156     1    180.000000000000      6.241045531363                 2
   146   139   138   156     1      0.000000000000      0.350594573617                 3
   146   139   138   156     1    180.000000000000      2.040976776260                 4
   146   139   140   147     1    180.000000000000     13.675298757543                 2
   147   140   141   160     1    180.000000000000     13.675298757543                 2
   147   148   149   150     1    180.000000000000     13.675298757543                 2
   147   148   149   167     1    180.000000000000     13.675298757543                 2
   147   152   151   150     1    180.000000000000     13.675298757543                 2
   147   152   151   153     1    180.000000000000     13.675298757543                 2
   148   147   152   151     1    180.000000000000     13.675298757543                 2
   148   147   152   169     1    180.000000000000     13.675298757543                 2
   148   149   150   151     1    180.000000000000     13.675298757543                 2
   148   149   150   168     1    180.000000000000     13.675298757543                 2
   149   148   147   152     1    180.000000000000     13.675298757543                 2
   149   150   151   152     1    180.000000000000     13.675298757543                 2
   149   150   151   153     1    180.000000000000     13.675298757543                 2
   150   149   148   166     1    180.000000000000     13.675298757543                 2
   150   151   152   169     1    180.000000000000     13.675298757543                 2
   150   151   153   154     1      0.000000000000      0.151972910288                 1
   150   151   153   154     1    180.000000000000      1.027589649689                 2
   150   151   153   154     1      0.000000000000      0.304941048506                 3
   150   151   153   154     1    180.000000000000      0.115424668227                 4
   150   151   153   155     1      0.000000000000     -0.067561195359                 1
   150   151   153   155     1    180.000000000000      0.040161237011                 2
   150   151   153   155     1      0.000000000000      0.309520865889                 3
   150   151   153   155     1    180.000000000000      0.119153433538                 4
   150   151   153   170     1      0.000000000000     -0.090903013203                 1
   150   151   153   170     1    180.000000000000     -0.727199346019                 2
   150   151   153   170     1      0.000000000000      0.310657605409                 3
   150   151   153   170     1    180.000000000000      0.249043887745                 4
   151   150   149   167     1    180.000000000000     13.675298757543                 2
   151   153   154   171     1      0.000000000000      2.632749175013                 1
   151   153   154   171     1    180.000000000000      1.653849029994                 2
   151   153   154   171     1      0.000000000000      0.719197143440                 3
   151   153   154   171     1    180.000000000000      0.216735995462                 4
   151   153   154   187     1      0.000000000000     -4.416604204022                 1
   151   153   154   187     1    180.000000000000      2.096260558791                 2
   151   153   154   187     1      0.000000000000     -0.899049358486                 3
   151   153   154   187     1    180.000000000000     -0.248418304622                 4
   151   153   155   172     1      0.000000000000      0.602098025234                 3
   151   153   155   173     1      0.000000000000      0.602098025234                 3
   151   153   155   174     1      0.000000000000      0.602098025234                 3
   152   147   148   166     1    180.000000000000     13.675298757543                 2
   152   151   150   168     1    180.000000000000     13.675298757543                 2
   152   151   153   154     1      0.000000000000      0.151972910288                 1
   152   151   153   154     1    180.000000000000      1.027589649689                 2
   152   151   153   154     1      0.000000000000      0.304941048506                 3
   152   151   153   154     1    180.000000000000      0.115424668227                 4
   152   151   153   155     1      0.000000000000     -0.067561195359                 1
   152   151   153   155     1    180.000000000000      0.040161237011                 2
   152   151   153   155     1      0.000000000000      0.309520865889                 3
   152   151   153   155     1    180.000000000000      0.119153433538                 4
   152   151   153   170     1      0.000000000000     -0.090903013203                 1
   152   151   153   170     1    180.000000000000     -0.727199346019                 2
   152   151   153   170     1      0.000000000000      0.310657605409                 3
   152   151   153   170     1    180.000000000000      0.249043887745                 4
   153   151   150   168     1    180.000000000000     13.675298757543                 2
   153   151   152   169     1    180.000000000000     13.675298757543                 2
   153   154   187   186     1      0.000000000000      1.094570153634                 1
   153   154   187   186     1    180.000000000000      8.660567501182                 2
   153   154   187   186     1      0.000000000000      0.178513771390                 3
   153   154   187   186     1    180.000000000000     -0.676986401551                 4
   153   154   187   188     1      0.000000000000      1.152080701120                 1
   153   154   187   188     1    180.000000000000      8.186915160475                 2
   153   154   187   188     1      0.000000000000      1.544374423805                 3
   153   154   187   188     1    180.000000000000     -1.261986778483                 4
   154   153   155   172     1      0.000000000000      0.602098025234                 3
   154   153   155   173     1      0.000000000000      0.602098025234                 3
   154   153   155   174     1      0.000000000000      0.602098025234                 3
   154   187   186   183     1      0.000000000000      1.713182977855                 1
   154   187   186   183     1    180.000000000000     18.470639540346                 2
   154   187   186   183     1      0.000000000000     -0.186707222190                 3
   154   187   186   183     1    180.000000000000      1.935921375660                 4
   155   153   154   171     1      0.000000000000     -1.923301015944                 1
   155   153   154   171     1    180.000000000000      1.564807623133                 2
   155   153   154   171     1      0.000000000000      1.084614860886                 3
   155   153   154   171     1    180.000000000000      0.085656975582                 4
   155   153   154   187     1      0.000000000000     -0.722196960120                 1
   155   153   154   187     1    180.000000000000     -0.129063759991                 2
   155   153   154   187     1      0.000000000000     -1.461763513490                 3
   155   153   154   187     1    180.000000000000     -0.558876817001                 4
   156   138   137   159     1    180.000000000000     13.675298757543                 2
   157   135   136   158     1    180.000000000000     13.675298757543                 2
   158   136   137   159     1    180.000000000000     13.675298757543                 2
   164   145   146   165     1    180.000000000000     13.675298757543                 2
   166   148   149   167     1    180.000000000000     13.675298757543                 2
   167   149   150   168     1    180.000000000000     13.675298757543                 2
   170   153   154   171     1      0.000000000000     -0.856946171789                 1
   170   153   154   171     1    180.000000000000      1.012344116130                 2
   170   153   154   171     1      0.000000000000      0.846491879683                 3
   170   153   154   171     1    180.000000000000     -0.728810438553                 4
   170   153   154   187     1      0.000000000000      2.317749387851                 1
   170   153   154   187     1    180.000000000000      0.698044530179                 2
   170   153   154   187     1      0.000000000000      0.234232501781                 3
   170   153   154   187     1    180.000000000000      0.396587349243                 4
   170   153   155   172     1      0.000000000000      0.953929629431                 3
   170   153   155   173     1      0.000000000000      0.953929629431                 3
   170   153   155   174     1      0.000000000000      0.953929629431                 3
   171   154   187   186     1      0.000000000000      1.945262260747                 1
   171   154   187   186     1    180.000000000000      8.489416618412                 2
   171   154   187   186     1      0.000000000000     -0.029207038057                 3
   171   154   187   186     1    180.000000000000     -1.447220678186                 4
   171   154   187   188     1      0.000000000000      4.786628614051                 1
   171   154   187   188     1    180.000000000000      1.808203842380                 2
   171   154   187   188     1      0.000000000000      1.044544660029                 3
   171   154   187   188     1    180.000000000000     -1.749787212754                 4
   175   156   157   176     1    180.000000000000     13.675298757543                 2
   182   183   184   192     1      0.000000000000      0.412282083439                 3
   182   183   184   193     1      0.000000000000      0.412282083439                 3
   182   183   184   194     1      0.000000000000      0.412282083439                 3
   182   183   185   195     1      0.000000000000      0.412282083439                 3
   182   183   185   196     1      0.000000000000      0.412282083439                 3
   182   183   185   197     1      0.000000000000      0.412282083439                 3
   182   183   186   187     1      0.000000000000      1.589798332858                 1
   182   183   186   187     1    180.000000000000      0.153563116844                 2
   182   183   186   187     1      0.000000000000     -1.754248033324                 3
   182   183   186   187     1    180.000000000000      1.312427769725                 4
   183   186   187   188     1      0.000000000000      3.873151460011                 1
   183   186   187   188     1    180.000000000000      4.730387223375                 2
   183   186   187   188     1      0.000000000000      0.574450564286                 3
   183   186   187   188     1    180.000000000000      0.775073396114                 4
   184   183   182   189     1      0.000000000000      0.412282083439                 3
   184   183   182   190     1      0.000000000000      0.412282083439                 3
   184   183   182   191     1      0.000000000000      0.412282083439                 3
   184   183   185   195     1      0.000000000000      0.412282083439                 3
   184   183   185   196     1      0.000000000000      0.412282083439                 3
   184   183   185   197     1      0.000000000000      0.412282083439                 3
   184   183   186   187     1      0.000000000000      1.589798332858                 1
   184   183   186   187     1    180.000000000000      0.153563116844                 2
   184   183   186   187     1      0.000000000000     -1.754248033324                 3
   184   183   186   187     1    180.000000000000      1.312427769725                 4
   185   183   182   189     1      0.000000000000      0.412282083439                 3
   185   183   182   190     1      0.000000000000      0.412282083439                 3
   185   183   182   191     1      0.000000000000      0.412282083439                 3
   185   183   184   192     1      0.000000000000      0.412282083439                 3
   185   183   184   193     1      0.000000000000      0.412282083439                 3
   185   183   184   194     1      0.000000000000      0.412282083439                 3
   185   183   186   187     1      0.000000000000      1.589798332858                 1
   185   183   186   187     1    180.000000000000      0.153563116844                 2
   185   183   186   187     1      0.000000000000     -1.754248033324                 3
   185   183   186   187     1    180.000000000000      1.312427769725                 4
   186   183   182   189     1      0.000000000000      0.548667589915                 3
   186   183   182   189     1      0.000000000000      1.826511275305                 1
   186   183   182   190     1      0.000000000000      0.548667589915                 3
   186   183   182   190     1      0.000000000000      1.826511275305                 1
   186   183   182   191     1      0.000000000000      0.548667589915                 3
   186   183   182   191     1      0.000000000000      1.826511275305                 1
   186   183   184   192     1      0.000000000000      0.548667589915                 3
   186   183   184   192     1      0.000000000000      1.826511275305                 1
   186   183   184   193     1      0.000000000000      0.548667589915                 3
   186   183   184   193     1      0.000000000000      1.826511275305                 1
   186   183   184   194     1      0.000000000000      0.548667589915                 3
   186   183   184   194     1      0.000000000000      1.826511275305                 1
   186   183   185   195     1      0.000000000000      0.548667589915                 3
   186   183   185   195     1      0.000000000000      1.826511275305                 1
   186   183   185   196     1      0.000000000000      0.548667589915                 3
   186   183   185   196     1      0.000000000000      1.826511275305                 1
   186   183   185   197     1      0.000000000000      0.548667589915                 3
   186   183   185   197     1      0.000000000000      1.826511275305                 1
    52    51    53    59     4    180.000000000000      7.295209241758                 2
   103   104   108    96     4    180.000000000000      7.295209241758                 2
    48    70    47    49     4    180.000000000000      7.295209241758                 2
   103    96   104   108     4    180.000000000000      7.295209241758                 2
     6     7    24     5     4    180.000000000000      7.295209241758                 2
   147   140   148   152     4    180.000000000000      7.295209241758                 2
    89    66    90    91     4    180.000000000000      7.295209241758                 2
    61    79    60    62     4    180.000000000000      7.295209241758                 2
    92    91    93   114     4    180.000000000000      7.295209241758                 2
    47    48    69    45     4    180.000000000000      7.295209241758                 2
     3     4    25     1     4    180.000000000000      7.295209241758                 2
   108   107   125   103     4    180.000000000000      7.295209241758                 2
    20    19    37    15     4    180.000000000000      7.295209241758                 2
   110   109   127   133     4    180.000000000000      1.752067434103                 2
    58    77    51    57     4    180.000000000000      7.295209241758                 2
     8    15     7     9     4    180.000000000000      7.295209241758                 2
    14    33     7    13     4    180.000000000000      7.295209241758                 2
   147   148   152   140     4    180.000000000000      7.295209241758                 2
    97    98   116    96     4    180.000000000000      7.295209241758                 2
    98    99   101    97     4    180.000000000000      7.295209241758                 2
   146   145   165   139     4    180.000000000000      7.295209241758                 2
   139   138   140   146     4    180.000000000000      7.295209241758                 2
    17    35    16    18     4    180.000000000000      7.295209241758                 2
   145   164   142   146     4    180.000000000000      7.295209241758                 2
   133   135   110   134     4    180.000000000000      7.295209241758                 2
    98    97    99   101     4    180.000000000000      7.295209241758                 2
   113   112   132    91     4    180.000000000000      7.295209241758                 2
    50    68    49    51     4    180.000000000000      7.295209241758                 2
    93    92    94   115     4    180.000000000000      7.295209241758                 2
    19    21    18    20     4    180.000000000000      7.295209241758                 2
   138   139   156   137     4    180.000000000000      7.295209241758                 2
     7     8    14     6     4    180.000000000000      7.295209241758                 2
   140   141   147   139     4    180.000000000000      7.295209241758                 2
     9    28     8    10     4    180.000000000000      7.295209241758                 2
    94    95   112    93     4    180.000000000000      7.295209241758                 2
   151   152   153   150     4    180.000000000000      7.295209241758                 2
   150   149   151   168     4    180.000000000000      7.295209241758                 2
    47    45    48    69     4    180.000000000000      7.295209241758                 2
   139   140   146   138     4    180.000000000000      7.295209241758                 2
    94   112    93    95     4    180.000000000000      7.295209241758                 2
    69    47    68    88     4    180.000000000000      7.295209241758                 2
   145   146   164   142     4    180.000000000000      7.295209241758                 2
    91    89    92   113     4    180.000000000000      7.295209241758                 2
    54    53    55    57     4    180.000000000000      7.295209241758                 2
     7    14     6     8     4    180.000000000000      7.295209241758                 2
   103   108    96   104     4    180.000000000000      7.295209241758                 2
   136   135   137   158     4    180.000000000000      7.295209241758                 2
   139   146   138   140     4    180.000000000000      7.295209241758                 2
    54    57    53    55     4    180.000000000000      7.295209241758                 2
     4    26     3     5     4    180.000000000000      7.295209241758                 2
    62    63    80    61     4    180.000000000000      7.295209241758                 2
    69    88    47    68     4    180.000000000000      7.295209241758                 2
    58    51    57    77     4    180.000000000000      7.295209241758                 2
    53    54    72    52     4    180.000000000000      7.295209241758                 2
    60    61    78    59     4    180.000000000000      7.295209241758                 2
    49    48    50    71     4    180.000000000000      7.295209241758                 2
   110   127   133   109     4    180.000000000000      1.752067434103                 2
    60    78    59    61     4    180.000000000000      7.295209241758                 2
    93    94   115    92     4    180.000000000000      7.295209241758                 2
    63    65    62    64     4    180.000000000000      7.295209241758                 2
   187   154   186   188     4    180.000000000000     18.013091641645                 2
    14     7    13    33     4    180.000000000000      7.295209241758                 2
   187   186   188   154     4    180.000000000000     18.013091641645                 2
    64    63    81    59     4    180.000000000000      7.295209241758                 2
   113   132    91   112     4    180.000000000000      7.295209241758                 2
    53    52    54    72     4    180.000000000000      7.295209241758                 2
   108   125   103   107     4    180.000000000000      7.295209241758                 2
    66    83    89    65     4    180.000000000000      1.752067434103                 2
     4     5    26     3     4    180.000000000000      7.295209241758                 2
   107   106   108   109     4    180.000000000000      7.295209241758                 2
   149   148   150   167     4    180.000000000000      7.295209241758                 2
    25    24    44     3     4    180.000000000000      7.295209241758                 2
   151   150   152   153     4    180.000000000000      7.295209241758                 2
     8     9    15     7     4    180.000000000000      7.295209241758                 2
    64    59    63    81     4    180.000000000000      7.295209241758                 2
   135   136   157   133     4    180.000000000000      7.295209241758                 2
    95    94    96   102     4    180.000000000000      7.295209241758                 2
    97    96    98   116     4    180.000000000000      7.295209241758                 2
   108   103   107   125     4    180.000000000000      7.295209241758                 2
    17    16    18    35     4    180.000000000000      7.295209241758                 2
    51    58    50    52     4    180.000000000000      7.295209241758                 2
   102   101   121    95     4    180.000000000000      7.295209241758                 2
   107   109   106   108     4    180.000000000000      7.295209241758                 2
   101   120    98   102     4    180.000000000000      7.295209241758                 2
    16    15    17    34     4    180.000000000000      7.295209241758                 2
    54    55    57    53     4    180.000000000000      7.295209241758                 2
    18    36    17    19     4    180.000000000000      7.295209241758                 2
     5     4     6    27     4    180.000000000000      7.295209241758                 2
   135   133   136   157     4    180.000000000000      7.295209241758                 2
     7     6     8    14     4    180.000000000000      7.295209241758                 2
   157   176   135   156     4    180.000000000000      7.295209241758                 2
    92    93   114    91     4    180.000000000000      7.295209241758                 2
    24     6    25    43     4    180.000000000000      7.295209241758                 2
    64    81    59    63     4    180.000000000000      7.295209241758                 2
   136   158   135   137     4    180.000000000000      7.295209241758                 2
   140   147   139   141     4    180.000000000000      7.295209241758                 2
    98   101    97    99     4    180.000000000000      7.295209241758                 2
    10    11    13     9     4    180.000000000000      7.295209241758                 2
   145   142   146   164     4    180.000000000000      7.295209241758                 2
   142   143   145   141     4    180.000000000000      7.295209241758                 2
    16    34    15    17     4    180.000000000000      7.295209241758                 2
   137   138   159   136     4    180.000000000000      7.295209241758                 2
    96   103    95    97     4    180.000000000000      7.295209241758                 2
    52    53    59    51     4    180.000000000000      7.295209241758                 2
   138   156   137   139     4    180.000000000000      7.295209241758                 2
   146   165   139   145     4    180.000000000000      7.295209241758                 2
    49    71    48    50     4    180.000000000000      7.295209241758                 2
    63    62    64    65     4    180.000000000000      7.295209241758                 2
   141   140   142   160     4    180.000000000000      7.295209241758                 2
    68    69    87    50     4    180.000000000000      7.295209241758                 2
   112   131    94   113     4    180.000000000000      7.295209241758                 2
    19    18    20    21     4    180.000000000000      7.295209241758                 2
    97   116    96    98     4    180.000000000000      7.295209241758                 2
    94    93    95   112     4    180.000000000000      7.295209241758                 2
   137   136   138   159     4    180.000000000000      7.295209241758                 2
    57    58    76    54     4    180.000000000000      7.295209241758                 2
   148   149   166   147     4    180.000000000000      7.295209241758                 2
    47    69    45    48     4    180.000000000000      7.295209241758                 2
   142   141   143   145     4    180.000000000000      7.295209241758                 2
    19    20    21    18     4    180.000000000000      7.295209241758                 2
   156   175   138   157     4    180.000000000000      7.295209241758                 2
   105   104   106   123     4    180.000000000000      7.295209241758                 2
   152   147   151   169     4    180.000000000000      7.295209241758                 2
    91    92   113    89     4    180.000000000000      7.295209241758                 2
    52    59    51    53     4    180.000000000000      7.295209241758                 2
    13    14    32    10     4    180.000000000000      7.295209241758                 2
   150   151   168   149     4    180.000000000000      7.295209241758                 2
   154   187   153   171     4    180.000000000000      1.752067434103                 2
    10    13     9    11     4    180.000000000000      7.295209241758                 2
    49    50    71    48     4    180.000000000000      7.295209241758                 2
    58    57    77    51     4    180.000000000000      7.295209241758                 2
     6     5     7    24     4    180.000000000000      7.295209241758                 2
   149   167   148   150     4    180.000000000000      7.295209241758                 2
   105   123   104   106     4    180.000000000000      7.295209241758                 2
    25    44     3    24     4    180.000000000000      7.295209241758                 2
     6    24     5     7     4    180.000000000000      7.295209241758                 2
    96    95    97   103     4    180.000000000000      7.295209241758                 2
    20    37    15    19     4    180.000000000000      7.295209241758                 2
   133   134   135   110     4    180.000000000000      7.295209241758                 2
     3     1     4    25     4    180.000000000000      7.295209241758                 2
   102    95   101   121     4    180.000000000000      7.295209241758                 2
    60    59    61    78     4    180.000000000000      7.295209241758                 2
   157   156   176   135     4    180.000000000000      7.295209241758                 2
    61    62    79    60     4    180.000000000000      7.295209241758                 2
    62    80    61    63     4    180.000000000000      7.295209241758                 2
   187   188   154   186     4    180.000000000000     18.013091641645                 2
    89    91    66    90     4    180.000000000000      7.295209241758                 2
   152   151   169   147     4    180.000000000000      7.295209241758                 2
    53    72    52    54     4    180.000000000000      7.295209241758                 2
   154   153   171   187     4    180.000000000000      1.752067434103                 2
    15    16    20     8     4    180.000000000000      7.295209241758                 2
   150   168   149   151     4    180.000000000000      7.295209241758                 2
   141   160   140   142     4    180.000000000000      7.295209241758                 2
   141   142   160   140     4    180.000000000000      7.295209241758                 2
    17    18    35    16     4    180.000000000000      7.295209241758                 2
   147   152   140   148     4    180.000000000000      7.295209241758                 2
    18    19    36    17     4    180.000000000000      7.295209241758                 2
    51    52    58    50     4    180.000000000000      7.295209241758                 2
   137   159   136   138     4    180.000000000000      7.295209241758                 2
   136   137   158   135     4    180.000000000000      7.295209241758                 2
     1   178     2     3     4    180.000000000000     18.013091641645                 2
   106   107   124   105     4    180.000000000000      7.295209241758                 2
   148   147   149   166     4    180.000000000000      7.295209241758                 2
    14    13    33     7     4    180.000000000000      7.295209241758                 2
   112    94   113   131     4    180.000000000000      7.295209241758                 2
    57    54    58    76     4    180.000000000000      7.295209241758                 2
     5    27     4     6     4    180.000000000000      7.295209241758                 2
    25     3    24    44     4    180.000000000000      7.295209241758                 2
    13    10    14    32     4    180.000000000000      7.295209241758                 2
   106   124   105   107     4    180.000000000000      7.295209241758                 2
   104   122   103   105     4    180.000000000000      7.295209241758                 2
   151   153   150   152     4    180.000000000000      7.295209241758                 2
   146   139   145   165     4    180.000000000000      7.295209241758                 2
    61    60    62    79     4    180.000000000000      7.295209241758                 2
    45    46    47    22     4    180.000000000000      7.295209241758                 2
   102   121    95   101     4    180.000000000000      7.295209241758                 2
    24    25    43     6     4    180.000000000000      7.295209241758                 2
   156   157   175   138     4    180.000000000000      7.295209241758                 2
    59    60    64    52     4    180.000000000000      7.295209241758                 2
    48    47    49    70     4    180.000000000000      7.295209241758                 2
    22    39    45    21     4    180.000000000000      1.752067434103                 2
   157   135   156   176     4    180.000000000000      7.295209241758                 2
    45    47    22    46     4    180.000000000000      7.295209241758                 2
    50    49    51    68     4    180.000000000000      7.295209241758                 2
    59    64    52    60     4    180.000000000000      7.295209241758                 2
   149   150   167   148     4    180.000000000000      7.295209241758                 2
   106   105   107   124     4    180.000000000000      7.295209241758                 2
     9     8    10    28     4    180.000000000000      7.295209241758                 2
   101   102   120    98     4    180.000000000000      7.295209241758                 2
    69    68    88    47     4    180.000000000000      7.295209241758                 2
    59    52    60    64     4    180.000000000000      7.295209241758                 2
   105   106   123   104     4    180.000000000000      7.295209241758                 2
   104   103   105   122     4    180.000000000000      7.295209241758                 2
    91   113    89    92     4    180.000000000000      7.295209241758                 2
    96    97   103    95     4    180.000000000000      7.295209241758                 2
   104   105   122   103     4    180.000000000000      7.295209241758                 2
   152   169   147   151     4    180.000000000000      7.295209241758                 2
    22    45    21    39     4    180.000000000000      1.752067434103                 2
     1     2     3   178     4    180.000000000000     18.013091641645                 2
    68    50    69    87     4    180.000000000000      7.295209241758                 2
    13    32    10    14     4    180.000000000000      7.295209241758                 2
    45    22    46    47     4    180.000000000000      7.295209241758                 2
     5     6    27     4     4    180.000000000000      7.295209241758                 2
   112   113   131    94     4    180.000000000000      7.295209241758                 2
    48    49    70    47     4    180.000000000000      7.295209241758                 2
    66    65    83    89     4    180.000000000000      1.752067434103                 2
    62    61    63    80     4    180.000000000000      7.295209241758                 2
   156   138   157   175     4    180.000000000000      7.295209241758                 2
   138   137   139   156     4    180.000000000000      7.295209241758                 2
   148   166   147   149     4    180.000000000000      7.295209241758                 2
   101    98   102   120     4    180.000000000000      7.295209241758                 2
   154   171   187   153     4    180.000000000000      1.752067434103                 2
   110   133   109   127     4    180.000000000000      1.752067434103                 2
     1     3   178     2     4    180.000000000000     18.013091641645                 2
    20    15    19    37     4    180.000000000000      7.295209241758                 2
    92   114    91    93     4    180.000000000000      7.295209241758                 2
    50    51    68    49     4    180.000000000000      7.295209241758                 2
    15     8    16    20     4    180.000000000000      7.295209241758                 2
    93   115    92    94     4    180.000000000000      7.295209241758                 2
    51    50    52    58     4    180.000000000000      7.295209241758                 2
    24    43     6    25     4    180.000000000000      7.295209241758                 2
     3    25     1     4     4    180.000000000000      7.295209241758                 2
   113    91   112   132     4    180.000000000000      7.295209241758                 2
     8     7     9    15     4    180.000000000000      7.295209241758                 2
    18    17    19    36     4    180.000000000000      7.295209241758                 2
     9    10    28     8     4    180.000000000000      7.295209241758                 2
   140   139   141   147     4    180.000000000000      7.295209241758                 2
    95    96   102    94     4    180.000000000000      7.295209241758                 2
   107   108   109   106     4    180.000000000000      7.295209241758                 2
    63    64    65    62     4    180.000000000000      7.295209241758                 2
    68    87    50    69     4    180.000000000000      7.295209241758                 2
   135   157   133   136     4    180.000000000000      7.295209241758                 2
   142   145   141   143     4    180.000000000000      7.295209241758                 2
    89    90    91    66     4    180.000000000000      7.295209241758                 2
   133   110   134   135     4    180.000000000000      7.295209241758                 2
     4     3     5    26     4    180.000000000000      7.295209241758                 2
    95   102    94    96     4    180.000000000000      7.295209241758                 2
    15    20     8    16     4    180.000000000000      7.295209241758                 2
    57    76    54    58     4    180.000000000000      7.295209241758                 2
    22    21    39    45     4    180.000000000000      1.752067434103                 2
    10     9    11    13     4    180.000000000000      7.295209241758                 2
    16    17    34    15     4    180.000000000000      7.295209241758                 2
    66    89    65    83     4    180.000000000000      1.752067434103                 2

[ settles ]
;i  funct   dOH  dHH


[ exclusions ]
;ai    aj


[ system ]
;name
FOO

[ molecules ]
;name	number
mop_tetramer.pdb	1

