Generated by Interchange
197
    1MOP     C1    1  -0.301  -0.610  -0.113
    1MOP     O2    2  -0.395  -0.625  -0.190
    1MOP     C3    3  -0.258  -0.479  -0.060
    1MOP     C4    4  -0.160  -0.470   0.040
    1MOP     C5    5  -0.137  -0.349   0.104
    1MOP     C6    6  -0.210  -0.235   0.068
    1MOP     C7    7  -0.186  -0.109   0.137
    1MOP     C8    8  -0.063  -0.040   0.127
    1MOP     C9    9  -0.056   0.087   0.188
    1MOP    C10   10  -0.166   0.144   0.254
    1MOP    O11   11  -0.154   0.275   0.293
    1MOP    C12   12  -0.277   0.346   0.279
    1MOP    C13   13  -0.280   0.069   0.275
    1MOP    C14   14  -0.291  -0.056   0.215
    1MOP    C15   15   0.055  -0.092   0.054
    1MOP    C16   16   0.050  -0.127  -0.082
    1MOP    C17   17   0.164  -0.166  -0.152
    1MOP    C18   18   0.286  -0.176  -0.085
    1MOP    C19   19   0.296  -0.150   0.052
    1MOP    C20   20   0.178  -0.110   0.120
    1MOP    C21   21   0.426  -0.175   0.126
    1MOP    N22   22   0.433  -0.127   0.265
    1MOP    C23   23   0.557  -0.146   0.050
    1MOP    C24   24  -0.304  -0.243  -0.035
    1MOP    C25   25  -0.329  -0.364  -0.099
    1MOP    H26   26  -0.103  -0.557   0.071
    1MOP    H27   27  -0.062  -0.344   0.183
    1MOP    H28   28   0.034   0.146   0.177
    1MOP    H29   29  -0.256   0.453   0.279
    1MOP    H30   30  -0.342   0.324   0.364
    1MOP    H31   31  -0.328   0.325   0.186
    1MOP    H32   32  -0.363   0.106   0.334
    1MOP    H33   33  -0.383  -0.113   0.228
    1MOP    H34   34  -0.044  -0.121  -0.136
    1MOP    H35   35   0.158  -0.187  -0.258
    1MOP    H36   36   0.373  -0.207  -0.143
    1MOP    H37   37   0.180  -0.093   0.227
    1MOP    H38   38   0.426  -0.284   0.139
    1MOP    H39   39   0.452  -0.199   0.334
    1MOP    H40   40   0.632  -0.097   0.113
    1MOP    H41   41   0.542  -0.083  -0.039
    1MOP    H42   42   0.602  -0.239   0.014
    1MOP    H43   43  -0.360  -0.155  -0.066
    1MOP    H44   44  -0.405  -0.370  -0.176
    2MOP    C45   45   0.415  -0.005   0.325
    2MOP    O46   46   0.421   0.001   0.448
    2MOP    C47   47   0.378   0.116   0.249
    2MOP    C48   48   0.438   0.147   0.127
    2MOP    C49   49   0.390   0.253   0.050
    2MOP    C50   50   0.287   0.334   0.097
    2MOP    C51   51   0.246   0.450   0.017
    2MOP    C52   52   0.190   0.439  -0.113
    2MOP    C53   53   0.159   0.560  -0.178
    2MOP    C54   54   0.181   0.686  -0.123
    2MOP    O55   55   0.137   0.791  -0.197
    2MOP    C56   56   0.104   0.910  -0.126
    2MOP    C57   57   0.242   0.695   0.001
    2MOP    C58   58   0.274   0.578   0.070
    2MOP    C59   59   0.149   0.314  -0.183
    2MOP    C60   60   0.049   0.233  -0.129
    2MOP    C61   61  -0.023   0.144  -0.209
    2MOP    C62   62   0.013   0.122  -0.341
    2MOP    C63   63   0.121   0.190  -0.397
    2MOP    C64   64   0.188   0.285  -0.315
    2MOP    C65   65   0.168   0.158  -0.539
    2MOP    N66   66   0.248   0.264  -0.601
    2MOP    C67   67   0.069   0.100  -0.642
    2MOP    C68   68   0.235   0.310   0.226
    2MOP    C69   69   0.280   0.201   0.301
    2MOP    H70   70   0.522   0.092   0.090
    2MOP    H71   71   0.435   0.272  -0.047
    2MOP    H72   72   0.109   0.554  -0.274
    2MOP    H73   73   0.029   0.964  -0.185
    2MOP    H74   74   0.192   0.973  -0.116
    2MOP    H75   75   0.060   0.890  -0.028
    2MOP    H76   76   0.265   0.791   0.047
    2MOP    H77   77   0.320   0.587   0.168
    2MOP    H78   78   0.020   0.247  -0.026
    2MOP    H79   79  -0.109   0.093  -0.167
    2MOP    H80   80  -0.045   0.048  -0.397
    2MOP    H81   81   0.270   0.343  -0.357
    2MOP    H82   82   0.240   0.077  -0.522
    2MOP    H83   83   0.339   0.235  -0.635
    2MOP    H84   84   0.053   0.168  -0.726
    2MOP    H85   85  -0.029   0.074  -0.602
    2MOP    H86   86   0.111   0.010  -0.687
    2MOP    H87   87   0.157   0.374   0.267
    2MOP    H88   88   0.236   0.180   0.398
    3MOP    C89   89   0.225   0.397  -0.627
    3MOP    O90   90   0.316   0.460  -0.681
    3MOP    C91   91   0.103   0.469  -0.582
    3MOP    C92   92  -0.026   0.416  -0.582
    3MOP    C93   93  -0.134   0.488  -0.529
    3MOP    C94   94  -0.117   0.616  -0.476
    3MOP    C95   95  -0.231   0.690  -0.416
    3MOP    C96   96  -0.332   0.629  -0.337
    3MOP    C97   97  -0.439   0.710  -0.292
    3MOP    C98   98  -0.442   0.848  -0.310
    3MOP    O99   99  -0.546   0.914  -0.250
    3MOP   C100  100  -0.516   1.045  -0.203
    3MOP   C101  101  -0.341   0.909  -0.383
    3MOP   C102  102  -0.239   0.830  -0.437
    3MOP   C103  103  -0.321   0.496  -0.269
    3MOP   C104  104  -0.213   0.479  -0.184
    3MOP   C105  105  -0.214   0.383  -0.084
    3MOP   C106  106  -0.314   0.288  -0.080
    3MOP   C107  107  -0.424   0.296  -0.165
    3MOP   C108  108  -0.425   0.401  -0.260
    3MOP   C109  109  -0.536   0.193  -0.152
    3MOP   N110  110  -0.665   0.239  -0.199
    3MOP   C111  111  -0.557   0.120  -0.017
    3MOP   C112  112   0.012   0.673  -0.485
    3MOP   C113  113   0.120   0.601  -0.538
    3MOP   H114  114  -0.047   0.318  -0.621
    3MOP   H115  115  -0.232   0.441  -0.530
    3MOP   H116  116  -0.515   0.666  -0.230
    3MOP   H117  117  -0.596   1.075  -0.134
    3MOP   H118  118  -0.515   1.116  -0.286
    3MOP   H119  119  -0.422   1.048  -0.147
    3MOP   H120  120  -0.340   1.016  -0.400
    3MOP   H121  121  -0.164   0.881  -0.497
    3MOP   H122  122  -0.128   0.546  -0.190
    3MOP   H123  123  -0.135   0.383  -0.010
    3MOP   H124  124  -0.303   0.208  -0.007
    3MOP   H125  125  -0.512   0.413  -0.326
    3MOP   H126  126  -0.507   0.114  -0.224
    3MOP   H127  127  -0.717   0.173  -0.256
    3MOP   H128  128  -0.653   0.146   0.029
    3MOP   H129  129  -0.480   0.139   0.058
    3MOP   H130  130  -0.560   0.012  -0.034
    3MOP   H131  131   0.032   0.772  -0.446
    3MOP   H132  132   0.219   0.646  -0.538
    4MOP   C133  133  -0.746   0.342  -0.159
    4MOP   O134  134  -0.862   0.342  -0.202
    4MOP   C135  135  -0.700   0.458  -0.078
    4MOP   C136  136  -0.618   0.454   0.035
    4MOP   C137  137  -0.576   0.572   0.100
    4MOP   C138  138  -0.619   0.699   0.057
    4MOP   C139  139  -0.586   0.827   0.126
    4MOP   C140  140  -0.460   0.869   0.176
    4MOP   C141  141  -0.449   0.998   0.233
    4MOP   C142  142  -0.556   1.086   0.242
    4MOP   O143  143  -0.527   1.209   0.295
    4MOP   C144  144  -0.628   1.308   0.285
    4MOP   C145  145  -0.680   1.044   0.198
    4MOP   C146  146  -0.695   0.917   0.143
    4MOP   C147  147  -0.332   0.795   0.166
    4MOP   C148  148  -0.276   0.770   0.041
    4MOP   C149  149  -0.150   0.711   0.032
    4MOP   C150  150  -0.082   0.668   0.145
    4MOP   C151  151  -0.131   0.695   0.272
    4MOP   C152  152  -0.254   0.763   0.280
    4MOP   C153  153  -0.050   0.652   0.394
    4MOP   N154  154  -0.125   0.565   0.483
    4MOP   C155  155   0.023   0.768   0.461
    4MOP   C156  156  -0.705   0.700  -0.055
    4MOP   C157  157  -0.745   0.583  -0.121
    4MOP   H158  158  -0.584   0.360   0.076
    4MOP   H159  159  -0.512   0.564   0.187
    4MOP   H160  160  -0.352   1.034   0.268
    4MOP   H161  161  -0.587   1.401   0.324
    4MOP   H162  162  -0.715   1.281   0.346
    4MOP   H163  163  -0.657   1.325   0.180
    4MOP   H164  164  -0.768   1.108   0.203
    4MOP   H165  165  -0.795   0.888   0.110
    4MOP   H166  166  -0.327   0.800  -0.049
    4MOP   H167  167  -0.105   0.700  -0.066
    4MOP   H168  168   0.012   0.615   0.133
    4MOP   H169  169  -0.292   0.794   0.377
    4MOP   H170  170   0.030   0.585   0.357
    4MOP   H171  171  -0.137   0.470   0.451
    4MOP   H172  172  -0.046   0.843   0.501
    4MOP   H173  173   0.089   0.818   0.390
    4MOP   H174  174   0.085   0.731   0.544
    4MOP   H175  175  -0.740   0.794  -0.097
    4MOP   H176  176  -0.810   0.590  -0.208
    5CAP   C177  177  -0.308  -0.826  -0.029
    5CAP   O178  178  -0.233  -0.707  -0.048
    5CAP   H179  179  -0.397  -0.804   0.031
    5CAP   H180  180  -0.246  -0.896   0.028
    5CAP   H181  181  -0.336  -0.872  -0.124
    6CAP   C182  182  -0.554   0.441   0.509
    6CAP   C183  183  -0.470   0.553   0.572
    6CAP   C184  184  -0.516   0.685   0.508
    6CAP   C185  185  -0.490   0.554   0.723
    6CAP   O186  186  -0.332   0.519   0.540
    6CAP   C187  187  -0.232   0.610   0.554
    6CAP   O188  188  -0.241   0.719   0.610
    6CAP   H189  189  -0.661   0.454   0.529
    6CAP   H190  190  -0.540   0.438   0.400
    6CAP   H191  191  -0.523   0.342   0.546
    6CAP   H192  192  -0.498   0.682   0.400
    6CAP   H193  193  -0.464   0.772   0.548
    6CAP   H194  194  -0.623   0.701   0.524
    6CAP   H195  195  -0.461   0.458   0.766
    6CAP   H196  196  -0.428   0.630   0.771
    6CAP   H197  197  -0.595   0.574   0.748
  5.0000000  5.0000000  5.0000000
