Generated by Interchange
197
    1MOP     C1    1  -0.283  -0.584  -0.126
    1MOP     O2    2  -0.378  -0.603  -0.200
    1MOP     C3    3  -0.246  -0.452  -0.071
    1MOP     C4    4  -0.149  -0.442   0.031
    1MOP     C5    5  -0.129  -0.322   0.095
    1MOP     C6    6  -0.202  -0.210   0.055
    1MOP     C7    7  -0.176  -0.084   0.121
    1MOP     C8    8  -0.057  -0.013   0.097
    1MOP     C9    9  -0.052   0.116   0.154
    1MOP    C10   10  -0.152   0.167   0.239
    1MOP    O11   11  -0.144   0.298   0.279
    1MOP    C12   12  -0.271   0.364   0.279
    1MOP    C13   13  -0.257   0.084   0.276
    1MOP    C14   14  -0.272  -0.038   0.213
    1MOP    C15   15   0.060  -0.069   0.021
    1MOP    C16   16   0.057  -0.112  -0.112
    1MOP    C17   17   0.173  -0.150  -0.180
    1MOP    C18   18   0.298  -0.152  -0.116
    1MOP    C19   19   0.305  -0.124   0.021
    1MOP    C20   20   0.184  -0.087   0.085
    1MOP    C21   21   0.437  -0.145   0.098
    1MOP    N22   22   0.425  -0.122   0.243
    1MOP    C23   23   0.571  -0.087   0.044
    1MOP    C24   24  -0.297  -0.218  -0.048
    1MOP    C25   25  -0.319  -0.340  -0.111
    1MOP    H26   26  -0.091  -0.528   0.064
    1MOP    H27   27  -0.056  -0.314   0.174
    1MOP    H28   28   0.030   0.180   0.125
    1MOP    H29   29  -0.259   0.465   0.312
    1MOP    H30   30  -0.344   0.315   0.344
    1MOP    H31   31  -0.315   0.376   0.181
    1MOP    H32   32  -0.332   0.114   0.349
    1MOP    H33   33  -0.360  -0.098   0.236
    1MOP    H34   34  -0.038  -0.115  -0.166
    1MOP    H35   35   0.167  -0.178  -0.285
    1MOP    H36   36   0.386  -0.179  -0.174
    1MOP    H37   37   0.182  -0.072   0.193
    1MOP    H38   38   0.453  -0.253   0.090
    1MOP    H39   39   0.427  -0.207   0.299
    1MOP    H40   40   0.615  -0.012   0.112
    1MOP    H41   41   0.562  -0.042  -0.056
    1MOP    H42   42   0.649  -0.163   0.040
    1MOP    H43   43  -0.353  -0.130  -0.079
    1MOP    H44   44  -0.394  -0.347  -0.190
    2MOP    C45   45   0.384  -0.014   0.318
    2MOP    O46   46   0.362  -0.032   0.438
    2MOP    C47   47   0.350   0.118   0.256
    2MOP    C48   48   0.399   0.155   0.131
    2MOP    C49   49   0.345   0.255   0.056
    2MOP    C50   50   0.244   0.330   0.108
    2MOP    C51   51   0.203   0.438   0.020
    2MOP    C52   52   0.154   0.421  -0.113
    2MOP    C53   53   0.126   0.544  -0.176
    2MOP    C54   54   0.151   0.672  -0.121
    2MOP    O55   55   0.104   0.780  -0.191
    2MOP    C56   56   0.070   0.897  -0.115
    2MOP    C57   57   0.215   0.683   0.001
    2MOP    C58   58   0.238   0.567   0.072
    2MOP    C59   59   0.115   0.291  -0.189
    2MOP    C60   60  -0.010   0.234  -0.170
    2MOP    C61   61  -0.074   0.136  -0.249
    2MOP    C62   62  -0.011   0.088  -0.360
    2MOP    C63   63   0.110   0.147  -0.396
    2MOP    C64   64   0.178   0.238  -0.303
    2MOP    C65   65   0.152   0.131  -0.543
    2MOP    N66   66   0.246   0.235  -0.579
    2MOP    C67   67   0.040   0.124  -0.653
    2MOP    C68   68   0.204   0.310   0.242
    2MOP    C69   69   0.255   0.202   0.315
    2MOP    H70   70   0.474   0.103   0.079
    2MOP    H71   71   0.384   0.273  -0.044
    2MOP    H72   72   0.074   0.538  -0.269
    2MOP    H73   73  -0.016   0.945  -0.163
    2MOP    H74   74   0.154   0.967  -0.113
    2MOP    H75   75   0.040   0.876  -0.012
    2MOP    H76   76   0.239   0.779   0.046
    2MOP    H77   77   0.282   0.576   0.171
    2MOP    H78   78  -0.065   0.269  -0.087
    2MOP    H79   79  -0.174   0.103  -0.225
    2MOP    H80   80  -0.060   0.012  -0.421
    2MOP    H81   81   0.276   0.278  -0.329
    2MOP    H82   82   0.205   0.036  -0.549
    2MOP    H83   83   0.343   0.205  -0.584
    2MOP    H84   84   0.028   0.219  -0.707
    2MOP    H85   85  -0.059   0.095  -0.616
    2MOP    H86   86   0.067   0.052  -0.730
    2MOP    H87   87   0.128   0.373   0.288
    2MOP    H88   88   0.216   0.180   0.415
    3MOP    C89   89   0.239   0.373  -0.566
    3MOP    O90   90   0.347   0.432  -0.571
    3MOP    C91   91   0.113   0.452  -0.537
    3MOP    C92   92  -0.016   0.401  -0.522
    3MOP    C93   93  -0.125   0.478  -0.484
    3MOP    C94   94  -0.110   0.611  -0.449
    3MOP    C95   95  -0.223   0.684  -0.388
    3MOP    C96   96  -0.328   0.622  -0.312
    3MOP    C97   97  -0.428   0.708  -0.264
    3MOP    C98   98  -0.427   0.847  -0.278
    3MOP    O99   99  -0.526   0.914  -0.211
    3MOP   C100  100  -0.505   1.053  -0.187
    3MOP   C101  101  -0.324   0.906  -0.349
    3MOP   C102  102  -0.226   0.825  -0.405
    3MOP   C103  103  -0.323   0.488  -0.242
    3MOP   C104  104  -0.223   0.476  -0.147
    3MOP   C105  105  -0.230   0.388  -0.041
    3MOP   C106  106  -0.320   0.285  -0.041
    3MOP   C107  107  -0.421   0.282  -0.135
    3MOP   C108  108  -0.421   0.386  -0.236
    3MOP   C109  109  -0.526   0.173  -0.115
    3MOP   N110  110  -0.649   0.207  -0.182
    3MOP   C111  111  -0.562   0.121   0.028
    3MOP   C112  112   0.018   0.667  -0.470
    3MOP   C113  113   0.128   0.588  -0.513
    3MOP   H114  114  -0.041   0.298  -0.531
    3MOP   H115  115  -0.221   0.428  -0.475
    3MOP   H116  116  -0.501   0.664  -0.199
    3MOP   H117  117  -0.584   1.088  -0.121
    3MOP   H118  118  -0.512   1.110  -0.280
    3MOP   H119  119  -0.409   1.071  -0.136
    3MOP   H120  120  -0.316   1.014  -0.361
    3MOP   H121  121  -0.148   0.875  -0.461
    3MOP   H122  122  -0.137   0.539  -0.155
    3MOP   H123  123  -0.152   0.392   0.035
    3MOP   H124  124  -0.310   0.206   0.032
    3MOP   H125  125  -0.502   0.389  -0.309
    3MOP   H126  126  -0.484   0.086  -0.167
    3MOP   H127  127  -0.682   0.145  -0.252
    3MOP   H128  128  -0.662   0.155   0.059
    3MOP   H129  129  -0.493   0.149   0.107
    3MOP   H130  130  -0.570   0.012   0.028
    3MOP   H131  131   0.040   0.769  -0.442
    3MOP   H132  132   0.227   0.635  -0.517
    4MOP   C133  133  -0.727   0.319  -0.173
    4MOP   O134  134  -0.825   0.325  -0.253
    4MOP   C135  135  -0.696   0.439  -0.088
    4MOP   C136  136  -0.624   0.441   0.032
    4MOP   C137  137  -0.580   0.560   0.093
    4MOP   C138  138  -0.616   0.685   0.043
    4MOP   C139  139  -0.580   0.814   0.110
    4MOP   C140  140  -0.454   0.855   0.167
    4MOP   C141  141  -0.442   0.985   0.221
    4MOP   C142  142  -0.548   1.075   0.221
    4MOP   O143  143  -0.516   1.198   0.270
    4MOP   C144  144  -0.621   1.293   0.274
    4MOP   C145  145  -0.671   1.036   0.172
    4MOP   C146  146  -0.686   0.907   0.119
    4MOP   C147  147  -0.325   0.783   0.165
    4MOP   C148  148  -0.267   0.762   0.042
    4MOP   C149  149  -0.144   0.700   0.034
    4MOP   C150  150  -0.082   0.647   0.146
    4MOP   C151  151  -0.123   0.682   0.273
    4MOP   C152  152  -0.243   0.757   0.279
    4MOP   C153  153  -0.036   0.637   0.390
    4MOP   N154  154  -0.106   0.550   0.484
    4MOP   C155  155   0.046   0.748   0.453
    4MOP   C156  156  -0.699   0.682  -0.073
    4MOP   C157  157  -0.736   0.564  -0.139
    4MOP   H158  158  -0.594   0.350   0.081
    4MOP   H159  159  -0.518   0.554   0.180
    4MOP   H160  160  -0.346   1.020   0.257
    4MOP   H161  161  -0.580   1.385   0.317
    4MOP   H162  162  -0.702   1.259   0.338
    4MOP   H163  163  -0.657   1.316   0.173
    4MOP   H164  164  -0.757   1.101   0.169
    4MOP   H165  165  -0.784   0.880   0.080
    4MOP   H166  166  -0.313   0.799  -0.048
    4MOP   H167  167  -0.099   0.692  -0.063
    4MOP   H168  168   0.002   0.581   0.132
    4MOP   H169  169  -0.273   0.796   0.375
    4MOP   H170  170   0.039   0.569   0.349
    4MOP   H171  171  -0.116   0.454   0.452
    4MOP   H172  172  -0.015   0.825   0.500
    4MOP   H173  173   0.109   0.796   0.377
    4MOP   H174  174   0.114   0.707   0.529
    4MOP   H175  175  -0.729   0.775  -0.121
    4MOP   H176  176  -0.788   0.568  -0.235
    5CAP   C177  177  -0.292  -0.780  -0.006
    5CAP   O178  178  -0.210  -0.679  -0.063
    5CAP   H179  179  -0.365  -0.733   0.061
    5CAP   H180  180  -0.227  -0.844   0.056
    5CAP   H181  181  -0.340  -0.839  -0.082
    6CAP   C182  182  -0.543   0.449   0.472
    6CAP   C183  183  -0.457   0.553   0.546
    6CAP   C184  184  -0.489   0.688   0.482
    6CAP   C185  185  -0.494   0.553   0.694
    6CAP   O186  186  -0.319   0.511   0.528
    6CAP   C187  187  -0.215   0.595   0.553
    6CAP   O188  188  -0.221   0.701   0.610
    6CAP   H189  189  -0.650   0.472   0.479
    6CAP   H190  190  -0.518   0.448   0.366
    6CAP   H191  191  -0.525   0.348   0.509
    6CAP   H192  192  -0.469   0.682   0.376
    6CAP   H193  193  -0.430   0.770   0.523
    6CAP   H194  194  -0.594   0.715   0.494
    6CAP   H195  195  -0.478   0.452   0.737
    6CAP   H196  196  -0.428   0.621   0.750
    6CAP   H197  197  -0.596   0.582   0.709
  5.0000000  5.0000000  5.0000000
