Generated by Interchange
197
    1POM     C1    1  -0.316  -0.543  -0.091
    1POM     O2    2  -0.215  -0.454  -0.138
    1POM     C3    3  -0.219  -0.324  -0.094
    1POM     C4    4  -0.324  -0.264  -0.026
    1POM     C5    5  -0.313  -0.131   0.014
    1POM     C6    6  -0.197  -0.054  -0.012
    1POM     C7    7  -0.203   0.088   0.025
    1POM     C8    8  -0.143   0.140   0.141
    1POM     C9    9  -0.138   0.276   0.166
    1POM    C10   10  -0.201   0.365   0.079
    1POM    C11   11  -0.275   0.316  -0.029
    1POM    C12   12  -0.354   0.404  -0.119
    1POM    O13   13  -0.405   0.363  -0.223
    1POM    C14   14  -0.274   0.178  -0.056
    1POM    C15   15  -0.085  -0.116  -0.077
    1POM    C16   16   0.050  -0.052  -0.096
    1POM    C17   17   0.168  -0.122  -0.062
    1POM    C18   18   0.295  -0.060  -0.060
    1POM    C19   19   0.309   0.075  -0.092
    1POM    C20   20   0.437   0.155  -0.064
    1POM    C21   21   0.568   0.076  -0.078
    1POM    N22   22   0.427   0.227   0.065
    1POM    C23   23   0.194   0.142  -0.138
    1POM    C24   24   0.068   0.079  -0.141
    1POM    C25   25  -0.102  -0.250  -0.119
    1POM    H26   26  -0.278  -0.645  -0.102
    1POM    H27   27  -0.341  -0.529   0.015
    1POM    H28   28  -0.406  -0.533  -0.152
    1POM    H29   29  -0.416  -0.318  -0.004
    1POM    H30   30  -0.398  -0.086   0.065
    1POM    H31   31  -0.099   0.073   0.213
    1POM    H32   32  -0.085   0.314   0.253
    1POM    H33   33  -0.192   0.471   0.098
    1POM    H34   34  -0.328   0.140  -0.143
    1POM    H35   35   0.163  -0.225  -0.027
    1POM    H36   36   0.379  -0.118  -0.023
    1POM    H37   37   0.441   0.235  -0.139
    1POM    H38   38   0.654   0.143  -0.068
    1POM    H39   39   0.574   0.029  -0.177
    1POM    H40   40   0.578  -0.002  -0.003
    1POM    H41   41   0.338   0.274   0.071
    1POM    H42   42   0.200   0.247  -0.167
    1POM    H43   43  -0.017   0.137  -0.176
    1POM    H44   44  -0.022  -0.300  -0.172
    2POM    C45   45   0.516  -0.532   0.842
    2POM    O46   46   0.419  -0.427   0.850
    2POM    C47   47   0.399  -0.350   0.738
    2POM    C48   48   0.477  -0.354   0.624
    2POM    C49   49   0.446  -0.270   0.517
    2POM    C50   50   0.334  -0.183   0.522
    2POM    C51   51   0.310  -0.100   0.404
    2POM    C52   52   0.194  -0.119   0.331
    2POM    C53   53   0.150  -0.023   0.242
    2POM    C54   54   0.229   0.088   0.214
    2POM    C55   55   0.361   0.089   0.259
    2POM    C56   56   0.465   0.166   0.184
    2POM    O57   57   0.582   0.163   0.221
    2POM    C58   58   0.399   0.000   0.360
    2POM    C59   59   0.248  -0.183   0.636
    2POM    C60   60   0.115  -0.110   0.644
    2POM    C61   61  -0.001  -0.176   0.692
    2POM    C62   62  -0.131  -0.122   0.678
    2POM    C63   63  -0.152   0.000   0.613
    2POM    C64   64  -0.291   0.050   0.570
    2POM    C65   65  -0.401   0.025   0.673
    2POM    N66   66  -0.327   0.004   0.434
    2POM    C67   67  -0.037   0.072   0.576
    2POM    C68   68   0.093   0.019   0.595
    2POM    C69   69   0.287  -0.265   0.744
    2POM    H70   70   0.497  -0.601   0.924
    2POM    H71   71   0.510  -0.589   0.749
    2POM    H72   72   0.617  -0.491   0.854
    2POM    H73   73   0.564  -0.419   0.614
    2POM    H74   74   0.508  -0.274   0.428
    2POM    H75   75   0.133  -0.206   0.347
    2POM    H76   76   0.058  -0.039   0.190
    2POM    H77   77   0.190   0.160   0.144
    2POM    H78   78   0.499   0.007   0.403
    2POM    H79   79   0.007  -0.277   0.730
    2POM    H80   80  -0.216  -0.183   0.708
    2POM    H81   81  -0.283   0.159   0.560
    2POM    H82   82  -0.494   0.075   0.643
    2POM    H83   83  -0.373   0.064   0.771
    2POM    H84   84  -0.425  -0.082   0.685
    2POM    H85   85  -0.251   0.021   0.369
    2POM    H86   86  -0.046   0.170   0.528
    2POM    H87   87   0.178   0.079   0.562
    2POM    H88   88   0.228  -0.267   0.835
    3POM    C89   89  -0.501  -1.083   0.465
    3POM    O90   90  -0.400  -1.028   0.381
    3POM    C91   91  -0.383  -0.893   0.384
    3POM    C92   92  -0.453  -0.804   0.464
    3POM    C93   93  -0.421  -0.668   0.462
    3POM    C94   94  -0.317  -0.618   0.380
    3POM    C95   95  -0.280  -0.478   0.401
    3POM    C96   96  -0.152  -0.452   0.450
    3POM    C97   97  -0.092  -0.331   0.428
    3POM    C98   98  -0.168  -0.224   0.384
    3POM    C99   99  -0.307  -0.236   0.383
    3POM   C100  100  -0.392  -0.118   0.412
    3POM   O101  101  -0.513  -0.130   0.426
    3POM   C102  102  -0.362  -0.366   0.379
    3POM   C103  103  -0.243  -0.708   0.293
    3POM   C104  104  -0.126  -0.671   0.202
    3POM   C105  105  -0.027  -0.764   0.162
    3POM   C106  106   0.090  -0.728   0.090
    3POM   C107  107   0.116  -0.594   0.057
    3POM   C108  108   0.248  -0.543   0.001
    3POM   C109  109   0.327  -0.642  -0.085
    3POM   N110  110   0.332  -0.479   0.106
    3POM   C111  111   0.016  -0.503   0.090
    3POM   C112  112  -0.103  -0.541   0.157
    3POM   C113  113  -0.282  -0.845   0.300
    3POM   H114  114  -0.501  -1.192   0.450
    3POM   H115  115  -0.479  -1.065   0.570
    3POM   H116  116  -0.599  -1.045   0.438
    3POM   H117  117  -0.531  -0.836   0.532
    3POM   H118  118  -0.473  -0.602   0.530
    3POM   H119  119  -0.097  -0.531   0.498
    3POM   H120  120   0.012  -0.320   0.454
    3POM   H121  121  -0.118  -0.128   0.373
    3POM   H122  122  -0.469  -0.379   0.365
    3POM   H123  123  -0.033  -0.869   0.192
    3POM   H124  124   0.164  -0.805   0.070
    3POM   H125  125   0.222  -0.460  -0.066
    3POM   H126  126   0.413  -0.592  -0.132
    3POM   H127  127   0.264  -0.682  -0.165
    3POM   H128  128   0.366  -0.726  -0.027
    3POM   H129  129   0.278  -0.411   0.156
    3POM   H130  130   0.029  -0.397   0.068
    3POM   H131  131  -0.175  -0.463   0.174
    3POM   H132  132  -0.231  -0.919   0.239
    4POM   C133  133   0.581  -1.331   0.742
    4POM   O134  134   0.506  -1.222   0.795
    4POM   C135  135   0.469  -1.125   0.707
    4POM   C136  136   0.496  -1.123   0.571
    4POM   C137  137   0.449  -1.018   0.492
    4POM   C138  138   0.372  -0.914   0.547
    4POM   C139  139   0.319  -0.812   0.455
    4POM   C140  140   0.182  -0.787   0.458
    4POM   C141  141   0.136  -0.665   0.415
    4POM   C142  142   0.218  -0.576   0.348
    4POM   C143  143   0.344  -0.620   0.308
    4POM   C144  144   0.411  -0.558   0.190
    4POM   O145  145   0.528  -0.583   0.164
    4POM   C146  146   0.398  -0.733   0.369
    4POM   C147  147   0.343  -0.913   0.688
    4POM   C148  148   0.256  -0.811   0.760
    4POM   C149  149   0.174  -0.846   0.868
    4POM   C150  150   0.084  -0.754   0.927
    4POM   C151  151   0.064  -0.628   0.872
    4POM   C152  152  -0.043  -0.532   0.921
    4POM   C153  153  -0.065  -0.530   1.072
    4POM   N154  154  -0.170  -0.543   0.849
    4POM   C155  155   0.147  -0.591   0.767
    4POM   C156  156   0.246  -0.677   0.719
    4POM   C157  157   0.395  -1.020   0.764
    4POM   H158  158   0.602  -1.400   0.825
    4POM   H159  159   0.524  -1.386   0.667
    4POM   H160  160   0.677  -1.296   0.703
    4POM   H161  161   0.553  -1.201   0.522
    4POM   H162  162   0.470  -1.020   0.385
    4POM   H163  163   0.114  -0.852   0.513
    4POM   H164  164   0.032  -0.643   0.430
    4POM   H165  165   0.176  -0.482   0.315
    4POM   H166  166   0.502  -0.760   0.350
    4POM   H167  167   0.174  -0.947   0.908
    4POM   H168  168   0.025  -0.788   1.011
    4POM   H169  169  -0.008  -0.431   0.896
    4POM   H170  170  -0.132  -0.448   1.099
    4POM   H171  171   0.029  -0.515   1.125
    4POM   H172  172  -0.111  -0.622   1.109
    4POM   H173  173  -0.219  -0.456   0.829
    4POM   H174  174   0.136  -0.494   0.720
    4POM   H175  175   0.312  -0.638   0.642
    4POM   H176  176   0.378  -1.025   0.871
    5CAP   C177  177  -0.430   0.571   0.033
    5CAP   O178  178  -0.355   0.536  -0.084
    5CAP   H179  179  -0.473   0.484   0.084
    5CAP   H180  180  -0.510   0.639   0.004
    5CAP   H181  181  -0.363   0.624   0.101
    6CAP   C182  182  -0.162  -0.998   0.903
    6CAP   C183  183  -0.270  -0.889   0.901
    6CAP   C184  184  -0.365  -0.920   0.786
    6CAP   C185  185  -0.341  -0.886   1.036
    6CAP   O186  186  -0.197  -0.764   0.884
    6CAP   C187  187  -0.257  -0.648   0.851
    6CAP   O188  188  -0.375  -0.633   0.824
    6CAP   H189  189  -0.205  -1.099   0.910
    6CAP   H190  190  -0.101  -0.994   0.812
    6CAP   H191  191  -0.093  -0.985   0.987
    6CAP   H192  192  -0.313  -0.909   0.690
    6CAP   H193  193  -0.452  -0.854   0.785
    6CAP   H194  194  -0.403  -1.022   0.794
    6CAP   H195  195  -0.272  -0.858   1.116
    6CAP   H196  196  -0.421  -0.811   1.036
    6CAP   H197  197  -0.385  -0.983   1.060
  5.0000000  5.0000000  5.0000000
