Generated by Interchange
197
    1POM     C1    1  -0.319  -0.566   0.015
    1POM     O2    2  -0.215  -0.483  -0.034
    1POM     C3    3  -0.204  -0.358   0.020
    1POM     C4    4  -0.303  -0.287   0.084
    1POM     C5    5  -0.278  -0.156   0.129
    1POM     C6    6  -0.152  -0.090   0.114
    1POM     C7    7  -0.161   0.058   0.160
    1POM     C8    8  -0.147   0.095   0.294
    1POM     C9    9  -0.155   0.231   0.333
    1POM    C10   10  -0.171   0.336   0.239
    1POM    C11   11  -0.198   0.306   0.108
    1POM    C12   12  -0.230   0.415   0.008
    1POM    O13   13  -0.293   0.398  -0.094
    1POM    C14   14  -0.202   0.167   0.076
    1POM    C15   15  -0.042  -0.170   0.054
    1POM    C16   16   0.108  -0.143   0.032
    1POM    C17   17   0.208  -0.176   0.125
    1POM    C18   18   0.345  -0.131   0.112
    1POM    C19   19   0.384  -0.046   0.007
    1POM    C20   20   0.505   0.056   0.012
    1POM    C21   21   0.636   0.003  -0.042
    1POM    N22   22   0.523   0.147   0.134
    1POM    C23   23   0.293  -0.042  -0.100
    1POM    C24   24   0.160  -0.096  -0.089
    1POM    C25   25  -0.077  -0.300   0.006
    1POM    H26   26  -0.291  -0.670  -0.006
    1POM    H27   27  -0.332  -0.558   0.124
    1POM    H28   28  -0.413  -0.545  -0.037
    1POM    H29   29  -0.403  -0.328   0.097
    1POM    H30   30  -0.361  -0.102   0.174
    1POM    H31   31  -0.124   0.020   0.369
    1POM    H32   32  -0.132   0.257   0.436
    1POM    H33   33  -0.160   0.440   0.269
    1POM    H34   34  -0.227   0.147  -0.025
    1POM    H35   35   0.180  -0.231   0.215
    1POM    H36   36   0.414  -0.151   0.193
    1POM    H37   37   0.473   0.132  -0.062
    1POM    H38   38   0.708   0.085  -0.053
    1POM    H39   39   0.621  -0.041  -0.141
    1POM    H40   40   0.679  -0.073   0.024
    1POM    H41   41   0.532   0.244   0.106
    1POM    H42   42   0.316   0.013  -0.191
    1POM    H43   43   0.093  -0.084  -0.173
    1POM    H44   44  -0.001  -0.359  -0.046
    2POM    C45   45   0.325  -0.428   0.955
    2POM    O46   46   0.329  -0.290   0.990
    2POM    C47   47   0.338  -0.201   0.887
    2POM    C48   48   0.332  -0.232   0.752
    2POM    C49   49   0.346  -0.131   0.656
    2POM    C50   50   0.366   0.003   0.692
    2POM    C51   51   0.386   0.103   0.585
    2POM    C52   52   0.315   0.224   0.585
    2POM    C53   53   0.358   0.329   0.504
    2POM    C54   54   0.459   0.307   0.408
    2POM    C55   55   0.510   0.178   0.384
    2POM    C56   56   0.582   0.124   0.258
    2POM    O57   57   0.677   0.048   0.273
    2POM    C58   58   0.481   0.082   0.482
    2POM    C59   59   0.368   0.036   0.832
    2POM    C60   60   0.376   0.176   0.881
    2POM    C61   61   0.270   0.231   0.955
    2POM    C62   62   0.262   0.368   0.979
    2POM    C63   63   0.358   0.456   0.926
    2POM    C64   64   0.341   0.607   0.935
    2POM    C65   65   0.365   0.659   1.076
    2POM    N66   66   0.215   0.649   0.872
    2POM    C67   67   0.469   0.401   0.861
    2POM    C68   68   0.480   0.263   0.842
    2POM    C69   69   0.355  -0.068   0.926
    2POM    H70   70   0.330  -0.486   1.047
    2POM    H71   71   0.232  -0.452   0.904
    2POM    H72   72   0.412  -0.456   0.894
    2POM    H73   73   0.316  -0.333   0.716
    2POM    H74   74   0.339  -0.158   0.551
    2POM    H75   75   0.233   0.240   0.655
    2POM    H76   76   0.310   0.426   0.514
    2POM    H77   77   0.492   0.394   0.353
    2POM    H78   78   0.533  -0.014   0.476
    2POM    H79   79   0.189   0.167   0.990
    2POM    H80   80   0.177   0.406   1.035
    2POM    H81   81   0.417   0.654   0.871
    2POM    H82   82   0.354   0.768   1.080
    2POM    H83   83   0.467   0.634   1.108
    2POM    H84   84   0.297   0.615   1.150
    2POM    H85   85   0.218   0.649   0.771
    2POM    H86   86   0.547   0.466   0.820
    2POM    H87   87   0.565   0.224   0.786
    2POM    H88   88   0.358  -0.045   1.032
    3POM    C89   89  -0.837   0.517   1.130
    3POM    O90   90  -0.798   0.592   1.015
    3POM    C91   91  -0.667   0.587   0.979
    3POM    C92   92  -0.566   0.516   1.042
    3POM    C93   93  -0.436   0.519   0.990
    3POM    C94   94  -0.404   0.591   0.873
    3POM    C95   95  -0.267   0.578   0.819
    3POM    C96   96  -0.244   0.517   0.695
    3POM    C97   97  -0.115   0.500   0.645
    3POM    C98   98  -0.006   0.542   0.719
    3POM    C99   99  -0.024   0.604   0.844
    3POM   C100  100   0.091   0.639   0.932
    3POM   O101  101   0.073   0.651   1.053
    3POM   C102  102  -0.155   0.621   0.893
    3POM   C103  103  -0.506   0.666   0.809
    3POM   C104  104  -0.489   0.742   0.683
    3POM   C105  105  -0.582   0.725   0.580
    3POM   C106  106  -0.569   0.791   0.458
    3POM   C107  107  -0.456   0.869   0.431
    3POM   C108  108  -0.428   0.915   0.288
    3POM   C109  109  -0.532   1.012   0.235
    3POM   N110  110  -0.400   0.795   0.204
    3POM   C111  111  -0.365   0.892   0.535
    3POM   C112  112  -0.383   0.831   0.660
    3POM   C113  113  -0.636   0.662   0.866
    3POM   H114  114  -0.944   0.531   1.144
    3POM   H115  115  -0.819   0.410   1.115
    3POM   H116  116  -0.786   0.554   1.219
    3POM   H117  117  -0.584   0.456   1.131
    3POM   H118  118  -0.359   0.460   1.040
    3POM   H119  119  -0.329   0.480   0.637
    3POM   H120  120  -0.100   0.452   0.549
    3POM   H121  121   0.093   0.521   0.680
    3POM   H122  122  -0.169   0.666   0.991
    3POM   H123  123  -0.667   0.657   0.591
    3POM   H124  124  -0.644   0.773   0.380
    3POM   H125  125  -0.332   0.969   0.289
    3POM   H126  126  -0.505   1.047   0.134
    3POM   H127  127  -0.539   1.100   0.300
    3POM   H128  128  -0.632   0.968   0.229
    3POM   H129  129  -0.319   0.746   0.235
    3POM   H130  130  -0.278   0.956   0.520
    3POM   H131  131  -0.311   0.851   0.739
    3POM   H132  132  -0.716   0.719   0.819
    4POM   C133  133  -0.998  -0.100   0.063
    4POM   O134  134  -0.877  -0.093  -0.013
    4POM   C135  135  -0.797   0.016   0.012
    4POM   C136  136  -0.825   0.112   0.107
    4POM   C137  137  -0.735   0.215   0.126
    4POM   C138  138  -0.612   0.226   0.054
    4POM   C139  139  -0.529   0.330   0.121
    4POM   C140  140  -0.477   0.295   0.248
    4POM   C141  141  -0.431   0.390   0.339
    4POM   C142  142  -0.429   0.524   0.304
    4POM   C143  143  -0.486   0.566   0.182
    4POM   C144  144  -0.504   0.713   0.157
    4POM   O145  145  -0.604   0.753   0.102
    4POM   C146  146  -0.539   0.468   0.094
    4POM   C147  147  -0.584   0.129  -0.050
    4POM   C148  148  -0.464   0.123  -0.143
    4POM   C149  149  -0.376   0.013  -0.153
    4POM   C150  150  -0.246   0.023  -0.213
    4POM   C151  151  -0.201   0.145  -0.266
    4POM   C152  152  -0.054   0.188  -0.290
    4POM   C153  153   0.028   0.091  -0.374
    4POM   N154  154   0.027   0.252  -0.180
    4POM   C155  155  -0.305   0.236  -0.293
    4POM   C156  156  -0.433   0.226  -0.232
    4POM   C157  157  -0.680   0.026  -0.065
    4POM   H158  158  -1.052  -0.190   0.033
    4POM   H159  159  -0.978  -0.108   0.170
    4POM   H160  160  -1.062  -0.013   0.042
    4POM   H161  161  -0.912   0.110   0.171
    4POM   H162  162  -0.757   0.286   0.206
    4POM   H163  163  -0.472   0.190   0.277
    4POM   H164  164  -0.390   0.358   0.435
    4POM   H165  165  -0.386   0.595   0.374
    4POM   H166  166  -0.592   0.502   0.005
    4POM   H167  167  -0.401  -0.080  -0.102
    4POM   H168  168  -0.176  -0.060  -0.199
    4POM   H169  169  -0.064   0.276  -0.355
    4POM   H170  170   0.136   0.110  -0.365
    4POM   H171  171   0.002   0.105  -0.480
    4POM   H172  172   0.009  -0.014  -0.351
    4POM   H173  173   0.082   0.333  -0.207
    4POM   H174  174  -0.283   0.328  -0.346
    4POM   H175  175  -0.501   0.310  -0.243
    4POM   H176  176  -0.663  -0.051  -0.141
    5CAP   C177  177  -0.237   0.641  -0.052
    5CAP   O178  178  -0.188   0.541   0.042
    5CAP   H179  179  -0.346   0.634  -0.065
    5CAP   H180  180  -0.190   0.631  -0.150
    5CAP   H181  181  -0.216   0.741  -0.012
    6CAP   C182  182   0.112   0.325   0.241
    6CAP   C183  183   0.210   0.277   0.140
    6CAP   C184  184   0.318   0.384   0.134
    6CAP   C185  185   0.237   0.140   0.204
    6CAP   O186  186   0.157   0.286   0.001
    6CAP   C187  187   0.069   0.205  -0.060
    6CAP   O188  188   0.029   0.101  -0.011
    6CAP   H189  189   0.147   0.323   0.345
    6CAP   H190  190   0.069   0.422   0.219
    6CAP   H191  191   0.039   0.246   0.236
    6CAP   H192  192   0.282   0.478   0.176
    6CAP   H193  193   0.349   0.406   0.031
    6CAP   H194  194   0.408   0.360   0.186
    6CAP   H195  195   0.157   0.068   0.187
    6CAP   H196  196   0.328   0.094   0.175
    6CAP   H197  197   0.246   0.141   0.313
  5.0000000  5.0000000  5.0000000
