[ defaults ]
; nbfunc	comb-rule	gen-pairs	fudgeLJ	fudgeQQ
     1	     2	yes   	0.500000	0.833333

[ atomtypes ]
;type, bondingtype, atomic_number, mass, charge, ptype, sigma, epsilon
pom_tetramer.pdb_0	     6	12.01078	0.0000000000000000	A    	0.337953176162662	0.4553891161106184
pom_tetramer.pdb_1	     8	15.99943	0.0000000000000000	A    	0.3025106490435313	0.7048581468486769
pom_tetramer.pdb_2	     6	12.01078	0.0000000000000000	A    	0.3480646886945065	0.3635030558377792
pom_tetramer.pdb_3	     6	12.01078	0.0000000000000000	A    	0.3480646886945065	0.3635030558377792
pom_tetramer.pdb_4	     6	12.01078	0.0000000000000000	A    	0.3480646886945065	0.3635030558377792
pom_tetramer.pdb_5	     6	12.01078	0.0000000000000000	A    	0.3480646886945065	0.3635030558377792
pom_tetramer.pdb_6	     6	12.01078	0.0000000000000000	A    	0.3480646886945065	0.3635030558377792
pom_tetramer.pdb_7	     6	12.01078	0.0000000000000000	A    	0.3480646886945065	0.3635030558377792
pom_tetramer.pdb_8	     6	12.01078	0.0000000000000000	A    	0.3480646886945065	0.3635030558377792
pom_tetramer.pdb_9	     6	12.01078	0.0000000000000000	A    	0.3480646886945065	0.3635030558377792
pom_tetramer.pdb_10	     6	12.01078	0.0000000000000000	A    	0.3480646886945065	0.3635030558377792
pom_tetramer.pdb_11	     6	12.01078	0.0000000000000000	A    	0.3480646886945065	0.3635030558377792
pom_tetramer.pdb_12	     8	15.99943	0.0000000000000000	A    	0.3039812205065809	0.8795023257036865
pom_tetramer.pdb_13	     6	12.01078	0.0000000000000000	A    	0.3480646886945065	0.3635030558377792
pom_tetramer.pdb_14	     6	12.01078	0.0000000000000000	A    	0.3480646886945065	0.3635030558377792
pom_tetramer.pdb_15	     6	12.01078	0.0000000000000000	A    	0.3480646886945065	0.3635030558377792
pom_tetramer.pdb_16	     6	12.01078	0.0000000000000000	A    	0.3480646886945065	0.3635030558377792
pom_tetramer.pdb_17	     6	12.01078	0.0000000000000000	A    	0.3480646886945065	0.3635030558377792
pom_tetramer.pdb_18	     6	12.01078	0.0000000000000000	A    	0.3480646886945065	0.3635030558377792
pom_tetramer.pdb_19	     6	12.01078	0.0000000000000000	A    	0.337953176162662	0.4553891161106184
pom_tetramer.pdb_20	     6	12.01078	0.0000000000000000	A    	0.337953176162662	0.4553891161106184
pom_tetramer.pdb_21	     7	14.00672	0.0000000000000000	A    	0.3206876023663901	0.7016212989374017
pom_tetramer.pdb_22	     6	12.01078	0.0000000000000000	A    	0.3480646886945065	0.3635030558377792
pom_tetramer.pdb_23	     6	12.01078	0.0000000000000000	A    	0.3480646886945065	0.3635030558377792
pom_tetramer.pdb_24	     6	12.01078	0.0000000000000000	A    	0.3480646886945065	0.3635030558377792
pom_tetramer.pdb_25	     1	1.007947	0.0000000000000000	A    	0.2583225710839196	0.068656285380106
pom_tetramer.pdb_26	     1	1.007947	0.0000000000000000	A    	0.2583225710839196	0.068656285380106
pom_tetramer.pdb_27	     1	1.007947	0.0000000000000000	A    	0.2583225710839196	0.068656285380106
pom_tetramer.pdb_28	     1	1.007947	0.0000000000000000	A    	0.2572581535063279	0.06531785996356952
pom_tetramer.pdb_29	     1	1.007947	0.0000000000000000	A    	0.2572581535063279	0.06531785996356952
pom_tetramer.pdb_30	     1	1.007947	0.0000000000000000	A    	0.2572581535063279	0.06531785996356952
pom_tetramer.pdb_31	     1	1.007947	0.0000000000000000	A    	0.2572581535063279	0.06531785996356952
pom_tetramer.pdb_32	     1	1.007947	0.0000000000000000	A    	0.2572581535063279	0.06531785996356952
pom_tetramer.pdb_33	     1	1.007947	0.0000000000000000	A    	0.2572581535063279	0.06531785996356952
pom_tetramer.pdb_34	     1	1.007947	0.0000000000000000	A    	0.2572581535063279	0.06531785996356952
pom_tetramer.pdb_35	     1	1.007947	0.0000000000000000	A    	0.2572581535063279	0.06531785996356952
pom_tetramer.pdb_36	     1	1.007947	0.0000000000000000	A    	0.2583225710839196	0.068656285380106
pom_tetramer.pdb_37	     1	1.007947	0.0000000000000000	A    	0.2644543413268124	0.06602135607582665
pom_tetramer.pdb_38	     1	1.007947	0.0000000000000000	A    	0.2644543413268124	0.06602135607582665
pom_tetramer.pdb_39	     1	1.007947	0.0000000000000000	A    	0.2644543413268124	0.06602135607582665
pom_tetramer.pdb_40	     1	1.007947	0.0000000000000000	A    	0.1103427677297317	0.05895596890015097
pom_tetramer.pdb_41	     1	1.007947	0.0000000000000000	A    	0.2572581535063279	0.06531785996356952
pom_tetramer.pdb_42	     1	1.007947	0.0000000000000000	A    	0.2572581535063279	0.06531785996356952
pom_tetramer.pdb_43	     1	1.007947	0.0000000000000000	A    	0.2572581535063279	0.06531785996356952
pom_tetramer.pdb_44	     6	12.01078	0.0000000000000000	A    	0.337953176162662	0.4553891161106184
pom_tetramer.pdb_45	     8	15.99943	0.0000000000000000	A    	0.3025106490435313	0.7048581468486769
pom_tetramer.pdb_46	     6	12.01078	0.0000000000000000	A    	0.3480646886945065	0.3635030558377792
pom_tetramer.pdb_47	     6	12.01078	0.0000000000000000	A    	0.3480646886945065	0.3635030558377792
pom_tetramer.pdb_48	     6	12.01078	0.0000000000000000	A    	0.3480646886945065	0.3635030558377792
pom_tetramer.pdb_49	     6	12.01078	0.0000000000000000	A    	0.3480646886945065	0.3635030558377792
pom_tetramer.pdb_50	     6	12.01078	0.0000000000000000	A    	0.3480646886945065	0.3635030558377792
pom_tetramer.pdb_51	     6	12.01078	0.0000000000000000	A    	0.3480646886945065	0.3635030558377792
pom_tetramer.pdb_52	     6	12.01078	0.0000000000000000	A    	0.3480646886945065	0.3635030558377792
pom_tetramer.pdb_53	     6	12.01078	0.0000000000000000	A    	0.3480646886945065	0.3635030558377792
pom_tetramer.pdb_54	     6	12.01078	0.0000000000000000	A    	0.3480646886945065	0.3635030558377792
pom_tetramer.pdb_55	     6	12.01078	0.0000000000000000	A    	0.3480646886945065	0.3635030558377792
pom_tetramer.pdb_56	     8	15.99943	0.0000000000000000	A    	0.3039812205065809	0.8795023257036865
pom_tetramer.pdb_57	     6	12.01078	0.0000000000000000	A    	0.3480646886945065	0.3635030558377792
pom_tetramer.pdb_58	     6	12.01078	0.0000000000000000	A    	0.3480646886945065	0.3635030558377792
pom_tetramer.pdb_59	     6	12.01078	0.0000000000000000	A    	0.3480646886945065	0.3635030558377792
pom_tetramer.pdb_60	     6	12.01078	0.0000000000000000	A    	0.3480646886945065	0.3635030558377792
pom_tetramer.pdb_61	     6	12.01078	0.0000000000000000	A    	0.3480646886945065	0.3635030558377792
pom_tetramer.pdb_62	     6	12.01078	0.0000000000000000	A    	0.3480646886945065	0.3635030558377792
pom_tetramer.pdb_63	     6	12.01078	0.0000000000000000	A    	0.337953176162662	0.4553891161106184
pom_tetramer.pdb_64	     6	12.01078	0.0000000000000000	A    	0.337953176162662	0.4553891161106184
pom_tetramer.pdb_65	     7	14.00672	0.0000000000000000	A    	0.3206876023663901	0.7016212989374017
pom_tetramer.pdb_66	     6	12.01078	0.0000000000000000	A    	0.3480646886945065	0.3635030558377792
pom_tetramer.pdb_67	     6	12.01078	0.0000000000000000	A    	0.3480646886945065	0.3635030558377792
pom_tetramer.pdb_68	     6	12.01078	0.0000000000000000	A    	0.3480646886945065	0.3635030558377792
pom_tetramer.pdb_69	     1	1.007947	0.0000000000000000	A    	0.2583225710839196	0.068656285380106
pom_tetramer.pdb_70	     1	1.007947	0.0000000000000000	A    	0.2583225710839196	0.068656285380106
pom_tetramer.pdb_71	     1	1.007947	0.0000000000000000	A    	0.2583225710839196	0.068656285380106
pom_tetramer.pdb_72	     1	1.007947	0.0000000000000000	A    	0.2572581535063279	0.06531785996356952
pom_tetramer.pdb_73	     1	1.007947	0.0000000000000000	A    	0.2572581535063279	0.06531785996356952
pom_tetramer.pdb_74	     1	1.007947	0.0000000000000000	A    	0.2572581535063279	0.06531785996356952
pom_tetramer.pdb_75	     1	1.007947	0.0000000000000000	A    	0.2572581535063279	0.06531785996356952
pom_tetramer.pdb_76	     1	1.007947	0.0000000000000000	A    	0.2572581535063279	0.06531785996356952
pom_tetramer.pdb_77	     1	1.007947	0.0000000000000000	A    	0.2572581535063279	0.06531785996356952
pom_tetramer.pdb_78	     1	1.007947	0.0000000000000000	A    	0.2572581535063279	0.06531785996356952
pom_tetramer.pdb_79	     1	1.007947	0.0000000000000000	A    	0.2572581535063279	0.06531785996356952
pom_tetramer.pdb_80	     1	1.007947	0.0000000000000000	A    	0.2583225710839196	0.068656285380106
pom_tetramer.pdb_81	     1	1.007947	0.0000000000000000	A    	0.2644543413268124	0.06602135607582665
pom_tetramer.pdb_82	     1	1.007947	0.0000000000000000	A    	0.2644543413268124	0.06602135607582665
pom_tetramer.pdb_83	     1	1.007947	0.0000000000000000	A    	0.2644543413268124	0.06602135607582665
pom_tetramer.pdb_84	     1	1.007947	0.0000000000000000	A    	0.1103427677297317	0.05895596890015097
pom_tetramer.pdb_85	     1	1.007947	0.0000000000000000	A    	0.2572581535063279	0.06531785996356952
pom_tetramer.pdb_86	     1	1.007947	0.0000000000000000	A    	0.2572581535063279	0.06531785996356952
pom_tetramer.pdb_87	     1	1.007947	0.0000000000000000	A    	0.2572581535063279	0.06531785996356952
pom_tetramer.pdb_88	     6	12.01078	0.0000000000000000	A    	0.337953176162662	0.4553891161106184
pom_tetramer.pdb_89	     8	15.99943	0.0000000000000000	A    	0.3025106490435313	0.7048581468486769
pom_tetramer.pdb_90	     6	12.01078	0.0000000000000000	A    	0.3480646886945065	0.3635030558377792
pom_tetramer.pdb_91	     6	12.01078	0.0000000000000000	A    	0.3480646886945065	0.3635030558377792
pom_tetramer.pdb_92	     6	12.01078	0.0000000000000000	A    	0.3480646886945065	0.3635030558377792
pom_tetramer.pdb_93	     6	12.01078	0.0000000000000000	A    	0.3480646886945065	0.3635030558377792
pom_tetramer.pdb_94	     6	12.01078	0.0000000000000000	A    	0.3480646886945065	0.3635030558377792
pom_tetramer.pdb_95	     6	12.01078	0.0000000000000000	A    	0.3480646886945065	0.3635030558377792
pom_tetramer.pdb_96	     6	12.01078	0.0000000000000000	A    	0.3480646886945065	0.3635030558377792
pom_tetramer.pdb_97	     6	12.01078	0.0000000000000000	A    	0.3480646886945065	0.3635030558377792
pom_tetramer.pdb_98	     6	12.01078	0.0000000000000000	A    	0.3480646886945065	0.3635030558377792
pom_tetramer.pdb_99	     6	12.01078	0.0000000000000000	A    	0.3480646886945065	0.3635030558377792
pom_tetramer.pdb_100	     8	15.99943	0.0000000000000000	A    	0.3039812205065809	0.8795023257036865
pom_tetramer.pdb_101	     6	12.01078	0.0000000000000000	A    	0.3480646886945065	0.3635030558377792
pom_tetramer.pdb_102	     6	12.01078	0.0000000000000000	A    	0.3480646886945065	0.3635030558377792
pom_tetramer.pdb_103	     6	12.01078	0.0000000000000000	A    	0.3480646886945065	0.3635030558377792
pom_tetramer.pdb_104	     6	12.01078	0.0000000000000000	A    	0.3480646886945065	0.3635030558377792
pom_tetramer.pdb_105	     6	12.01078	0.0000000000000000	A    	0.3480646886945065	0.3635030558377792
pom_tetramer.pdb_106	     6	12.01078	0.0000000000000000	A    	0.3480646886945065	0.3635030558377792
pom_tetramer.pdb_107	     6	12.01078	0.0000000000000000	A    	0.337953176162662	0.4553891161106184
pom_tetramer.pdb_108	     6	12.01078	0.0000000000000000	A    	0.337953176162662	0.4553891161106184
pom_tetramer.pdb_109	     7	14.00672	0.0000000000000000	A    	0.3206876023663901	0.7016212989374017
pom_tetramer.pdb_110	     6	12.01078	0.0000000000000000	A    	0.3480646886945065	0.3635030558377792
pom_tetramer.pdb_111	     6	12.01078	0.0000000000000000	A    	0.3480646886945065	0.3635030558377792
pom_tetramer.pdb_112	     6	12.01078	0.0000000000000000	A    	0.3480646886945065	0.3635030558377792
pom_tetramer.pdb_113	     1	1.007947	0.0000000000000000	A    	0.2583225710839196	0.068656285380106
pom_tetramer.pdb_114	     1	1.007947	0.0000000000000000	A    	0.2583225710839196	0.068656285380106
pom_tetramer.pdb_115	     1	1.007947	0.0000000000000000	A    	0.2583225710839196	0.068656285380106
pom_tetramer.pdb_116	     1	1.007947	0.0000000000000000	A    	0.2572581535063279	0.06531785996356952
pom_tetramer.pdb_117	     1	1.007947	0.0000000000000000	A    	0.2572581535063279	0.06531785996356952
pom_tetramer.pdb_118	     1	1.007947	0.0000000000000000	A    	0.2572581535063279	0.06531785996356952
pom_tetramer.pdb_119	     1	1.007947	0.0000000000000000	A    	0.2572581535063279	0.06531785996356952
pom_tetramer.pdb_120	     1	1.007947	0.0000000000000000	A    	0.2572581535063279	0.06531785996356952
pom_tetramer.pdb_121	     1	1.007947	0.0000000000000000	A    	0.2572581535063279	0.06531785996356952
pom_tetramer.pdb_122	     1	1.007947	0.0000000000000000	A    	0.2572581535063279	0.06531785996356952
pom_tetramer.pdb_123	     1	1.007947	0.0000000000000000	A    	0.2572581535063279	0.06531785996356952
pom_tetramer.pdb_124	     1	1.007947	0.0000000000000000	A    	0.2583225710839196	0.068656285380106
pom_tetramer.pdb_125	     1	1.007947	0.0000000000000000	A    	0.2644543413268124	0.06602135607582665
pom_tetramer.pdb_126	     1	1.007947	0.0000000000000000	A    	0.2644543413268124	0.06602135607582665
pom_tetramer.pdb_127	     1	1.007947	0.0000000000000000	A    	0.2644543413268124	0.06602135607582665
pom_tetramer.pdb_128	     1	1.007947	0.0000000000000000	A    	0.1103427677297317	0.05895596890015097
pom_tetramer.pdb_129	     1	1.007947	0.0000000000000000	A    	0.2572581535063279	0.06531785996356952
pom_tetramer.pdb_130	     1	1.007947	0.0000000000000000	A    	0.2572581535063279	0.06531785996356952
pom_tetramer.pdb_131	     1	1.007947	0.0000000000000000	A    	0.2572581535063279	0.06531785996356952
pom_tetramer.pdb_132	     6	12.01078	0.0000000000000000	A    	0.337953176162662	0.4553891161106184
pom_tetramer.pdb_133	     8	15.99943	0.0000000000000000	A    	0.3025106490435313	0.7048581468486769
pom_tetramer.pdb_134	     6	12.01078	0.0000000000000000	A    	0.3480646886945065	0.3635030558377792
pom_tetramer.pdb_135	     6	12.01078	0.0000000000000000	A    	0.3480646886945065	0.3635030558377792
pom_tetramer.pdb_136	     6	12.01078	0.0000000000000000	A    	0.3480646886945065	0.3635030558377792
pom_tetramer.pdb_137	     6	12.01078	0.0000000000000000	A    	0.3480646886945065	0.3635030558377792
pom_tetramer.pdb_138	     6	12.01078	0.0000000000000000	A    	0.3480646886945065	0.3635030558377792
pom_tetramer.pdb_139	     6	12.01078	0.0000000000000000	A    	0.3480646886945065	0.3635030558377792
pom_tetramer.pdb_140	     6	12.01078	0.0000000000000000	A    	0.3480646886945065	0.3635030558377792
pom_tetramer.pdb_141	     6	12.01078	0.0000000000000000	A    	0.3480646886945065	0.3635030558377792
pom_tetramer.pdb_142	     6	12.01078	0.0000000000000000	A    	0.3480646886945065	0.3635030558377792
pom_tetramer.pdb_143	     6	12.01078	0.0000000000000000	A    	0.3480646886945065	0.3635030558377792
pom_tetramer.pdb_144	     8	15.99943	0.0000000000000000	A    	0.3039812205065809	0.8795023257036865
pom_tetramer.pdb_145	     6	12.01078	0.0000000000000000	A    	0.3480646886945065	0.3635030558377792
pom_tetramer.pdb_146	     6	12.01078	0.0000000000000000	A    	0.3480646886945065	0.3635030558377792
pom_tetramer.pdb_147	     6	12.01078	0.0000000000000000	A    	0.3480646886945065	0.3635030558377792
pom_tetramer.pdb_148	     6	12.01078	0.0000000000000000	A    	0.3480646886945065	0.3635030558377792
pom_tetramer.pdb_149	     6	12.01078	0.0000000000000000	A    	0.3480646886945065	0.3635030558377792
pom_tetramer.pdb_150	     6	12.01078	0.0000000000000000	A    	0.3480646886945065	0.3635030558377792
pom_tetramer.pdb_151	     6	12.01078	0.0000000000000000	A    	0.337953176162662	0.4553891161106184
pom_tetramer.pdb_152	     6	12.01078	0.0000000000000000	A    	0.337953176162662	0.4553891161106184
pom_tetramer.pdb_153	     7	14.00672	0.0000000000000000	A    	0.3206876023663901	0.7016212989374017
pom_tetramer.pdb_154	     6	12.01078	0.0000000000000000	A    	0.3480646886945065	0.3635030558377792
pom_tetramer.pdb_155	     6	12.01078	0.0000000000000000	A    	0.3480646886945065	0.3635030558377792
pom_tetramer.pdb_156	     6	12.01078	0.0000000000000000	A    	0.3480646886945065	0.3635030558377792
pom_tetramer.pdb_157	     1	1.007947	0.0000000000000000	A    	0.2583225710839196	0.068656285380106
pom_tetramer.pdb_158	     1	1.007947	0.0000000000000000	A    	0.2583225710839196	0.068656285380106
pom_tetramer.pdb_159	     1	1.007947	0.0000000000000000	A    	0.2583225710839196	0.068656285380106
pom_tetramer.pdb_160	     1	1.007947	0.0000000000000000	A    	0.2572581535063279	0.06531785996356952
pom_tetramer.pdb_161	     1	1.007947	0.0000000000000000	A    	0.2572581535063279	0.06531785996356952
pom_tetramer.pdb_162	     1	1.007947	0.0000000000000000	A    	0.2572581535063279	0.06531785996356952
pom_tetramer.pdb_163	     1	1.007947	0.0000000000000000	A    	0.2572581535063279	0.06531785996356952
pom_tetramer.pdb_164	     1	1.007947	0.0000000000000000	A    	0.2572581535063279	0.06531785996356952
pom_tetramer.pdb_165	     1	1.007947	0.0000000000000000	A    	0.2572581535063279	0.06531785996356952
pom_tetramer.pdb_166	     1	1.007947	0.0000000000000000	A    	0.2572581535063279	0.06531785996356952
pom_tetramer.pdb_167	     1	1.007947	0.0000000000000000	A    	0.2572581535063279	0.06531785996356952
pom_tetramer.pdb_168	     1	1.007947	0.0000000000000000	A    	0.2583225710839196	0.068656285380106
pom_tetramer.pdb_169	     1	1.007947	0.0000000000000000	A    	0.2644543413268124	0.06602135607582665
pom_tetramer.pdb_170	     1	1.007947	0.0000000000000000	A    	0.2644543413268124	0.06602135607582665
pom_tetramer.pdb_171	     1	1.007947	0.0000000000000000	A    	0.2644543413268124	0.06602135607582665
pom_tetramer.pdb_172	     1	1.007947	0.0000000000000000	A    	0.1103427677297317	0.05895596890015097
pom_tetramer.pdb_173	     1	1.007947	0.0000000000000000	A    	0.2572581535063279	0.06531785996356952
pom_tetramer.pdb_174	     1	1.007947	0.0000000000000000	A    	0.2572581535063279	0.06531785996356952
pom_tetramer.pdb_175	     1	1.007947	0.0000000000000000	A    	0.2572581535063279	0.06531785996356952
pom_tetramer.pdb_176	     6	12.01078	0.0000000000000000	A    	0.337953176162662	0.4553891161106184
pom_tetramer.pdb_177	     8	15.99943	0.0000000000000000	A    	0.3025106490435313	0.7048581468486769
pom_tetramer.pdb_178	     1	1.007947	0.0000000000000000	A    	0.2583225710839196	0.068656285380106
pom_tetramer.pdb_179	     1	1.007947	0.0000000000000000	A    	0.2583225710839196	0.068656285380106
pom_tetramer.pdb_180	     1	1.007947	0.0000000000000000	A    	0.2583225710839196	0.068656285380106
pom_tetramer.pdb_181	     6	12.01078	0.0000000000000000	A    	0.337953176162662	0.4553891161106184
pom_tetramer.pdb_182	     6	12.01078	0.0000000000000000	A    	0.337953176162662	0.4553891161106184
pom_tetramer.pdb_183	     6	12.01078	0.0000000000000000	A    	0.337953176162662	0.4553891161106184
pom_tetramer.pdb_184	     6	12.01078	0.0000000000000000	A    	0.337953176162662	0.4553891161106184
pom_tetramer.pdb_185	     8	15.99943	0.0000000000000000	A    	0.3025106490435313	0.7048581468486769
pom_tetramer.pdb_186	     6	12.01078	0.0000000000000000	A    	0.3480646886945065	0.3635030558377792
pom_tetramer.pdb_187	     8	15.99943	0.0000000000000000	A    	0.3039812205065809	0.8795023257036865
pom_tetramer.pdb_188	     1	1.007947	0.0000000000000000	A    	0.2644543413268124	0.06602135607582665
pom_tetramer.pdb_189	     1	1.007947	0.0000000000000000	A    	0.2644543413268124	0.06602135607582665
pom_tetramer.pdb_190	     1	1.007947	0.0000000000000000	A    	0.2644543413268124	0.06602135607582665
pom_tetramer.pdb_191	     1	1.007947	0.0000000000000000	A    	0.2644543413268124	0.06602135607582665
pom_tetramer.pdb_192	     1	1.007947	0.0000000000000000	A    	0.2644543413268124	0.06602135607582665
pom_tetramer.pdb_193	     1	1.007947	0.0000000000000000	A    	0.2644543413268124	0.06602135607582665
pom_tetramer.pdb_194	     1	1.007947	0.0000000000000000	A    	0.2644543413268124	0.06602135607582665
pom_tetramer.pdb_195	     1	1.007947	0.0000000000000000	A    	0.2644543413268124	0.06602135607582665
pom_tetramer.pdb_196	     1	1.007947	0.0000000000000000	A    	0.2644543413268124	0.06602135607582665

[ moleculetype ]
pom_tetramer.pdb	         3

[ atoms ]
;index, atom type, resnum, resname, name, cgnr, charge, mass
     1 pom_tetramer.pdb_0       1 POM      C1         1      0.107720002454     12.010780000000
     2 pom_tetramer.pdb_1       1 POM      O2         1     -0.318760007698     15.999430000000
     3 pom_tetramer.pdb_2       1 POM      C3         1      0.121310003024     12.010780000000
     4 pom_tetramer.pdb_3       1 POM      C4         1     -0.201489999968     12.010780000000
     5 pom_tetramer.pdb_4       1 POM      C5         1     -0.083039999086     12.010780000000
     6 pom_tetramer.pdb_5       1 POM      C6         1     -0.069710001427     12.010780000000
     7 pom_tetramer.pdb_6       1 POM      C7         1     -0.051360000003     12.010780000000
     8 pom_tetramer.pdb_7       1 POM      C8         1     -0.079149998802     12.010780000000
     9 pom_tetramer.pdb_8       1 POM      C9         1     -0.147190004665     12.010780000000
    10 pom_tetramer.pdb_9       1 POM      C10        1     -0.064620003182     12.010780000000
    11 pom_tetramer.pdb_10       1 POM      C11        1     -0.129600003440     12.010780000000
    12 pom_tetramer.pdb_11       1 POM      C12        1      0.649850010794     12.010780000000
    13 pom_tetramer.pdb_12       1 POM      O13        1     -0.544610023577     15.999430000000
    14 pom_tetramer.pdb_13       1 POM      C14        1     -0.054280001748     12.010780000000
    15 pom_tetramer.pdb_14       1 POM      C15        1      0.005830000077     12.010780000000
    16 pom_tetramer.pdb_15       1 POM      C16        1     -0.038010001261     12.010780000000
    17 pom_tetramer.pdb_16       1 POM      C17        1     -0.111599996764     12.010780000000
    18 pom_tetramer.pdb_17       1 POM      C18        1     -0.121890001077     12.010780000000
    19 pom_tetramer.pdb_18       1 POM      C19        1     -0.093809999604     12.010780000000
    20 pom_tetramer.pdb_19       1 POM      C20        1      0.152410000485     12.010780000000
    21 pom_tetramer.pdb_20       1 POM      C21        1     -0.112039998252     12.010780000000
    22 pom_tetramer.pdb_21       1 POM      N22        1     -0.571560025293     14.006720000000
    23 pom_tetramer.pdb_22       1 POM      C23        1     -0.121890001077     12.010780000000
    24 pom_tetramer.pdb_23       1 POM      C24        1     -0.111599996764     12.010780000000
    25 pom_tetramer.pdb_24       1 POM      C25        1     -0.145710006434     12.010780000000
    26 pom_tetramer.pdb_25       1 POM      H26        1      0.045260000896      1.007947000000
    27 pom_tetramer.pdb_26       1 POM      H27        1      0.045260000896      1.007947000000
    28 pom_tetramer.pdb_27       1 POM      H28        1      0.045260000896      1.007947000000
    29 pom_tetramer.pdb_28       1 POM      H29        1      0.141609996479      1.007947000000
    30 pom_tetramer.pdb_29       1 POM      H30        1      0.143680006188      1.007947000000
    31 pom_tetramer.pdb_30       1 POM      H31        1      0.140129998248      1.007947000000
    32 pom_tetramer.pdb_31       1 POM      H32        1      0.137119993489      1.007947000000
    33 pom_tetramer.pdb_32       1 POM      H33        1      0.151610001844      1.007947000000
    34 pom_tetramer.pdb_33       1 POM      H34        1      0.158910006207      1.007947000000
    35 pom_tetramer.pdb_34       1 POM      H35        1      0.138280004185      1.007947000000
    36 pom_tetramer.pdb_35       1 POM      H36        1      0.135519996207      1.007947000000
    37 pom_tetramer.pdb_36       1 POM      H37        1      0.086159996610      1.007947000000
    38 pom_tetramer.pdb_37       1 POM      H38        1      0.045069999915      1.007947000000
    39 pom_tetramer.pdb_38       1 POM      H39        1      0.045069999915      1.007947000000
    40 pom_tetramer.pdb_39       1 POM      H40        1      0.045069999915      1.007947000000
    41 pom_tetramer.pdb_40       1 POM      H41        1      0.311390012425      1.007947000000
    42 pom_tetramer.pdb_41       1 POM      H42        1      0.135519996207      1.007947000000
    43 pom_tetramer.pdb_42       1 POM      H43        1      0.138280004185      1.007947000000
    44 pom_tetramer.pdb_43       1 POM      H44        1      0.156880006116      1.007947000000
    45 pom_tetramer.pdb_44       2 POM      C45        1      0.113349996429     12.010780000000
    46 pom_tetramer.pdb_45       2 POM      O46        1     -0.320389986116     15.999430000000
    47 pom_tetramer.pdb_46       2 POM      C47        1      0.144869998019     12.010780000000
    48 pom_tetramer.pdb_47       2 POM      C48        1     -0.206780001599     12.010780000000
    49 pom_tetramer.pdb_48       2 POM      C49        1     -0.084639996368     12.010780000000
    50 pom_tetramer.pdb_49       2 POM      C50        1     -0.073700003404     12.010780000000
    51 pom_tetramer.pdb_50       2 POM      C51        1     -0.040759999383     12.010780000000
    52 pom_tetramer.pdb_51       2 POM      C52        1     -0.092739999372     12.010780000000
    53 pom_tetramer.pdb_52       2 POM      C53        1     -0.142739996392     12.010780000000
    54 pom_tetramer.pdb_53       2 POM      C54        1     -0.075649999160     12.010780000000
    55 pom_tetramer.pdb_54       2 POM      C55        1     -0.142550006587     12.010780000000
    56 pom_tetramer.pdb_55       2 POM      C56        1      0.676209986132     12.010780000000
    57 pom_tetramer.pdb_56       2 POM      O57        1     -0.608439982015     15.999430000000
    58 pom_tetramer.pdb_57       2 POM      C58        1     -0.091789998192     12.010780000000
    59 pom_tetramer.pdb_58       2 POM      C59        1      0.003969999884     12.010780000000
    60 pom_tetramer.pdb_59       2 POM      C60        1     -0.036639999676     12.010780000000
    61 pom_tetramer.pdb_60       2 POM      C61        1     -0.113629996855     12.010780000000
    62 pom_tetramer.pdb_61       2 POM      C62        1     -0.121760003347     12.010780000000
    63 pom_tetramer.pdb_62       2 POM      C63        1     -0.095969997424     12.010780000000
    64 pom_tetramer.pdb_63       2 POM      C64        1      0.155489995998     12.010780000000
    65 pom_tetramer.pdb_64       2 POM      C65        1     -0.110600002188     12.010780000000
    66 pom_tetramer.pdb_65       2 POM      N66        1     -0.575850009996     14.006720000000
    67 pom_tetramer.pdb_66       2 POM      C67        1     -0.121760003347     12.010780000000
    68 pom_tetramer.pdb_67       2 POM      C68        1     -0.113629996855     12.010780000000
    69 pom_tetramer.pdb_68       2 POM      C69        1     -0.137150004584     12.010780000000
    70 pom_tetramer.pdb_69       2 POM      H70        1      0.043549999517      1.007947000000
    71 pom_tetramer.pdb_70       2 POM      H71        1      0.043549999517      1.007947000000
    72 pom_tetramer.pdb_71       2 POM      H72        1      0.043549999517      1.007947000000
    73 pom_tetramer.pdb_72       2 POM      H73        1      0.136230006736      1.007947000000
    74 pom_tetramer.pdb_73       2 POM      H74        1      0.136539995592      1.007947000000
    75 pom_tetramer.pdb_74       2 POM      H75        1      0.139349996966      1.007947000000
    76 pom_tetramer.pdb_75       2 POM      H76        1      0.137130007070      1.007947000000
    77 pom_tetramer.pdb_76       2 POM      H77        1      0.156570002359      1.007947000000
    78 pom_tetramer.pdb_77       2 POM      H78        1      0.141350001019      1.007947000000
    79 pom_tetramer.pdb_78       2 POM      H79        1      0.138490006250      1.007947000000
    80 pom_tetramer.pdb_79       2 POM      H80        1      0.136209994477      1.007947000000
    81 pom_tetramer.pdb_80       2 POM      H81        1      0.079209998172      1.007947000000
    82 pom_tetramer.pdb_81       2 POM      H82        1      0.046959999871      1.007947000000
    83 pom_tetramer.pdb_82       2 POM      H83        1      0.046959999871      1.007947000000
    84 pom_tetramer.pdb_83       2 POM      H84        1      0.046959999871      1.007947000000
    85 pom_tetramer.pdb_84       2 POM      H85        1      0.313959985893      1.007947000000
    86 pom_tetramer.pdb_85       2 POM      H86        1      0.136209994477      1.007947000000
    87 pom_tetramer.pdb_86       2 POM      H87        1      0.138490006250      1.007947000000
    88 pom_tetramer.pdb_87       2 POM      H88        1      0.152459993880      1.007947000000
    89 pom_tetramer.pdb_88       3 POM      C89        1      0.112690001648     12.010780000000
    90 pom_tetramer.pdb_89       3 POM      O90        1     -0.324910014946     15.999430000000
    91 pom_tetramer.pdb_90       3 POM      C91        1      0.126200005334     12.010780000000
    92 pom_tetramer.pdb_91       3 POM      C92        1     -0.205369994122     12.010780000000
    93 pom_tetramer.pdb_92       3 POM      C93        1     -0.083930000741     12.010780000000
    94 pom_tetramer.pdb_93       3 POM      C94        1     -0.069959998209     12.010780000000
    95 pom_tetramer.pdb_94       3 POM      C95        1     -0.042459998358     12.010780000000
    96 pom_tetramer.pdb_95       3 POM      C96        1     -0.090089999217     12.010780000000
    97 pom_tetramer.pdb_96       3 POM      C97        1     -0.137869998891     12.010780000000
    98 pom_tetramer.pdb_97       3 POM      C98        1     -0.071670003313     12.010780000000
    99 pom_tetramer.pdb_98       3 POM      C99        1     -0.141130000431     12.010780000000
   100 pom_tetramer.pdb_99       3 POM      C100       1      0.676280021589     12.010780000000
   101 pom_tetramer.pdb_100       3 POM      O101       1     -0.610629975874     15.999430000000
   102 pom_tetramer.pdb_101       3 POM      C102       1     -0.093690000552     12.010780000000
   103 pom_tetramer.pdb_102       3 POM      C103       1      0.007089999892     12.010780000000
   104 pom_tetramer.pdb_103       3 POM      C104       1     -0.039919998575     12.010780000000
   105 pom_tetramer.pdb_104       3 POM      C105       1     -0.114849999625     12.010780000000
   106 pom_tetramer.pdb_105       3 POM      C106       1     -0.114090003151     12.010780000000
   107 pom_tetramer.pdb_106       3 POM      C107       1     -0.103500001210     12.010780000000
   108 pom_tetramer.pdb_107       3 POM      C108       1      0.150940000933     12.010780000000
   109 pom_tetramer.pdb_108       3 POM      C109       1     -0.105420000929     12.010780000000
   110 pom_tetramer.pdb_109       3 POM      N110       1     -0.566579997618     14.006720000000
   111 pom_tetramer.pdb_110       3 POM      C111       1     -0.114090003151     12.010780000000
   112 pom_tetramer.pdb_111       3 POM      C112       1     -0.114849999625     12.010780000000
   113 pom_tetramer.pdb_112       3 POM      C113       1     -0.147420004088     12.010780000000
   114 pom_tetramer.pdb_113       3 POM      H114       1      0.045449998152      1.007947000000
   115 pom_tetramer.pdb_114       3 POM      H115       1      0.045449998152      1.007947000000
   116 pom_tetramer.pdb_115       3 POM      H116       1      0.045449998152      1.007947000000
   117 pom_tetramer.pdb_116       3 POM      H117       1      0.139620006006      1.007947000000
   118 pom_tetramer.pdb_117       3 POM      H118       1      0.140520006340      1.007947000000
   119 pom_tetramer.pdb_118       3 POM      H119       1      0.139589995068      1.007947000000
   120 pom_tetramer.pdb_119       3 POM      H120       1      0.139080002826      1.007947000000
   121 pom_tetramer.pdb_120       3 POM      H121       1      0.157000005167      1.007947000000
   122 pom_tetramer.pdb_121       3 POM      H122       1      0.134100004953      1.007947000000
   123 pom_tetramer.pdb_122       3 POM      H123       1      0.135279998105      1.007947000000
   124 pom_tetramer.pdb_123       3 POM      H124       1      0.135979995053      1.007947000000
   125 pom_tetramer.pdb_124       3 POM      H125       1      0.084780000072      1.007947000000
   126 pom_tetramer.pdb_125       3 POM      H126       1      0.045899998319      1.007947000000
   127 pom_tetramer.pdb_126       3 POM      H127       1      0.045899998319      1.007947000000
   128 pom_tetramer.pdb_127       3 POM      H128       1      0.045899998319      1.007947000000
   129 pom_tetramer.pdb_128       3 POM      H129       1      0.308880001229      1.007947000000
   130 pom_tetramer.pdb_129       3 POM      H130       1      0.135979995053      1.007947000000
   131 pom_tetramer.pdb_130       3 POM      H131       1      0.135279998105      1.007947000000
   132 pom_tetramer.pdb_131       3 POM      H132       1      0.155980005782      1.007947000000
   133 pom_tetramer.pdb_132       4 POM      C133       1      0.112620003443     12.010780000000
   134 pom_tetramer.pdb_133       4 POM      O134       1     -0.326709985811     15.999430000000
   135 pom_tetramer.pdb_134       4 POM      C135       1      0.125880002897     12.010780000000
   136 pom_tetramer.pdb_135       4 POM      C136       1     -0.203099995930     12.010780000000
   137 pom_tetramer.pdb_136       4 POM      C137       1     -0.081200003702     12.010780000000
   138 pom_tetramer.pdb_137       4 POM      C138       1     -0.069159999568     12.010780000000
   139 pom_tetramer.pdb_138       4 POM      C139       1     -0.041189998466     12.010780000000
   140 pom_tetramer.pdb_139       4 POM      C140       1     -0.092629999000     12.010780000000
   141 pom_tetramer.pdb_140       4 POM      C141       1     -0.139880001623     12.010780000000
   142 pom_tetramer.pdb_141       4 POM      C142       1     -0.100539997298     12.010780000000
   143 pom_tetramer.pdb_142       4 POM      C143       1     -0.140890002329     12.010780000000
   144 pom_tetramer.pdb_143       4 POM      C144       1      0.679549992006     12.010780000000
   145 pom_tetramer.pdb_144       4 POM      O145       1     -0.609399974424     15.999430000000
   146 pom_tetramer.pdb_145       4 POM      C146       1     -0.061110001135     12.010780000000
   147 pom_tetramer.pdb_146       4 POM      C147       1      0.005619999875     12.010780000000
   148 pom_tetramer.pdb_147       4 POM      C148       1     -0.036210000593     12.010780000000
   149 pom_tetramer.pdb_148       4 POM      C149       1     -0.112910002548     12.010780000000
   150 pom_tetramer.pdb_149       4 POM      C150       1     -0.115790002126     12.010780000000
   151 pom_tetramer.pdb_150       4 POM      C151       1     -0.114890001792     12.010780000000
   152 pom_tetramer.pdb_151       4 POM      C152       1      0.149289995354     12.010780000000
   153 pom_tetramer.pdb_152       4 POM      C153       1     -0.097419999618     12.010780000000
   154 pom_tetramer.pdb_153       4 POM      N154       1     -0.538540005762     14.006720000000
   155 pom_tetramer.pdb_154       4 POM      C155       1     -0.115790002126     12.010780000000
   156 pom_tetramer.pdb_155       4 POM      C156       1     -0.112910002548     12.010780000000
   157 pom_tetramer.pdb_156       4 POM      C157       1     -0.145889997560     12.010780000000
   158 pom_tetramer.pdb_157       4 POM      H158       1      0.045469999235      1.007947000000
   159 pom_tetramer.pdb_158       4 POM      H159       1      0.045469999235      1.007947000000
   160 pom_tetramer.pdb_159       4 POM      H160       1      0.045469999235      1.007947000000
   161 pom_tetramer.pdb_160       4 POM      H161       1      0.141120001596      1.007947000000
   162 pom_tetramer.pdb_161       4 POM      H162       1      0.143069997352      1.007947000000
   163 pom_tetramer.pdb_162       4 POM      H163       1      0.137740001004      1.007947000000
   164 pom_tetramer.pdb_163       4 POM      H164       1      0.132180005234      1.007947000000
   165 pom_tetramer.pdb_164       4 POM      H165       1      0.133249998015      1.007947000000
   166 pom_tetramer.pdb_165       4 POM      H166       1      0.161699995321      1.007947000000
   167 pom_tetramer.pdb_166       4 POM      H167       1      0.137979999107      1.007947000000
   168 pom_tetramer.pdb_167       4 POM      H168       1      0.134959995669      1.007947000000
   169 pom_tetramer.pdb_168       4 POM      H169       1      0.087430000227      1.007947000000
   170 pom_tetramer.pdb_169       4 POM      H170       1      0.045729998421      1.007947000000
   171 pom_tetramer.pdb_170       4 POM      H171       1      0.045729998421      1.007947000000
   172 pom_tetramer.pdb_171       4 POM      H172       1      0.045729998421      1.007947000000
   173 pom_tetramer.pdb_172       4 POM      H173       1      0.316560000103      1.007947000000
   174 pom_tetramer.pdb_173       4 POM      H174       1      0.134959995669      1.007947000000
   175 pom_tetramer.pdb_174       4 POM      H175       1      0.137979999107      1.007947000000
   176 pom_tetramer.pdb_175       4 POM      H176       1      0.155369996947      1.007947000000
   177 pom_tetramer.pdb_176       5 CAP      C177       1      0.125929996293     12.010780000000
   178 pom_tetramer.pdb_177       5 CAP      O178       1     -0.439759999592     15.999430000000
   179 pom_tetramer.pdb_178       5 CAP      H179       1      0.048220001083      1.007947000000
   180 pom_tetramer.pdb_179       5 CAP      H180       1      0.048220001083      1.007947000000
   181 pom_tetramer.pdb_180       5 CAP      H181       1      0.048220001083      1.007947000000
   182 pom_tetramer.pdb_181       6 CAP      C182       1     -0.113880001087     12.010780000000
   183 pom_tetramer.pdb_182       6 CAP      C183       1      0.190809994858     12.010780000000
   184 pom_tetramer.pdb_183       6 CAP      C184       1     -0.113880001087     12.010780000000
   185 pom_tetramer.pdb_184       6 CAP      C185       1     -0.113880001087     12.010780000000
   186 pom_tetramer.pdb_185       6 CAP      O186       1     -0.447070002634     15.999430000000
   187 pom_tetramer.pdb_186       6 CAP      C187       1      0.745140016001     12.010780000000
   188 pom_tetramer.pdb_187       6 CAP      O188       1     -0.596419990141     15.999430000000
   189 pom_tetramer.pdb_188       6 CAP      H189       1      0.051669999879      1.007947000000
   190 pom_tetramer.pdb_189       6 CAP      H190       1      0.051669999879      1.007947000000
   191 pom_tetramer.pdb_190       6 CAP      H191       1      0.051669999879      1.007947000000
   192 pom_tetramer.pdb_191       6 CAP      H192       1      0.051669999879      1.007947000000
   193 pom_tetramer.pdb_192       6 CAP      H193       1      0.051669999879      1.007947000000
   194 pom_tetramer.pdb_193       6 CAP      H194       1      0.051669999879      1.007947000000
   195 pom_tetramer.pdb_194       6 CAP      H195       1      0.051669999879      1.007947000000
   196 pom_tetramer.pdb_195       6 CAP      H196       1      0.051669999879      1.007947000000
   197 pom_tetramer.pdb_196       6 CAP      H197       1      0.051669999879      1.007947000000

[ pairs ]
;ai    aj   funct
    94	    97	     1
    52	    77	     1
   151	   170	     1
     7	    16	     1
    62	    81	     1
   107	   129	     1
     5	     8	     1
    10	    13	     1
    50	    53	     1
   138	   163	     1
    14	    15	     1
    61	    64	     1
     7	    25	     1
    66	    83	     1
    94	   122	     1
   140	   143	     1
    63	    79	     1
   152	   168	     1
    94	   132	     1
    58	    59	     1
    14	    31	     1
    95	   113	     1
    66	   102	     1
   169	   171	     1
    46	    73	     1
    98	   122	     1
   112	   113	     1
    50	    78	     1
     2	    15	     1
     5	    14	     1
    86	    87	     1
     3	    28	     1
    37	    56	     1
    65	    67	     1
   185	   190	     1
   150	   169	     1
    47	    60	     1
   186	   189	     1
    57	    58	     1
   139	   142	     1
   151	   171	     1
    95	   104	     1
     3	     6	     1
    59	    87	     1
   147	   150	     1
    20	    55	     1
   174	   175	     1
   136	   176	     1
     7	    12	     1
   125	   144	     1
   148	   151	     1
   150	   156	     1
   142	   163	     1
   167	   168	     1
    22	    39	     1
   185	   193	     1
    96	    99	     1
   123	   124	     1
     3	    30	     1
    51	    76	     1
   139	   162	     1
    64	    68	     1
     3	    27	     1
    19	    38	     1
   104	   124	     1
    89	   113	     1
   144	   165	     1
    90	   132	     1
   155	   169	     1
   134	   176	     1
   125	   128	     1
    49	    69	     1
    18	    37	     1
    54	    57	     1
   106	   112	     1
    49	    60	     1
    16	    44	     1
    12	   180	     1
   100	   122	     1
    63	   100	     1
   185	   191	     1
   138	   156	     1
   137	   146	     1
   140	   166	     1
    85	   101	     1
     2	     5	     1
   110	   111	     1
   105	   113	     1
   105	   131	     1
    22	    54	     1
    93	   102	     1
    66	    84	     1
   154	   183	     1
    98	   119	     1
    56	    78	     1
     7	    30	     1
    68	    69	     1
   150	   153	     1
   125	   129	     1
    17	    43	     1
   110	   142	     1
   111	   124	     1
   149	   175	     1
   136	   139	     1
     5	    25	     1
   103	   106	     1
    93	   113	     1
    75	    76	     1
    16	    42	     1
   157	   161	     1
   186	   192	     1
    32	    33	     1
   102	   103	     1
   173	   186	     1
   135	   160	     1
   169	   187	     1
   107	   128	     1
    16	    19	     1
   110	   128	     1
   108	   143	     1
    81	    83	     1
   184	   189	     1
   141	   144	     1
    94	   105	     1
    91	   104	     1
    93	   104	     1
     7	    10	     1
    91	   115	     1
   151	   187	     1
    41	    55	     1
    99	   120	     1
    15	    23	     1
   169	   170	     1
    81	    85	     1
   137	   157	     1
   154	   171	     1
    62	    66	     1
   113	   117	     1
   108	   145	     1
    22	    58	     1
    51	    69	     1
    91	   116	     1
    15	    30	     1
    52	    59	     1
   186	   190	     1
    95	   100	     1
   109	   144	     1
   100	   121	     1
     6	     9	     1
   107	   126	     1
   110	   126	     1
   186	   197	     1
   153	   155	     1
   186	   194	     1
    52	    55	     1
     2	    29	     1
    94	   112	     1
   186	   193	     1
   183	   188	     1
    62	    65	     1
   147	   155	     1
    59	    62	     1
    90	   103	     1
    45	    69	     1
    54	    75	     1
    50	    61	     1
   150	   154	     1
    25	    29	     1
    91	   118	     1
    19	    56	     1
    69	    73	     1
   150	   174	     1
    89	    92	     1
    63	    82	     1
    20	    24	     1
    37	    39	     1
    62	    86	     1
   153	   187	     1
    12	   179	     1
    50	    68	     1
    19	    39	     1
    81	    84	     1
     6	    29	     1
    49	    52	     1
    95	   120	     1
    61	    87	     1
     4	    44	     1
    68	    79	     1
    97	   100	     1
    17	    20	     1
   107	   123	     1
     1	     4	     1
    79	    80	     1
    60	    63	     1
   154	   155	     1
    47	    50	     1
    15	    43	     1
   103	   111	     1
   140	   165	     1
    22	    40	     1
    64	    99	     1
   105	   108	     1
   108	   112	     1
    65	    85	     1
    20	    36	     1
    65	   100	     1
   149	   157	     1
   133	   136	     1
   104	   132	     1
   134	   161	     1
   161	   162	     1
    18	    21	     1
    48	    88	     1
   138	   143	     1
   104	   130	     1
    29	    30	     1
   169	   172	     1
   137	   140	     1
    20	    42	     1
   152	   156	     1
    63	    83	     1
    46	    88	     1
    51	    74	     1
   129	   143	     1
   138	   176	     1
   184	   190	     1
    22	    38	     1
   151	   172	     1
     1	    25	     1
     2	    44	     1
    53	    58	     1
   106	   130	     1
    59	    74	     1
    94	    99	     1
   135	   159	     1
    16	    36	     1
    42	    43	     1
    91	   114	     1
    55	    76	     1
    10	   178	     1
    90	    93	     1
     9	    12	     1
   184	   197	     1
   146	   163	     1
   135	   138	     1
    59	    79	     1
    18	    42	     1
   111	   125	     1
   154	   170	     1
    58	    75	     1
    12	   181	     1
   125	   126	     1
    62	    68	     1
   129	   145	     1
    64	   101	     1
   139	   157	     1
    63	    87	     1
   182	   197	     1
   182	   194	     1
     7	    32	     1
    15	    18	     1
     6	    44	     1
     6	    24	     1
    64	    80	     1
   110	   146	     1
    67	    80	     1
    52	    78	     1
   184	   187	     1
     3	    26	     1
   151	   175	     1
    47	    72	     1
   148	   174	     1
    13	   177	     1
   107	   131	     1
     9	    14	     1
    18	    22	     1
    81	   100	     1
   119	   120	     1
    50	    75	     1
     6	    17	     1
   140	   147	     1
   143	   164	     1
   182	   187	     1
    96	   122	     1
   138	   166	     1
   109	   111	     1
    10	    34	     1
   117	   118	     1
   130	   131	     1
   148	   176	     1
    37	    41	     1
    61	    67	     1
    51	    60	     1
    21	    56	     1
    12	    34	     1
    94	   117	     1
    95	    98	     1
   141	   146	     1
    92	   132	     1
    19	    41	     1
   136	   147	     1
    63	    84	     1
    20	    57	     1
   107	   127	     1
   110	   127	     1
     4	    15	     1
    14	   178	     1
    60	    86	     1
   139	   148	     1
   151	   167	     1
   133	   157	     1
    61	    69	     1
   106	   110	     1
   186	   196	     1
    11	    32	     1
   186	   195	     1
    50	    88	     1
    31	    32	     1
   156	   167	     1
    66	    98	     1
   152	   188	     1
   134	   147	     1
   152	   186	     1
   142	   166	     1
    21	    23	     1
   164	   165	     1
   101	   102	     1
   155	   168	     1
   134	   137	     1
   103	   123	     1
   103	   118	     1
   137	   148	     1
    58	    77	     1
    35	    36	     1
   146	   165	     1
   186	   191	     1
   154	   172	     1
   147	   175	     1
    48	    51	     1
    11	   177	     1
    24	    35	     1
   135	   148	     1
   169	   173	     1
    90	   117	     1
    17	    23	     1
    15	    35	     1
   138	   141	     1
    47	    70	     1
   139	   144	     1
    37	    40	     1
     6	    11	     1
    24	    25	     1
    85	    99	     1
   105	   111	     1
    19	    40	     1
   149	   152	     1
   151	   173	     1
    60	    88	     1
   109	   129	     1
   182	   192	     1
    18	    24	     1
    97	   102	     1
   152	   174	     1
   185	   194	     1
    46	    49	     1
   108	   124	     1
    92	    95	     1
    96	   121	     1
    37	    38	     1
   139	   164	     1
   120	   121	     1
   147	   167	     1
   106	   125	     1
    13	    14	     1
    45	    48	     1
    54	    78	     1
   108	   130	     1
    73	    74	     1
     6	    31	     1
    50	    55	     1
   138	   161	     1
   185	   189	     1
   156	   157	     1
   185	   187	     1
    22	    23	     1
   148	   168	     1
   104	   107	     1
   147	   162	     1
   102	   119	     1
    63	    85	     1
     6	    34	     1
    41	    57	     1
   163	   164	     1
    96	   103	     1
    81	    82	     1
   144	   166	     1
    91	    94	     1
    94	   119	     1
    51	    56	     1
   149	   155	     1
   125	   127	     1
    12	    33	     1
   184	   196	     1
   184	   195	     1
   145	   146	     1
   102	   121	     1
   103	   131	     1
    92	   103	     1
   135	   162	     1
    48	    59	     1
   146	   147	     1
    21	    41	     1
    95	   118	     1
   107	   144	     1
   135	   158	     1
   182	   193	     1
     8	    11	     1
   112	   123	     1
   182	   196	     1
   153	   173	     1
   182	   195	     1
    17	    25	     1
     5	    16	     1
     8	    33	     1
    67	    81	     1
    46	    59	     1
   184	   191	     1
    10	    31	     1
     3	    16	     1
    19	    35	     1
   142	   145	     1
    49	    58	     1
    47	    71	     1
    50	    73	     1
   106	   109	     1
   173	   188	     1
    19	    43	     1
    66	    82	     1
    56	    77	     1
    47	    74	     1
    93	    96	     1
     8	    15	     1
    60	    80	     1
    51	    54	     1
    98	   101	     1
     4	     7	     1
    59	    67	     1
    76	    77	     1
    53	    56	     1
    14	    33	     1
    64	    86	     1
    23	    36	     1
   138	   149	     1
     8	    34	     1
    66	    67	     1
    23	    37	     1
   185	   192	     1

[ bonds ]
;ai    aj   funct r k
     1      2      1      0.142589505373  306888.771877388994 
     1     26      1      0.109389949263  309655.084322414012 
     1     27      1      0.109389949263  309655.084322414012 
     1     28      1      0.109389949263  309655.084322414012 
     2      3      1      0.136294580649  356218.264001121745 
     3      4      1      0.138719322718  301905.092578520998 
     3     25      1      0.138719322718  301905.092578520998 
     4      5      1      0.138719322718  301905.092578520998 
     4     29      1      0.108535849592  332422.631675317942 
     5      6      1      0.138719322718  301905.092578520998 
     5     30      1      0.108535849592  332422.631675317942 
     6      7      1      0.145462892503  233580.248617646750 
     6     15      1      0.138719322718  301905.092578520998 
     7      8      1      0.138719322718  301905.092578520998 
     7     14      1      0.138719322718  301905.092578520998 
     8      9      1      0.138719322718  301905.092578520998 
     8     31      1      0.108535849592  332422.631675317942 
     9     10      1      0.138719322718  301905.092578520998 
     9     32      1      0.108535849592  332422.631675317942 
    10     11      1      0.138719322718  301905.092578520998 
    10     33      1      0.108535849592  332422.631675317942 
    11     12      1      0.145462892503  233580.248617646750 
    11     14      1      0.138719322718  301905.092578520998 
    12     13      1      0.122519838622  487602.327766196802 
    12    178      1      0.134574123280  252005.673256632901 
    14     34      1      0.108535849592  332422.631675317942 
    15     16      1      0.145462892503  233580.248617646750 
    15     25      1      0.138719322718  301905.092578520998 
    16     17      1      0.138719322718  301905.092578520998 
    16     24      1      0.138719322718  301905.092578520998 
    17     18      1      0.138719322718  301905.092578520998 
    17     35      1      0.108535849592  332422.631675317942 
    18     19      1      0.138719322718  301905.092578520998 
    18     36      1      0.108535849592  332422.631675317942 
    19     20      1      0.149864681646  242452.869388089370 
    19     23      1      0.138719322718  301905.092578520998 
    20     21      1      0.152190126495  221435.259290285845 
    20     22      1      0.145009858627  294600.927775905351 
    20     37      1      0.109389949263  309655.084322414012 
    21     38      1      0.109389949263  309655.084322414012 
    21     39      1      0.109389949263  309655.084322414012 
    21     40      1      0.109389949263  309655.084322414012 
    22     41      1      0.101948186503  422704.914414302446 
    22     56      1      0.138189777668  412347.817359175009 
    23     24      1      0.138719322718  301905.092578520998 
    23     42      1      0.108535849592  332422.631675317942 
    24     43      1      0.108535849592  332422.631675317942 
    25     44      1      0.108535849592  332422.631675317942 
    45     46      1      0.142589505373  306888.771877388994 
    45     70      1      0.109389949263  309655.084322414012 
    45     71      1      0.109389949263  309655.084322414012 
    45     72      1      0.109389949263  309655.084322414012 
    46     47      1      0.136294580649  356218.264001121745 
    47     48      1      0.138719322718  301905.092578520998 
    47     69      1      0.138719322718  301905.092578520998 
    48     49      1      0.138719322718  301905.092578520998 
    48     73      1      0.108535849592  332422.631675317942 
    49     50      1      0.138719322718  301905.092578520998 
    49     74      1      0.108535849592  332422.631675317942 
    50     51      1      0.145462892503  233580.248617646750 
    50     59      1      0.138719322718  301905.092578520998 
    51     52      1      0.138719322718  301905.092578520998 
    51     58      1      0.138719322718  301905.092578520998 
    52     53      1      0.138719322718  301905.092578520998 
    52     75      1      0.108535849592  332422.631675317942 
    53     54      1      0.138719322718  301905.092578520998 
    53     76      1      0.108535849592  332422.631675317942 
    54     55      1      0.138719322718  301905.092578520998 
    54     77      1      0.108535849592  332422.631675317942 
    55     56      1      0.145462892503  233580.248617646750 
    55     58      1      0.138719322718  301905.092578520998 
    56     57      1      0.122519838622  487602.327766196802 
    58     78      1      0.108535849592  332422.631675317942 
    59     60      1      0.145462892503  233580.248617646750 
    59     69      1      0.138719322718  301905.092578520998 
    60     61      1      0.138719322718  301905.092578520998 
    60     68      1      0.138719322718  301905.092578520998 
    61     62      1      0.138719322718  301905.092578520998 
    61     79      1      0.108535849592  332422.631675317942 
    62     63      1      0.138719322718  301905.092578520998 
    62     80      1      0.108535849592  332422.631675317942 
    63     64      1      0.149864681646  242452.869388089370 
    63     67      1      0.138719322718  301905.092578520998 
    64     65      1      0.152190126495  221435.259290285845 
    64     66      1      0.145009858627  294600.927775905351 
    64     81      1      0.109389949263  309655.084322414012 
    65     82      1      0.109389949263  309655.084322414012 
    65     83      1      0.109389949263  309655.084322414012 
    65     84      1      0.109389949263  309655.084322414012 
    66     85      1      0.101948186503  422704.914414302446 
    66    100      1      0.138189777668  412347.817359175009 
    67     68      1      0.138719322718  301905.092578520998 
    67     86      1      0.108535849592  332422.631675317942 
    68     87      1      0.108535849592  332422.631675317942 
    69     88      1      0.108535849592  332422.631675317942 
    89     90      1      0.142589505373  306888.771877388994 
    89    114      1      0.109389949263  309655.084322414012 
    89    115      1      0.109389949263  309655.084322414012 
    89    116      1      0.109389949263  309655.084322414012 
    90     91      1      0.136294580649  356218.264001121745 
    91     92      1      0.138719322718  301905.092578520998 
    91    113      1      0.138719322718  301905.092578520998 
    92     93      1      0.138719322718  301905.092578520998 
    92    117      1      0.108535849592  332422.631675317942 
    93     94      1      0.138719322718  301905.092578520998 
    93    118      1      0.108535849592  332422.631675317942 
    94     95      1      0.145462892503  233580.248617646750 
    94    103      1      0.138719322718  301905.092578520998 
    95     96      1      0.138719322718  301905.092578520998 
    95    102      1      0.138719322718  301905.092578520998 
    96     97      1      0.138719322718  301905.092578520998 
    96    119      1      0.108535849592  332422.631675317942 
    97     98      1      0.138719322718  301905.092578520998 
    97    120      1      0.108535849592  332422.631675317942 
    98     99      1      0.138719322718  301905.092578520998 
    98    121      1      0.108535849592  332422.631675317942 
    99    100      1      0.145462892503  233580.248617646750 
    99    102      1      0.138719322718  301905.092578520998 
   100    101      1      0.122519838622  487602.327766196802 
   102    122      1      0.108535849592  332422.631675317942 
   103    104      1      0.145462892503  233580.248617646750 
   103    113      1      0.138719322718  301905.092578520998 
   104    105      1      0.138719322718  301905.092578520998 
   104    112      1      0.138719322718  301905.092578520998 
   105    106      1      0.138719322718  301905.092578520998 
   105    123      1      0.108535849592  332422.631675317942 
   106    107      1      0.138719322718  301905.092578520998 
   106    124      1      0.108535849592  332422.631675317942 
   107    108      1      0.149864681646  242452.869388089370 
   107    111      1      0.138719322718  301905.092578520998 
   108    109      1      0.152190126495  221435.259290285845 
   108    110      1      0.145009858627  294600.927775905351 
   108    125      1      0.109389949263  309655.084322414012 
   109    126      1      0.109389949263  309655.084322414012 
   109    127      1      0.109389949263  309655.084322414012 
   109    128      1      0.109389949263  309655.084322414012 
   110    129      1      0.101948186503  422704.914414302446 
   110    144      1      0.138189777668  412347.817359175009 
   111    112      1      0.138719322718  301905.092578520998 
   111    130      1      0.108535849592  332422.631675317942 
   112    131      1      0.108535849592  332422.631675317942 
   113    132      1      0.108535849592  332422.631675317942 
   133    134      1      0.142589505373  306888.771877388994 
   133    158      1      0.109389949263  309655.084322414012 
   133    159      1      0.109389949263  309655.084322414012 
   133    160      1      0.109389949263  309655.084322414012 
   134    135      1      0.136294580649  356218.264001121745 
   135    136      1      0.138719322718  301905.092578520998 
   135    157      1      0.138719322718  301905.092578520998 
   136    137      1      0.138719322718  301905.092578520998 
   136    161      1      0.108535849592  332422.631675317942 
   137    138      1      0.138719322718  301905.092578520998 
   137    162      1      0.108535849592  332422.631675317942 
   138    139      1      0.145462892503  233580.248617646750 
   138    147      1      0.138719322718  301905.092578520998 
   139    140      1      0.138719322718  301905.092578520998 
   139    146      1      0.138719322718  301905.092578520998 
   140    141      1      0.138719322718  301905.092578520998 
   140    163      1      0.108535849592  332422.631675317942 
   141    142      1      0.138719322718  301905.092578520998 
   141    164      1      0.108535849592  332422.631675317942 
   142    143      1      0.138719322718  301905.092578520998 
   142    165      1      0.108535849592  332422.631675317942 
   143    144      1      0.145462892503  233580.248617646750 
   143    146      1      0.138719322718  301905.092578520998 
   144    145      1      0.122519838622  487602.327766196802 
   146    166      1      0.108535849592  332422.631675317942 
   147    148      1      0.145462892503  233580.248617646750 
   147    157      1      0.138719322718  301905.092578520998 
   148    149      1      0.138719322718  301905.092578520998 
   148    156      1      0.138719322718  301905.092578520998 
   149    150      1      0.138719322718  301905.092578520998 
   149    167      1      0.108535849592  332422.631675317942 
   150    151      1      0.138719322718  301905.092578520998 
   150    168      1      0.108535849592  332422.631675317942 
   151    152      1      0.149864681646  242452.869388089370 
   151    155      1      0.138719322718  301905.092578520998 
   152    153      1      0.152190126495  221435.259290285845 
   152    154      1      0.145009858627  294600.927775905351 
   152    169      1      0.109389949263  309655.084322414012 
   153    170      1      0.109389949263  309655.084322414012 
   153    171      1      0.109389949263  309655.084322414012 
   153    172      1      0.109389949263  309655.084322414012 
   154    173      1      0.101948186503  422704.914414302446 
   154    187      1      0.138189777668  412347.817359175009 
   155    156      1      0.138719322718  301905.092578520998 
   155    174      1      0.108535849592  332422.631675317942 
   156    175      1      0.108535849592  332422.631675317942 
   157    176      1      0.108535849592  332422.631675317942 
   177    178      1      0.142589505373  306888.771877388994 
   177    179      1      0.109389949263  309655.084322414012 
   177    180      1      0.109389949263  309655.084322414012 
   177    181      1      0.109389949263  309655.084322414012 
   182    183      1      0.152190126495  221435.259290285845 
   182    189      1      0.109389949263  309655.084322414012 
   182    190      1      0.109389949263  309655.084322414012 
   182    191      1      0.109389949263  309655.084322414012 
   183    184      1      0.152190126495  221435.259290285845 
   183    185      1      0.152190126495  221435.259290285845 
   183    186      1      0.142589505373  306888.771877388994 
   184    192      1      0.109389949263  309655.084322414012 
   184    193      1      0.109389949263  309655.084322414012 
   184    194      1      0.109389949263  309655.084322414012 
   185    195      1      0.109389949263  309655.084322414012 
   185    196      1      0.109389949263  309655.084322414012 
   185    197      1      0.109389949263  309655.084322414012 
   186    187      1      0.134574123280  252005.673256632901 
   187    188      1      0.122519838622  487602.327766196802 

[ angles ]
;ai    aj   ak   funct theta  k
     1      2      3      1     110.353880618100     544.678275491328 
     2      1     26      1     116.547586263400     445.222086509286 
     2      1     27      1     116.547586263400     445.222086509286 
     2      1     28      1     116.547586263400     445.222086509286 
     2      3      4      1     126.806242045100     484.492885493347 
     2      3     25      1     126.806242045100     484.492885493347 
     3      4      5      1     126.806242045100     484.492885493347 
     3      4     29      1     129.183592992600     285.070774532144 
     3     25     15      1     126.806242045100     484.492885493347 
     3     25     44      1     129.183592992600     285.070774532144 
     4      3     25      1     126.806242045100     484.492885493347 
     4      5      6      1     126.806242045100     484.492885493347 
     4      5     30      1     129.183592992600     285.070774532144 
     5      4     29      1     129.183592992600     285.070774532144 
     5      6      7      1     126.806242045100     484.492885493347 
     5      6     15      1     126.806242045100     484.492885493347 
     6      5     30      1     129.183592992600     285.070774532144 
     6      7      8      1     126.806242045100     484.492885493347 
     6      7     14      1     126.806242045100     484.492885493347 
     6     15     16      1     126.806242045100     484.492885493347 
     6     15     25      1     126.806242045100     484.492885493347 
     7      6     15      1     126.806242045100     484.492885493347 
     7      8      9      1     126.806242045100     484.492885493347 
     7      8     31      1     129.183592992600     285.070774532144 
     7     14     11      1     126.806242045100     484.492885493347 
     7     14     34      1     129.183592992600     285.070774532144 
     8      7     14      1     126.806242045100     484.492885493347 
     8      9     10      1     126.806242045100     484.492885493347 
     8      9     32      1     129.183592992600     285.070774532144 
     9      8     31      1     129.183592992600     285.070774532144 
     9     10     11      1     126.806242045100     484.492885493347 
     9     10     33      1     129.183592992600     285.070774532144 
    10      9     32      1     129.183592992600     285.070774532144 
    10     11     12      1     126.806242045100     484.492885493347 
    10     11     14      1     126.806242045100     484.492885493347 
    11     10     33      1     129.183592992600     285.070774532144 
    11     12     13      1     126.806242045100     484.492885493347 
    11     12    178      1     126.806242045100     484.492885493347 
    11     14     34      1     129.183592992600     285.070774532144 
    12     11     14      1     126.806242045100     484.492885493347 
    12    178    177      1     110.353880618100     544.678275491328 
    13     12    178      1     127.469141619100    1685.413543333009 
    15     16     17      1     126.806242045100     484.492885493347 
    15     16     24      1     126.806242045100     484.492885493347 
    15     25     44      1     129.183592992600     285.070774532144 
    16     15     25      1     126.806242045100     484.492885493347 
    16     17     18      1     126.806242045100     484.492885493347 
    16     17     35      1     129.183592992600     285.070774532144 
    16     24     23      1     126.806242045100     484.492885493347 
    16     24     43      1     129.183592992600     285.070774532144 
    17     16     24      1     126.806242045100     484.492885493347 
    17     18     19      1     126.806242045100     484.492885493347 
    17     18     36      1     129.183592992600     285.070774532144 
    18     17     35      1     129.183592992600     285.070774532144 
    18     19     20      1     126.806242045100     484.492885493347 
    18     19     23      1     126.806242045100     484.492885493347 
    19     18     36      1     129.183592992600     285.070774532144 
    19     20     21      1     116.547586263400     445.222086509286 
    19     20     22      1     116.547586263400     445.222086509286 
    19     20     37      1     116.547586263400     445.222086509286 
    19     23     24      1     126.806242045100     484.492885493347 
    19     23     42      1     129.183592992600     285.070774532144 
    20     19     23      1     126.806242045100     484.492885493347 
    20     21     38      1     116.547586263400     445.222086509286 
    20     21     39      1     116.547586263400     445.222086509286 
    20     21     40      1     116.547586263400     445.222086509286 
    20     22     41      1     115.507132767400     530.901282784327 
    20     22     56      1     117.346557051400     463.769802376852 
    21     20     22      1     116.547586263400     445.222086509286 
    21     20     37      1     116.547586263400     445.222086509286 
    22     20     37      1     116.547586263400     445.222086509286 
    22     56     55      1     126.806242045100     484.492885493347 
    22     56     57      1     126.806242045100     484.492885493347 
    23     24     43      1     129.183592992600     285.070774532144 
    24     23     42      1     129.183592992600     285.070774532144 
    26      1     27      1     115.603099953300     408.161690475075 
    26      1     28      1     115.603099953300     408.161690475075 
    27      1     28      1     115.603099953300     408.161690475075 
    38     21     39      1     115.603099953300     408.161690475075 
    38     21     40      1     115.603099953300     408.161690475075 
    39     21     40      1     115.603099953300     408.161690475075 
    41     22     56      1     115.507132767400     530.901282784327 
    45     46     47      1     110.353880618100     544.678275491328 
    46     45     70      1     116.547586263400     445.222086509286 
    46     45     71      1     116.547586263400     445.222086509286 
    46     45     72      1     116.547586263400     445.222086509286 
    46     47     48      1     126.806242045100     484.492885493347 
    46     47     69      1     126.806242045100     484.492885493347 
    47     48     49      1     126.806242045100     484.492885493347 
    47     48     73      1     129.183592992600     285.070774532144 
    47     69     59      1     126.806242045100     484.492885493347 
    47     69     88      1     129.183592992600     285.070774532144 
    48     47     69      1     126.806242045100     484.492885493347 
    48     49     50      1     126.806242045100     484.492885493347 
    48     49     74      1     129.183592992600     285.070774532144 
    49     48     73      1     129.183592992600     285.070774532144 
    49     50     51      1     126.806242045100     484.492885493347 
    49     50     59      1     126.806242045100     484.492885493347 
    50     49     74      1     129.183592992600     285.070774532144 
    50     51     52      1     126.806242045100     484.492885493347 
    50     51     58      1     126.806242045100     484.492885493347 
    50     59     60      1     126.806242045100     484.492885493347 
    50     59     69      1     126.806242045100     484.492885493347 
    51     50     59      1     126.806242045100     484.492885493347 
    51     52     53      1     126.806242045100     484.492885493347 
    51     52     75      1     129.183592992600     285.070774532144 
    51     58     55      1     126.806242045100     484.492885493347 
    51     58     78      1     129.183592992600     285.070774532144 
    52     51     58      1     126.806242045100     484.492885493347 
    52     53     54      1     126.806242045100     484.492885493347 
    52     53     76      1     129.183592992600     285.070774532144 
    53     52     75      1     129.183592992600     285.070774532144 
    53     54     55      1     126.806242045100     484.492885493347 
    53     54     77      1     129.183592992600     285.070774532144 
    54     53     76      1     129.183592992600     285.070774532144 
    54     55     56      1     126.806242045100     484.492885493347 
    54     55     58      1     126.806242045100     484.492885493347 
    55     54     77      1     129.183592992600     285.070774532144 
    55     56     57      1     126.806242045100     484.492885493347 
    55     58     78      1     129.183592992600     285.070774532144 
    56     55     58      1     126.806242045100     484.492885493347 
    59     60     61      1     126.806242045100     484.492885493347 
    59     60     68      1     126.806242045100     484.492885493347 
    59     69     88      1     129.183592992600     285.070774532144 
    60     59     69      1     126.806242045100     484.492885493347 
    60     61     62      1     126.806242045100     484.492885493347 
    60     61     79      1     129.183592992600     285.070774532144 
    60     68     67      1     126.806242045100     484.492885493347 
    60     68     87      1     129.183592992600     285.070774532144 
    61     60     68      1     126.806242045100     484.492885493347 
    61     62     63      1     126.806242045100     484.492885493347 
    61     62     80      1     129.183592992600     285.070774532144 
    62     61     79      1     129.183592992600     285.070774532144 
    62     63     64      1     126.806242045100     484.492885493347 
    62     63     67      1     126.806242045100     484.492885493347 
    63     62     80      1     129.183592992600     285.070774532144 
    63     64     65      1     116.547586263400     445.222086509286 
    63     64     66      1     116.547586263400     445.222086509286 
    63     64     81      1     116.547586263400     445.222086509286 
    63     67     68      1     126.806242045100     484.492885493347 
    63     67     86      1     129.183592992600     285.070774532144 
    64     63     67      1     126.806242045100     484.492885493347 
    64     65     82      1     116.547586263400     445.222086509286 
    64     65     83      1     116.547586263400     445.222086509286 
    64     65     84      1     116.547586263400     445.222086509286 
    64     66     85      1     115.507132767400     530.901282784327 
    64     66    100      1     117.346557051400     463.769802376852 
    65     64     66      1     116.547586263400     445.222086509286 
    65     64     81      1     116.547586263400     445.222086509286 
    66     64     81      1     116.547586263400     445.222086509286 
    66    100     99      1     126.806242045100     484.492885493347 
    66    100    101      1     126.806242045100     484.492885493347 
    67     68     87      1     129.183592992600     285.070774532144 
    68     67     86      1     129.183592992600     285.070774532144 
    70     45     71      1     115.603099953300     408.161690475075 
    70     45     72      1     115.603099953300     408.161690475075 
    71     45     72      1     115.603099953300     408.161690475075 
    82     65     83      1     115.603099953300     408.161690475075 
    82     65     84      1     115.603099953300     408.161690475075 
    83     65     84      1     115.603099953300     408.161690475075 
    85     66    100      1     115.507132767400     530.901282784327 
    89     90     91      1     110.353880618100     544.678275491328 
    90     89    114      1     116.547586263400     445.222086509286 
    90     89    115      1     116.547586263400     445.222086509286 
    90     89    116      1     116.547586263400     445.222086509286 
    90     91     92      1     126.806242045100     484.492885493347 
    90     91    113      1     126.806242045100     484.492885493347 
    91     92     93      1     126.806242045100     484.492885493347 
    91     92    117      1     129.183592992600     285.070774532144 
    91    113    103      1     126.806242045100     484.492885493347 
    91    113    132      1     129.183592992600     285.070774532144 
    92     91    113      1     126.806242045100     484.492885493347 
    92     93     94      1     126.806242045100     484.492885493347 
    92     93    118      1     129.183592992600     285.070774532144 
    93     92    117      1     129.183592992600     285.070774532144 
    93     94     95      1     126.806242045100     484.492885493347 
    93     94    103      1     126.806242045100     484.492885493347 
    94     93    118      1     129.183592992600     285.070774532144 
    94     95     96      1     126.806242045100     484.492885493347 
    94     95    102      1     126.806242045100     484.492885493347 
    94    103    104      1     126.806242045100     484.492885493347 
    94    103    113      1     126.806242045100     484.492885493347 
    95     94    103      1     126.806242045100     484.492885493347 
    95     96     97      1     126.806242045100     484.492885493347 
    95     96    119      1     129.183592992600     285.070774532144 
    95    102     99      1     126.806242045100     484.492885493347 
    95    102    122      1     129.183592992600     285.070774532144 
    96     95    102      1     126.806242045100     484.492885493347 
    96     97     98      1     126.806242045100     484.492885493347 
    96     97    120      1     129.183592992600     285.070774532144 
    97     96    119      1     129.183592992600     285.070774532144 
    97     98     99      1     126.806242045100     484.492885493347 
    97     98    121      1     129.183592992600     285.070774532144 
    98     97    120      1     129.183592992600     285.070774532144 
    98     99    100      1     126.806242045100     484.492885493347 
    98     99    102      1     126.806242045100     484.492885493347 
    99     98    121      1     129.183592992600     285.070774532144 
    99    100    101      1     126.806242045100     484.492885493347 
    99    102    122      1     129.183592992600     285.070774532144 
   100     99    102      1     126.806242045100     484.492885493347 
   103    104    105      1     126.806242045100     484.492885493347 
   103    104    112      1     126.806242045100     484.492885493347 
   103    113    132      1     129.183592992600     285.070774532144 
   104    103    113      1     126.806242045100     484.492885493347 
   104    105    106      1     126.806242045100     484.492885493347 
   104    105    123      1     129.183592992600     285.070774532144 
   104    112    111      1     126.806242045100     484.492885493347 
   104    112    131      1     129.183592992600     285.070774532144 
   105    104    112      1     126.806242045100     484.492885493347 
   105    106    107      1     126.806242045100     484.492885493347 
   105    106    124      1     129.183592992600     285.070774532144 
   106    105    123      1     129.183592992600     285.070774532144 
   106    107    108      1     126.806242045100     484.492885493347 
   106    107    111      1     126.806242045100     484.492885493347 
   107    106    124      1     129.183592992600     285.070774532144 
   107    108    109      1     116.547586263400     445.222086509286 
   107    108    110      1     116.547586263400     445.222086509286 
   107    108    125      1     116.547586263400     445.222086509286 
   107    111    112      1     126.806242045100     484.492885493347 
   107    111    130      1     129.183592992600     285.070774532144 
   108    107    111      1     126.806242045100     484.492885493347 
   108    109    126      1     116.547586263400     445.222086509286 
   108    109    127      1     116.547586263400     445.222086509286 
   108    109    128      1     116.547586263400     445.222086509286 
   108    110    129      1     115.507132767400     530.901282784327 
   108    110    144      1     117.346557051400     463.769802376852 
   109    108    110      1     116.547586263400     445.222086509286 
   109    108    125      1     116.547586263400     445.222086509286 
   110    108    125      1     116.547586263400     445.222086509286 
   110    144    143      1     126.806242045100     484.492885493347 
   110    144    145      1     126.806242045100     484.492885493347 
   111    112    131      1     129.183592992600     285.070774532144 
   112    111    130      1     129.183592992600     285.070774532144 
   114     89    115      1     115.603099953300     408.161690475075 
   114     89    116      1     115.603099953300     408.161690475075 
   115     89    116      1     115.603099953300     408.161690475075 
   126    109    127      1     115.603099953300     408.161690475075 
   126    109    128      1     115.603099953300     408.161690475075 
   127    109    128      1     115.603099953300     408.161690475075 
   129    110    144      1     115.507132767400     530.901282784327 
   133    134    135      1     110.353880618100     544.678275491328 
   134    133    158      1     116.547586263400     445.222086509286 
   134    133    159      1     116.547586263400     445.222086509286 
   134    133    160      1     116.547586263400     445.222086509286 
   134    135    136      1     126.806242045100     484.492885493347 
   134    135    157      1     126.806242045100     484.492885493347 
   135    136    137      1     126.806242045100     484.492885493347 
   135    136    161      1     129.183592992600     285.070774532144 
   135    157    147      1     126.806242045100     484.492885493347 
   135    157    176      1     129.183592992600     285.070774532144 
   136    135    157      1     126.806242045100     484.492885493347 
   136    137    138      1     126.806242045100     484.492885493347 
   136    137    162      1     129.183592992600     285.070774532144 
   137    136    161      1     129.183592992600     285.070774532144 
   137    138    139      1     126.806242045100     484.492885493347 
   137    138    147      1     126.806242045100     484.492885493347 
   138    137    162      1     129.183592992600     285.070774532144 
   138    139    140      1     126.806242045100     484.492885493347 
   138    139    146      1     126.806242045100     484.492885493347 
   138    147    148      1     126.806242045100     484.492885493347 
   138    147    157      1     126.806242045100     484.492885493347 
   139    138    147      1     126.806242045100     484.492885493347 
   139    140    141      1     126.806242045100     484.492885493347 
   139    140    163      1     129.183592992600     285.070774532144 
   139    146    143      1     126.806242045100     484.492885493347 
   139    146    166      1     129.183592992600     285.070774532144 
   140    139    146      1     126.806242045100     484.492885493347 
   140    141    142      1     126.806242045100     484.492885493347 
   140    141    164      1     129.183592992600     285.070774532144 
   141    140    163      1     129.183592992600     285.070774532144 
   141    142    143      1     126.806242045100     484.492885493347 
   141    142    165      1     129.183592992600     285.070774532144 
   142    141    164      1     129.183592992600     285.070774532144 
   142    143    144      1     126.806242045100     484.492885493347 
   142    143    146      1     126.806242045100     484.492885493347 
   143    142    165      1     129.183592992600     285.070774532144 
   143    144    145      1     126.806242045100     484.492885493347 
   143    146    166      1     129.183592992600     285.070774532144 
   144    143    146      1     126.806242045100     484.492885493347 
   147    148    149      1     126.806242045100     484.492885493347 
   147    148    156      1     126.806242045100     484.492885493347 
   147    157    176      1     129.183592992600     285.070774532144 
   148    147    157      1     126.806242045100     484.492885493347 
   148    149    150      1     126.806242045100     484.492885493347 
   148    149    167      1     129.183592992600     285.070774532144 
   148    156    155      1     126.806242045100     484.492885493347 
   148    156    175      1     129.183592992600     285.070774532144 
   149    148    156      1     126.806242045100     484.492885493347 
   149    150    151      1     126.806242045100     484.492885493347 
   149    150    168      1     129.183592992600     285.070774532144 
   150    149    167      1     129.183592992600     285.070774532144 
   150    151    152      1     126.806242045100     484.492885493347 
   150    151    155      1     126.806242045100     484.492885493347 
   151    150    168      1     129.183592992600     285.070774532144 
   151    152    153      1     116.547586263400     445.222086509286 
   151    152    154      1     116.547586263400     445.222086509286 
   151    152    169      1     116.547586263400     445.222086509286 
   151    155    156      1     126.806242045100     484.492885493347 
   151    155    174      1     129.183592992600     285.070774532144 
   152    151    155      1     126.806242045100     484.492885493347 
   152    153    170      1     116.547586263400     445.222086509286 
   152    153    171      1     116.547586263400     445.222086509286 
   152    153    172      1     116.547586263400     445.222086509286 
   152    154    173      1     115.507132767400     530.901282784327 
   152    154    187      1     117.346557051400     463.769802376852 
   153    152    154      1     116.547586263400     445.222086509286 
   153    152    169      1     116.547586263400     445.222086509286 
   154    152    169      1     116.547586263400     445.222086509286 
   154    187    186      1     126.806242045100     484.492885493347 
   154    187    188      1     126.806242045100     484.492885493347 
   155    156    175      1     129.183592992600     285.070774532144 
   156    155    174      1     129.183592992600     285.070774532144 
   158    133    159      1     115.603099953300     408.161690475075 
   158    133    160      1     115.603099953300     408.161690475075 
   159    133    160      1     115.603099953300     408.161690475075 
   170    153    171      1     115.603099953300     408.161690475075 
   170    153    172      1     115.603099953300     408.161690475075 
   171    153    172      1     115.603099953300     408.161690475075 
   173    154    187      1     115.507132767400     530.901282784327 
   178    177    179      1     116.547586263400     445.222086509286 
   178    177    180      1     116.547586263400     445.222086509286 
   178    177    181      1     116.547586263400     445.222086509286 
   179    177    180      1     115.603099953300     408.161690475075 
   179    177    181      1     115.603099953300     408.161690475075 
   180    177    181      1     115.603099953300     408.161690475075 
   182    183    184      1     116.547586263400     445.222086509286 
   182    183    185      1     116.547586263400     445.222086509286 
   182    183    186      1     116.547586263400     445.222086509286 
   183    182    189      1     116.547586263400     445.222086509286 
   183    182    190      1     116.547586263400     445.222086509286 
   183    182    191      1     116.547586263400     445.222086509286 
   183    184    192      1     116.547586263400     445.222086509286 
   183    184    193      1     116.547586263400     445.222086509286 
   183    184    194      1     116.547586263400     445.222086509286 
   183    185    195      1     116.547586263400     445.222086509286 
   183    185    196      1     116.547586263400     445.222086509286 
   183    185    197      1     116.547586263400     445.222086509286 
   183    186    187      1     110.353880618100     544.678275491328 
   184    183    185      1     116.547586263400     445.222086509286 
   184    183    186      1     116.547586263400     445.222086509286 
   185    183    186      1     116.547586263400     445.222086509286 
   186    187    188      1     127.469141619100    1685.413543333009 
   189    182    190      1     115.603099953300     408.161690475075 
   189    182    191      1     115.603099953300     408.161690475075 
   190    182    191      1     115.603099953300     408.161690475075 
   192    184    193      1     115.603099953300     408.161690475075 
   192    184    194      1     115.603099953300     408.161690475075 
   193    184    194      1     115.603099953300     408.161690475075 
   195    185    196      1     115.603099953300     408.161690475075 
   195    185    197      1     115.603099953300     408.161690475075 
   196    185    197      1     115.603099953300     408.161690475075 

[ dihedrals ]
;ai    aj   ak   al   funct phi  k
     1     2     3     4     1    180.000000000000      6.410861677363                 2
     1     2     3    25     1    180.000000000000      6.410861677363                 2
     2     3     4     5     1    180.000000000000     15.321515534534                 2
     2     3     4    29     1    180.000000000000     15.321515534534                 2
     2     3    25    15     1    180.000000000000     15.321515534534                 2
     2     3    25    44     1    180.000000000000     15.321515534534                 2
     3     2     1    26     1      0.000000000000      0.198220506977                 3
     3     2     1    27     1      0.000000000000      0.198220506977                 3
     3     2     1    28     1      0.000000000000      0.198220506977                 3
     3     4     5     6     1    180.000000000000     15.321515534534                 2
     3     4     5    30     1    180.000000000000     15.321515534534                 2
     3    25    15     6     1    180.000000000000     15.321515534534                 2
     3    25    15    16     1    180.000000000000     15.321515534534                 2
     4     3    25    15     1    180.000000000000     15.321515534534                 2
     4     3    25    44     1    180.000000000000     15.321515534534                 2
     4     5     6     7     1    180.000000000000     15.321515534534                 2
     4     5     6    15     1    180.000000000000     15.321515534534                 2
     5     4     3    25     1    180.000000000000     15.321515534534                 2
     5     6     7     8     1    180.000000000000      4.866977563957                 2
     5     6     7    14     1    180.000000000000      4.866977563957                 2
     5     6    15    16     1    180.000000000000     15.321515534534                 2
     5     6    15    25     1    180.000000000000     15.321515534534                 2
     6     5     4    29     1    180.000000000000     15.321515534534                 2
     6     7     8     9     1    180.000000000000     15.321515534534                 2
     6     7     8    31     1    180.000000000000     15.321515534534                 2
     6     7    14    11     1    180.000000000000     15.321515534534                 2
     6     7    14    34     1    180.000000000000     15.321515534534                 2
     6    15    16    17     1    180.000000000000      4.866977563957                 2
     6    15    16    24     1    180.000000000000      4.866977563957                 2
     6    15    25    44     1    180.000000000000     15.321515534534                 2
     7     6     5    30     1    180.000000000000     15.321515534534                 2
     7     6    15    16     1    180.000000000000     15.321515534534                 2
     7     6    15    25     1    180.000000000000     15.321515534534                 2
     7     8     9    10     1    180.000000000000     15.321515534534                 2
     7     8     9    32     1    180.000000000000     15.321515534534                 2
     7    14    11    10     1    180.000000000000     15.321515534534                 2
     7    14    11    12     1    180.000000000000     15.321515534534                 2
     8     7     6    15     1    180.000000000000      4.866977563957                 2
     8     7    14    11     1    180.000000000000     15.321515534534                 2
     8     7    14    34     1    180.000000000000     15.321515534534                 2
     8     9    10    11     1    180.000000000000     15.321515534534                 2
     8     9    10    33     1    180.000000000000     15.321515534534                 2
     9     8     7    14     1    180.000000000000     15.321515534534                 2
     9    10    11    12     1    180.000000000000     15.321515534534                 2
     9    10    11    14     1    180.000000000000     15.321515534534                 2
    10     9     8    31     1    180.000000000000     15.321515534534                 2
    10    11    12    13     1    180.000000000000      4.173190890070                 2
    10    11    12   178     1    180.000000000000      4.173190890070                 2
    10    11    14    34     1    180.000000000000     15.321515534534                 2
    11    10     9    32     1    180.000000000000     15.321515534534                 2
    11    12   178   177     1    180.000000000000     11.630908055712                 2
    12    11    10    33     1    180.000000000000     15.321515534534                 2
    12    11    14    34     1    180.000000000000     15.321515534534                 2
    12   178   177   179     1      0.000000000000      0.198220506977                 3
    12   178   177   180     1      0.000000000000      0.198220506977                 3
    12   178   177   181     1      0.000000000000      0.198220506977                 3
    13    12    11    14     1    180.000000000000      4.173190890070                 2
    13    12   178   177     1    180.000000000000      4.869377577648                 2
    13    12   178   177     1    180.000000000000      0.702571835515                 1
    14     7     6    15     1    180.000000000000      4.866977563957                 2
    14     7     8    31     1    180.000000000000     15.321515534534                 2
    14    11    10    33     1    180.000000000000     15.321515534534                 2
    14    11    12   178     1    180.000000000000      4.173190890070                 2
    15     6     5    30     1    180.000000000000     15.321515534534                 2
    15    16    17    18     1    180.000000000000     15.321515534534                 2
    15    16    17    35     1    180.000000000000     15.321515534534                 2
    15    16    24    23     1    180.000000000000     15.321515534534                 2
    15    16    24    43     1    180.000000000000     15.321515534534                 2
    16    15    25    44     1    180.000000000000     15.321515534534                 2
    16    17    18    19     1    180.000000000000     15.321515534534                 2
    16    17    18    36     1    180.000000000000     15.321515534534                 2
    16    24    23    19     1    180.000000000000     15.321515534534                 2
    16    24    23    42     1    180.000000000000     15.321515534534                 2
    17    16    15    25     1    180.000000000000      4.866977563957                 2
    17    16    24    23     1    180.000000000000     15.321515534534                 2
    17    16    24    43     1    180.000000000000     15.321515534534                 2
    17    18    19    20     1    180.000000000000     15.321515534534                 2
    17    18    19    23     1    180.000000000000     15.321515534534                 2
    18    17    16    24     1    180.000000000000     15.321515534534                 2
    18    19    20    21     1      0.000000000000      0.111501038139                 3
    18    19    20    22     1      0.000000000000      0.111501038139                 3
    18    19    20    37     1      0.000000000000      0.111501038139                 3
    18    19    23    24     1    180.000000000000     15.321515534534                 2
    18    19    23    42     1    180.000000000000     15.321515534534                 2
    19    18    17    35     1    180.000000000000     15.321515534534                 2
    19    20    21    38     1      0.000000000000      0.483407861024                 3
    19    20    21    39     1      0.000000000000      0.483407861024                 3
    19    20    21    40     1      0.000000000000      0.483407861024                 3
    19    20    22    41     1      0.000000000000      0.762485897686                 2
    19    20    22    41     1      0.000000000000      0.124362804952                 3
    19    20    22    56     1    180.000000000000     -2.883499339083                 2
    19    20    22    56     1      0.000000000000      1.141330947302                 1
    19    23    24    43     1    180.000000000000     15.321515534534                 2
    20    19    18    36     1    180.000000000000     15.321515534534                 2
    20    19    23    24     1    180.000000000000     15.321515534534                 2
    20    19    23    42     1    180.000000000000     15.321515534534                 2
    20    22    56    55     1    180.000000000000      7.569054279773                 2
    20    22    56    55     1      0.000000000000     -0.201513062842                 1
    20    22    56    57     1    180.000000000000     12.978553656010                 2
    20    22    56    57     1      0.000000000000     -1.779100933344                 1
    21    20    19    23     1      0.000000000000      0.111501038139                 3
    21    20    22    41     1      0.000000000000      0.762485897686                 2
    21    20    22    41     1      0.000000000000      0.124362804952                 3
    21    20    22    56     1    180.000000000000     -0.622862944840                 4
    21    20    22    56     1    180.000000000000     -0.514769632165                 3
    21    20    22    56     1      0.000000000000      1.229801223351                 2
    21    20    22    56     1      0.000000000000     -1.265294746367                 1
    22    20    19    23     1      0.000000000000      0.111501038139                 3
    22    20    21    38     1      0.000000000000      0.483407861024                 3
    22    20    21    39     1      0.000000000000      0.483407861024                 3
    22    20    21    40     1      0.000000000000      0.483407861024                 3
    22    56    55    54     1    180.000000000000      4.173190890070                 2
    22    56    55    58     1    180.000000000000      4.173190890070                 2
    23    19    18    36     1    180.000000000000     15.321515534534                 2
    23    19    20    37     1      0.000000000000      0.111501038139                 3
    24    16    15    25     1    180.000000000000      4.866977563957                 2
    24    16    17    35     1    180.000000000000     15.321515534534                 2
    25     3     4    29     1    180.000000000000     15.321515534534                 2
    29     4     5    30     1    180.000000000000     15.321515534534                 2
    31     8     9    32     1    180.000000000000     15.321515534534                 2
    32     9    10    33     1    180.000000000000     15.321515534534                 2
    35    17    18    36     1    180.000000000000     15.321515534534                 2
    37    20    21    38     1      0.000000000000      0.799950138473                 3
    37    20    21    39     1      0.000000000000      0.799950138473                 3
    37    20    21    40     1      0.000000000000      0.799950138473                 3
    37    20    22    41     1      0.000000000000      0.762485897686                 2
    37    20    22    41     1      0.000000000000      0.124362804952                 3
    37    20    22    56     1      0.000000000000      0.762485897686                 2
    37    20    22    56     1      0.000000000000      0.124362804952                 3
    41    22    56    55     1    180.000000000000      7.569054279773                 2
    41    22    56    55     1      0.000000000000     -0.201513062842                 1
    41    22    56    57     1    180.000000000000      9.825603686166                 2
    41    22    56    57     1      0.000000000000      5.255757435828                 1
    42    23    24    43     1    180.000000000000     15.321515534534                 2
    45    46    47    48     1    180.000000000000      6.410861677363                 2
    45    46    47    69     1    180.000000000000      6.410861677363                 2
    46    47    48    49     1    180.000000000000     15.321515534534                 2
    46    47    48    73     1    180.000000000000     15.321515534534                 2
    46    47    69    59     1    180.000000000000     15.321515534534                 2
    46    47    69    88     1    180.000000000000     15.321515534534                 2
    47    46    45    70     1      0.000000000000      0.198220506977                 3
    47    46    45    71     1      0.000000000000      0.198220506977                 3
    47    46    45    72     1      0.000000000000      0.198220506977                 3
    47    48    49    50     1    180.000000000000     15.321515534534                 2
    47    48    49    74     1    180.000000000000     15.321515534534                 2
    47    69    59    50     1    180.000000000000     15.321515534534                 2
    47    69    59    60     1    180.000000000000     15.321515534534                 2
    48    47    69    59     1    180.000000000000     15.321515534534                 2
    48    47    69    88     1    180.000000000000     15.321515534534                 2
    48    49    50    51     1    180.000000000000     15.321515534534                 2
    48    49    50    59     1    180.000000000000     15.321515534534                 2
    49    48    47    69     1    180.000000000000     15.321515534534                 2
    49    50    51    52     1    180.000000000000      4.866977563957                 2
    49    50    51    58     1    180.000000000000      4.866977563957                 2
    49    50    59    60     1    180.000000000000     15.321515534534                 2
    49    50    59    69     1    180.000000000000     15.321515534534                 2
    50    49    48    73     1    180.000000000000     15.321515534534                 2
    50    51    52    53     1    180.000000000000     15.321515534534                 2
    50    51    52    75     1    180.000000000000     15.321515534534                 2
    50    51    58    55     1    180.000000000000     15.321515534534                 2
    50    51    58    78     1    180.000000000000     15.321515534534                 2
    50    59    60    61     1    180.000000000000      4.866977563957                 2
    50    59    60    68     1    180.000000000000      4.866977563957                 2
    50    59    69    88     1    180.000000000000     15.321515534534                 2
    51    50    49    74     1    180.000000000000     15.321515534534                 2
    51    50    59    60     1    180.000000000000     15.321515534534                 2
    51    50    59    69     1    180.000000000000     15.321515534534                 2
    51    52    53    54     1    180.000000000000     15.321515534534                 2
    51    52    53    76     1    180.000000000000     15.321515534534                 2
    51    58    55    54     1    180.000000000000     15.321515534534                 2
    51    58    55    56     1    180.000000000000     15.321515534534                 2
    52    51    50    59     1    180.000000000000      4.866977563957                 2
    52    51    58    55     1    180.000000000000     15.321515534534                 2
    52    51    58    78     1    180.000000000000     15.321515534534                 2
    52    53    54    55     1    180.000000000000     15.321515534534                 2
    52    53    54    77     1    180.000000000000     15.321515534534                 2
    53    52    51    58     1    180.000000000000     15.321515534534                 2
    53    54    55    56     1    180.000000000000     15.321515534534                 2
    53    54    55    58     1    180.000000000000     15.321515534534                 2
    54    53    52    75     1    180.000000000000     15.321515534534                 2
    54    55    56    57     1    180.000000000000      4.173190890070                 2
    54    55    58    78     1    180.000000000000     15.321515534534                 2
    55    54    53    76     1    180.000000000000     15.321515534534                 2
    56    55    54    77     1    180.000000000000     15.321515534534                 2
    56    55    58    78     1    180.000000000000     15.321515534534                 2
    57    56    55    58     1    180.000000000000      4.173190890070                 2
    58    51    50    59     1    180.000000000000      4.866977563957                 2
    58    51    52    75     1    180.000000000000     15.321515534534                 2
    58    55    54    77     1    180.000000000000     15.321515534534                 2
    59    50    49    74     1    180.000000000000     15.321515534534                 2
    59    60    61    62     1    180.000000000000     15.321515534534                 2
    59    60    61    79     1    180.000000000000     15.321515534534                 2
    59    60    68    67     1    180.000000000000     15.321515534534                 2
    59    60    68    87     1    180.000000000000     15.321515534534                 2
    60    59    69    88     1    180.000000000000     15.321515534534                 2
    60    61    62    63     1    180.000000000000     15.321515534534                 2
    60    61    62    80     1    180.000000000000     15.321515534534                 2
    60    68    67    63     1    180.000000000000     15.321515534534                 2
    60    68    67    86     1    180.000000000000     15.321515534534                 2
    61    60    59    69     1    180.000000000000      4.866977563957                 2
    61    60    68    67     1    180.000000000000     15.321515534534                 2
    61    60    68    87     1    180.000000000000     15.321515534534                 2
    61    62    63    64     1    180.000000000000     15.321515534534                 2
    61    62    63    67     1    180.000000000000     15.321515534534                 2
    62    61    60    68     1    180.000000000000     15.321515534534                 2
    62    63    64    65     1      0.000000000000      0.111501038139                 3
    62    63    64    66     1      0.000000000000      0.111501038139                 3
    62    63    64    81     1      0.000000000000      0.111501038139                 3
    62    63    67    68     1    180.000000000000     15.321515534534                 2
    62    63    67    86     1    180.000000000000     15.321515534534                 2
    63    62    61    79     1    180.000000000000     15.321515534534                 2
    63    64    65    82     1      0.000000000000      0.483407861024                 3
    63    64    65    83     1      0.000000000000      0.483407861024                 3
    63    64    65    84     1      0.000000000000      0.483407861024                 3
    63    64    66    85     1      0.000000000000      0.762485897686                 2
    63    64    66    85     1      0.000000000000      0.124362804952                 3
    63    64    66   100     1    180.000000000000     -2.883499339083                 2
    63    64    66   100     1      0.000000000000      1.141330947302                 1
    63    67    68    87     1    180.000000000000     15.321515534534                 2
    64    63    62    80     1    180.000000000000     15.321515534534                 2
    64    63    67    68     1    180.000000000000     15.321515534534                 2
    64    63    67    86     1    180.000000000000     15.321515534534                 2
    64    66   100    99     1    180.000000000000      7.569054279773                 2
    64    66   100    99     1      0.000000000000     -0.201513062842                 1
    64    66   100   101     1    180.000000000000     12.978553656010                 2
    64    66   100   101     1      0.000000000000     -1.779100933344                 1
    65    64    63    67     1      0.000000000000      0.111501038139                 3
    65    64    66    85     1      0.000000000000      0.762485897686                 2
    65    64    66    85     1      0.000000000000      0.124362804952                 3
    65    64    66   100     1    180.000000000000     -0.622862944840                 4
    65    64    66   100     1    180.000000000000     -0.514769632165                 3
    65    64    66   100     1      0.000000000000      1.229801223351                 2
    65    64    66   100     1      0.000000000000     -1.265294746367                 1
    66    64    63    67     1      0.000000000000      0.111501038139                 3
    66    64    65    82     1      0.000000000000      0.483407861024                 3
    66    64    65    83     1      0.000000000000      0.483407861024                 3
    66    64    65    84     1      0.000000000000      0.483407861024                 3
    66   100    99    98     1    180.000000000000      4.173190890070                 2
    66   100    99   102     1    180.000000000000      4.173190890070                 2
    67    63    62    80     1    180.000000000000     15.321515534534                 2
    67    63    64    81     1      0.000000000000      0.111501038139                 3
    68    60    59    69     1    180.000000000000      4.866977563957                 2
    68    60    61    79     1    180.000000000000     15.321515534534                 2
    69    47    48    73     1    180.000000000000     15.321515534534                 2
    73    48    49    74     1    180.000000000000     15.321515534534                 2
    75    52    53    76     1    180.000000000000     15.321515534534                 2
    76    53    54    77     1    180.000000000000     15.321515534534                 2
    79    61    62    80     1    180.000000000000     15.321515534534                 2
    81    64    65    82     1      0.000000000000      0.799950138473                 3
    81    64    65    83     1      0.000000000000      0.799950138473                 3
    81    64    65    84     1      0.000000000000      0.799950138473                 3
    81    64    66    85     1      0.000000000000      0.762485897686                 2
    81    64    66    85     1      0.000000000000      0.124362804952                 3
    81    64    66   100     1      0.000000000000      0.762485897686                 2
    81    64    66   100     1      0.000000000000      0.124362804952                 3
    85    66   100    99     1    180.000000000000      7.569054279773                 2
    85    66   100    99     1      0.000000000000     -0.201513062842                 1
    85    66   100   101     1    180.000000000000      9.825603686166                 2
    85    66   100   101     1      0.000000000000      5.255757435828                 1
    86    67    68    87     1    180.000000000000     15.321515534534                 2
    89    90    91    92     1    180.000000000000      6.410861677363                 2
    89    90    91   113     1    180.000000000000      6.410861677363                 2
    90    91    92    93     1    180.000000000000     15.321515534534                 2
    90    91    92   117     1    180.000000000000     15.321515534534                 2
    90    91   113   103     1    180.000000000000     15.321515534534                 2
    90    91   113   132     1    180.000000000000     15.321515534534                 2
    91    90    89   114     1      0.000000000000      0.198220506977                 3
    91    90    89   115     1      0.000000000000      0.198220506977                 3
    91    90    89   116     1      0.000000000000      0.198220506977                 3
    91    92    93    94     1    180.000000000000     15.321515534534                 2
    91    92    93   118     1    180.000000000000     15.321515534534                 2
    91   113   103    94     1    180.000000000000     15.321515534534                 2
    91   113   103   104     1    180.000000000000     15.321515534534                 2
    92    91   113   103     1    180.000000000000     15.321515534534                 2
    92    91   113   132     1    180.000000000000     15.321515534534                 2
    92    93    94    95     1    180.000000000000     15.321515534534                 2
    92    93    94   103     1    180.000000000000     15.321515534534                 2
    93    92    91   113     1    180.000000000000     15.321515534534                 2
    93    94    95    96     1    180.000000000000      4.866977563957                 2
    93    94    95   102     1    180.000000000000      4.866977563957                 2
    93    94   103   104     1    180.000000000000     15.321515534534                 2
    93    94   103   113     1    180.000000000000     15.321515534534                 2
    94    93    92   117     1    180.000000000000     15.321515534534                 2
    94    95    96    97     1    180.000000000000     15.321515534534                 2
    94    95    96   119     1    180.000000000000     15.321515534534                 2
    94    95   102    99     1    180.000000000000     15.321515534534                 2
    94    95   102   122     1    180.000000000000     15.321515534534                 2
    94   103   104   105     1    180.000000000000      4.866977563957                 2
    94   103   104   112     1    180.000000000000      4.866977563957                 2
    94   103   113   132     1    180.000000000000     15.321515534534                 2
    95    94    93   118     1    180.000000000000     15.321515534534                 2
    95    94   103   104     1    180.000000000000     15.321515534534                 2
    95    94   103   113     1    180.000000000000     15.321515534534                 2
    95    96    97    98     1    180.000000000000     15.321515534534                 2
    95    96    97   120     1    180.000000000000     15.321515534534                 2
    95   102    99    98     1    180.000000000000     15.321515534534                 2
    95   102    99   100     1    180.000000000000     15.321515534534                 2
    96    95    94   103     1    180.000000000000      4.866977563957                 2
    96    95   102    99     1    180.000000000000     15.321515534534                 2
    96    95   102   122     1    180.000000000000     15.321515534534                 2
    96    97    98    99     1    180.000000000000     15.321515534534                 2
    96    97    98   121     1    180.000000000000     15.321515534534                 2
    97    96    95   102     1    180.000000000000     15.321515534534                 2
    97    98    99   100     1    180.000000000000     15.321515534534                 2
    97    98    99   102     1    180.000000000000     15.321515534534                 2
    98    97    96   119     1    180.000000000000     15.321515534534                 2
    98    99   100   101     1    180.000000000000      4.173190890070                 2
    98    99   102   122     1    180.000000000000     15.321515534534                 2
    99    98    97   120     1    180.000000000000     15.321515534534                 2
   100    99    98   121     1    180.000000000000     15.321515534534                 2
   100    99   102   122     1    180.000000000000     15.321515534534                 2
   101   100    99   102     1    180.000000000000      4.173190890070                 2
   102    95    94   103     1    180.000000000000      4.866977563957                 2
   102    95    96   119     1    180.000000000000     15.321515534534                 2
   102    99    98   121     1    180.000000000000     15.321515534534                 2
   103    94    93   118     1    180.000000000000     15.321515534534                 2
   103   104   105   106     1    180.000000000000     15.321515534534                 2
   103   104   105   123     1    180.000000000000     15.321515534534                 2
   103   104   112   111     1    180.000000000000     15.321515534534                 2
   103   104   112   131     1    180.000000000000     15.321515534534                 2
   104   103   113   132     1    180.000000000000     15.321515534534                 2
   104   105   106   107     1    180.000000000000     15.321515534534                 2
   104   105   106   124     1    180.000000000000     15.321515534534                 2
   104   112   111   107     1    180.000000000000     15.321515534534                 2
   104   112   111   130     1    180.000000000000     15.321515534534                 2
   105   104   103   113     1    180.000000000000      4.866977563957                 2
   105   104   112   111     1    180.000000000000     15.321515534534                 2
   105   104   112   131     1    180.000000000000     15.321515534534                 2
   105   106   107   108     1    180.000000000000     15.321515534534                 2
   105   106   107   111     1    180.000000000000     15.321515534534                 2
   106   105   104   112     1    180.000000000000     15.321515534534                 2
   106   107   108   109     1      0.000000000000      0.111501038139                 3
   106   107   108   110     1      0.000000000000      0.111501038139                 3
   106   107   108   125     1      0.000000000000      0.111501038139                 3
   106   107   111   112     1    180.000000000000     15.321515534534                 2
   106   107   111   130     1    180.000000000000     15.321515534534                 2
   107   106   105   123     1    180.000000000000     15.321515534534                 2
   107   108   109   126     1      0.000000000000      0.483407861024                 3
   107   108   109   127     1      0.000000000000      0.483407861024                 3
   107   108   109   128     1      0.000000000000      0.483407861024                 3
   107   108   110   129     1      0.000000000000      0.762485897686                 2
   107   108   110   129     1      0.000000000000      0.124362804952                 3
   107   108   110   144     1    180.000000000000     -2.883499339083                 2
   107   108   110   144     1      0.000000000000      1.141330947302                 1
   107   111   112   131     1    180.000000000000     15.321515534534                 2
   108   107   106   124     1    180.000000000000     15.321515534534                 2
   108   107   111   112     1    180.000000000000     15.321515534534                 2
   108   107   111   130     1    180.000000000000     15.321515534534                 2
   108   110   144   143     1    180.000000000000      7.569054279773                 2
   108   110   144   143     1      0.000000000000     -0.201513062842                 1
   108   110   144   145     1    180.000000000000     12.978553656010                 2
   108   110   144   145     1      0.000000000000     -1.779100933344                 1
   109   108   107   111     1      0.000000000000      0.111501038139                 3
   109   108   110   129     1      0.000000000000      0.762485897686                 2
   109   108   110   129     1      0.000000000000      0.124362804952                 3
   109   108   110   144     1    180.000000000000     -0.622862944840                 4
   109   108   110   144     1    180.000000000000     -0.514769632165                 3
   109   108   110   144     1      0.000000000000      1.229801223351                 2
   109   108   110   144     1      0.000000000000     -1.265294746367                 1
   110   108   107   111     1      0.000000000000      0.111501038139                 3
   110   108   109   126     1      0.000000000000      0.483407861024                 3
   110   108   109   127     1      0.000000000000      0.483407861024                 3
   110   108   109   128     1      0.000000000000      0.483407861024                 3
   110   144   143   142     1    180.000000000000      4.173190890070                 2
   110   144   143   146     1    180.000000000000      4.173190890070                 2
   111   107   106   124     1    180.000000000000     15.321515534534                 2
   111   107   108   125     1      0.000000000000      0.111501038139                 3
   112   104   103   113     1    180.000000000000      4.866977563957                 2
   112   104   105   123     1    180.000000000000     15.321515534534                 2
   113    91    92   117     1    180.000000000000     15.321515534534                 2
   117    92    93   118     1    180.000000000000     15.321515534534                 2
   119    96    97   120     1    180.000000000000     15.321515534534                 2
   120    97    98   121     1    180.000000000000     15.321515534534                 2
   123   105   106   124     1    180.000000000000     15.321515534534                 2
   125   108   109   126     1      0.000000000000      0.799950138473                 3
   125   108   109   127     1      0.000000000000      0.799950138473                 3
   125   108   109   128     1      0.000000000000      0.799950138473                 3
   125   108   110   129     1      0.000000000000      0.762485897686                 2
   125   108   110   129     1      0.000000000000      0.124362804952                 3
   125   108   110   144     1      0.000000000000      0.762485897686                 2
   125   108   110   144     1      0.000000000000      0.124362804952                 3
   129   110   144   143     1    180.000000000000      7.569054279773                 2
   129   110   144   143     1      0.000000000000     -0.201513062842                 1
   129   110   144   145     1    180.000000000000      9.825603686166                 2
   129   110   144   145     1      0.000000000000      5.255757435828                 1
   130   111   112   131     1    180.000000000000     15.321515534534                 2
   133   134   135   136     1    180.000000000000      6.410861677363                 2
   133   134   135   157     1    180.000000000000      6.410861677363                 2
   134   135   136   137     1    180.000000000000     15.321515534534                 2
   134   135   136   161     1    180.000000000000     15.321515534534                 2
   134   135   157   147     1    180.000000000000     15.321515534534                 2
   134   135   157   176     1    180.000000000000     15.321515534534                 2
   135   134   133   158     1      0.000000000000      0.198220506977                 3
   135   134   133   159     1      0.000000000000      0.198220506977                 3
   135   134   133   160     1      0.000000000000      0.198220506977                 3
   135   136   137   138     1    180.000000000000     15.321515534534                 2
   135   136   137   162     1    180.000000000000     15.321515534534                 2
   135   157   147   138     1    180.000000000000     15.321515534534                 2
   135   157   147   148     1    180.000000000000     15.321515534534                 2
   136   135   157   147     1    180.000000000000     15.321515534534                 2
   136   135   157   176     1    180.000000000000     15.321515534534                 2
   136   137   138   139     1    180.000000000000     15.321515534534                 2
   136   137   138   147     1    180.000000000000     15.321515534534                 2
   137   136   135   157     1    180.000000000000     15.321515534534                 2
   137   138   139   140     1    180.000000000000      4.866977563957                 2
   137   138   139   146     1    180.000000000000      4.866977563957                 2
   137   138   147   148     1    180.000000000000     15.321515534534                 2
   137   138   147   157     1    180.000000000000     15.321515534534                 2
   138   137   136   161     1    180.000000000000     15.321515534534                 2
   138   139   140   141     1    180.000000000000     15.321515534534                 2
   138   139   140   163     1    180.000000000000     15.321515534534                 2
   138   139   146   143     1    180.000000000000     15.321515534534                 2
   138   139   146   166     1    180.000000000000     15.321515534534                 2
   138   147   148   149     1    180.000000000000      4.866977563957                 2
   138   147   148   156     1    180.000000000000      4.866977563957                 2
   138   147   157   176     1    180.000000000000     15.321515534534                 2
   139   138   137   162     1    180.000000000000     15.321515534534                 2
   139   138   147   148     1    180.000000000000     15.321515534534                 2
   139   138   147   157     1    180.000000000000     15.321515534534                 2
   139   140   141   142     1    180.000000000000     15.321515534534                 2
   139   140   141   164     1    180.000000000000     15.321515534534                 2
   139   146   143   142     1    180.000000000000     15.321515534534                 2
   139   146   143   144     1    180.000000000000     15.321515534534                 2
   140   139   138   147     1    180.000000000000      4.866977563957                 2
   140   139   146   143     1    180.000000000000     15.321515534534                 2
   140   139   146   166     1    180.000000000000     15.321515534534                 2
   140   141   142   143     1    180.000000000000     15.321515534534                 2
   140   141   142   165     1    180.000000000000     15.321515534534                 2
   141   140   139   146     1    180.000000000000     15.321515534534                 2
   141   142   143   144     1    180.000000000000     15.321515534534                 2
   141   142   143   146     1    180.000000000000     15.321515534534                 2
   142   141   140   163     1    180.000000000000     15.321515534534                 2
   142   143   144   145     1    180.000000000000      4.173190890070                 2
   142   143   146   166     1    180.000000000000     15.321515534534                 2
   143   142   141   164     1    180.000000000000     15.321515534534                 2
   144   143   142   165     1    180.000000000000     15.321515534534                 2
   144   143   146   166     1    180.000000000000     15.321515534534                 2
   145   144   143   146     1    180.000000000000      4.173190890070                 2
   146   139   138   147     1    180.000000000000      4.866977563957                 2
   146   139   140   163     1    180.000000000000     15.321515534534                 2
   146   143   142   165     1    180.000000000000     15.321515534534                 2
   147   138   137   162     1    180.000000000000     15.321515534534                 2
   147   148   149   150     1    180.000000000000     15.321515534534                 2
   147   148   149   167     1    180.000000000000     15.321515534534                 2
   147   148   156   155     1    180.000000000000     15.321515534534                 2
   147   148   156   175     1    180.000000000000     15.321515534534                 2
   148   147   157   176     1    180.000000000000     15.321515534534                 2
   148   149   150   151     1    180.000000000000     15.321515534534                 2
   148   149   150   168     1    180.000000000000     15.321515534534                 2
   148   156   155   151     1    180.000000000000     15.321515534534                 2
   148   156   155   174     1    180.000000000000     15.321515534534                 2
   149   148   147   157     1    180.000000000000      4.866977563957                 2
   149   148   156   155     1    180.000000000000     15.321515534534                 2
   149   148   156   175     1    180.000000000000     15.321515534534                 2
   149   150   151   152     1    180.000000000000     15.321515534534                 2
   149   150   151   155     1    180.000000000000     15.321515534534                 2
   150   149   148   156     1    180.000000000000     15.321515534534                 2
   150   151   152   153     1      0.000000000000      0.111501038139                 3
   150   151   152   154     1      0.000000000000      0.111501038139                 3
   150   151   152   169     1      0.000000000000      0.111501038139                 3
   150   151   155   156     1    180.000000000000     15.321515534534                 2
   150   151   155   174     1    180.000000000000     15.321515534534                 2
   151   150   149   167     1    180.000000000000     15.321515534534                 2
   151   152   153   170     1      0.000000000000      0.483407861024                 3
   151   152   153   171     1      0.000000000000      0.483407861024                 3
   151   152   153   172     1      0.000000000000      0.483407861024                 3
   151   152   154   173     1      0.000000000000      0.762485897686                 2
   151   152   154   173     1      0.000000000000      0.124362804952                 3
   151   152   154   187     1    180.000000000000     -2.883499339083                 2
   151   152   154   187     1      0.000000000000      1.141330947302                 1
   151   155   156   175     1    180.000000000000     15.321515534534                 2
   152   151   150   168     1    180.000000000000     15.321515534534                 2
   152   151   155   156     1    180.000000000000     15.321515534534                 2
   152   151   155   174     1    180.000000000000     15.321515534534                 2
   152   154   187   186     1    180.000000000000      7.569054279773                 2
   152   154   187   186     1      0.000000000000     -0.201513062842                 1
   152   154   187   188     1    180.000000000000      7.569054279773                 2
   152   154   187   188     1      0.000000000000     -0.201513062842                 1
   153   152   151   155     1      0.000000000000      0.111501038139                 3
   153   152   154   173     1      0.000000000000      0.762485897686                 2
   153   152   154   173     1      0.000000000000      0.124362804952                 3
   153   152   154   187     1    180.000000000000     -0.622862944840                 4
   153   152   154   187     1    180.000000000000     -0.514769632165                 3
   153   152   154   187     1      0.000000000000      1.229801223351                 2
   153   152   154   187     1      0.000000000000     -1.265294746367                 1
   154   152   151   155     1      0.000000000000      0.111501038139                 3
   154   152   153   170     1      0.000000000000      0.483407861024                 3
   154   152   153   171     1      0.000000000000      0.483407861024                 3
   154   152   153   172     1      0.000000000000      0.483407861024                 3
   154   187   186   183     1    180.000000000000     11.630908055712                 2
   155   151   150   168     1    180.000000000000     15.321515534534                 2
   155   151   152   169     1      0.000000000000      0.111501038139                 3
   156   148   147   157     1    180.000000000000      4.866977563957                 2
   156   148   149   167     1    180.000000000000     15.321515534534                 2
   157   135   136   161     1    180.000000000000     15.321515534534                 2
   161   136   137   162     1    180.000000000000     15.321515534534                 2
   163   140   141   164     1    180.000000000000     15.321515534534                 2
   164   141   142   165     1    180.000000000000     15.321515534534                 2
   167   149   150   168     1    180.000000000000     15.321515534534                 2
   169   152   153   170     1      0.000000000000      0.799950138473                 3
   169   152   153   171     1      0.000000000000      0.799950138473                 3
   169   152   153   172     1      0.000000000000      0.799950138473                 3
   169   152   154   173     1      0.000000000000      0.762485897686                 2
   169   152   154   173     1      0.000000000000      0.124362804952                 3
   169   152   154   187     1      0.000000000000      0.762485897686                 2
   169   152   154   187     1      0.000000000000      0.124362804952                 3
   173   154   187   186     1    180.000000000000      7.569054279773                 2
   173   154   187   186     1      0.000000000000     -0.201513062842                 1
   173   154   187   188     1    180.000000000000      2.033839522640                 2
   173   154   187   188     1      0.000000000000      3.730867000451                 1
   174   155   156   175     1    180.000000000000     15.321515534534                 2
   182   183   184   192     1      0.000000000000      0.435413753811                 3
   182   183   184   193     1      0.000000000000      0.435413753811                 3
   182   183   184   194     1      0.000000000000      0.435413753811                 3
   182   183   185   195     1      0.000000000000      0.435413753811                 3
   182   183   185   196     1      0.000000000000      0.435413753811                 3
   182   183   185   197     1      0.000000000000      0.435413753811                 3
   182   183   186   187     1      0.000000000000      0.802605161760                 3
   182   183   186   187     1    180.000000000000      3.850192060290                 1
   183   186   187   188     1    180.000000000000      4.869377577648                 2
   183   186   187   188     1    180.000000000000      0.702571835515                 1
   184   183   182   189     1      0.000000000000      0.435413753811                 3
   184   183   182   190     1      0.000000000000      0.435413753811                 3
   184   183   182   191     1      0.000000000000      0.435413753811                 3
   184   183   185   195     1      0.000000000000      0.435413753811                 3
   184   183   185   196     1      0.000000000000      0.435413753811                 3
   184   183   185   197     1      0.000000000000      0.435413753811                 3
   184   183   186   187     1      0.000000000000      0.802605161760                 3
   184   183   186   187     1    180.000000000000      3.850192060290                 1
   185   183   182   189     1      0.000000000000      0.435413753811                 3
   185   183   182   190     1      0.000000000000      0.435413753811                 3
   185   183   182   191     1      0.000000000000      0.435413753811                 3
   185   183   184   192     1      0.000000000000      0.435413753811                 3
   185   183   184   193     1      0.000000000000      0.435413753811                 3
   185   183   184   194     1      0.000000000000      0.435413753811                 3
   185   183   186   187     1      0.000000000000      0.802605161760                 3
   185   183   186   187     1    180.000000000000      3.850192060290                 1
   186   183   182   189     1      0.000000000000      0.466735938990                 3
   186   183   182   189     1      0.000000000000      1.436153909162                 1
   186   183   182   190     1      0.000000000000      0.466735938990                 3
   186   183   182   190     1      0.000000000000      1.436153909162                 1
   186   183   182   191     1      0.000000000000      0.466735938990                 3
   186   183   182   191     1      0.000000000000      1.436153909162                 1
   186   183   184   192     1      0.000000000000      0.466735938990                 3
   186   183   184   192     1      0.000000000000      1.436153909162                 1
   186   183   184   193     1      0.000000000000      0.466735938990                 3
   186   183   184   193     1      0.000000000000      1.436153909162                 1
   186   183   184   194     1      0.000000000000      0.466735938990                 3
   186   183   184   194     1      0.000000000000      1.436153909162                 1
   186   183   185   195     1      0.000000000000      0.466735938990                 3
   186   183   185   195     1      0.000000000000      1.436153909162                 1
   186   183   185   196     1      0.000000000000      0.466735938990                 3
   186   183   185   196     1      0.000000000000      1.436153909162                 1
   186   183   185   197     1      0.000000000000      0.466735938990                 3
   186   183   185   197     1      0.000000000000      1.436153909162                 1
   151   155   150   152     4    180.000000000000      1.534133333333                 2
    95    96   102    94     4    180.000000000000      1.534133333333                 2
   140   139   141   163     4    180.000000000000      1.534133333333                 2
   107   108   111   106     4    180.000000000000      1.534133333333                 2
    97    96    98   120     4    180.000000000000      1.534133333333                 2
   154   187   152   173     4    180.000000000000      1.394666666667                 2
   135   136   157   134     4    180.000000000000      1.534133333333                 2
   144   143   145   110     4    180.000000000000      1.534133333333                 2
   155   156   174   151     4    180.000000000000      1.534133333333                 2
    68    60    67    87     4    180.000000000000      1.534133333333                 2
    96    97   119    95     4    180.000000000000      1.534133333333                 2
    98    99   121    97     4    180.000000000000      1.534133333333                 2
    11    14    10    12     4    180.000000000000      1.534133333333                 2
   110   108   129   144     4    180.000000000000      1.394666666667                 2
   150   151   168   149     4    180.000000000000      1.534133333333                 2
    53    54    76    52     4    180.000000000000      1.534133333333                 2
    56    22    55    57     4    180.000000000000      1.534133333333                 2
   107   111   106   108     4    180.000000000000      1.534133333333                 2
    23    19    24    42     4    180.000000000000      1.534133333333                 2
   143   142   144   146     4    180.000000000000      1.534133333333                 2
   157   147   176   135     4    180.000000000000      1.534133333333                 2
    47    69    46    48     4    180.000000000000      1.534133333333                 2
    61    79    60    62     4    180.000000000000      1.534133333333                 2
    96    95    97   119     4    180.000000000000      1.534133333333                 2
    62    63    80    61     4    180.000000000000      1.534133333333                 2
   110   129   144   108     4    180.000000000000      1.394666666667                 2
    63    62    64    67     4    180.000000000000      1.534133333333                 2
   155   151   156   174     4    180.000000000000      1.534133333333                 2
   137   136   138   162     4    180.000000000000      1.534133333333                 2
    61    62    79    60     4    180.000000000000      1.534133333333                 2
    66    85   100    64     4    180.000000000000      1.394666666667                 2
     9    10    32     8     4    180.000000000000      1.534133333333                 2
    93    94   118    92     4    180.000000000000      1.534133333333                 2
    14     7    11    34     4    180.000000000000      1.534133333333                 2
     4    29     3     5     4    180.000000000000      1.534133333333                 2
    91    92   113    90     4    180.000000000000      1.534133333333                 2
     5    30     4     6     4    180.000000000000      1.534133333333                 2
    68    87    60    67     4    180.000000000000      1.534133333333                 2
   112   104   111   131     4    180.000000000000      1.534133333333                 2
    54    53    55    77     4    180.000000000000      1.534133333333                 2
    98    97    99   121     4    180.000000000000      1.534133333333                 2
    24    43    16    23     4    180.000000000000      1.534133333333                 2
    55    56    58    54     4    180.000000000000      1.534133333333                 2
    63    64    67    62     4    180.000000000000      1.534133333333                 2
     8     7     9    31     4    180.000000000000      1.534133333333                 2
   104   112   103   105     4    180.000000000000      1.534133333333                 2
   155   174   151   156     4    180.000000000000      1.534133333333                 2
   105   123   104   106     4    180.000000000000      1.534133333333                 2
   142   165   141   143     4    180.000000000000      1.534133333333                 2
    11    10    12    14     4    180.000000000000      1.534133333333                 2
   149   167   148   150     4    180.000000000000      1.534133333333                 2
    47    48    69    46     4    180.000000000000      1.534133333333                 2
    99   102    98   100     4    180.000000000000      1.534133333333                 2
    23    42    19    24     4    180.000000000000      1.534133333333                 2
    69    88    47    59     4    180.000000000000      1.534133333333                 2
   112   131   104   111     4    180.000000000000      1.534133333333                 2
   111   130   107   112     4    180.000000000000      1.534133333333                 2
   105   104   106   123     4    180.000000000000      1.534133333333                 2
    91   113    90    92     4    180.000000000000      1.534133333333                 2
   149   150   167   148     4    180.000000000000      1.534133333333                 2
    24    16    23    43     4    180.000000000000      1.534133333333                 2
     5     4     6    30     4    180.000000000000      1.534133333333                 2
   147   138   148   157     4    180.000000000000      1.534133333333                 2
    98   121    97    99     4    180.000000000000      1.534133333333                 2
   157   135   147   176     4    180.000000000000      1.534133333333                 2
    23    24    42    19     4    180.000000000000      1.534133333333                 2
    22    20    41    56     4    180.000000000000      1.394666666667                 2
    69    47    59    88     4    180.000000000000      1.534133333333                 2
   103    94   104   113     4    180.000000000000      1.534133333333                 2
   148   149   156   147     4    180.000000000000      1.534133333333                 2
   136   161   135   137     4    180.000000000000      1.534133333333                 2
    67    63    68    86     4    180.000000000000      1.534133333333                 2
    19    23    18    20     4    180.000000000000      1.534133333333                 2
    59    69    50    60     4    180.000000000000      1.534133333333                 2
   139   140   146   138     4    180.000000000000      1.534133333333                 2
   150   168   149   151     4    180.000000000000      1.534133333333                 2
    19    18    20    23     4    180.000000000000      1.534133333333                 2
   140   141   163   139     4    180.000000000000      1.534133333333                 2
    51    50    52    58     4    180.000000000000      1.534133333333                 2
     7     6     8    14     4    180.000000000000      1.534133333333                 2
    59    60    69    50     4    180.000000000000      1.534133333333                 2
   138   137   139   147     4    180.000000000000      1.534133333333                 2
    12    11    13   178     4    180.000000000000     14.644000000000                 2
    17    18    35    16     4    180.000000000000      1.534133333333                 2
   147   157   138   148     4    180.000000000000      1.534133333333                 2
   143   144   146   142     4    180.000000000000      1.534133333333                 2
     5     6    30     4     4    180.000000000000      1.534133333333                 2
     7    14     6     8     4    180.000000000000      1.534133333333                 2
    66   100    64    85     4    180.000000000000      1.394666666667                 2
    25    15    44     3     4    180.000000000000      1.534133333333                 2
   143   146   142   144     4    180.000000000000      1.534133333333                 2
     6    15     5     7     4    180.000000000000      1.534133333333                 2
    95    94    96   102     4    180.000000000000      1.534133333333                 2
   147   148   157   138     4    180.000000000000      1.534133333333                 2
     3     4    25     2     4    180.000000000000      1.534133333333                 2
    47    46    48    69     4    180.000000000000      1.534133333333                 2
    48    49    73    47     4    180.000000000000      1.534133333333                 2
    50    49    51    59     4    180.000000000000      1.534133333333                 2
    99   100   102    98     4    180.000000000000      1.534133333333                 2
    49    50    74    48     4    180.000000000000      1.534133333333                 2
    58    78    51    55     4    180.000000000000      1.534133333333                 2
    54    55    77    53     4    180.000000000000      1.534133333333                 2
    93    92    94   118     4    180.000000000000      1.534133333333                 2
   106   105   107   124     4    180.000000000000      1.534133333333                 2
    99    98   100   102     4    180.000000000000      1.534133333333                 2
    68    67    87    60     4    180.000000000000      1.534133333333                 2
    60    68    59    61     4    180.000000000000      1.534133333333                 2
   141   140   142   164     4    180.000000000000      1.534133333333                 2
   107   106   108   111     4    180.000000000000      1.534133333333                 2
   149   148   150   167     4    180.000000000000      1.534133333333                 2
   103   113    94   104     4    180.000000000000      1.534133333333                 2
   144   145   110   143     4    180.000000000000      1.534133333333                 2
   142   143   165   141     4    180.000000000000      1.534133333333                 2
    25    44     3    15     4    180.000000000000      1.534133333333                 2
    95   102    94    96     4    180.000000000000      1.534133333333                 2
     6     7    15     5     4    180.000000000000      1.534133333333                 2
    15     6    16    25     4    180.000000000000      1.534133333333                 2
    55    58    54    56     4    180.000000000000      1.534133333333                 2
    54    77    53    55     4    180.000000000000      1.534133333333                 2
    94    95   103    93     4    180.000000000000      1.534133333333                 2
    97    98   120    96     4    180.000000000000      1.534133333333                 2
   187   186   188   154     4    180.000000000000     14.644000000000                 2
   102    95    99   122     4    180.000000000000      1.534133333333                 2
    24    23    43    16     4    180.000000000000      1.534133333333                 2
    69    59    88    47     4    180.000000000000      1.534133333333                 2
    97   120    96    98     4    180.000000000000      1.534133333333                 2
    61    60    62    79     4    180.000000000000      1.534133333333                 2
   111   112   130   107     4    180.000000000000      1.534133333333                 2
   136   135   137   161     4    180.000000000000      1.534133333333                 2
    62    61    63    80     4    180.000000000000      1.534133333333                 2
     7     8    14     6     4    180.000000000000      1.534133333333                 2
    58    51    55    78     4    180.000000000000      1.534133333333                 2
    51    52    58    50     4    180.000000000000      1.534133333333                 2
    17    35    16    18     4    180.000000000000      1.534133333333                 2
    53    76    52    54     4    180.000000000000      1.534133333333                 2
   137   162   136   138     4    180.000000000000      1.534133333333                 2
    18    17    19    36     4    180.000000000000      1.534133333333                 2
   100    99   101    66     4    180.000000000000      1.534133333333                 2
   151   150   152   155     4    180.000000000000      1.534133333333                 2
   102   122    95    99     4    180.000000000000      1.534133333333                 2
   113    91   103   132     4    180.000000000000      1.534133333333                 2
    48    73    47    49     4    180.000000000000      1.534133333333                 2
   139   146   138   140     4    180.000000000000      1.534133333333                 2
   135   157   134   136     4    180.000000000000      1.534133333333                 2
    14    34     7    11     4    180.000000000000      1.534133333333                 2
    16    17    24    15     4    180.000000000000      1.534133333333                 2
   103   104   113    94     4    180.000000000000      1.534133333333                 2
   138   139   147   137     4    180.000000000000      1.534133333333                 2
   141   164   140   142     4    180.000000000000      1.534133333333                 2
    67    86    63    68     4    180.000000000000      1.534133333333                 2
    52    51    53    75     4    180.000000000000      1.534133333333                 2
   156   175   148   155     4    180.000000000000      1.534133333333                 2
    66    64    85   100     4    180.000000000000      1.394666666667                 2
    93   118    92    94     4    180.000000000000      1.534133333333                 2
    52    53    75    51     4    180.000000000000      1.534133333333                 2
    67    68    86    63     4    180.000000000000      1.534133333333                 2
   106   107   124   105     4    180.000000000000      1.534133333333                 2
    19    20    23    18     4    180.000000000000      1.534133333333                 2
    12   178    11    13     4    180.000000000000     14.644000000000                 2
   139   138   140   146     4    180.000000000000      1.534133333333                 2
     6     5     7    15     4    180.000000000000      1.534133333333                 2
   138   147   137   139     4    180.000000000000      1.534133333333                 2
   136   137   161   135     4    180.000000000000      1.534133333333                 2
     9     8    10    32     4    180.000000000000      1.534133333333                 2
     3     2     4    25     4    180.000000000000      1.534133333333                 2
    60    59    61    68     4    180.000000000000      1.534133333333                 2
   154   173   187   152     4    180.000000000000      1.394666666667                 2
    16    15    17    24     4    180.000000000000      1.534133333333                 2
    22    56    20    41     4    180.000000000000      1.394666666667                 2
    17    16    18    35     4    180.000000000000      1.534133333333                 2
    11    12    14    10     4    180.000000000000      1.534133333333                 2
   106   124   105   107     4    180.000000000000      1.534133333333                 2
    50    51    59    49     4    180.000000000000      1.534133333333                 2
    51    58    50    52     4    180.000000000000      1.534133333333                 2
    18    36    17    19     4    180.000000000000      1.534133333333                 2
   151   152   155   150     4    180.000000000000      1.534133333333                 2
   146   166   139   143     4    180.000000000000      1.534133333333                 2
    53    52    54    76     4    180.000000000000      1.534133333333                 2
    14    11    34     7     4    180.000000000000      1.534133333333                 2
    56    57    22    55     4    180.000000000000      1.534133333333                 2
    48    47    49    73     4    180.000000000000      1.534133333333                 2
    50    59    49    51     4    180.000000000000      1.534133333333                 2
   187   154   186   188     4    180.000000000000     14.644000000000                 2
    16    24    15    17     4    180.000000000000      1.534133333333                 2
   113   103   132    91     4    180.000000000000      1.534133333333                 2
    49    74    48    50     4    180.000000000000      1.534133333333                 2
    52    75    51    53     4    180.000000000000      1.534133333333                 2
   137   138   162   136     4    180.000000000000      1.534133333333                 2
   148   156   147   149     4    180.000000000000      1.534133333333                 2
   146   139   143   166     4    180.000000000000      1.534133333333                 2
   141   142   164   140     4    180.000000000000      1.534133333333                 2
    56    55    57    22     4    180.000000000000      1.534133333333                 2
   156   155   175   148     4    180.000000000000      1.534133333333                 2
    58    55    78    51     4    180.000000000000      1.534133333333                 2
   187   188   154   186     4    180.000000000000     14.644000000000                 2
     4     3     5    29     4    180.000000000000      1.534133333333                 2
    55    54    56    58     4    180.000000000000      1.534133333333                 2
   154   152   173   187     4    180.000000000000      1.394666666667                 2
   110   144   108   129     4    180.000000000000      1.394666666667                 2
    92    93   117    91     4    180.000000000000      1.534133333333                 2
    92    91    93   117     4    180.000000000000      1.534133333333                 2
    63    67    62    64     4    180.000000000000      1.534133333333                 2
   113   132    91   103     4    180.000000000000      1.534133333333                 2
    10    33     9    11     4    180.000000000000      1.534133333333                 2
    10    11    33     9     4    180.000000000000      1.534133333333                 2
   100   101    66    99     4    180.000000000000      1.534133333333                 2
   104   105   112   103     4    180.000000000000      1.534133333333                 2
    15    16    25     6     4    180.000000000000      1.534133333333                 2
    25     3    15    44     4    180.000000000000      1.534133333333                 2
   105   106   123   104     4    180.000000000000      1.534133333333                 2
    94   103    93    95     4    180.000000000000      1.534133333333                 2
   104   103   105   112     4    180.000000000000      1.534133333333                 2
    10     9    11    33     4    180.000000000000      1.534133333333                 2
    92   117    91    93     4    180.000000000000      1.534133333333                 2
    62    80    61    63     4    180.000000000000      1.534133333333                 2
   142   141   143   165     4    180.000000000000      1.534133333333                 2
    96   119    95    97     4    180.000000000000      1.534133333333                 2
     8    31     7     9     4    180.000000000000      1.534133333333                 2
   146   143   166   139     4    180.000000000000      1.534133333333                 2
   140   163   139   141     4    180.000000000000      1.534133333333                 2
    22    41    56    20     4    180.000000000000      1.394666666667                 2
    91    90    92   113     4    180.000000000000      1.534133333333                 2
   135   134   136   157     4    180.000000000000      1.534133333333                 2
     3    25     2     4     4    180.000000000000      1.534133333333                 2
    94    93    95   103     4    180.000000000000      1.534133333333                 2
   144   110   143   145     4    180.000000000000      1.534133333333                 2
   148   147   149   156     4    180.000000000000      1.534133333333                 2
    18    19    36    17     4    180.000000000000      1.534133333333                 2
   157   176   135   147     4    180.000000000000      1.534133333333                 2
     4     5    29     3     4    180.000000000000      1.534133333333                 2
    59    50    60    69     4    180.000000000000      1.534133333333                 2
   100    66    99   101     4    180.000000000000      1.534133333333                 2
    15    25     6    16     4    180.000000000000      1.534133333333                 2
     9    32     8    10     4    180.000000000000      1.534133333333                 2
   111   107   112   130     4    180.000000000000      1.534133333333                 2
    12    13   178    11     4    180.000000000000     14.644000000000                 2
     8     9    31     7     4    180.000000000000      1.534133333333                 2
   150   149   151   168     4    180.000000000000      1.534133333333                 2
   156   148   155   175     4    180.000000000000      1.534133333333                 2
   102    99   122    95     4    180.000000000000      1.534133333333                 2
    60    61    68    59     4    180.000000000000      1.534133333333                 2
   112   111   131   104     4    180.000000000000      1.534133333333                 2
    49    48    50    74     4    180.000000000000      1.534133333333                 2

[ settles ]
;i  funct   dOH  dHH


[ exclusions ]
;ai    aj


[ system ]
;name
FOO

[ molecules ]
;name	number
pom_tetramer.pdb	1

