FOO
 3367
    1POP     C1    1   2.798   1.654   0.784
    1POP     O2    2   2.865   1.671   0.886
    1POP     C3    3   2.654   1.625   0.799
    1POP     C4    4   2.573   1.602   0.685
    1POP     C5    5   2.438   1.569   0.699
    1POP     C6    6   2.379   1.556   0.825
    1POP     C7    7   2.239   1.514   0.839
    1POP     C8    8   2.197   1.415   0.931
    1POP     C9    9   2.062   1.381   0.939
    1POP    C10   10   1.968   1.435   0.853
    1POP    O11   11   1.840   1.387   0.861
    1POP    C12   12   1.778   1.354   0.735
    1POP    C13   13   2.008   1.534   0.762
    1POP    C14   14   2.141   1.574   0.756
    1POP    C15   15   2.291   1.332   1.008
    1POP    C16   16   2.290   1.330   1.148
    1POP    C17   17   2.376   1.245   1.218
    1POP    C18   18   2.463   1.158   1.150
    1POP    C19   19   2.463   1.161   1.009
    1POP    C20   20   2.379   1.247   0.939
    1POP    C21   21   2.556   1.061   1.221
    1POP    N22   22   2.488   0.952   1.291
    1POP    C23   23   2.646   1.135   1.321
    1POP    C24   24   2.458   1.583   0.938
    1POP    C25   25   2.593   1.617   0.925
    1POP    H26   26   2.616   1.609   0.586
    1POP    H27   27   2.380   1.549   0.610
    1POP    H28   28   2.031   1.306   1.011
    1POP    H29   29   1.705   1.276   0.759
    1POP    H30   30   1.856   1.318   0.668
    1POP    H31   31   1.730   1.446   0.700
    1POP    H32   32   1.935   1.580   0.696
    1POP    H33   33   2.170   1.652   0.686
    1POP    H34   34   2.222   1.395   1.202
    1POP    H35   35   2.374   1.246   1.327
    1POP    H36   36   2.529   1.095   0.953
    1POP    H37   37   2.381   1.247   0.831
    1POP    H38   38   2.622   1.016   1.146
    1POP    H39   39   2.554   0.897   1.346
    1POP    H40   40   2.696   1.213   1.263
    1POP    H41   41   2.581   1.176   1.398
    1POP    H42   42   2.715   1.061   1.359
    1POP    H43   43   2.415   1.577   1.038
    1POP    H44   44   2.652   1.635   1.015
    2POP    C45   45   2.409   0.865   1.220
    2POP    O46   46   2.457   0.754   1.207
    2POP    C47   47   2.265   0.889   1.197
    2POP    C48   48   2.196   0.985   1.272
    2POP    C49   49   2.060   1.006   1.254
    2POP    C50   50   1.985   0.930   1.163
    2POP    C51   51   1.840   0.953   1.152
    2POP    C52   52   1.770   0.965   1.029
    2POP    C53   53   1.633   0.997   1.031
    2POP    C54   54   1.565   1.019   1.150
    2POP    O55   55   1.435   1.062   1.143
    2POP    C56   56   1.403   1.174   1.228
    2POP    C57   57   1.632   0.999   1.271
    2POP    C58   58   1.767   0.966   1.272
    2POP    C59   59   1.832   0.956   0.897
    2POP    C60   60   1.783   0.866   0.801
    2POP    C61   61   1.835   0.866   0.671
    2POP    C62   62   1.934   0.959   0.633
    2POP    C63   63   1.985   1.046   0.730
    2POP    C64   64   1.935   1.044   0.861
    2POP    C65   65   1.983   0.966   0.490
    2POP    N66   66   1.873   0.979   0.395
    2POP    C67   67   2.064   0.841   0.454
    2POP    C68   68   2.053   0.832   1.088
    2POP    C69   69   2.191   0.812   1.105
    2POP    H70   70   2.249   1.044   1.346
    2POP    H71   71   2.011   1.083   1.313
    2POP    H72   72   1.580   1.012   0.938
    2POP    H73   73   1.320   1.224   1.177
    2POP    H74   74   1.491   1.238   1.235
    2POP    H75   75   1.373   1.131   1.324
    2POP    H76   76   1.578   1.011   1.365
    2POP    H77   77   1.817   0.952   1.367
    2POP    H78   78   1.704   0.797   0.828
    2POP    H79   79   1.797   0.796   0.599
    2POP    H80   80   2.063   1.117   0.705
    2POP    H81   81   1.974   1.112   0.935
    2POP    H82   82   2.049   1.053   0.480
    2POP    H83   83   1.904   0.953   0.302
    2POP    H84   84   2.144   0.835   0.529
    2POP    H85   85   1.995   0.756   0.459
    2POP    H86   86   2.102   0.858   0.353
    2POP    H87   87   1.999   0.771   1.017
    2POP    H88   88   2.241   0.735   1.047
    3POP    C89   89   1.810   1.101   0.388
    3POP    O90   90   1.853   1.174   0.300
    3POP    C91   91   1.679   1.128   0.450
    3POP    C92   92   1.601   1.022   0.500
    3POP    C93   93   1.473   1.046   0.551
    3POP    C94   94   1.420   1.176   0.556
    3POP    C95   95   1.280   1.197   0.599
    3POP    C96   96   1.242   1.293   0.696
    3POP    C97   97   1.106   1.311   0.725
    3POP    C98   98   1.007   1.233   0.665
    3POP    O99   99   0.877   1.257   0.705
    3POP   C100  100   0.777   1.161   0.670
    3POP   C101  101   1.046   1.138   0.570
    3POP   C102  102   1.180   1.120   0.538
    3POP   C103  103   1.340   1.371   0.773
    3POP   C104  104   1.348   1.509   0.759
    3POP   C105  105   1.440   1.583   0.833
    3POP   C106  106   1.525   1.520   0.925
    3POP   C107  107   1.514   1.381   0.941
    3POP   C108  108   1.423   1.307   0.865
    3POP   C109  109   1.628   1.596   1.007
    3POP   N110  110   1.575   1.663   1.125
    3POP   C111  111   1.703   1.700   0.924
    3POP   C112  112   1.499   1.282   0.509
    3POP   C113  113   1.626   1.258   0.456
    3POP   H114  114   1.636   0.920   0.494
    3POP   H115  115   1.415   0.962   0.586
    3POP   H116  116   1.077   1.385   0.799
    3POP   H117  117   0.686   1.194   0.722
    3POP   H118  118   0.812   1.063   0.705
    3POP   H119  119   0.765   1.165   0.561
    3POP   H120  120   0.972   1.076   0.519
    3POP   H121  121   1.207   1.046   0.462
    3POP   H122  122   1.283   1.560   0.688
    3POP   H123  123   1.445   1.691   0.819
    3POP   H124  124   1.579   1.328   1.011
    3POP   H125  125   1.417   1.199   0.878
    3POP   H126  126   1.703   1.523   1.041
    3POP   H127  127   1.647   1.718   1.172
    3POP   H128  128   1.734   1.650   0.832
    3POP   H129  129   1.634   1.782   0.906
    3POP   H130  130   1.789   1.731   0.985
    3POP   H131  131   1.459   1.383   0.510
    3POP   H132  132   1.684   1.341   0.417
    4POP   C133  133   1.505   1.592   1.219
    4POP   O134  134   1.566   1.574   1.324
    4POP   C135  135   1.360   1.565   1.210
    4POP   C136  136   1.280   1.629   1.114
    4POP   C137  137   1.143   1.604   1.105
    4POP   C138  138   1.081   1.516   1.194
    4POP   C139  139   0.935   1.494   1.188
    4POP   C140  140   0.874   1.366   1.196
    4POP   C141  141   0.734   1.358   1.199
    4POP   C142  142   0.652   1.470   1.193
    4POP   O143  143   0.517   1.447   1.198
    4POP   C144  144   0.429   1.559   1.222
    4POP   C145  145   0.713   1.596   1.181
    4POP   C146  146   0.852   1.607   1.178
    4POP   C147  147   0.950   1.240   1.195
    4POP   C148  148   0.931   1.144   1.296
    4POP   C149  149   1.000   1.023   1.294
    4POP   C150  150   1.090   0.993   1.190
    4POP   C151  151   1.106   1.087   1.087
    4POP   C152  152   1.038   1.210   1.091
    4POP   C153  153   1.167   0.862   1.184
    4POP   N154  154   1.076   0.756   1.143
    4POP   C155  155   1.232   0.824   1.317
    4POP   C156  156   1.159   1.454   1.292
    4POP   C157  157   1.297   1.478   1.300
    4POP   H158  158   1.325   1.700   1.045
    4POP   H159  159   1.086   1.655   1.029
    4POP   H160  160   0.687   1.260   1.205
    4POP   H161  161   0.330   1.515   1.232
    4POP   H162  162   0.437   1.624   1.134
    4POP   H163  163   0.464   1.605   1.315
    4POP   H164  164   0.653   1.687   1.174
    4POP   H165  165   0.897   1.706   1.171
    4POP   H166  166   0.862   1.165   1.378
    4POP   H167  167   0.983   0.952   1.375
    4POP   H168  168   1.173   1.067   1.004
    4POP   H169  169   1.052   1.281   1.011
    4POP   H170  170   1.248   0.873   1.112
    4POP   H171  171   0.994   0.740   1.200
    4POP   H172  172   1.292   0.910   1.348
    4POP   H173  173   1.151   0.801   1.388
    4POP   H174  174   1.294   0.736   1.295
    4POP   H175  175   1.112   1.387   1.364
    4POP   H176  176   1.355   1.429   1.378
    5CAP   C177  177   2.991   1.673   0.646
    5CAP   O178  178   2.849   1.658   0.657
    5CAP   H179  179   3.016   1.769   0.692
    5CAP   H180  180   3.012   1.671   0.539
    5CAP   H181  181   3.035   1.587   0.698
    6CAP   C182  182   1.239   0.811   0.709
    6CAP   C183  183   1.116   0.749   0.777
    6CAP   C184  184   0.992   0.831   0.738
    6CAP   C185  185   1.104   0.602   0.731
    6CAP   O186  186   1.146   0.762   0.918
    6CAP   C187  187   1.057   0.722   1.012
    6CAP   O188  188   0.958   0.652   0.994
    6CAP   H189  189   1.221   0.807   0.602
    6CAP   H190  190   1.246   0.913   0.748
    6CAP   H191  191   1.324   0.749   0.739
    6CAP   H192  192   1.006   0.930   0.782
    6CAP   H193  193   0.904   0.780   0.779
    6CAP   H194  194   0.990   0.834   0.629
    6CAP   H195  195   1.188   0.549   0.776
    6CAP   H196  196   1.007   0.565   0.765
    6CAP   H197  197   1.110   0.603   0.622
    7TCM     c1  198   4.324   0.574   2.687
    7TCM    cl1  199   4.307   0.403   2.736
    7TCM    cl2  200   4.217   0.607   2.546
    7TCM     h1  201   4.296   0.640   2.770
    7TCM    cl3  202   4.495   0.606   2.641
    8TCM     c1  203   1.497   2.803   4.405
    8TCM    cl1  204   1.568   2.639   4.385
    8TCM    cl2  205   1.534   2.865   4.569
    8TCM     h1  206   1.538   2.870   4.330
    8TCM    cl3  207   1.319   2.791   4.385
    9TCM     c1  208   1.914   2.097   0.637
    9TCM    cl1  209   1.833   1.947   0.581
    9TCM    cl2  210   1.916   2.218   0.504
    9TCM     h1  211   1.860   2.138   0.723
    9TCM    cl3  212   2.083   2.059   0.684
   10TCM     c1  213   2.683   0.451   3.544
   10TCM    cl1  214   2.734   0.621   3.568
   10TCM    cl2  215   2.797   0.344   3.634
   10TCM     h1  216   2.582   0.437   3.582
   10TCM    cl3  217   2.688   0.411   3.369
   11TCM     c1  218   2.291   1.685   2.796
   11TCM    cl1  219   2.331   1.704   2.622
   11TCM    cl2  220   2.369   1.817   2.890
   11TCM     h1  221   2.183   1.689   2.810
   11TCM    cl3  222   2.353   1.527   2.854
   12TCM     c1  223   4.879   1.205   0.251
   12TCM    cl1  224   4.886   1.382   0.227
   12TCM    cl2  225   5.033   1.149   0.326
   12TCM     h1  226   4.795   1.180   0.317
   12TCM    cl3  227   4.858   1.123   0.093
   13TCM     c1  228   2.779   0.793   2.539
   13TCM    cl1  229   2.671   0.927   2.491
   13TCM    cl2  230   2.714   0.638   2.476
   13TCM     h1  231   2.879   0.810   2.498
   13TCM    cl3  232   2.788   0.786   2.718
   14TCM     c1  233   3.449   4.011   4.617
   14TCM    cl1  234   3.403   3.931   4.463
   14TCM    cl2  235   3.486   4.184   4.586
   14TCM     h1  236   3.366   4.004   4.688
   14TCM    cl3  237   3.594   3.930   4.684
   15TCM     c1  238   0.437   3.947   3.402
   15TCM    cl1  239   0.539   3.823   3.322
   15TCM    cl2  240   0.419   4.087   3.292
   15TCM     h1  241   0.339   3.905   3.425
   15TCM    cl3  242   0.515   4.001   3.555
   16TCM     c1  243   3.945   1.193   2.543
   16TCM    cl1  244   3.953   1.209   2.722
   16TCM    cl2  245   4.109   1.222   2.476
   16TCM     h1  246   3.912   1.092   2.517
   16TCM    cl3  247   3.830   1.313   2.477
   17TCM     c1  248   4.853   2.954   4.325
   17TCM    cl1  249   4.721   3.071   4.293
   17TCM    cl2  250   4.785   2.788   4.331
   17TCM     h1  251   4.928   2.960   4.246
   17TCM    cl3  252   4.929   2.993   4.483
   18TCM     c1  253   0.453   2.495   1.235
   18TCM    cl1  254   0.513   2.664   1.236
   18TCM    cl2  255   0.350   2.467   1.379
   18TCM     h1  256   0.395   2.477   1.144
   18TCM    cl3  257   0.593   2.382   1.240
   19TCM     c1  258   1.276   1.752   2.071
   19TCM    cl1  259   1.131   1.760   1.965
   19TCM    cl2  260   1.414   1.682   1.980
   19TCM     h1  261   1.302   1.852   2.106
   19TCM    cl3  262   1.241   1.646   2.212
   20TCM     c1  263   4.524   4.349   0.578
   20TCM    cl1  264   4.620   4.484   0.649
   20TCM    cl2  265   4.575   4.324   0.408
   20TCM     h1  266   4.542   4.258   0.636
   20TCM    cl3  267   4.350   4.391   0.583
   21TCM     c1  268   2.508   0.034   3.692
   21TCM    cl1  269   2.578  -0.108   3.776
   21TCM    cl2  270   2.601   0.068   3.543
   21TCM     h1  271   2.403   0.015   3.667
   21TCM    cl3  272   2.518   0.176   3.801
   22TCM     c1  273   2.711   1.750   2.800
   22TCM    cl1  274   2.868   1.732   2.886
   22TCM    cl2  275   2.700   1.626   2.670
   22TCM     h1  276   2.629   1.736   2.870
   22TCM    cl3  277   2.700   1.914   2.727
   23TCM     c1  278   0.625   3.011   4.849
   23TCM    cl1  279   0.734   3.045   4.987
   23TCM    cl2  280   0.722   2.952   4.710
   23TCM     h1  281   0.552   2.935   4.877
   23TCM    cl3  282   0.541   3.162   4.802
   24TCM     c1  283   4.385   3.266   1.978
   24TCM    cl1  284   4.291   3.335   2.115
   24TCM    cl2  285   4.275   3.174   1.871
   24TCM     h1  286   4.432   3.347   1.922
   24TCM    cl3  287   4.511   3.156   2.042
   25TCM     c1  288   0.291   3.774   4.689
   25TCM    cl1  289   0.120   3.759   4.638
   25TCM    cl2  290   0.320   3.938   4.757
   25TCM     h1  291   0.313   3.698   4.765
   25TCM    cl3  292   0.397   3.750   4.547
   26TCM     c1  293   2.066   0.948   3.248
   26TCM    cl1  294   2.216   1.045   3.241
   26TCM    cl2  295   2.066   0.827   3.115
   26TCM     h1  296   2.060   0.897   3.345
   26TCM    cl3  297   1.924   1.057   3.229
   27TCM     c1  298   1.067   1.789   2.588
   27TCM    cl1  299   1.242   1.764   2.559
   27TCM    cl2  300   0.976   1.757   2.436
   27TCM     h1  301   1.032   1.721   2.666
   27TCM    cl3  302   1.040   1.959   2.639
   28TCM     c1  303   3.137   4.678   4.610
   28TCM    cl1  304   3.071   4.778   4.476
   28TCM    cl2  305   3.200   4.524   4.544
   28TCM     h1  306   3.218   4.732   4.659
   28TCM    cl3  307   3.007   4.644   4.728
   29TCM     c1  308   2.598   2.393   2.221
   29TCM    cl1  309   2.638   2.274   2.349
   29TCM    cl2  310   2.445   2.344   2.141
   29TCM     h1  311   2.587   2.492   2.265
   29TCM    cl3  312   2.729   2.396   2.098
   30TCM     c1  313   2.725   2.170   0.005
   30TCM    cl1  314   2.826   2.121   0.145
   30TCM    cl2  315   2.707   2.349   0.006
   30TCM     h1  316   2.773   2.139  -0.088
   30TCM    cl3  317   2.562   2.095   0.016
   31TCM     c1  318   0.032   4.779   1.298
   31TCM    cl1  319  -0.100   4.669   1.347
   31TCM    cl2  320   0.055   4.904   1.425
   31TCM     h1  321   0.125   4.721   1.286
   31TCM    cl3  322  -0.009   4.858   1.143
   32TCM     c1  323   2.948   0.695   1.163
   32TCM    cl1  324   2.835   0.608   1.055
   32TCM    cl2  325   2.865   0.838   1.233
   32TCM     h1  326   2.981   0.629   1.244
   32TCM    cl3  327   3.090   0.750   1.068
   33TCM     c1  328   3.924   3.077   1.815
   33TCM    cl1  329   3.902   2.899   1.809
   33TCM    cl2  330   3.773   3.155   1.871
   33TCM     h1  331   4.006   3.102   1.884
   33TCM    cl3  332   3.965   3.138   1.651
   34TCM     c1  333   1.055   0.941   3.524
   34TCM    cl1  334   0.903   0.913   3.432
   34TCM    cl2  335   1.034   1.083   3.632
   34TCM     h1  336   1.077   0.853   3.584
   34TCM    cl3  337   1.190   0.971   3.410
   35TCM     c1  338   2.716   3.795   3.490
   35TCM    cl1  339   2.837   3.851   3.370
   35TCM    cl2  340   2.751   3.869   3.650
   35TCM     h1  341   2.616   3.824   3.457
   35TCM    cl3  342   2.725   3.616   3.503
   36TCM     c1  343   0.333   0.805   2.376
   36TCM    cl1  344   0.418   0.649   2.403
   36TCM    cl2  345   0.439   0.911   2.278
   36TCM     h1  346   0.239   0.787   2.324
   36TCM    cl3  347   0.298   0.886   2.533
   37TCM     c1  348   4.945   1.906   2.036
   37TCM    cl1  349   4.786   1.930   1.956
   37TCM    cl2  350   5.025   1.761   1.965
   37TCM     h1  351   5.008   1.994   2.020
   37TCM    cl3  352   4.921   1.879   2.211
   38TCM     c1  353   1.342   3.568   2.016
   38TCM    cl1  354   1.416   3.519   2.172
   38TCM    cl2  355   1.415   3.722   1.960
   38TCM     h1  356   1.360   3.490   1.942
   38TCM    cl3  357   1.166   3.591   2.039
   39TCM     c1  358   3.672   1.355   2.063
   39TCM    cl1  359   3.745   1.197   2.105
   39TCM    cl2  360   3.522   1.328   1.968
   39TCM     h1  361   3.649   1.411   2.154
   39TCM    cl3  362   3.789   1.449   1.963
   40TCM     c1  363   0.844   1.980   1.916
   40TCM    cl1  364   0.673   2.027   1.889
   40TCM    cl2  365   0.880   1.986   2.092
   40TCM     h1  366   0.860   1.878   1.879
   40TCM    cl3  367   0.954   2.093   1.829
   41TCM     c1  368   2.398   3.782   1.796
   41TCM    cl1  369   2.392   3.840   1.966
   41TCM    cl2  370   2.240   3.813   1.716
   41TCM     h1  371   2.476   3.837   1.743
   41TCM    cl3  372   2.434   3.607   1.794
   42TCM     c1  373   1.162   4.387   1.047
   42TCM    cl1  374   1.206   4.247   1.150
   42TCM    cl2  375   1.279   4.400   0.912
   42TCM     h1  376   1.061   4.373   1.007
   42TCM    cl3  377   1.167   4.538   1.145
   43TCM     c1  378   0.185   1.219   4.882
   43TCM    cl1  379   0.048   1.161   4.781
   43TCM    cl2  380   0.222   1.096   5.008
   43TCM     h1  381   0.273   1.233   4.819
   43TCM    cl3  382   0.141   1.375   4.960
   44TCM     c1  383   1.114   3.766   4.612
   44TCM    cl1  384   1.039   3.924   4.571
   44TCM    cl2  385   1.291   3.786   4.628
   44TCM     h1  386   1.072   3.729   4.706
   44TCM    cl3  387   1.080   3.648   4.481
   45TCM     c1  388   0.422   0.612   4.687
   45TCM    cl1  389   0.422   0.791   4.669
   45TCM    cl2  390   0.589   0.550   4.672
   45TCM     h1  391   0.381   0.586   4.785
   45TCM    cl3  392   0.320   0.539   4.559
   46TCM     c1  393   1.021   4.340   2.102
   46TCM    cl1  394   1.170   4.315   2.200
   46TCM    cl2  395   1.036   4.247   1.949
   46TCM     h1  396   0.934   4.305   2.158
   46TCM    cl3  397   1.003   4.514   2.065
   47TCM     c1  398   3.511   3.928   0.046
   47TCM    cl1  399   3.497   3.924   0.225
   47TCM    cl2  400   3.406   4.057  -0.021
   47TCM     h1  401   3.615   3.947   0.018
   47TCM    cl3  402   3.460   3.769  -0.021
   48TCM     c1  403   1.867   1.454   1.322
   48TCM    cl1  404   1.999   1.385   1.423
   48TCM    cl2  405   1.792   1.320   1.229
   48TCM     h1  406   1.793   1.502   1.385
   48TCM    cl3  407   1.937   1.572   1.207
   49TCM     c1  408   3.236   0.467   2.204
   49TCM    cl1  409   3.352   0.543   2.318
   49TCM    cl2  410   3.310   0.453   2.041
   49TCM     h1  411   3.209   0.367   2.240
   49TCM    cl3  412   3.088   0.568   2.194
   50TCM     c1  413   0.103   0.603   1.926
   50TCM    cl1  414   0.200   0.622   1.776
   50TCM    cl2  415   0.209   0.632   2.068
   50TCM     h1  416   0.021   0.675   1.926
   50TCM    cl3  417   0.035   0.437   1.934
   51TCM     c1  418   3.639   2.384   1.274
   51TCM    cl1  419   3.481   2.469   1.266
   51TCM    cl2  420   3.772   2.504   1.272
   51TCM     h1  421   3.644   2.326   1.366
   51TCM    cl3  422   3.654   2.274   1.133
   52TCM     c1  423   4.932   1.668   3.138
   52TCM    cl1  424   4.953   1.541   3.263
   52TCM    cl2  425   4.974   1.600   2.977
   52TCM     h1  426   4.829   1.703   3.138
   52TCM    cl3  427   5.041   1.806   3.174
   53TCM     c1  428   1.944   3.315   2.255
   53TCM    cl1  429   1.882   3.220   2.116
   53TCM    cl2  430   1.879   3.482   2.246
   53TCM     h1  431   1.912   3.268   2.349
   53TCM    cl3  432   2.123   3.320   2.249
   54TCM     c1  433   0.519   0.070   4.663
   54TCM    cl1  434   0.398   0.202   4.665
   54TCM    cl2  435   0.435  -0.088   4.649
   54TCM     h1  436   0.585   0.083   4.577
   54TCM    cl3  437   0.615   0.074   4.815
   55TCM     c1  438   4.460   0.265   4.360
   55TCM    cl1  439   4.411   0.126   4.462
   55TCM    cl2  440   4.432   0.224   4.187
   55TCM     h1  441   4.401   0.353   4.387
   55TCM    cl3  442   4.634   0.299   4.383
   56TCM     c1  443   3.751   4.538   1.384
   56TCM    cl1  444   3.618   4.442   1.456
   56TCM    cl2  445   3.810   4.457   1.235
   56TCM     h1  446   3.714   4.638   1.358
   56TCM    cl3  447   3.886   4.552   1.501
   57TCM     c1  448   4.656   4.424   4.857
   57TCM    cl1  449   4.689   4.257   4.914
   57TCM    cl2  450   4.527   4.497   4.958
   57TCM     h1  451   4.747   4.484   4.865
   57TCM    cl3  452   4.602   4.419   4.686
   58TCM     c1  453   3.814   4.130   1.616
   58TCM    cl1  454   3.814   4.268   1.731
   58TCM    cl2  455   3.899   4.178   1.465
   58TCM     h1  456   3.865   4.045   1.661
   58TCM    cl3  457   3.644   4.084   1.578
   59TCM     c1  458   3.709   4.022   3.263
   59TCM    cl1  459   3.673   3.984   3.434
   59TCM    cl2  460   3.724   3.869   3.170
   59TCM     h1  461   3.628   4.083   3.221
   59TCM    cl3  462   3.864   4.111   3.255
   60TCM     c1  463   0.205   0.744   3.129
   60TCM    cl1  464   0.108   0.619   3.044
   60TCM    cl2  465   0.288   0.850   3.009
   60TCM     h1  466   0.139   0.805   3.191
   60TCM    cl3  467   0.327   0.664   3.233
   61TCM     c1  468   3.068   2.449   2.753
   61TCM    cl1  469   2.897   2.400   2.733
   61TCM    cl2  470   3.111   2.443   2.927
   61TCM     h1  471   3.133   2.381   2.697
   61TCM    cl3  472   3.090   2.617   2.693
   62TCM     c1  473   3.532   2.346   2.469
   62TCM    cl1  474   3.390   2.420   2.549
   62TCM    cl2  475   3.554   2.177   2.528
   62TCM     h1  476   3.517   2.345   2.361
   62TCM    cl3  477   3.680   2.440   2.508
   63TCM     c1  478   4.938   0.485   2.321
   63TCM    cl1  479   5.077   0.539   2.421
   63TCM    cl2  480   4.880   0.623   2.222
   63TCM     h1  481   4.969   0.403   2.256
   63TCM    cl3  482   4.806   0.430   2.428
   64TCM     c1  483   0.647   0.096   2.922
   64TCM    cl1  484   0.744   0.244   2.951
   64TCM    cl2  485   0.495   0.141   2.838
   64TCM     h1  486   0.704   0.027   2.859
   64TCM    cl3  487   0.607   0.018   3.078
   65TCM     c1  488   4.975   3.560   1.209
   65TCM    cl1  489   4.877   3.591   1.356
   65TCM    cl2  490   5.130   3.649   1.220
   65TCM     h1  491   4.996   3.452   1.202
   65TCM    cl3  492   4.885   3.613   1.064
   66TCM     c1  493   1.415   3.372   0.854
   66TCM    cl1  494   1.564   3.372   0.755
   66TCM    cl2  495   1.271   3.364   0.746
   66TCM     h1  496   1.416   3.286   0.921
   66TCM    cl3  497   1.408   3.523   0.951
   67TCM     c1  498   2.774   4.174   3.934
   67TCM    cl1  499   2.614   4.203   4.010
   67TCM    cl2  500   2.897   4.156   4.063
   67TCM     h1  501   2.770   4.083   3.874
   67TCM    cl3  502   2.815   4.314   3.830
   68TCM     c1  503   4.817   1.590   4.930
   68TCM    cl1  504   4.799   1.697   4.787
   68TCM    cl2  505   4.741   1.431   4.896
   68TCM     h1  506   4.923   1.576   4.954
   68TCM    cl3  507   4.734   1.666   5.070
   69TCM     c1  508   2.836   4.621   4.205
   69TCM    cl1  509   2.757   4.675   4.358
   69TCM    cl2  510   2.713   4.542   4.101
   69TCM     h1  511   2.877   4.708   4.153
   69TCM    cl3  512   2.967   4.505   4.244
   70TCM     c1  513   3.843   3.992   2.079
   70TCM    cl1  514   3.748   4.143   2.098
   70TCM    cl2  515   3.961   4.011   1.945
   70TCM     h1  516   3.897   3.970   2.172
   70TCM    cl3  517   3.732   3.857   2.041
   71TCM     c1  518   0.838   0.360   3.385
   71TCM    cl1  519   0.874   0.210   3.294
   71TCM    cl2  520   0.740   0.470   3.283
   71TCM     h1  521   0.782   0.334   3.476
   71TCM    cl3  522   0.991   0.441   3.429
   72TCM     c1  523   0.697   1.491   2.535
   72TCM    cl1  524   0.753   1.445   2.371
   72TCM    cl2  525   0.635   1.659   2.532
   72TCM     h1  526   0.617   1.423   2.567
   72TCM    cl3  527   0.834   1.480   2.650
   73TCM     c1  528   1.233   0.776   2.451
   73TCM    cl1  529   1.191   0.634   2.551
   73TCM    cl2  530   1.116   0.793   2.316
   73TCM     h1  531   1.231   0.866   2.513
   73TCM    cl3  532   1.398   0.752   2.384
   74TCM     c1  533   2.887   0.952   3.472
   74TCM    cl1  534   2.833   1.095   3.378
   74TCM    cl2  535   2.814   0.957   3.635
   74TCM     h1  536   2.856   0.860   3.420
   74TCM    cl3  537   3.066   0.954   3.488
   75TCM     c1  538   4.651   4.627   1.003
   75TCM    cl1  539   4.678   4.801   0.966
   75TCM    cl2  540   4.574   4.612   1.164
   75TCM     h1  541   4.586   4.584   0.927
   75TCM    cl3  542   4.808   4.541   1.003
   76TCM     c1  543   0.512   4.186   0.206
   76TCM    cl1  544   0.432   4.338   0.261
   76TCM    cl2  545   0.390   4.083   0.122
   76TCM     h1  546   0.593   4.210   0.138
   76TCM    cl3  547   0.576   4.098   0.348
   77TCM     c1  548   2.456   3.197   1.960
   77TCM    cl1  549   2.626   3.227   2.011
   77TCM    cl2  550   2.369   3.110   2.090
   77TCM     h1  551   2.407   3.293   1.939
   77TCM    cl3  552   2.455   3.095   1.812
   78TCM     c1  553   0.523   2.950   1.018
   78TCM    cl1  554   0.519   3.123   0.973
   78TCM    cl2  555   0.689   2.886   0.990
   78TCM     h1  556   0.497   2.939   1.124
   78TCM    cl3  557   0.407   2.859   0.917
   79TCM     c1  558   3.097   3.699   0.840
   79TCM    cl1  559   3.118   3.841   0.733
   79TCM    cl2  560   3.231   3.694   0.959
   79TCM     h1  561   3.001   3.707   0.892
   79TCM    cl3  562   3.099   3.550   0.740
   80TCM     c1  563   3.072   2.936   4.854
   80TCM    cl1  564   3.115   3.097   4.790
   80TCM    cl2  565   3.018   2.950   5.025
   80TCM     h1  566   2.991   2.893   4.794
   80TCM    cl3  567   3.215   2.828   4.846
   81TCM     c1  568   1.299   1.374   1.734
   81TCM    cl1  569   1.194   1.398   1.878
   81TCM    cl2  570   1.338   1.532   1.661
   81TCM     h1  571   1.391   1.324   1.764
   81TCM    cl3  572   1.213   1.271   1.614
   82TCM     c1  573   1.833   2.521   4.685
   82TCM    cl1  574   1.850   2.436   4.528
   82TCM    cl2  575   1.912   2.424   4.815
   82TCM     h1  576   1.881   2.619   4.679
   82TCM    cl3  577   1.659   2.540   4.724
   83TCM     c1  578   2.014   3.952   4.075
   83TCM    cl1  579   1.908   3.834   3.991
   83TCM    cl2  580   1.924   4.034   4.207
   83TCM     h1  581   2.100   3.899   4.118
   83TCM    cl3  582   2.072   4.075   3.958
   84TCM     c1  583   0.936   0.329   4.919
   84TCM    cl1  584   0.979   0.226   4.778
   84TCM    cl2  585   1.085   0.402   4.987
   84TCM     h1  586   0.867   0.408   4.887
   84TCM    cl3  587   0.857   0.228   5.044
   85TCM     c1  588   0.962   0.586   3.026
   85TCM    cl1  589   0.973   0.641   2.856
   85TCM    cl2  590   1.034   0.711   3.133
   85TCM     h1  591   0.857   0.571   3.053
   85TCM    cl3  592   1.052   0.432   3.046
   86TCM     c1  593   4.510   3.024   3.164
   86TCM    cl1  594   4.618   3.147   3.091
   86TCM    cl2  595   4.601   2.931   3.287
   86TCM     h1  596   4.424   3.074   3.211
   86TCM    cl3  597   4.452   2.914   3.036
   87TCM     c1  598   3.168   4.803   0.105
   87TCM    cl1  599   3.132   4.768   0.277
   87TCM    cl2  600   3.021   4.864   0.023
   87TCM     h1  601   3.247   4.878   0.099
   87TCM    cl3  602   3.223   4.652   0.024
   88TCM     c1  603   1.736   0.034   3.450
   88TCM    cl1  604   1.578   0.074   3.375
   88TCM    cl2  605   1.743   0.099   3.617
   88TCM     h1  606   1.749  -0.074   3.452
   88TCM    cl3  607   1.867   0.109   3.353
   89TCM     c1  608   0.813   0.923   3.875
   89TCM    cl1  609   0.743   0.870   4.031
   89TCM    cl2  610   0.684   0.994   3.773
   89TCM     h1  611   0.891   0.997   3.892
   89TCM    cl3  612   0.883   0.780   3.790
   90TCM     c1  613   2.240   0.021   2.364
   90TCM    cl1  614   2.292  -0.110   2.476
   90TCM    cl2  615   2.277  -0.028   2.195
   90TCM     h1  616   2.132   0.037   2.375
   90TCM    cl3  617   2.327   0.172   2.404
   91TCM     c1  618   1.098   1.321   2.340
   91TCM    cl1  619   1.238   1.279   2.236
   91TCM    cl2  620   1.157   1.402   2.490
   91TCM     h1  621   1.031   1.388   2.287
   91TCM    cl3  622   1.010   1.171   2.385
   92TCM     c1  623   1.264   1.513   4.943
   92TCM    cl1  624   1.166   1.369   4.897
   92TCM    cl2  625   1.207   1.654   4.848
   92TCM     h1  626   1.251   1.533   5.050
   92TCM    cl3  627   1.436   1.482   4.907
   93TCM     c1  628   4.175   2.921   2.206
   93TCM    cl1  629   4.253   2.853   2.059
   93TCM    cl2  630   4.049   3.038   2.157
   93TCM     h1  631   4.130   2.840   2.264
   93TCM    cl3  632   4.299   3.004   2.306
   94TCM     c1  633   2.946   4.488   1.263
   94TCM    cl1  634   2.954   4.313   1.224
   94TCM    cl2  635   3.105   4.564   1.229
   94TCM     h1  636   2.869   4.536   1.203
   94TCM    cl3  637   2.908   4.506   1.437
   95TCM     c1  638   4.320   2.532   3.060
   95TCM    cl1  639   4.480   2.547   2.980
   95TCM    cl2  640   4.207   2.654   2.993
   95TCM     h1  641   4.279   2.432   3.044
   95TCM    cl3  642   4.341   2.561   3.236
   96TCM     c1  643   4.354   0.644   3.522
   96TCM    cl1  644   4.224   0.702   3.631
   96TCM    cl2  645   4.294   0.500   3.432
   96TCM     h1  646   4.381   0.723   3.452
   96TCM    cl3  647   4.499   0.598   3.618
   97TCM     c1  648   4.278   0.877   3.134
   97TCM    cl1  649   4.407   0.929   3.247
   97TCM    cl2  650   4.151   0.790   3.227
   97TCM     h1  651   4.234   0.964   3.085
   97TCM    cl3  652   4.348   0.768   3.011
   98TCM     c1  653   2.041   0.401   3.087
   98TCM    cl1  654   2.020   0.470   3.251
   98TCM    cl2  655   1.905   0.290   3.052
   98TCM     h1  656   2.043   0.481   3.013
   98TCM    cl3  657   2.195   0.309   3.083
   99TCM     c1  658   0.158   4.239   3.482
   99TCM    cl1  659   0.001   4.326   3.472
   99TCM    cl2  660   0.132   4.079   3.560
   99TCM     h1  661   0.198   4.224   3.382
   99TCM    cl3  662   0.275   4.333   3.580
  100TCM     c1  663   0.296   1.856   4.782
  100TCM    cl1  664   0.221   1.994   4.694
  100TCM    cl2  665   0.444   1.804   4.695
  100TCM     h1  666   0.322   1.887   4.884
  100TCM    cl3  667   0.179   1.720   4.788
  101TCM     c1  668   1.067   4.912   4.942
  101TCM    cl1  669   1.168   5.011   5.051
  101TCM    cl2  670   0.984   4.784   5.037
  101TCM     h1  671   0.992   4.975   4.893
  101TCM    cl3  672   1.172   4.837   4.818
  102TCM     c1  673   0.809   1.990   1.090
  102TCM    cl1  674   0.858   2.160   1.060
  102TCM    cl2  675   0.662   1.951   0.994
  102TCM     h1  676   0.890   1.924   1.061
  102TCM    cl3  677   0.772   1.969   1.264
  103TCM     c1  678   4.614   1.627   2.256
  103TCM    cl1  679   4.712   1.623   2.406
  103TCM    cl2  680   4.717   1.584   2.115
  103TCM     h1  681   4.532   1.555   2.264
  103TCM    cl3  682   4.546   1.792   2.234
  104TCM     c1  683   2.906   1.236   2.475
  104TCM    cl1  684   2.815   1.216   2.322
  104TCM    cl2  685   3.013   1.093   2.501
  104TCM     h1  686   2.967   1.326   2.470
  104TCM    cl3  687   2.791   1.249   2.612
  105TCM     c1  688   2.979   0.406   2.582
  105TCM    cl1  689   3.062   0.565   2.580
  105TCM    cl2  690   3.001   0.329   2.743
  105TCM     h1  691   2.872   0.420   2.563
  105TCM    cl3  692   3.049   0.301   2.455
  106TCM     c1  693   2.199   4.544   1.020
  106TCM    cl1  694   2.186   4.369   0.988
  106TCM    cl2  695   2.138   4.636   0.878
  106TCM     h1  696   2.139   4.570   1.108
  106TCM    cl3  697   2.370   4.588   1.049
  107TCM     c1  698   0.391   3.446   3.992
  107TCM    cl1  699   0.399   3.311   4.109
  107TCM    cl2  700   0.227   3.518   3.996
  107TCM     h1  701   0.465   3.522   4.018
  107TCM    cl3  702   0.423   3.384   3.826
  108TCM     c1  703   2.381   0.065   1.845
  108TCM    cl1  704   2.265   0.201   1.830
  108TCM    cl2  705   2.522   0.094   1.738
  108TCM     h1  706   2.415   0.057   1.949
  108TCM    cl3  707   2.301  -0.088   1.797
  109TCM     c1  708   2.639   4.820   3.295
  109TCM    cl1  709   2.502   4.750   3.387
  109TCM    cl2  710   2.578   4.946   3.182
  109TCM     h1  711   2.710   4.866   3.365
  109TCM    cl3  712   2.722   4.691   3.203
  110TCM     c1  713   3.551   3.477   4.788
  110TCM    cl1  714   3.507   3.405   4.946
  110TCM    cl2  715   3.559   3.349   4.663
  110TCM     h1  716   3.476   3.551   4.759
  110TCM    cl3  717   3.711   3.558   4.801
  111TCM     c1  718   1.635   0.126   4.535
  111TCM    cl1  719   1.738  -0.021   4.549
  111TCM    cl2  720   1.477   0.081   4.463
  111TCM     h1  721   1.619   0.168   4.634
  111TCM    cl3  722   1.717   0.247   4.431
  112TCM     c1  723   3.268   3.737   1.738
  112TCM    cl1  724   3.140   3.858   1.702
  112TCM    cl2  725   3.428   3.803   1.691
  112TCM     h1  726   3.268   3.714   1.844
  112TCM    cl3  727   3.237   3.587   1.644
  113TCM     c1  728   0.242   2.664   2.017
  113TCM    cl1  729   0.188   2.501   2.069
  113TCM    cl2  730   0.367   2.647   1.889
  113TCM     h1  731   0.157   2.720   1.978
  113TCM    cl3  732   0.311   2.750   2.158
  114TCM     c1  733   1.713   0.877   3.434
  114TCM    cl1  734   1.818   0.737   3.396
  114TCM    cl2  735   1.795   0.983   3.553
  114TCM     h1  736   1.692   0.934   3.342
  114TCM    cl3  737   1.559   0.819   3.503
  115TCM     c1  738   1.601   4.627   3.555
  115TCM    cl1  739   1.735   4.536   3.479
  115TCM    cl2  740   1.510   4.716   3.428
  115TCM     h1  741   1.533   4.558   3.606
  115TCM    cl3  742   1.667   4.745   3.672
  116TCM     c1  743   1.284   2.985   3.731
  116TCM    cl1  744   1.195   2.990   3.575
  116TCM    cl2  745   1.165   2.982   3.866
  116TCM     h1  746   1.345   2.894   3.735
  116TCM    cl3  747   1.388   3.129   3.745
  117TCM     c1  748   4.959   2.254   2.434
  117TCM    cl1  749   4.860   2.356   2.544
  117TCM    cl2  750   4.878   2.244   2.274
  117TCM     h1  751   5.058   2.298   2.422
  117TCM    cl3  752   4.973   2.090   2.506
  118TCM     c1  753   2.236   1.110   1.702
  118TCM    cl1  754   2.225   1.286   1.736
  118TCM    cl2  755   2.384   1.077   1.606
  118TCM     h1  756   2.241   1.055   1.796
  118TCM    cl3  757   2.091   1.060   1.610
  119TCM     c1  758   1.240   0.075   3.561
  119TCM    cl1  759   1.325   0.231   3.585
  119TCM    cl2  760   1.072   0.090   3.621
  119TCM     h1  761   1.238   0.050   3.454
  119TCM    cl3  762   1.326  -0.054   3.652
  120TCM     c1  763   4.241   3.553   2.714
  120TCM    cl1  764   4.230   3.620   2.880
  120TCM    cl2  765   4.359   3.651   2.620
  120TCM     h1  766   4.275   3.449   2.719
  120TCM    cl3  767   4.081   3.560   2.636
  121TCM     c1  768   4.407   1.087   3.739
  121TCM    cl1  769   4.296   0.997   3.847
  121TCM    cl2  770   4.472   0.976   3.613
  121TCM     h1  771   4.353   1.169   3.691
  121TCM    cl3  772   4.543   1.154   3.835
  122TCM     c1  773   3.689   1.818   2.500
  122TCM    cl1  774   3.673   1.865   2.327
  122TCM    cl2  775   3.861   1.820   2.548
  122TCM     h1  776   3.633   1.889   2.561
  122TCM    cl3  777   3.622   1.653   2.523
  123TCM     c1  778   4.719   4.079   3.418
  123TCM    cl1  779   4.818   4.064   3.270
  123TCM    cl2  780   4.772   3.960   3.540
  123TCM     h1  781   4.729   4.180   3.459
  123TCM    cl3  782   4.547   4.050   3.375
  124TCM     c1  783   0.412   1.969   0.389
  124TCM    cl1  784   0.349   1.806   0.424
  124TCM    cl2  785   0.283   2.090   0.420
  124TCM     h1  786   0.498   1.990   0.453
  124TCM    cl3  787   0.461   1.978   0.217
  125TCM     c1  788   3.420   1.792   3.453
  125TCM    cl1  789   3.355   1.767   3.618
  125TCM    cl2  790   3.287   1.774   3.333
  125TCM     h1  791   3.463   1.892   3.445
  125TCM    cl3  792   3.546   1.669   3.420
  126TCM     c1  793   1.285   2.241   2.694
  126TCM    cl1  794   1.174   2.254   2.835
  126TCM    cl2  795   1.442   2.319   2.734
  126TCM     h1  796   1.302   2.135   2.671
  126TCM    cl3  797   1.211   2.322   2.552
  127TCM     c1  798   0.323   2.742   0.124
  127TCM    cl1  799   0.409   2.662   0.260
  127TCM    cl2  800   0.341   2.642  -0.024
  127TCM     h1  801   0.217   2.752   0.149
  127TCM    cl3  802   0.394   2.904   0.096
  128TCM     c1  803   0.653   4.618   4.913
  128TCM    cl1  804   0.574   4.581   4.757
  128TCM    cl2  805   0.660   4.468   5.012
  128TCM     h1  806   0.754   4.655   4.896
  128TCM    cl3  807   0.558   4.743   5.001
  129TCM     c1  808   4.724   4.764   0.078
  129TCM    cl1  809   4.865   4.660   0.041
  129TCM    cl2  810   4.705   4.901   0.192
  129TCM     h1  811   4.789   4.837   0.030
  129TCM    cl3  812   4.746   4.680   0.235
  130TCM     c1  813   0.689   1.514   0.610
  130TCM    cl1  814   0.847   1.537   0.529
  130TCM    cl2  815   0.583   1.414   0.505
  130TCM     h1  816   0.704   1.464   0.706
  130TCM    cl3  817   0.612   1.675   0.637
  131TCM     c1  818   2.204   0.209   3.454
  131TCM    cl1  819   2.333   0.330   3.486
  131TCM    cl2  820   2.128   0.162   3.610
  131TCM     h1  821   2.129   0.251   3.387
  131TCM    cl3  822   2.277   0.063   3.378
  132TCM     c1  823   0.424   1.385   3.257
  132TCM    cl1  824   0.541   1.502   3.187
  132TCM    cl2  825   0.274   1.382   3.159
  132TCM     h1  826   0.469   1.285   3.257
  132TCM    cl3  827   0.384   1.432   3.425
  133TCM     c1  828   0.210   4.397   4.970
  133TCM    cl1  829   0.225   4.575   4.961
  133TCM    cl2  830   0.322   4.322   4.851
  133TCM     h1  831   0.235   4.363   5.071
  133TCM    cl3  832   0.041   4.349   4.933
  134TCM     c1  833   4.257   1.313   2.026
  134TCM    cl1  834   4.396   1.348   2.134
  134TCM    cl2  835   4.243   1.441   1.901
  134TCM     h1  836   4.272   1.216   1.978
  134TCM    cl3  837   4.106   1.310   2.123
  135TCM     c1  838   1.883   0.621   1.669
  135TCM    cl1  839   1.998   0.483   1.672
  135TCM    cl2  840   1.716   0.561   1.640
  135TCM     h1  841   1.887   0.673   1.765
  135TCM    cl3  842   1.928   0.734   1.538
  136TCM     c1  843   4.864   4.970   3.247
  136TCM    cl1  844   4.988   4.986   3.376
  136TCM    cl2  845   4.702   4.954   3.322
  136TCM     h1  846   4.867   5.058   3.182
  136TCM    cl3  847   4.898   4.822   3.150
  137TCM     c1  848   2.179   1.520   3.274
  137TCM    cl1  849   2.128   1.397   3.154
  137TCM    cl2  850   2.216   1.673   3.188
  137TCM     h1  851   2.098   1.538   3.345
  137TCM    cl3  852   2.325   1.463   3.361
  138TCM     c1  853   2.641   3.533   3.867
  138TCM    cl1  854   2.496   3.438   3.914
  138TCM    cl2  855   2.789   3.436   3.898
  138TCM     h1  856   2.635   3.558   3.760
  138TCM    cl3  857   2.647   3.684   3.963
  139TCM     c1  858   0.715   1.397   3.580
  139TCM    cl1  859   0.879   1.421   3.648
  139TCM    cl2  860   0.602   1.348   3.710
  139TCM     h1  861   0.680   1.490   3.534
  139TCM    cl3  862   0.721   1.269   3.454
  140TCM     c1  863   0.659   4.463   1.910
  140TCM    cl1  864   0.713   4.349   1.782
  140TCM    cl2  865   0.662   4.380   2.069
  140TCM     h1  866   0.725   4.550   1.912
  140TCM    cl3  867   0.491   4.514   1.875
  141TCM     c1  868   3.687   4.117   2.550
  141TCM    cl1  869   3.619   4.003   2.429
  141TCM    cl2  870   3.557   4.227   2.608
  141TCM     h1  871   3.727   4.061   2.635
  141TCM    cl3  872   3.817   4.213   2.473
  142TCM     c1  873   0.536   2.382   3.265
  142TCM    cl1  874   0.602   2.258   3.153
  142TCM    cl2  875   0.535   2.318   3.432
  142TCM     h1  876   0.598   2.472   3.260
  142TCM    cl3  877   0.368   2.423   3.216
  143TCM     c1  878   1.742   3.868   1.776
  143TCM    cl1  879   1.894   3.915   1.694
  143TCM    cl2  880   1.781   3.801   1.939
  143TCM     h1  881   1.677   3.955   1.787
  143TCM    cl3  882   1.659   3.743   1.678
  144TCM     c1  883   1.592   1.624   2.578
  144TCM    cl1  884   1.736   1.687   2.492
  144TCM    cl2  885   1.643   1.540   2.728
  144TCM     h1  886   1.525   1.706   2.604
  144TCM    cl3  887   1.505   1.507   2.473
  145TCM     c1  888   4.139   4.880   3.689
  145TCM    cl1  889   4.019   4.872   3.822
  145TCM    cl2  890   4.177   4.714   3.632
  145TCM     h1  891   4.098   4.938   3.606
  145TCM    cl3  892   4.289   4.959   3.749
  146TCM     c1  893   0.065   4.608   4.535
  146TCM    cl1  894   0.078   4.494   4.397
  146TCM    cl2  895   0.226   4.622   4.614
  146TCM     h1  896   0.033   4.706   4.500
  146TCM    cl3  897  -0.053   4.545   4.654
  147TCM     c1  898   0.968   1.833   0.690
  147TCM    cl1  899   0.928   2.006   0.715
  147TCM    cl2  900   0.906   1.737   0.828
  147TCM     h1  901   0.923   1.798   0.597
  147TCM    cl3  902   1.146   1.813   0.681
  148TCM     c1  903   2.602   2.804   0.237
  148TCM    cl1  904   2.671   2.948   0.155
  148TCM    cl2  905   2.667   2.657   0.159
  148TCM     h1  906   2.630   2.806   0.343
  148TCM    cl3  907   2.424   2.806   0.221
  149TCM     c1  908   3.580   1.390   3.192
  149TCM    cl1  909   3.436   1.451   3.103
  149TCM    cl2  910   3.682   1.290   3.083
  149TCM     h1  911   3.639   1.474   3.229
  149TCM    cl3  912   3.525   1.290   3.331
  150TCM     c1  913   3.226   0.244   1.750
  150TCM    cl1  914   3.086   0.237   1.638
  150TCM    cl2  915   3.350   0.354   1.683
  150TCM     h1  916   3.193   0.281   1.847
  150TCM    cl3  917   3.295   0.079   1.769
  151TCM     c1  918   3.691   2.512   1.718
  151TCM    cl1  919   3.586   2.602   1.605
  151TCM    cl2  920   3.758   2.368   1.634
  151TCM     h1  921   3.773   2.576   1.752
  151TCM    cl3  922   3.594   2.458   1.859
  152TCM     c1  923   2.806   4.125   2.596
  152TCM    cl1  924   2.905   4.272   2.624
  152TCM    cl2  925   2.795   4.031   2.749
  152TCM     h1  926   2.706   4.154   2.564
  152TCM    cl3  927   2.883   4.023   2.470
  153TCM     c1  928   4.353   1.053   2.729
  153TCM    cl1  929   4.219   0.936   2.708
  153TCM    cl2  930   4.509   0.964   2.739
  153TCM     h1  931   4.356   1.122   2.645
  153TCM    cl3  932   4.328   1.144   2.882
  154TCM     c1  933   0.838   1.894   4.890
  154TCM    cl1  934   0.952   2.024   4.935
  154TCM    cl2  935   0.672   1.940   4.937
  154TCM     h1  936   0.843   1.877   4.782
  154TCM    cl3  937   0.883   1.743   4.976
  155TCM     c1  938   2.234   4.612   4.694
  155TCM    cl1  939   2.306   4.729   4.809
  155TCM    cl2  940   2.260   4.445   4.752
  155TCM     h1  941   2.127   4.632   4.685
  155TCM    cl3  942   2.311   4.631   4.533
  156TCM     c1  943   2.287   0.157   4.833
  156TCM    cl1  944   2.394   0.193   4.694
  156TCM    cl2  945   2.377   0.057   4.952
  156TCM     h1  946   2.256   0.250   4.881
  156TCM    cl3  947   2.143   0.067   4.777
  157TCM     c1  948   1.990   1.140   2.890
  157TCM    cl1  949   1.875   1.275   2.919
  157TCM    cl2  950   2.133   1.200   2.800
  157TCM     h1  951   2.023   1.099   2.985
  157TCM    cl3  952   1.908   1.012   2.795
  158TCM     c1  953   1.786   2.123   0.087
  158TCM    cl1  954   1.817   2.287   0.152
  158TCM    cl2  955   1.792   2.003   0.220
  158TCM     h1  956   1.688   2.120   0.039
  158TCM    cl3  957   1.912   2.082  -0.034
  159TCM     c1  958   2.170   1.766   1.498
  159TCM    cl1  959   2.243   1.720   1.341
  159TCM    cl2  960   2.187   1.631   1.615
  159TCM     h1  961   2.220   1.855   1.537
  159TCM    cl3  962   1.995   1.803   1.475
  160TCM     c1  963   2.606   2.569   0.663
  160TCM    cl1  964   2.736   2.690   0.690
  160TCM    cl2  965   2.536   2.595   0.501
  160TCM     h1  966   2.647   2.468   0.670
  160TCM    cl3  967   2.478   2.591   0.787
  161TCM     c1  968   3.194   1.837   2.091
  161TCM    cl1  969   3.359   1.798   2.150
  161TCM    cl2  970   3.203   1.971   1.972
  161TCM     h1  971   3.150   1.749   2.043
  161TCM    cl3  972   3.091   1.888   2.229
  162TCM     c1  973   4.597   4.686   2.786
  162TCM    cl1  974   4.425   4.734   2.803
  162TCM    cl2  975   4.624   4.615   2.623
  162TCM     h1  976   4.660   4.774   2.798
  162TCM    cl3  977   4.637   4.565   2.912
  163TCM     c1  978   3.069   0.182   4.624
  163TCM    cl1  979   2.994   0.037   4.699
  163TCM    cl2  980   3.168   0.133   4.483
  163TCM     h1  981   2.990   0.251   4.592
  163TCM    cl3  982   3.174   0.262   4.746
  164TCM     c1  983   4.036   3.884   3.756
  164TCM    cl1  984   4.196   3.951   3.710
  164TCM    cl2  985   3.908   4.003   3.712
  164TCM     h1  986   4.019   3.790   3.703
  164TCM    cl3  987   4.033   3.855   3.933
  165TCM     c1  988   1.979   1.414   2.511
  165TCM    cl1  989   2.134   1.332   2.469
  165TCM    cl2  990   2.006   1.519   2.653
  165TCM     h1  991   1.946   1.474   2.426
  165TCM    cl3  992   1.854   1.291   2.548
  166TCM     c1  993   2.705   0.236   4.947
  166TCM    cl1  994   2.628   0.378   5.024
  166TCM    cl2  995   2.862   0.201   5.026
  166TCM     h1  996   2.639   0.149   4.957
  166TCM    cl3  997   2.733   0.271   4.773
  167TCM     c1  998   2.411   2.749   2.035
  167TCM    cl1  999   2.496   2.651   1.912
  167TCM    cl2 1000   2.515   2.767   2.180
  167TCM     h1 1001   2.388   2.848   1.993
  167TCM    cl3 1002   2.258   2.667   2.081
  168TCM     c1 1003   1.116   4.654   1.690
  168TCM    cl1 1004   0.940   4.637   1.721
  168TCM    cl2 1005   1.144   4.679   1.514
  168TCM     h1 1006   1.155   4.739   1.746
  168TCM    cl3 1007   1.201   4.505   1.742
  169TCM     c1 1008   4.270   2.350   4.578
  169TCM    cl1 1009   4.345   2.415   4.727
  169TCM    cl2 1010   4.249   2.173   4.594
  169TCM     h1 1011   4.173   2.397   4.563
  169TCM    cl3 1012   4.376   2.384   4.438
  170TCM     c1 1013   2.043   4.900   0.081
  170TCM    cl1 1014   1.911   5.022   0.072
  170TCM    cl2 1015   1.993   4.752  -0.009
  170TCM     h1 1016   2.133   4.941   0.036
  170TCM    cl3 1017   2.075   4.859   0.252
  171TCM     c1 1018   3.307   3.573   0.441
  171TCM    cl1 1019   3.343   3.584   0.265
  171TCM    cl2 1020   3.394   3.704   0.528
  171TCM     h1 1021   3.200   3.584   0.457
  171TCM    cl3 1022   3.361   3.413   0.501
  172TCM     c1 1023   4.778   0.795   0.462
  172TCM    cl1 1024   4.789   0.724   0.626
  172TCM    cl2 1025   4.942   0.801   0.389
  172TCM     h1 1026   4.712   0.734   0.400
  172TCM    cl3 1027   4.713   0.962   0.474
  173TCM     c1 1028   4.025   1.694   2.137
  173TCM    cl1 1029   4.199   1.670   2.173
  173TCM    cl2 1030   3.988   1.869   2.150
  173TCM     h1 1031   4.004   1.659   2.036
  173TCM    cl3 1032   3.926   1.603   2.255
  174TCM     c1 1033   3.905   1.520   4.913
  174TCM    cl1 1034   4.064   1.511   4.831
  174TCM    cl2 1035   3.857   1.692   4.935
  174TCM     h1 1036   3.829   1.468   4.853
  174TCM    cl3 1037   3.916   1.443   5.075
  175TCM     c1 1038   3.966   3.178   4.819
  175TCM    cl1 1039   4.018   3.033   4.727
  175TCM    cl2 1040   3.797   3.156   4.875
  175TCM     h1 1041   4.032   3.192   4.905
  175TCM    cl3 1042   3.976   3.322   4.713
  176TCM     c1 1043   1.300   0.547   3.747
  176TCM    cl1 1044   1.262   0.630   3.592
  176TCM    cl2 1045   1.219   0.634   3.882
  176TCM     h1 1046   1.263   0.444   3.744
  176TCM    cl3 1047   1.477   0.548   3.774
  177TCM     c1 1048   3.358   0.416   1.278
  177TCM    cl1 1049   3.297   0.252   1.317
  177TCM    cl2 1050   3.517   0.441   1.356
  177TCM     h1 1051   3.367   0.427   1.170
  177TCM    cl3 1052   3.242   0.538   1.340
  178TCM     c1 1053   1.383   0.138   4.021
  178TCM    cl1 1054   1.254   0.244   3.956
  178TCM    cl2 1055   1.524   0.142   3.909
  178TCM     h1 1056   1.414   0.173   4.119
  178TCM    cl3 1057   1.322  -0.031   4.034
  179TCM     c1 1058   2.236   0.968   4.150
  179TCM    cl1 1059   2.392   1.037   4.205
  179TCM    cl2 1060   2.186   0.837   4.262
  179TCM     h1 1061   2.159   1.047   4.150
  179TCM    cl3 1062   2.255   0.902   3.985
  180TCM     c1 1063   3.493   0.681   0.289
  180TCM    cl1 1064   3.557   0.830   0.366
  180TCM    cl2 1065   3.373   0.606   0.399
  180TCM     h1 1066   3.446   0.705   0.194
  180TCM    cl3 1067   3.628   0.565   0.261
  181TCM     c1 1068   1.580   2.021   2.435
  181TCM    cl1 1069   1.538   1.982   2.605
  181TCM    cl2 1070   1.521   2.187   2.398
  181TCM     h1 1071   1.688   2.017   2.421
  181TCM    cl3 1072   1.499   1.904   2.325
  182TCM     c1 1073   4.907   4.178   4.615
  182TCM    cl1 1074   5.086   4.178   4.600
  182TCM    cl2 1075   4.850   4.012   4.646
  182TCM     h1 1076   4.878   4.244   4.697
  182TCM    cl3 1077   4.834   4.237   4.462
  183TCM     c1 1078   0.629   1.043   2.899
  183TCM    cl1 1079   0.568   1.150   3.029
  183TCM    cl2 1080   0.766   0.945   2.963
  183TCM     h1 1081   0.549   0.976   2.865
  183TCM    cl3 1082   0.687   1.144   2.762
  184TCM     c1 1083   4.962   0.744   3.503
  184TCM    cl1 1084   4.982   0.600   3.398
  184TCM    cl2 1085   4.794   0.803   3.489
  184TCM     h1 1086   4.983   0.717   3.607
  184TCM    cl3 1087   5.075   0.872   3.450
  185TCM     c1 1088   0.217   4.764   0.264
  185TCM    cl1 1089   0.079   4.869   0.220
  185TCM    cl2 1090   0.154   4.604   0.317
  185TCM     h1 1091   0.283   4.751   0.177
  185TCM    cl3 1092   0.308   4.840   0.399
  186TCM     c1 1093   0.629   3.334   0.200
  186TCM    cl1 1094   0.663   3.460   0.324
  186TCM    cl2 1095   0.670   3.400   0.039
  186TCM     h1 1096   0.689   3.245   0.220
  186TCM    cl3 1097   0.455   3.292   0.203
  187TCM     c1 1098   1.150   2.388   4.683
  187TCM    cl1 1099   1.117   2.346   4.854
  187TCM    cl2 1100   1.024   2.316   4.578
  187TCM     h1 1101   1.149   2.497   4.671
  187TCM    cl3 1102   1.311   2.325   4.636
  188TCM     c1 1103   1.510   4.159   4.672
  188TCM    cl1 1104   1.566   4.281   4.791
  188TCM    cl2 1105   1.333   4.134   4.692
  188TCM     h1 1106   1.531   4.194   4.571
  188TCM    cl3 1107   1.596   4.004   4.702
  189TCM     c1 1108   0.850   3.302   0.584
  189TCM    cl1 1109   0.901   3.235   0.743
  189TCM    cl2 1110   0.820   3.167   0.470
  189TCM     h1 1111   0.758   3.360   0.597
  189TCM    cl3 1112   0.979   3.406   0.518
  190TCM     c1 1113   4.196   1.614   2.519
  190TCM    cl1 1114   4.239   1.787   2.534
  190TCM    cl2 1115   4.120   1.557   2.672
  190TCM     h1 1116   4.125   1.601   2.437
  190TCM    cl3 1117   4.344   1.517   2.486
  191TCM     c1 1118   2.045   0.442   4.405
  191TCM    cl1 1119   1.954   0.594   4.430
  191TCM    cl2 1120   2.112   0.387   4.563
  191TCM     h1 1121   1.978   0.365   4.366
  191TCM    cl3 1122   2.179   0.469   4.289
  192TCM     c1 1123   0.226   0.123   2.549
  192TCM    cl1 1124   0.312   0.001   2.448
  192TCM    cl2 1125   0.061   0.152   2.485
  192TCM     h1 1126   0.220   0.086   2.652
  192TCM    cl3 1127   0.318   0.277   2.546
  193TCM     c1 1128   1.838   4.416   4.525
  193TCM    cl1 1129   1.821   4.239   4.501
  193TCM    cl2 1130   1.903   4.448   4.690
  193TCM     h1 1131   1.906   4.457   4.451
  193TCM    cl3 1132   1.677   4.494   4.509
  194TCM     c1 1133   4.200   4.388   1.381
  194TCM    cl1 1134   4.191   4.456   1.215
  194TCM    cl2 1135   4.301   4.496   1.484
  194TCM     h1 1136   4.100   4.380   1.424
  194TCM    cl3 1137   4.277   4.227   1.374
  195TCM     c1 1138   1.071   2.396   0.376
  195TCM    cl1 1139   0.982   2.304   0.501
  195TCM    cl2 1140   1.081   2.299   0.225
  195TCM     h1 1141   1.019   2.490   0.355
  195TCM    cl3 1142   1.237   2.431   0.433
  196TCM     c1 1143   1.250   1.128   4.053
  196TCM    cl1 1144   1.244   1.201   4.217
  196TCM    cl2 1145   1.214   1.254   3.931
  196TCM     h1 1146   1.349   1.087   4.035
  196TCM    cl3 1147   1.127   0.998   4.041
  197TCM     c1 1148   1.086   1.911   4.526
  197TCM    cl1 1149   1.087   1.731   4.521
  197TCM    cl2 1150   1.181   1.969   4.667
  197TCM     h1 1151   1.130   1.950   4.434
  197TCM    cl3 1152   0.916   1.968   4.541
  198TCM     c1 1153   1.428   4.484   1.390
  198TCM    cl1 1154   1.523   4.452   1.241
  198TCM    cl2 1155   1.530   4.572   1.509
  198TCM     h1 1156   1.340   4.544   1.366
  198TCM    cl3 1157   1.376   4.328   1.461
  199TCM     c1 1158   0.022   2.666   2.455
  199TCM    cl1 1159  -0.068   2.627   2.305
  199TCM    cl2 1160   0.071   2.838   2.452
  199TCM     h1 1161  -0.041   2.648   2.542
  199TCM    cl3 1162   0.169   2.562   2.464
  200TCM     c1 1163   0.687   2.276   0.172
  200TCM    cl1 1164   0.773   2.137   0.246
  200TCM    cl2 1165   0.765   2.319   0.016
  200TCM     h1 1166   0.583   2.249   0.154
  200TCM    cl3 1167   0.694   2.417   0.283
  201TCM     c1 1168   3.875   4.735   3.390
  201TCM    cl1 1169   3.727   4.688   3.301
  201TCM    cl2 1170   3.843   4.883   3.486
  201TCM     h1 1171   3.906   4.654   3.456
  201TCM    cl3 1172   4.007   4.770   3.273
  202TCM     c1 1173   2.019   0.954   2.353
  202TCM    cl1 1174   2.044   0.819   2.237
  202TCM    cl2 1175   2.116   0.924   2.501
  202TCM     h1 1176   2.050   1.048   2.308
  202TCM    cl3 1177   1.845   0.963   2.396
  203TCM     c1 1178   0.525   4.503   4.338
  203TCM    cl1 1179   0.680   4.563   4.405
  203TCM    cl2 1180   0.418   4.643   4.304
  203TCM     h1 1181   0.544   4.448   4.246
  203TCM    cl3 1182   0.447   4.393   4.457
  204TCM     c1 1183   2.048   4.782   3.656
  204TCM    cl1 1184   2.013   4.622   3.729
  204TCM    cl2 1185   2.002   4.782   3.483
  204TCM     h1 1186   1.992   4.860   3.709
  204TCM    cl3 1187   2.224   4.816   3.669
  205TCM     c1 1188   1.525   4.777   1.025
  205TCM    cl1 1189   1.466   4.807   1.192
  205TCM    cl2 1190   1.630   4.914   0.974
  205TCM     h1 1191   1.583   4.684   1.023
  205TCM    cl3 1192   1.386   4.764   0.913
  206TCM     c1 1193   2.416   3.027   0.929
  206TCM    cl1 1194   2.571   2.937   0.930
  206TCM    cl2 1195   2.348   3.032   1.094
  206TCM     h1 1196   2.433   3.129   0.893
  206TCM    cl3 1197   2.300   2.943   0.820
  207TCM     c1 1198   0.998   3.595   0.828
  207TCM    cl1 1199   0.822   3.606   0.794
  207TCM    cl2 1200   1.031   3.650   0.995
  207TCM     h1 1201   1.031   3.492   0.816
  207TCM    cl3 1202   1.087   3.699   0.712
  208TCM     c1 1203   3.724   2.135   2.074
  208TCM    cl1 1204   3.824   2.154   1.927
  208TCM    cl2 1205   3.561   2.078   2.027
  208TCM     h1 1206   3.770   2.062   2.141
  208TCM    cl3 1207   3.707   2.293   2.157
  209TCM     c1 1208   2.775   2.389   1.054
  209TCM    cl1 1209   2.783   2.568   1.038
  209TCM    cl2 1210   2.940   2.322   1.071
  209TCM     h1 1211   2.715   2.363   1.142
  209TCM    cl3 1212   2.698   2.321   0.907
  210TCM     c1 1213   2.705   3.273   4.288
  210TCM    cl1 1214   2.534   3.251   4.239
  210TCM    cl2 1215   2.727   3.217   4.457
  210TCM     h1 1216   2.770   3.216   4.221
  210TCM    cl3 1217   2.747   3.447   4.278
  211TCM     c1 1218   1.151   2.644   4.028
  211TCM    cl1 1219   1.325   2.686   4.013
  211TCM    cl2 1220   1.128   2.534   4.168
  211TCM     h1 1221   1.093   2.736   4.044
  211TCM    cl3 1222   1.095   2.563   3.878
  212TCM     c1 1223   1.414   2.788   3.351
  212TCM    cl1 1224   1.498   2.790   3.510
  212TCM    cl2 1225   1.268   2.685   3.361
  212TCM     h1 1226   1.385   2.890   3.324
  212TCM    cl3 1227   1.526   2.723   3.227
  213TCM     c1 1228   3.817   4.580   3.876
  213TCM    cl1 1229   3.676   4.494   3.948
  213TCM    cl2 1230   3.823   4.547   3.700
  213TCM     h1 1231   3.807   4.687   3.894
  213TCM    cl3 1232   3.968   4.521   3.953
  214TCM     c1 1233   0.403   3.105   0.626
  214TCM    cl1 1234   0.374   3.054   0.456
  214TCM    cl2 1235   0.245   3.127   0.709
  214TCM     h1 1236   0.461   3.028   0.678
  214TCM    cl3 1237   0.494   3.259   0.626
  215TCM     c1 1238   1.387   2.240   0.064
  215TCM    cl1 1239   1.455   2.211   0.227
  215TCM    cl2 1240   1.337   2.084  -0.008
  215TCM     h1 1241   1.300   2.306   0.071
  215TCM    cl3 1242   1.511   2.318  -0.041
  216TCM     c1 1243   0.324   1.876   2.896
  216TCM    cl1 1244   0.426   1.858   2.750
  216TCM    cl2 1245   0.320   1.719   2.982
  216TCM     h1 1246   0.365   1.952   2.962
  216TCM    cl3 1247   0.158   1.923   2.845
  217TCM     c1 1248   3.543   0.298   4.834
  217TCM    cl1 1249   3.594   0.190   4.700
  217TCM    cl2 1250   3.586   0.467   4.795
  217TCM     h1 1251   3.435   0.290   4.848
  217TCM    cl3 1252   3.625   0.248   4.986
  218TCM     c1 1253   1.564   2.508   2.016
  218TCM    cl1 1254   1.487   2.639   1.921
  218TCM    cl2 1255   1.462   2.473   2.160
  218TCM     h1 1256   1.572   2.418   1.954
  218TCM    cl3 1257   1.727   2.561   2.069
  219TCM     c1 1258   4.169   0.285   3.924
  219TCM    cl1 1259   4.150   0.408   4.054
  219TCM    cl2 1260   4.262   0.355   3.787
  219TCM     h1 1261   4.222   0.198   3.963
  219TCM    cl3 1262   4.006   0.236   3.866
  220TCM     c1 1263   0.321   3.757   1.610
  220TCM    cl1 1264   0.412   3.729   1.458
  220TCM    cl2 1265   0.152   3.699   1.590
  220TCM     h1 1266   0.369   3.703   1.692
  220TCM    cl3 1267   0.320   3.933   1.647
  221TCM     c1 1268   0.193   1.420   0.529
  221TCM    cl1 1269   0.221   1.483   0.363
  221TCM    cl2 1270   0.018   1.420   0.566
  221TCM     h1 1271   0.232   1.318   0.536
  221TCM    cl3 1272   0.277   1.525   0.649
  222TCM     c1 1273   3.524   2.230   2.929
  222TCM    cl1 1274   3.365   2.197   2.852
  222TCM    cl2 1275   3.503   2.238   3.107
  222TCM     h1 1276   3.594   2.151   2.904
  222TCM    cl3 1277   3.587   2.387   2.870
  223TCM     c1 1278   0.230   4.828   2.984
  223TCM    cl1 1279   0.282   4.864   2.816
  223TCM    cl2 1280   0.216   4.982   3.075
  223TCM     h1 1281   0.134   4.777   2.983
  223TCM    cl3 1282   0.353   4.724   3.063
  224TCM     c1 1283   0.270   4.511   2.149
  224TCM    cl1 1284   0.145   4.519   2.021
  224TCM    cl2 1285   0.295   4.340   2.197
  224TCM     h1 1286   0.364   4.552   2.111
  224TCM    cl3 1287   0.218   4.607   2.291
  225TCM     c1 1288   0.597   2.407   2.176
  225TCM    cl1 1289   0.480   2.419   2.312
  225TCM    cl2 1290   0.647   2.571   2.125
  225TCM     h1 1291   0.685   2.351   2.209
  225TCM    cl3 1292   0.519   2.323   2.038
  226TCM     c1 1293   0.409   4.213   2.885
  226TCM    cl1 1294   0.417   4.177   2.709
  226TCM    cl2 1295   0.369   4.386   2.908
  226TCM     h1 1296   0.332   4.151   2.931
  226TCM    cl3 1297   0.568   4.177   2.960
  227TCM     c1 1298   2.309   0.555   3.865
  227TCM    cl1 1299   2.233   0.395   3.893
  227TCM    cl2 1300   2.233   0.633   3.722
  227TCM     h1 1301   2.297   0.618   3.953
  227TCM    cl3 1302   2.484   0.533   3.831
  228TCM     c1 1303   1.779   2.033   2.052
  228TCM    cl1 1304   1.833   1.937   2.194
  228TCM    cl2 1305   1.724   2.195   2.106
  228TCM     h1 1306   1.861   2.043   1.981
  228TCM    cl3 1307   1.642   1.948   1.973
  229TCM     c1 1308   1.079   3.208   2.076
  229TCM    cl1 1309   1.191   3.240   1.940
  229TCM    cl2 1310   0.924   3.295   2.049
  229TCM     h1 1311   1.060   3.101   2.084
  229TCM    cl3 1312   1.154   3.266   2.229
  230TCM     c1 1313   4.591   3.652   2.959
  230TCM    cl1 1314   4.730   3.546   3.001
  230TCM    cl2 1315   4.642   3.771   2.835
  230TCM     h1 1316   4.510   3.590   2.919
  230TCM    cl3 1317   4.533   3.740   3.105
  231TCM     c1 1318   4.156   0.961   4.423
  231TCM    cl1 1319   4.219   1.037   4.273
  231TCM    cl2 1320   4.225   0.796   4.438
  231TCM     h1 1321   4.185   1.021   4.510
  231TCM    cl3 1322   3.977   0.951   4.413
  232TCM     c1 1323   0.366   3.238   4.464
  232TCM    cl1 1324   0.258   3.145   4.574
  232TCM    cl2 1325   0.511   3.140   4.427
  232TCM     h1 1326   0.312   3.261   4.372
  232TCM    cl3 1327   0.415   3.391   4.544
  233TCM     c1 1328   1.084   1.918   0.253
  233TCM    cl1 1329   1.193   1.803   0.169
  233TCM    cl2 1330   1.176   2.001   0.383
  233TCM     h1 1331   1.046   1.992   0.183
  233TCM    cl3 1332   0.947   1.829   0.327
  234TCM     c1 1333   2.144   2.216   1.994
  234TCM    cl1 1334   2.151   2.055   2.072
  234TCM    cl2 1335   2.066   2.333   2.106
  234TCM     h1 1336   2.245   2.250   1.970
  234TCM    cl3 1337   2.046   2.205   1.844
  235TCM     c1 1338   2.449   4.488   3.865
  235TCM    cl1 1339   2.367   4.629   3.941
  235TCM    cl2 1340   2.536   4.540   3.717
  235TCM     h1 1341   2.520   4.446   3.936
  235TCM    cl3 1342   2.326   4.364   3.824
  236TCM     c1 1343   3.096   0.611   1.661
  236TCM    cl1 1344   3.034   0.573   1.825
  236TCM    cl2 1345   3.242   0.714   1.675
  236TCM     h1 1346   3.122   0.518   1.609
  236TCM    cl3 1347   2.970   0.697   1.567
  237TCM     c1 1348   2.688   4.818   4.697
  237TCM    cl1 1349   2.694   4.898   4.858
  237TCM    cl2 1350   2.566   4.900   4.594
  237TCM     h1 1351   2.786   4.823   4.650
  237TCM    cl3 1352   2.641   4.646   4.720
  238TCM     c1 1353   2.564   1.785   3.209
  238TCM    cl1 1354   2.584   1.628   3.124
  238TCM    cl2 1355   2.707   1.888   3.177
  238TCM     h1 1356   2.473   1.834   3.173
  238TCM    cl3 1357   2.550   1.755   3.385
  239TCM     c1 1358   0.872   1.483   4.714
  239TCM    cl1 1359   0.806   1.403   4.861
  239TCM    cl2 1360   0.761   1.614   4.661
  239TCM     h1 1361   0.970   1.526   4.736
  239TCM    cl3 1362   0.888   1.362   4.583
  240TCM     c1 1363   2.982   1.049   2.863
  240TCM    cl1 1364   2.898   1.020   3.019
  240TCM    cl2 1365   3.105   0.920   2.838
  240TCM     h1 1366   2.909   1.047   2.782
  240TCM    cl3 1367   3.063   1.209   2.868
  241TCM     c1 1368   3.563   0.842   1.540
  241TCM    cl1 1369   3.615   0.699   1.635
  241TCM    cl2 1370   3.566   0.804   1.365
  241TCM     h1 1371   3.462   0.870   1.570
  241TCM    cl3 1372   3.675   0.979   1.573
  242TCM     c1 1373   0.593   0.177   0.313
  242TCM    cl1 1374   0.516   0.079   0.184
  242TCM    cl2 1375   0.585   0.087   0.469
  242TCM     h1 1376   0.698   0.196   0.288
  242TCM    cl3 1377   0.507   0.333   0.331
  243TCM     c1 1378   0.617   3.738   3.779
  243TCM    cl1 1379   0.702   3.649   3.909
  243TCM    cl2 1380   0.446   3.766   3.827
  243TCM     h1 1381   0.666   3.834   3.761
  243TCM    cl3 1382   0.620   3.639   3.629
  244TCM     c1 1383   0.191   3.963   4.318
  244TCM    cl1 1384   0.073   4.070   4.234
  244TCM    cl2 1385   0.338   4.057   4.359
  244TCM     h1 1386   0.145   3.924   4.409
  244TCM    cl3 1387   0.235   3.827   4.210
  245TCM     c1 1388   3.338   1.744   0.680
  245TCM    cl1 1389   3.337   1.582   0.603
  245TCM    cl2 1390   3.498   1.820   0.656
  245TCM     h1 1391   3.260   1.806   0.635
  245TCM    cl3 1392   3.305   1.725   0.855
  246TCM     c1 1393   3.485   4.316   3.510
  246TCM    cl1 1394   3.637   4.349   3.419
  246TCM    cl2 1395   3.526   4.246   3.670
  246TCM     h1 1396   3.430   4.409   3.524
  246TCM    cl3 1397   3.384   4.200   3.417
  247TCM     c1 1398   1.681   4.892   3.079
  247TCM    cl1 1399   1.777   4.784   3.185
  247TCM    cl2 1400   1.511   4.833   3.072
  247TCM     h1 1401   1.682   4.994   3.119
  247TCM    cl3 1402   1.750   4.892   2.914
  248TCM     c1 1403   2.338   0.615   2.325
  248TCM    cl1 1404   2.445   0.495   2.245
  248TCM    cl2 1405   2.407   0.779   2.305
  248TCM     h1 1406   2.238   0.611   2.279
  248TCM    cl3 1407   2.324   0.577   2.499
  249TCM     c1 1408   3.196   1.863   3.931
  249TCM    cl1 1409   3.192   1.927   4.098
  249TCM    cl2 1410   3.117   1.980   3.820
  249TCM     h1 1411   3.300   1.849   3.900
  249TCM    cl3 1412   3.109   1.706   3.924
  250TCM     c1 1413   2.925   2.436   0.338
  250TCM    cl1 1414   2.818   2.352   0.455
  250TCM    cl2 1415   3.083   2.352   0.332
  250TCM     h1 1416   2.879   2.435   0.238
  250TCM    cl3 1417   2.949   2.605   0.392
  251TCM     c1 1418   1.397   0.223   4.892
  251TCM    cl1 1419   1.449   0.349   4.776
  251TCM    cl2 1420   1.430   0.280   5.059
  251TCM     h1 1421   1.289   0.205   4.881
  251TCM    cl3 1422   1.487   0.072   4.861
  252TCM     c1 1423   0.832   1.663   1.531
  252TCM    cl1 1424   0.972   1.580   1.606
  252TCM    cl2 1425   0.814   1.827   1.601
  252TCM     h1 1426   0.848   1.671   1.423
  252TCM    cl3 1427   0.682   1.569   1.562
  253TCM     c1 1428   5.000   3.152   0.305
  253TCM    cl1 1429   4.971   3.118   0.479
  253TCM    cl2 1430   5.082   3.011   0.230
  253TCM     h1 1431   4.904   3.170   0.255
  253TCM    cl3 1432   5.104   3.297   0.289
  254TCM     c1 1433   0.468   1.695   3.789
  254TCM    cl1 1434   0.319   1.604   3.746
  254TCM    cl2 1435   0.423   1.855   3.856
  254TCM     h1 1436   0.524   1.638   3.863
  254TCM    cl3 1437   0.568   1.718   3.642
  255TCM     c1 1438   0.904   0.563   0.268
  255TCM    cl1 1439   0.910   0.713   0.367
  255TCM    cl2 1440   0.776   0.578   0.143
  255TCM     h1 1441   1.001   0.548   0.219
  255TCM    cl3 1442   0.867   0.423   0.374
  256TCM     c1 1443   3.499   4.868   4.834
  256TCM    cl1 1444   3.338   4.940   4.800
  256TCM    cl2 1445   3.495   4.694   4.788
  256TCM     h1 1446   3.576   4.919   4.775
  256TCM    cl3 1447   3.535   4.883   5.009
  257TCM     c1 1448   3.160   3.836   3.531
  257TCM    cl1 1449   3.106   3.967   3.641
  257TCM    cl2 1450   3.109   3.677   3.597
  257TCM     h1 1451   3.117   3.850   3.432
  257TCM    cl3 1452   3.339   3.840   3.518
  258TCM     c1 1453   3.035   4.143   3.109
  258TCM    cl1 1454   3.124   4.032   3.218
  258TCM    cl2 1455   2.859   4.107   3.118
  258TCM     h1 1456   3.053   4.246   3.140
  258TCM    cl3 1457   3.093   4.120   2.941
  259TCM     c1 1458   3.526   1.206   2.659
  259TCM    cl1 1459   3.544   1.357   2.753
  259TCM    cl2 1460   3.354   1.157   2.657
  259TCM     h1 1461   3.561   1.222   2.557
  259TCM    cl3 1462   3.623   1.076   2.736
  260TCM     c1 1463   4.394   2.009   4.960
  260TCM    cl1 1464   4.323   2.170   4.994
  260TCM    cl2 1465   4.498   1.959   5.097
  260TCM     h1 1466   4.313   1.936   4.947
  260TCM    cl3 1467   4.492   2.015   4.809
  261TCM     c1 1468   2.912   2.080   0.729
  261TCM    cl1 1469   3.030   2.022   0.851
  261TCM    cl2 1470   2.755   1.997   0.753
  261TCM     h1 1471   2.898   2.188   0.741
  261TCM    cl3 1472   2.975   2.045   0.565
  262TCM     c1 1473   4.657   4.386   1.529
  262TCM    cl1 1474   4.725   4.341   1.370
  262TCM    cl2 1475   4.787   4.450   1.634
  262TCM     h1 1476   4.580   4.463   1.515
  262TCM    cl3 1477   4.585   4.240   1.605
  263TCM     c1 1478   4.717   0.604   3.130
  263TCM    cl1 1479   4.639   0.549   2.979
  263TCM    cl2 1480   4.596   0.597   3.263
  263TCM     h1 1481   4.801   0.538   3.154
  263TCM    cl3 1482   4.775   0.772   3.110
  264TCM     c1 1483   3.253   2.004   0.310
  264TCM    cl1 1484   3.190   1.840   0.347
  264TCM    cl2 1485   3.217   2.044   0.139
  264TCM     h1 1486   3.205   2.078   0.376
  264TCM    cl3 1487   3.430   2.007   0.337
  265TCM     c1 1488   1.948   0.139   2.735
  265TCM    cl1 1489   2.072   0.267   2.710
  265TCM    cl2 1490   1.972   0.009   2.613
  265TCM     h1 1491   1.959   0.097   2.835
  265TCM    cl3 1492   1.785   0.209   2.715
  266TCM     c1 1493   1.086   4.445   4.667
  266TCM    cl1 1494   0.985   4.517   4.797
  266TCM    cl2 1495   1.257   4.490   4.695
  266TCM     h1 1496   1.075   4.337   4.668
  266TCM    cl3 1497   1.033   4.511   4.509
  267TCM     c1 1498   0.099   0.239   4.450
  267TCM    cl1 1499  -0.002   0.256   4.303
  267TCM    cl2 1500   0.114   0.065   4.491
  267TCM     h1 1501   0.198   0.281   4.432
  267TCM    cl3 1502   0.021   0.325   4.587
  268TCM     c1 1503   4.271   4.737   0.188
  268TCM    cl1 1504   4.357   4.809   0.047
  268TCM    cl2 1505   4.382   4.627   0.275
  268TCM     h1 1506   4.238   4.817   0.255
  268TCM    cl3 1507   4.128   4.646   0.130
  269TCM     c1 1508   0.553   2.569   3.692
  269TCM    cl1 1509   0.527   2.678   3.552
  269TCM    cl2 1510   0.512   2.656   3.844
  269TCM     h1 1511   0.490   2.481   3.682
  269TCM    cl3 1512   0.726   2.519   3.698
  270TCM     c1 1513   3.916   1.250   1.647
  270TCM    cl1 1514   3.942   1.427   1.646
  270TCM    cl2 1515   3.998   1.179   1.790
  270TCM     h1 1516   3.809   1.228   1.652
  270TCM    cl3 1517   3.986   1.180   1.497
  271TCM     c1 1518   1.334   4.613   0.058
  271TCM    cl1 1519   1.335   4.434   0.044
  271TCM    cl2 1520   1.474   4.680  -0.032
  271TCM     h1 1521   1.241   4.652   0.016
  271TCM    cl3 1522   1.345   4.659   0.231
  272TCM     c1 1523   3.109   0.960   3.848
  272TCM    cl1 1524   3.265   1.027   3.906
  272TCM    cl2 1525   2.983   0.983   3.973
  272TCM     h1 1526   3.079   1.011   3.756
  272TCM    cl3 1527   3.128   0.784   3.815
  273TCM     c1 1528   4.340   3.357   3.371
  273TCM    cl1 1529   4.414   3.419   3.220
  273TCM    cl2 1530   4.452   3.241   3.450
  273TCM     h1 1531   4.319   3.440   3.439
  273TCM    cl3 1532   4.187   3.272   3.330
  274TCM     c1 1533   1.724   0.394   0.599
  274TCM    cl1 1534   1.699   0.339   0.430
  274TCM    cl2 1535   1.860   0.510   0.606
  274TCM     h1 1536   1.633   0.443   0.634
  274TCM    cl3 1537   1.760   0.253   0.703
  275TCM     c1 1538   1.298   2.080   1.047
  275TCM    cl1 1539   1.257   2.160   1.202
  275TCM    cl2 1540   1.167   1.965   1.004
  275TCM     h1 1541   1.307   2.156   0.968
  275TCM    cl3 1542   1.452   1.991   1.062
  276TCM     c1 1543   3.220   2.910   2.214
  276TCM    cl1 1544   3.275   2.794   2.339
  276TCM    cl2 1545   3.282   2.860   2.054
  276TCM     h1 1546   3.110   2.912   2.212
  276TCM    cl3 1547   3.281   3.074   2.254
  277TCM     c1 1548   2.991   3.649   2.862
  277TCM    cl1 1549   2.986   3.723   2.699
  277TCM    cl2 1550   2.968   3.775   2.987
  277TCM     h1 1551   2.912   3.574   2.870
  277TCM    cl3 1552   3.151   3.571   2.886
  278TCM     c1 1553   1.490   1.066   0.138
  278TCM    cl1 1554   1.390   0.952   0.235
  278TCM    cl2 1555   1.399   1.109  -0.010
  278TCM     h1 1556   1.511   1.156   0.197
  278TCM    cl3 1557   1.643   0.985   0.092
  279TCM     c1 1558   3.093   0.277   0.864
  279TCM    cl1 1559   3.105   0.363   1.021
  279TCM    cl2 1560   2.922   0.281   0.809
  279TCM     h1 1561   3.156   0.326   0.790
  279TCM    cl3 1562   3.144   0.106   0.885
  280TCM     c1 1563   1.992   3.460   0.922
  280TCM    cl1 1564   2.077   3.590   1.013
  280TCM    cl2 1565   1.859   3.394   1.022
  280TCM     h1 1566   1.951   3.501   0.830
  280TCM    cl3 1567   2.109   3.329   0.882
  281TCM     c1 1568   2.778   3.667   1.662
  281TCM    cl1 1569   2.762   3.817   1.760
  281TCM    cl2 1570   2.893   3.554   1.742
  281TCM     h1 1571   2.681   3.619   1.652
  281TCM    cl3 1572   2.841   3.710   1.499
  282TCM     c1 1573   4.711   0.501   3.928
  282TCM    cl1 1574   4.841   0.510   3.804
  282TCM    cl2 1575   4.782   0.474   4.090
  282TCM     h1 1576   4.654   0.594   3.928
  282TCM    cl3 1577   4.603   0.363   3.889
  283TCM     c1 1578   4.476   2.885   4.498
  283TCM    cl1 1579   4.407   2.724   4.535
  283TCM    cl2 1580   4.601   2.924   4.620
  283TCM     h1 1581   4.520   2.884   4.398
  283TCM    cl3 1582   4.345   3.008   4.504
  284TCM     c1 1583   0.701   4.823   2.200
  284TCM    cl1 1584   0.731   4.813   2.024
  284TCM    cl2 1585   0.855   4.795   2.288
  284TCM     h1 1586   0.662   4.921   2.226
  284TCM    cl3 1587   0.583   4.696   2.248
  285TCM     c1 1588   0.056   0.338   0.338
  285TCM    cl1 1589  -0.087   0.364   0.232
  285TCM    cl2 1590   0.149   0.491   0.351
  285TCM     h1 1591   0.023   0.307   0.437
  285TCM    cl3 1592   0.161   0.212   0.267
  286TCM     c1 1593   4.700   0.279   3.547
  286TCM    cl1 1594   4.530   0.228   3.521
  286TCM    cl2 1595   4.780   0.304   3.388
  286TCM     h1 1596   4.701   0.373   3.603
  286TCM    cl3 1597   4.787   0.152   3.638
  287TCM     c1 1598   3.382   4.863   4.280
  287TCM    cl1 1599   3.320   4.702   4.229
  287TCM    cl2 1600   3.526   4.904   4.181
  287TCM     h1 1601   3.305   4.938   4.265
  287TCM    cl3 1602   3.429   4.857   4.453
  288TCM     c1 1603   1.236   1.816   1.467
  288TCM    cl1 1604   1.198   1.884   1.629
  288TCM    cl2 1605   1.390   1.887   1.408
  288TCM     h1 1606   1.246   1.708   1.474
  288TCM    cl3 1607   1.103   1.857   1.354
  289TCM     c1 1608   3.224   1.492   2.670
  289TCM    cl1 1609   3.288   1.494   2.503
  289TCM    cl2 1610   3.046   1.508   2.665
  289TCM     h1 1611   3.251   1.398   2.719
  289TCM    cl3 1612   3.293   1.629   2.763
  290TCM     c1 1613   3.531   0.299   0.506
  290TCM    cl1 1614   3.370   0.275   0.581
  290TCM    cl2 1615   3.537   0.212   0.349
  290TCM     h1 1616   3.549   0.405   0.490
  290TCM    cl3 1617   3.658   0.232   0.615
  291TCM     c1 1618   0.363   1.345   2.296
  291TCM    cl1 1619   0.479   1.298   2.167
  291TCM    cl2 1620   0.371   1.522   2.320
  291TCM     h1 1621   0.262   1.316   2.267
  291TCM    cl3 1622   0.408   1.262   2.448
  292TCM     c1 1623   2.732   3.596   1.070
  292TCM    cl1 1624   2.875   3.688   1.128
  292TCM    cl2 1625   2.678   3.482   1.197
  292TCM     h1 1626   2.651   3.666   1.047
  292TCM    cl3 1627   2.778   3.506   0.922
  293TCM     c1 1628   2.252   2.664   4.505
  293TCM    cl1 1629   2.166   2.563   4.383
  293TCM    cl2 1630   2.162   2.660   4.660
  293TCM     h1 1631   2.353   2.624   4.520
  293TCM    cl3 1632   2.261   2.833   4.446
  294TCM     c1 1633   0.665   2.329   0.691
  294TCM    cl1 1634   0.630   2.192   0.582
  294TCM    cl2 1635   0.602   2.292   0.855
  294TCM     h1 1636   0.773   2.346   0.696
  294TCM    cl3 1637   0.584   2.476   0.629
  295TCM     c1 1638   2.322   0.573   1.438
  295TCM    cl1 1639   2.173   0.529   1.348
  295TCM    cl2 1640   2.360   0.444   1.556
  295TCM     h1 1641   2.405   0.586   1.368
  295TCM    cl3 1642   2.295   0.726   1.528
  296TCM     c1 1643   2.389   3.731   4.942
  296TCM    cl1 1644   2.511   3.600   4.946
  296TCM    cl2 1645   2.337   3.758   4.773
  296TCM     h1 1646   2.303   3.703   5.003
  296TCM    cl3 1647   2.463   3.880   5.009
  297TCM     c1 1648   0.167   3.362   4.911
  297TCM    cl1 1649   0.196   3.186   4.934
  297TCM    cl2 1650   0.068   3.387   4.763
  297TCM     h1 1651   0.114   3.402   4.997
  297TCM    cl3 1652   0.324   3.446   4.892
  298TCM     c1 1653   3.839   1.781   1.741
  298TCM    cl1 1654   4.013   1.776   1.784
  298TCM    cl2 1655   3.808   1.924   1.638
  298TCM     h1 1656   3.812   1.689   1.687
  298TCM    cl3 1657   3.741   1.793   1.891
  299TCM     c1 1658   2.251   2.648   2.532
  299TCM    cl1 1659   2.367   2.542   2.446
  299TCM    cl2 1660   2.216   2.792   2.430
  299TCM     h1 1661   2.159   2.593   2.552
  299TCM    cl3 1662   2.324   2.702   2.687
  300TCM     c1 1663   4.635   2.750   0.711
  300TCM    cl1 1664   4.579   2.675   0.558
  300TCM    cl2 1665   4.741   2.890   0.673
  300TCM     h1 1666   4.549   2.785   0.768
  300TCM    cl3 1667   4.726   2.630   0.808
  301TCM     c1 1668   0.149   4.343   1.614
  301TCM    cl1 1669   0.062   4.204   1.687
  301TCM    cl2 1670   0.096   4.363   1.444
  301TCM     h1 1671   0.125   4.434   1.671
  301TCM    cl3 1672   0.325   4.313   1.619
  302TCM     c1 1673   3.144   1.421   3.664
  302TCM    cl1 1674   3.211   1.442   3.498
  302TCM    cl2 1675   3.278   1.396   3.780
  302TCM     h1 1676   3.087   1.510   3.692
  302TCM    cl3 1677   3.036   1.278   3.665
  303TCM     c1 1678   1.255   3.893   2.324
  303TCM    cl1 1679   1.196   3.734   2.385
  303TCM    cl2 1680   1.169   3.934   2.171
  303TCM     h1 1681   1.236   3.970   2.398
  303TCM    cl3 1682   1.432   3.883   2.293
  304TCM     c1 1683   2.923   3.976   2.091
  304TCM    cl1 1684   2.960   4.080   1.950
  304TCM    cl2 1685   2.996   3.814   2.065
  304TCM     h1 1686   2.963   4.020   2.182
  304TCM    cl3 1687   2.745   3.958   2.107
  305TCM     c1 1688   1.487   2.964   2.090
  305TCM    cl1 1689   1.315   2.936   2.129
  305TCM    cl2 1690   1.589   2.893   2.220
  305TCM     h1 1691   1.512   2.918   1.994
  305TCM    cl3 1692   1.518   3.141   2.081
  306TCM     c1 1693   4.637   4.959   4.701
  306TCM    cl1 1694   4.689   4.789   4.725
  306TCM    cl2 1695   4.768   5.051   4.620
  306TCM     h1 1696   4.547   4.961   4.640
  306TCM    cl3 1697   4.604   5.032   4.861
  307TCM     c1 1698   4.253   4.907   2.455
  307TCM    cl1 1699   4.205   5.020   2.325
  307TCM    cl2 1700   4.247   4.992   2.613
  307TCM     h1 1701   4.184   4.822   2.457
  307TCM    cl3 1702   4.420   4.848   2.425
  308TCM     c1 1703   1.329   0.198   3.031
  308TCM    cl1 1704   1.508   0.195   3.016
  308TCM    cl2 1705   1.278   0.109   3.179
  308TCM     h1 1706   1.295   0.302   3.038
  308TCM    cl3 1707   1.255   0.120   2.888
  309TCM     c1 1708   3.480   4.832   3.665
  309TCM    cl1 1709   3.513   4.677   3.581
  309TCM    cl2 1710   3.482   4.966   3.545
  309TCM     h1 1711   3.381   4.828   3.712
  309TCM    cl3 1712   3.605   4.860   3.790
  310TCM     c1 1713   3.586   2.051   4.838
  310TCM    cl1 1714   3.608   2.105   5.007
  310TCM    cl2 1715   3.746   2.005   4.769
  310TCM     h1 1716   3.519   1.965   4.835
  310TCM    cl3 1717   3.517   2.185   4.741
  311TCM     c1 1718   4.928   4.285   2.460
  311TCM    cl1 1719   4.910   4.426   2.350
  311TCM    cl2 1720   4.839   4.317   2.612
  311TCM     h1 1721   4.888   4.195   2.412
  311TCM    cl3 1722   5.102   4.259   2.496
  312TCM     c1 1723   4.652   2.915   2.276
  312TCM    cl1 1724   4.811   2.970   2.217
  312TCM    cl2 1725   4.665   2.867   2.449
  312TCM     h1 1726   4.579   2.996   2.267
  312TCM    cl3 1727   4.597   2.774   2.180
  313TCM     c1 1728   1.431   2.102   0.611
  313TCM    cl1 1729   1.285   2.170   0.692
  313TCM    cl2 1730   1.488   1.959   0.704
  313TCM     h1 1731   1.406   2.072   0.509
  313TCM    cl3 1732   1.560   2.226   0.607
  314TCM     c1 1733   0.942   1.731   3.904
  314TCM    cl1 1734   0.938   1.774   3.730
  314TCM    cl2 1735   1.053   1.593   3.931
  314TCM     h1 1736   0.977   1.817   3.962
  314TCM    cl3 1737   0.777   1.686   3.958
  315TCM     c1 1738   4.160   3.445   1.440
  315TCM    cl1 1739   4.272   3.351   1.544
  315TCM    cl2 1740   4.229   3.458   1.275
  315TCM     h1 1741   4.063   3.396   1.436
  315TCM    cl3 1742   4.142   3.610   1.508
  316TCM     c1 1743   0.172   4.888   1.990
  316TCM    cl1 1744   0.341   4.835   2.014
  316TCM    cl2 1745   0.168   5.020   1.869
  316TCM     h1 1746   0.112   4.804   1.954
  316TCM    cl3 1747   0.104   4.946   2.145
  317TCM     c1 1748   1.324   2.226   1.726
  317TCM    cl1 1749   1.498   2.222   1.773
  317TCM    cl2 1750   1.313   2.248   1.549
  317TCM     h1 1751   1.276   2.133   1.755
  317TCM    cl3 1752   1.245   2.365   1.808
  318TCM     c1 1753   0.694   2.160   3.811
  318TCM    cl1 1754   0.707   2.065   3.659
  318TCM    cl2 1755   0.722   2.052   3.951
  318TCM     h1 1756   0.769   2.240   3.810
  318TCM    cl3 1757   0.530   2.231   3.822
  319TCM     c1 1758   1.056   0.940   0.044
  319TCM    cl1 1759   1.124   0.777   0.075
  319TCM    cl2 1760   1.031   1.026   0.200
  319TCM     h1 1761   1.124   0.998  -0.019
  319TCM    cl3 1762   0.897   0.922  -0.038
  320TCM     c1 1763   3.497   2.701   0.980
  320TCM    cl1 1764   3.620   2.776   1.088
  320TCM    cl2 1765   3.568   2.558   0.898
  320TCM     h1 1766   3.410   2.671   1.039
  320TCM    cl3 1767   3.447   2.821   0.856
  321TCM     c1 1768   3.681   4.883   3.016
  321TCM    cl1 1769   3.574   4.950   2.888
  321TCM    cl2 1770   3.736   5.016   3.123
  321TCM     h1 1771   3.625   4.809   3.075
  321TCM    cl3 1772   3.823   4.803   2.940
  322TCM     c1 1773   4.406   3.057   4.880
  322TCM    cl1 1774   4.279   3.080   5.005
  322TCM    cl2 1775   4.331   3.211   4.826
  322TCM     h1 1776   4.394   3.037   4.773
  322TCM    cl3 1777   4.337   2.891   4.887
  323TCM     c1 1778   4.392   2.622   2.584
  323TCM    cl1 1779   4.382   2.775   2.678
  323TCM    cl2 1780   4.331   2.651   2.418
  323TCM     h1 1781   4.496   2.589   2.580
  323TCM    cl3 1782   4.292   2.497   2.664
  324TCM     c1 1783   2.124   4.416   3.413
  324TCM    cl1 1784   2.264   4.503   3.482
  324TCM    cl2 1785   2.056   4.306   3.537
  324TCM     h1 1786   2.048   4.488   3.382
  324TCM    cl3 1787   2.180   4.320   3.272
  325TCM     c1 1788   3.387   2.227   0.832
  325TCM    cl1 1789   3.303   2.199   0.675
  325TCM    cl2 1790   3.417   2.070   0.913
  325TCM     h1 1791   3.482   2.278   0.814
  325TCM    cl3 1792   3.285   2.329   0.939
  326TCM     c1 1793   2.236   2.037   2.505
  326TCM    cl1 1794   2.090   1.940   2.464
  326TCM    cl2 1795   2.234   2.073   2.681
  326TCM     h1 1796   2.326   1.981   2.480
  326TCM    cl3 1797   2.234   2.191   2.413
  327TCM     c1 1798   2.758   2.905   3.367
  327TCM    cl1 1799   2.897   2.895   3.480
  327TCM    cl2 1800   2.757   3.068   3.292
  327TCM     h1 1801   2.768   2.829   3.290
  327TCM    cl3 1802   2.605   2.881   3.458
  328TCM     c1 1803   0.068   1.787   1.605
  328TCM    cl1 1804   0.031   1.960   1.635
  328TCM    cl2 1805   0.123   1.766   1.435
  328TCM     h1 1806   0.147   1.754   1.674
  328TCM    cl3 1807  -0.080   1.688   1.632
  329TCM     c1 1808   1.647   1.291   3.454
  329TCM    cl1 1809   1.612   1.413   3.328
  329TCM    cl2 1810   1.498   1.199   3.493
  329TCM     h1 1811   1.723   1.222   3.416
  329TCM    cl3 1812   1.708   1.372   3.602
  330TCM     c1 1813   3.386   4.003   2.091
  330TCM    cl1 1814   3.363   4.078   1.930
  330TCM    cl2 1815   3.363   3.825   2.078
  330TCM     h1 1816   3.487   4.024   2.128
  330TCM    cl3 1817   3.265   4.070   2.205
  331TCM     c1 1818   2.002   3.451   0.492
  331TCM    cl1 1819   1.876   3.368   0.589
  331TCM    cl2 1820   2.134   3.335   0.459
  331TCM     h1 1821   1.959   3.487   0.398
  331TCM    cl3 1822   2.068   3.590   0.585
  332TCM     c1 1823   4.482   2.128   3.031
  332TCM    cl1 1824   4.369   2.188   3.156
  332TCM    cl2 1825   4.441   2.202   2.873
  332TCM     h1 1826   4.584   2.154   3.058
  332TCM    cl3 1827   4.467   1.949   3.018
  333TCM     c1 1828   2.449   3.852   1.290
  333TCM    cl1 1829   2.382   3.706   1.210
  333TCM    cl2 1830   2.598   3.904   1.204
  333TCM     h1 1831   2.375   3.933   1.287
  333TCM    cl3 1832   2.490   3.812   1.459
  334TCM     c1 1833   0.892   4.858   4.501
  334TCM    cl1 1834   1.035   4.965   4.501
  334TCM    cl2 1835   0.759   4.936   4.409
  334TCM     h1 1836   0.917   4.762   4.454
  334TCM    cl3 1837   0.838   4.830   4.670
  335TCM     c1 1838   3.625   3.279   3.428
  335TCM    cl1 1839   3.638   3.176   3.575
  335TCM    cl2 1840   3.542   3.187   3.299
  335TCM     h1 1841   3.568   3.369   3.452
  335TCM    cl3 1842   3.790   3.325   3.373
  336TCM     c1 1843   3.529   3.853   1.142
  336TCM    cl1 1844   3.597   4.010   1.196
  336TCM    cl2 1845   3.499   3.750   1.286
  336TCM     h1 1846   3.435   3.870   1.089
  336TCM    cl3 1847   3.646   3.771   1.035
  337TCM     c1 1848   2.551   1.165   3.758
  337TCM    cl1 1849   2.697   1.253   3.814
  337TCM    cl2 1850   2.513   1.212   3.589
  337TCM     h1 1851   2.569   1.057   3.763
  337TCM    cl3 1852   2.413   1.207   3.864
  338TCM     c1 1853   1.965   3.641   4.720
  338TCM    cl1 1854   1.979   3.725   4.878
  338TCM    cl2 1855   1.844   3.725   4.618
  338TCM     h1 1856   2.062   3.642   4.670
  338TCM    cl3 1857   1.912   3.472   4.747
  339TCM     c1 1858   4.241   4.040   3.080
  339TCM    cl1 1859   4.180   4.209   3.075
  339TCM    cl2 1860   4.364   4.017   2.951
  339TCM     h1 1861   4.285   4.019   3.178
  339TCM    cl3 1862   4.104   3.928   3.051
  340TCM     c1 1863   3.130   1.609   4.856
  340TCM    cl1 1864   3.158   1.537   5.018
  340TCM    cl2 1865   3.262   1.559   4.745
  340TCM     h1 1866   3.034   1.573   4.817
  340TCM    cl3 1867   3.125   1.788   4.870
  341TCM     c1 1868   0.370   0.777   3.836
  341TCM    cl1 1869   0.238   0.703   3.739
  341TCM    cl2 1870   0.474   0.648   3.903
  341TCM     h1 1871   0.430   0.843   3.772
  341TCM    cl3 1872   0.299   0.872   3.970
  342TCM     c1 1873   3.457   0.803   1.957
  342TCM    cl1 1874   3.518   0.962   1.902
  342TCM    cl2 1875   3.291   0.825   2.022
  342TCM     h1 1876   3.455   0.733   1.873
  342TCM    cl3 1877   3.563   0.739   2.086
  343TCM     c1 1878   2.717   4.915   2.539
  343TCM    cl1 1879   2.651   4.877   2.376
  343TCM    cl2 1880   2.607   5.029   2.622
  343TCM     h1 1881   2.725   4.823   2.597
  343TCM    cl3 1882   2.879   4.989   2.521
  344TCM     c1 1883   2.736   4.363   2.216
  344TCM    cl1 1884   2.628   4.253   2.309
  344TCM    cl2 1885   2.709   4.337   2.040
  344TCM     h1 1886   2.713   4.467   2.241
  344TCM    cl3 1887   2.907   4.326   2.255
  345TCM     c1 1888   0.784   0.802   2.528
  345TCM    cl1 1889   0.835   0.631   2.508
  345TCM    cl2 1890   0.917   0.895   2.604
  345TCM     h1 1891   0.760   0.844   2.430
  345TCM    cl3 1892   0.640   0.809   2.634
  346TCM     c1 1893   2.609   4.340   2.968
  346TCM    cl1 1894   2.772   4.414   2.965
  346TCM    cl2 1895   2.559   4.300   2.801
  346TCM     h1 1896   2.611   4.248   3.028
  346TCM    cl3 1897   2.491   4.454   3.040
  347TCM     c1 1898   4.104   1.831   4.597
  347TCM    cl1 1899   4.113   1.883   4.769
  347TCM    cl2 1900   3.948   1.747   4.567
  347TCM     h1 1901   4.112   1.918   4.532
  347TCM    cl3 1902   4.239   1.718   4.562
  348TCM     c1 1903   0.330   0.442   0.034
  348TCM    cl1 1904   0.487   0.381  -0.028
  348TCM    cl2 1905   0.200   0.403  -0.083
  348TCM     h1 1906   0.308   0.395   0.130
  348TCM    cl3 1907   0.341   0.620   0.055
  349TCM     c1 1908   3.726   3.581   0.177
  349TCM    cl1 1909   3.705   3.594   0.355
  349TCM    cl2 1910   3.826   3.437   0.139
  349TCM     h1 1911   3.628   3.572   0.129
  349TCM    cl3 1912   3.809   3.728   0.116
  350TCM     c1 1913   1.867   2.275   2.619
  350TCM    cl1 1914   1.861   2.126   2.718
  350TCM    cl2 1915   1.873   2.230   2.445
  350TCM     h1 1916   1.778   2.335   2.638
  350TCM    cl3 1917   2.013   2.370   2.661
  351TCM     c1 1918   1.994   3.978   1.352
  351TCM    cl1 1919   1.933   4.060   1.205
  351TCM    cl2 1920   2.148   4.054   1.405
  351TCM     h1 1921   1.920   3.986   1.432
  351TCM    cl3 1922   2.024   3.804   1.317
  352TCM     c1 1923   4.116   3.617   1.864
  352TCM    cl1 1924   4.292   3.595   1.842
  352TCM    cl2 1925   4.083   3.673   2.031
  352TCM     h1 1926   4.079   3.692   1.793
  352TCM    cl3 1927   4.032   3.461   1.835
  353TCM     c1 1928   2.471   4.598   0.698
  353TCM    cl1 1929   2.471   4.643   0.524
  353TCM    cl2 1930   2.624   4.657   0.773
  353TCM     h1 1931   2.386   4.645   0.748
  353TCM    cl3 1932   2.460   4.420   0.715
  354TCM     c1 1933   2.620   2.451   4.681
  354TCM    cl1 1934   2.627   2.561   4.539
  354TCM    cl2 1935   2.710   2.300   4.645
  354TCM     h1 1936   2.664   2.500   4.768
  354TCM    cl3 1937   2.448   2.412   4.715
  355TCM     c1 1938   1.461   3.250   2.422
  355TCM    cl1 1939   1.640   3.241   2.419
  355TCM    cl2 1940   1.410   3.382   2.532
  355TCM     h1 1941   1.423   3.269   2.322
  355TCM    cl3 1942   1.396   3.094   2.483
  356TCM     c1 1943   0.629   4.156   4.687
  356TCM    cl1 1944   0.655   4.002   4.599
  356TCM    cl2 1945   0.755   4.274   4.636
  356TCM     h1 1946   0.530   4.196   4.664
  356TCM    cl3 1947   0.644   4.128   4.864
  357TCM     c1 1948   0.114   2.329   1.710
  357TCM    cl1 1949   0.288   2.320   1.751
  357TCM    cl2 1950   0.071   2.500   1.676
  357TCM     h1 1951   0.095   2.268   1.621
  357TCM    cl3 1952   0.016   2.267   1.847
  358TCM     c1 1953   4.405   0.732   4.125
  358TCM    cl1 1954   4.530   0.860   4.138
  358TCM    cl2 1955   4.449   0.596   4.234
  358TCM     h1 1956   4.308   0.772   4.155
  358TCM    cl3 1957   4.397   0.672   3.957
  359TCM     c1 1958   3.820   1.035   0.233
  359TCM    cl1 1959   3.965   1.131   0.279
  359TCM    cl2 1960   3.873   0.875   0.170
  359TCM     h1 1961   3.757   1.021   0.321
  359TCM    cl3 1962   3.729   1.121   0.105
  360TCM     c1 1963   2.120   1.748   3.675
  360TCM    cl1 1964   1.997   1.873   3.717
  360TCM    cl2 1965   2.210   1.800   3.529
  360TCM     h1 1966   2.190   1.736   3.759
  360TCM    cl3 1967   2.039   1.592   3.642
  361TCM     c1 1968   0.322   2.023   2.090
  361TCM    cl1 1969   0.301   1.867   2.176
  361TCM    cl2 1970   0.215   2.146   2.164
  361TCM     h1 1971   0.427   2.055   2.098
  361TCM    cl3 1972   0.280   2.003   1.916
  362TCM     c1 1973   1.532   0.509   3.321
  362TCM    cl1 1974   1.635   0.495   3.175
  362TCM    cl2 1975   1.612   0.424   3.457
  362TCM     h1 1976   1.519   0.614   3.347
  362TCM    cl3 1977   1.371   0.436   3.289
  363TCM     c1 1978   2.159   4.026   0.874
  363TCM    cl1 1979   2.082   3.882   0.800
  363TCM    cl2 1980   2.288   4.087   0.765
  363TCM     h1 1981   2.084   4.104   0.889
  363TCM    cl3 1982   2.231   3.980   1.031
  364TCM     c1 1983   3.411   1.530   4.168
  364TCM    cl1 1984   3.463   1.649   4.045
  364TCM    cl2 1985   3.275   1.598   4.264
  364TCM     h1 1986   3.378   1.438   4.118
  364TCM    cl3 1987   3.548   1.494   4.278
  365TCM     c1 1988   2.260   3.622   4.223
  365TCM    cl1 1989   2.268   3.692   4.057
  365TCM    cl2 1990   2.156   3.726   4.326
  365TCM     h1 1991   2.217   3.522   4.218
  365TCM    cl3 1992   2.424   3.613   4.292
  366TCM     c1 1993   3.022   0.621   4.753
  366TCM    cl1 1994   3.201   0.626   4.750
  366TCM    cl2 1995   2.968   0.535   4.901
  366TCM     h1 1996   2.982   0.723   4.753
  366TCM    cl3 1997   2.963   0.533   4.608
  367TCM     c1 1998   2.958   2.607   2.362
  367TCM    cl1 1999   2.790   2.627   2.424
  367TCM    cl2 2000   2.964   2.657   2.190
  367TCM     h1 2001   3.026   2.670   2.421
  367TCM    cl3 2002   3.008   2.435   2.377
  368TCM     c1 2003   4.771   4.023   0.766
  368TCM    cl1 2004   4.705   3.907   0.885
  368TCM    cl2 2005   4.753   4.190   0.828
  368TCM     h1 2006   4.877   4.002   0.749
  368TCM    cl3 2007   4.681   4.008   0.611
  369TCM     c1 2008   1.925   2.983   4.413
  369TCM    cl1 2009   1.889   2.816   4.468
  369TCM    cl2 2010   1.951   3.089   4.556
  369TCM     h1 2011   2.015   2.983   4.351
  369TCM    cl3 2012   1.785   3.044   4.318
  370TCM     c1 2013   2.469   4.020   4.316
  370TCM    cl1 2014   2.413   3.946   4.469
  370TCM    cl2 2015   2.334   4.019   4.198
  370TCM     h1 2016   2.500   4.123   4.334
  370TCM    cl3 2017   2.607   3.926   4.250
  371TCM     c1 2018   4.573   0.149   2.643
  371TCM    cl1 2019   4.519   0.213   2.484
  371TCM    cl2 2020   4.660   0.278   2.732
  371TCM     h1 2021   4.486   0.117   2.700
  371TCM    cl3 2022   4.683   0.009   2.618
  372TCM     c1 2023   2.032   3.474   1.891
  372TCM    cl1 2024   1.978   3.546   1.736
  372TCM    cl2 2025   2.115   3.598   1.989
  372TCM     h1 2026   1.946   3.435   1.946
  372TCM    cl3 2027   2.146   3.339   1.856
  373TCM     c1 2028   3.422   0.677   0.823
  373TCM    cl1 2029   3.559   0.600   0.736
  373TCM    cl2 2030   3.444   0.658   1.000
  373TCM     h1 2031   3.418   0.783   0.798
  373TCM    cl3 2032   3.269   0.598   0.774
  374TCM     c1 2033   0.132   3.802   3.096
  374TCM    cl1 2034  -0.023   3.837   3.012
  374TCM    cl2 2035   0.121   3.859   3.266
  374TCM     h1 2036   0.151   3.695   3.095
  374TCM    cl3 2037   0.267   3.887   3.014
  375TCM     c1 2038   2.589   2.866   4.808
  375TCM    cl1 2039   2.566   2.926   4.640
  375TCM    cl2 2040   2.742   2.774   4.818
  375TCM     h1 2041   2.592   2.951   4.877
  375TCM    cl3 2042   2.452   2.759   4.851
  376TCM     c1 2043   2.043   0.283   0.300
  376TCM    cl1 2044   2.053   0.217   0.466
  376TCM    cl2 2045   2.184   0.226   0.206
  376TCM     h1 2046   1.950   0.248   0.252
  376TCM    cl3 2047   2.044   0.462   0.305
  377TCM     c1 2048   2.741   0.210   2.219
  377TCM    cl1 2049   2.594   0.151   2.134
  377TCM    cl2 2050   2.694   0.279   2.378
  377TCM     h1 2051   2.810   0.127   2.234
  377TCM    cl3 2052   2.819   0.337   2.120
  378TCM     c1 2053   1.577   3.477   4.548
  378TCM    cl1 2054   1.542   3.524   4.717
  378TCM    cl2 2055   1.428   3.494   4.450
  378TCM     h1 2056   1.655   3.542   4.507
  378TCM    cl3 2057   1.633   3.307   4.543
  379TCM     c1 2058   0.698   2.766   0.461
  379TCM    cl1 2059   0.856   2.683   0.477
  379TCM    cl2 2060   0.700   2.872   0.317
  379TCM     h1 2061   0.618   2.691   0.451
  379TCM    cl3 2062   0.669   2.865   0.608
  380TCM     c1 2063   3.000   0.137   3.208
  380TCM    cl1 2064   2.874   0.194   3.094
  380TCM    cl2 2065   2.963  -0.032   3.258
  380TCM     h1 2066   3.098   0.140   3.160
  380TCM    cl3 2067   3.000   0.242   3.353
  381TCM     c1 2068   1.993   2.942   1.014
  381TCM    cl1 2069   1.936   3.008   0.857
  381TCM    cl2 2070   1.896   2.797   1.056
  381TCM     h1 2071   2.098   2.914   1.007
  381TCM    cl3 2072   1.973   3.066   1.143
  382TCM     c1 2073   3.257   0.108   3.940
  382TCM    cl1 2074   3.254   0.171   4.108
  382TCM    cl2 2075   3.252  -0.071   3.942
  382TCM     h1 2076   3.171   0.146   3.885
  382TCM    cl3 2077   3.408   0.162   3.859
  383TCM     c1 2078   2.736   3.321   4.956
  383TCM    cl1 2079   2.844   3.445   4.884
  383TCM    cl2 2080   2.771   3.303   5.131
  383TCM     h1 2081   2.632   3.351   4.943
  383TCM    cl3 2082   2.764   3.165   4.872
  384TCM     c1 2083   0.222   0.550   4.150
  384TCM    cl1 2084   0.333   0.425   4.216
  384TCM    cl2 2085   0.107   0.601   4.278
  384TCM     h1 2086   0.280   0.637   4.117
  384TCM    cl3 2087   0.132   0.481   4.012
  385TCM     c1 2088   2.320   2.623   3.753
  385TCM    cl1 2089   2.407   2.780   3.757
  385TCM    cl2 2090   2.304   2.559   3.919
  385TCM     h1 2091   2.221   2.638   3.709
  385TCM    cl3 2092   2.413   2.506   3.653
  386TCM     c1 2093   0.578   1.572   0.098
  386TCM    cl1 2094   0.424   1.650   0.048
  386TCM    cl2 2095   0.547   1.400   0.138
  386TCM     h1 2096   0.650   1.578   0.016
  386TCM    cl3 2097   0.642   1.658   0.241
  387TCM     c1 2098   4.750   2.775   1.847
  387TCM    cl1 2099   4.884   2.702   1.942
  387TCM    cl2 2100   4.757   2.712   1.679
  387TCM     h1 2101   4.655   2.748   1.892
  387TCM    cl3 2102   4.768   2.953   1.844
  388TCM     c1 2103   2.877   3.346   0.533
  388TCM    cl1 2104   2.725   3.435   0.569
  388TCM    cl2 2105   2.967   3.435   0.406
  388TCM     h1 2106   2.938   3.340   0.624
  388TCM    cl3 2107   2.837   3.181   0.476
  389TCM     c1 2108   2.584   4.837   1.476
  389TCM    cl1 2109   2.750   4.842   1.408
  389TCM    cl2 2110   2.582   4.728   1.619
  389TCM     h1 2111   2.554   4.938   1.506
  389TCM    cl3 2112   2.469   4.774   1.353
  390TCM     c1 2113   2.681   3.837   4.678
  390TCM    cl1 2114   2.769   3.956   4.576
  390TCM    cl2 2115   2.776   3.806   4.827
  390TCM     h1 2116   2.583   3.877   4.704
  390TCM    cl3 2117   2.662   3.683   4.588
  391TCM     c1 2118   4.063   3.936   2.677
  391TCM    cl1 2119   4.081   4.109   2.719
  391TCM    cl2 2120   4.061   3.918   2.498
  391TCM     h1 2121   4.146   3.878   2.719
  391TCM    cl3 2122   3.907   3.875   2.743
  392TCM     c1 2123   2.235   1.613   2.258
  392TCM    cl1 2124   2.329   1.764   2.232
  392TCM    cl2 2125   2.278   1.492   2.133
  392TCM     h1 2126   2.257   1.573   2.357
  392TCM    cl3 2127   2.059   1.650   2.246
  393TCM     c1 2128   4.871   2.260   0.431
  393TCM    cl1 2129   4.832   2.407   0.526
  393TCM    cl2 2130   4.944   2.137   0.540
  393TCM     h1 2131   4.780   2.220   0.387
  393TCM    cl3 2132   4.988   2.302   0.302
  394TCM     c1 2133   4.031   0.470   3.022
  394TCM    cl1 2134   3.923   0.512   3.158
  394TCM    cl2 2135   4.198   0.445   3.083
  394TCM     h1 2136   3.996   0.378   2.974
  394TCM    cl3 2137   4.031   0.603   2.902
  395TCM     c1 2138   4.864   2.214   4.962
  395TCM    cl1 2139   4.948   2.363   4.908
  395TCM    cl2 2140   4.882   2.085   4.839
  395TCM     h1 2141   4.907   2.181   5.056
  395TCM    cl3 2142   4.690   2.250   4.986
  396TCM     c1 2143   3.204   1.185   0.975
  396TCM    cl1 2144   3.067   1.143   1.083
  396TCM    cl2 2145   3.141   1.264   0.826
  396TCM     h1 2146   3.271   1.254   1.026
  396TCM    cl3 2147   3.293   1.035   0.931
  397TCM     c1 2148   2.670   4.360   4.500
  397TCM    cl1 2149   2.806   4.352   4.616
  397TCM    cl2 2150   2.525   4.281   4.570
  397TCM     h1 2151   2.647   4.464   4.477
  397TCM    cl3 2152   2.717   4.273   4.351
  398TCM     c1 2153   1.631   4.877   0.332
  398TCM    cl1 2154   1.720   4.745   0.248
  398TCM    cl2 2155   1.546   4.978   0.211
  398TCM     h1 2156   1.559   4.834   0.401
  398TCM    cl3 2157   1.749   4.978   0.421
  399TCM     c1 2158   1.316   3.114   4.178
  399TCM    cl1 2159   1.286   3.268   4.091
  399TCM    cl2 2160   1.355   3.150   4.350
  399TCM     h1 2161   1.226   3.052   4.174
  399TCM    cl3 2162   1.453   3.027   4.103
  400TCM     c1 2163   1.226   2.189   2.209
  400TCM    cl1 2164   1.328   2.126   2.075
  400TCM    cl2 2165   1.166   2.051   2.305
  400TCM     h1 2166   1.285   2.255   2.272
  400TCM    cl3 2167   1.088   2.281   2.140
  401TCM     c1 2168   1.121   1.411   0.333
  401TCM    cl1 2169   1.003   1.467   0.211
  401TCM    cl2 2170   1.194   1.552   0.417
  401TCM     h1 2171   1.071   1.347   0.406
  401TCM    cl3 2172   1.251   1.318   0.251
  402TCM     c1 2173   0.348   0.247   3.272
  402TCM    cl1 2174   0.426   0.333   3.136
  402TCM    cl2 2175   0.175   0.293   3.281
  402TCM     h1 2176   0.356   0.139   3.257
  402TCM    cl3 2177   0.431   0.292   3.425
  403TCM     c1 2178   2.675   3.696   0.318
  403TCM    cl1 2179   2.637   3.870   0.341
  403TCM    cl2 2180   2.778   3.677   0.172
  403TCM     h1 2181   2.729   3.659   0.406
  403TCM    cl3 2182   2.523   3.603   0.296
  404TCM     c1 2183   0.296   1.862   0.782
  404TCM    cl1 2184   0.295   1.817   0.956
  404TCM    cl2 2185   0.365   2.027   0.764
  404TCM     h1 2186   0.357   1.791   0.727
  404TCM    cl3 2187   0.129   1.861   0.718
  405TCM     c1 2188   0.192   2.371   0.787
  405TCM    cl1 2189   0.306   2.481   0.871
  405TCM    cl2 2190   0.209   2.392   0.610
  405TCM     h1 2191   0.215   2.267   0.813
  405TCM    cl3 2192   0.025   2.411   0.837
  406TCM     c1 2193   3.188   4.511   3.949
  406TCM    cl1 2194   3.043   4.605   3.900
  406TCM    cl2 2195   3.331   4.576   3.864
  406TCM     h1 2196   3.203   4.519   4.057
  406TCM    cl3 2197   3.167   4.338   3.905
  407TCM     c1 2198   0.397   3.257   3.468
  407TCM    cl1 2199   0.364   3.085   3.510
  407TCM    cl2 2200   0.341   3.291   3.302
  407TCM     h1 2201   0.345   3.322   3.539
  407TCM    cl3 2202   0.574   3.288   3.479
  408TCM     c1 2203   2.680   0.503   1.819
  408TCM    cl1 2204   2.751   0.382   1.708
  408TCM    cl2 2205   2.532   0.435   1.894
  408TCM     h1 2206   2.752   0.528   1.897
  408TCM    cl3 2207   2.637   0.652   1.727
  409TCM     c1 2208   4.753   0.085   4.065
  409TCM    cl1 2209   4.765  -0.008   4.219
  409TCM    cl2 2210   4.635   0.004   3.956
  409TCM     h1 2211   4.719   0.187   4.087
  409TCM    cl3 2212   4.913   0.092   3.984
  410TCM     c1 2213   4.020   0.867   2.104
  410TCM    cl1 2214   3.889   0.881   1.982
  410TCM    cl2 2215   3.967   0.944   2.258
  410TCM     h1 2216   4.042   0.761   2.122
  410TCM    cl3 2217   4.167   0.950   2.044
  411TCM     c1 2218   2.439   4.674   2.033
  411TCM    cl1 2219   2.448   4.597   2.195
  411TCM    cl2 2220   2.451   4.548   1.906
  411TCM     h1 2221   2.345   4.727   2.023
  411TCM    cl3 2222   2.576   4.789   2.015
  412TCM     c1 2223   2.116   2.549   0.609
  412TCM    cl1 2224   2.193   2.702   0.557
  412TCM    cl2 2225   2.087   2.553   0.786
  412TCM     h1 2226   2.021   2.536   0.557
  412TCM    cl3 2227   2.223   2.410   0.570
  413TCM     c1 2228   2.082   4.463   0.218
  413TCM    cl1 2229   2.008   4.364   0.348
  413TCM    cl2 2230   2.113   4.360   0.074
  413TCM     h1 2231   2.014   4.544   0.191
  413TCM    cl3 2232   2.237   4.531   0.275
  414TCM     c1 2233   3.462   1.020   2.294
  414TCM    cl1 2234   3.619   0.998   2.380
  414TCM    cl2 2235   3.416   1.193   2.299
  414TCM     h1 2236   3.473   0.988   2.191
  414TCM    cl3 2237   3.336   0.922   2.375
  415TCM     c1 2238   3.338   4.146   0.716
  415TCM    cl1 2239   3.413   4.029   0.830
  415TCM    cl2 2240   3.175   4.191   0.776
  415TCM     h1 2241   3.401   4.235   0.709
  415TCM    cl3 2242   3.324   4.070   0.554
  416TCM     c1 2243   1.406   4.183   1.833
  416TCM    cl1 2244   1.530   4.307   1.794
  416TCM    cl2 2245   1.436   4.119   1.997
  416TCM     h1 2246   1.306   4.228   1.828
  416TCM    cl3 2247   1.417   4.048   1.714
  417TCM     c1 2248   4.827   2.684   2.875
  417TCM    cl1 2249   5.000   2.652   2.841
  417TCM    cl2 2250   4.731   2.642   2.729
  417TCM     h1 2251   4.794   2.623   2.960
  417TCM    cl3 2252   4.803   2.858   2.914
  418TCM     c1 2253   1.579   1.392   2.148
  418TCM    cl1 2254   1.626   1.250   2.247
  418TCM    cl2 2255   1.571   1.345   1.975
  418TCM     h1 2256   1.481   1.428   2.181
  418TCM    cl3 2257   1.700   1.523   2.168
  419TCM     c1 2258   1.049   4.191   0.077
  419TCM    cl1 2259   1.027   4.168  -0.099
  419TCM    cl2 2260   0.952   4.069   0.166
  419TCM     h1 2261   1.155   4.179   0.103
  419TCM    cl3 2262   0.994   4.355   0.124
  420TCM     c1 2263   3.095   2.600   0.732
  420TCM    cl1 2264   3.252   2.575   0.650
  420TCM    cl2 2265   3.122   2.656   0.900
  420TCM     h1 2266   3.037   2.675   0.677
  420TCM    cl3 2267   3.005   2.445   0.735
  421TCM     c1 2268   0.740   2.055   2.420
  421TCM    cl1 2269   0.595   2.064   2.314
  421TCM    cl2 2270   0.687   2.044   2.591
  421TCM     h1 2271   0.799   1.967   2.394
  421TCM    cl3 2272   0.838   2.204   2.400
  422TCM     c1 2273   2.489   0.544   4.677
  422TCM    cl1 2274   2.629   0.643   4.730
  422TCM    cl2 2275   2.412   0.622   4.535
  422TCM     h1 2276   2.523   0.444   4.650
  422TCM    cl3 2277   2.370   0.534   4.811
  423TCM     c1 2278   0.329   4.293   3.945
  423TCM    cl1 2279   0.507   4.273   3.950
  423TCM    cl2 2280   0.274   4.364   4.100
  423TCM     h1 2281   0.302   4.360   3.863
  423TCM    cl3 2282   0.251   4.133   3.920
  424TCM     c1 2283   4.897   4.011   1.401
  424TCM    cl1 2284   4.846   3.934   1.555
  424TCM    cl2 2285   4.810   3.934   1.264
  424TCM     h1 2286   4.874   4.118   1.403
  424TCM    cl3 2287   5.074   3.989   1.378
  425TCM     c1 2288   2.469   2.163   0.436
  425TCM    cl1 2289   2.505   2.292   0.317
  425TCM    cl2 2290   2.516   2.218   0.600
  425TCM     h1 2291   2.363   2.140   0.433
  425TCM    cl3 2292   2.564   2.015   0.395
  426TCM     c1 2293   0.254   4.783   3.504
  426TCM    cl1 2294   0.178   4.664   3.392
  426TCM    cl2 2295   0.358   4.895   3.409
  426TCM     h1 2296   0.176   4.840   3.554
  426TCM    cl3 2297   0.353   4.696   3.625
  427TCM     c1 2298   3.290   2.323   2.098
  427TCM    cl1 2299   3.356   2.481   2.153
  427TCM    cl2 2300   3.121   2.343   2.042
  427TCM     h1 2301   3.352   2.284   2.016
  427TCM    cl3 2302   3.295   2.208   2.236
  428TCM     c1 2303   4.015   1.068   4.875
  428TCM    cl1 2304   4.138   1.169   4.958
  428TCM    cl2 2305   4.098   0.945   4.774
  428TCM     h1 2306   3.952   1.018   4.949
  428TCM    cl3 2307   3.913   1.172   4.770
  429TCM     c1 2308   1.032   2.150   4.176
  429TCM    cl1 2309   1.183   2.177   4.268
  429TCM    cl2 2310   0.989   1.976   4.184
  429TCM     h1 2311   0.951   2.210   4.219
  429TCM    cl3 2312   1.056   2.197   4.004
  430TCM     c1 2313   0.401   0.286   2.108
  430TCM    cl1 2314   0.382   0.312   1.932
  430TCM    cl2 2315   0.484   0.130   2.137
  430TCM     h1 2316   0.460   0.368   2.151
  430TCM    cl3 2317   0.240   0.283   2.187
  431TCM     c1 2318   3.622   0.251   0.986
  431TCM    cl1 2319   3.714   0.400   1.026
  431TCM    cl2 2320   3.456   0.297   0.936
  431TCM     h1 2321   3.671   0.198   0.904
  431TCM    cl3 2322   3.612   0.146   1.130
  432TCM     c1 2323   2.877   1.856   3.509
  432TCM    cl1 2324   2.977   1.982   3.430
  432TCM    cl2 2325   2.780   1.930   3.640
  432TCM     h1 2326   2.810   1.811   3.435
  432TCM    cl3 2327   2.983   1.730   3.578
  433TCM     c1 2328   4.046   2.865   3.384
  433TCM    cl1 2329   4.215   2.908   3.341
  433TCM    cl2 2330   4.004   2.706   3.313
  433TCM     h1 2331   4.036   2.860   3.493
  433TCM    cl3 2332   3.934   2.990   3.320
  434TCM     c1 2333   3.164   4.282   1.665
  434TCM    cl1 2334   3.098   4.389   1.793
  434TCM    cl2 2335   3.242   4.383   1.538
  434TCM     h1 2336   3.238   4.214   1.708
  434TCM    cl3 2337   3.030   4.188   1.591
  435TCM     c1 2338   0.397   1.289   4.071
  435TCM    cl1 2339   0.517   1.156   4.079
  435TCM    cl2 2340   0.295   1.268   3.925
  435TCM     h1 2341   0.334   1.287   4.160
  435TCM    cl3 2342   0.483   1.446   4.062
  436TCM     c1 2343   0.450   1.995   1.452
  436TCM    cl1 2344   0.441   1.883   1.591
  436TCM    cl2 2345   0.316   2.114   1.464
  436TCM     h1 2346   0.546   2.047   1.451
  436TCM    cl3 2347   0.430   1.903   1.299
  437TCM     c1 2348   4.969   2.660   1.128
  437TCM    cl1 2349   5.148   2.672   1.123
  437TCM    cl2 2350   4.898   2.816   1.075
  437TCM     h1 2351   4.936   2.580   1.062
  437TCM    cl3 2352   4.918   2.626   1.297
  438TCM     c1 2353   0.771   3.437   4.664
  438TCM    cl1 2354   0.826   3.303   4.558
  438TCM    cl2 2355   0.731   3.580   4.563
  438TCM     h1 2356   0.682   3.406   4.720
  438TCM    cl3 2357   0.903   3.482   4.777
  439TCM     c1 2358   3.248   1.077   1.407
  439TCM    cl1 2359   3.377   1.136   1.297
  439TCM    cl2 2360   3.301   1.095   1.578
  439TCM     h1 2361   3.156   1.136   1.391
  439TCM    cl3 2362   3.215   0.905   1.373
  440TCM     c1 2363   3.502   1.762   4.533
  440TCM    cl1 2364   3.377   1.873   4.598
  440TCM    cl2 2365   3.595   1.690   4.668
  440TCM     h1 2366   3.454   1.682   4.476
  440TCM    cl3 2367   3.612   1.854   4.426
  441TCM     c1 2368   0.627   3.825   4.264
  441TCM    cl1 2369   0.583   3.930   4.125
  441TCM    cl2 2370   0.806   3.818   4.277
  441TCM     h1 2371   0.585   3.867   4.356
  441TCM    cl3 2372   0.563   3.660   4.238
  442TCM     c1 2373   3.254   3.230   0.185
  442TCM    cl1 2374   3.347   3.112   0.087
  442TCM    cl2 2375   3.168   3.144   0.317
  442TCM     h1 2376   3.324   3.303   0.229
  442TCM    cl3 2377   3.136   3.316   0.082
  443TCM     c1 2378   0.940   2.397   1.397
  443TCM    cl1 2379   0.959   2.223   1.435
  443TCM    cl2 2380   1.012   2.433   1.237
  443TCM     h1 2381   0.833   2.423   1.396
  443TCM    cl3 2382   1.023   2.494   1.523
  444TCM     c1 2383   4.410   0.148   0.140
  444TCM    cl1 2384   4.339   0.095   0.296
  444TCM    cl2 2385   4.513   0.292   0.166
  444TCM     h1 2386   4.470   0.067   0.098
  444TCM    cl3 2387   4.277   0.188   0.026
  445TCM     c1 2388   4.530   0.952   0.060
  445TCM    cl1 2389   4.503   1.091   0.170
  445TCM    cl2 2390   4.371   0.883   0.012
  445TCM     h1 2391   4.584   0.986  -0.029
  445TCM    cl3 2392   4.625   0.826   0.145
  446TCM     c1 2393   2.999   0.576   3.153
  446TCM    cl1 2394   2.892   0.581   3.009
  446TCM    cl2 2395   3.048   0.744   3.195
  446TCM     h1 2396   2.946   0.531   3.237
  446TCM    cl3 2397   3.146   0.480   3.115
  447TCM     c1 2398   4.385   1.327   4.707
  447TCM    cl1 2399   4.504   1.413   4.604
  447TCM    cl2 2400   4.464   1.184   4.783
  447TCM     h1 2401   4.348   1.394   4.785
  447TCM    cl3 2402   4.248   1.271   4.606
  448TCM     c1 2403   4.787   2.087   3.388
  448TCM    cl1 2404   4.729   1.933   3.317
  448TCM    cl2 2405   4.730   2.225   3.288
  448TCM     h1 2406   4.747   2.097   3.490
  448TCM    cl3 2407   4.966   2.087   3.394
  449TCM     c1 2408   4.785   4.766   3.627
  449TCM    cl1 2409   4.815   4.649   3.494
  449TCM    cl2 2410   4.941   4.815   3.699
  449TCM     h1 2411   4.734   4.855   3.587
  449TCM    cl3 2412   4.683   4.689   3.752
  450TCM     c1 2413   3.219   0.467   3.625
  450TCM    cl1 2414   3.105   0.554   3.517
  450TCM    cl2 2415   3.303   0.338   3.534
  450TCM     h1 2416   3.292   0.537   3.665
  450TCM    cl3 2417   3.127   0.394   3.761
  451TCM     c1 2418   3.760   3.725   1.531
  451TCM    cl1 2419   3.853   3.815   1.407
  451TCM    cl2 2420   3.823   3.768   1.694
  451TCM     h1 2421   3.654   3.752   1.525
  451TCM    cl3 2422   3.780   3.549   1.505
  452TCM     c1 2423   0.344   4.789   1.593
  452TCM    cl1 2424   0.500   4.810   1.680
  452TCM    cl2 2425   0.229   4.694   1.692
  452TCM     h1 2426   0.302   4.887   1.571
  452TCM    cl3 2427   0.374   4.700   1.439
  453TCM     c1 2428   2.312   3.880   3.731
  453TCM    cl1 2429   2.424   3.959   3.845
  453TCM    cl2 2430   2.392   3.737   3.659
  453TCM     h1 2431   2.221   3.849   3.783
  453TCM    cl3 2432   2.269   3.996   3.600
  454TCM     c1 2433   4.391   3.803   1.310
  454TCM    cl1 2434   4.476   3.909   1.427
  454TCM    cl2 2435   4.499   3.767   1.171
  454TCM     h1 2436   4.363   3.710   1.359
  454TCM    cl3 2437   4.243   3.886   1.250
  455TCM     c1 2438   3.074   4.158   4.398
  455TCM    cl1 2439   3.112   4.161   4.573
  455TCM    cl2 2440   3.051   3.988   4.345
  455TCM     h1 2441   2.983   4.215   4.379
  455TCM    cl3 2442   3.210   4.231   4.306
  456TCM     c1 2443   1.629   1.868   4.778
  456TCM    cl1 2444   1.616   2.044   4.749
  456TCM    cl2 2445   1.508   1.782   4.677
  456TCM     h1 2446   1.730   1.834   4.750
  456TCM    cl3 2447   1.599   1.832   4.951
  457TCM     c1 2448   1.661   3.383   1.767
  457TCM    cl1 2449   1.755   3.230   1.761
  457TCM    cl2 2450   1.674   3.453   1.932
  457TCM     h1 2451   1.701   3.454   1.694
  457TCM    cl3 2452   1.489   3.349   1.732
  458TCM     c1 2453   2.132   0.159   1.467
  458TCM    cl1 2454   2.031   0.062   1.579
  458TCM    cl2 2455   2.052   0.165   1.307
  458TCM     h1 2456   2.144   0.260   1.507
  458TCM    cl3 2457   2.293   0.081   1.450
  459TCM     c1 2458   4.063   4.266   3.505
  459TCM    cl1 2459   4.030   4.411   3.405
  459TCM    cl2 2460   4.103   4.317   3.672
  459TCM     h1 2461   3.975   4.201   3.507
  459TCM    cl3 2462   4.203   4.178   3.436
  460TCM     c1 2463   0.476   0.996   3.475
  460TCM    cl1 2464   0.396   1.021   3.316
  460TCM    cl2 2465   0.505   0.822   3.502
  460TCM     h1 2466   0.571   1.050   3.477
  460TCM    cl3 2467   0.368   1.060   3.604
  461TCM     c1 2468   1.667   4.323   0.132
  461TCM    cl1 2469   1.767   4.444   0.044
  461TCM    cl2 2470   1.624   4.388   0.294
  461TCM     h1 2471   1.576   4.303   0.075
  461TCM    cl3 2472   1.760   4.170   0.151
  462TCM     c1 2473   3.193   0.317   0.110
  462TCM    cl1 2474   3.144   0.336   0.282
  462TCM    cl2 2475   3.269   0.156   0.088
  462TCM     h1 2476   3.106   0.325   0.046
  462TCM    cl3 2477   3.312   0.445   0.068
  463TCM     c1 2478   3.707   0.925   3.045
  463TCM    cl1 2479   3.872   0.924   2.973
  463TCM    cl2 2480   3.721   0.931   3.224
  463TCM     h1 2481   3.652   1.013   3.010
  463TCM    cl3 2482   3.620   0.776   2.997
  464TCM     c1 2483   4.887   4.379   3.880
  464TCM    cl1 2484   5.030   4.461   3.810
  464TCM    cl2 2485   4.868   4.218   3.801
  464TCM     h1 2486   4.797   4.439   3.862
  464TCM    cl3 2487   4.911   4.356   4.056
  465TCM     c1 2488   4.383   1.619   0.048
  465TCM    cl1 2489   4.413   1.657  -0.125
  465TCM    cl2 2490   4.376   1.441   0.069
  465TCM     h1 2491   4.464   1.661   0.109
  465TCM    cl3 2492   4.227   1.693   0.098
  466TCM     c1 2493   0.482   0.511   2.831
  466TCM    cl1 2494   0.596   0.457   2.703
  466TCM    cl2 2495   0.347   0.602   2.756
  466TCM     h1 2496   0.442   0.424   2.883
  466TCM    cl3 2497   0.570   0.616   2.946
  467TCM     c1 2498   0.614   1.625   2.016
  467TCM    cl1 2499   0.769   1.615   1.926
  467TCM    cl2 2500   0.487   1.690   1.908
  467TCM     h1 2501   0.585   1.526   2.051
  467TCM    cl3 2502   0.636   1.735   2.156
  468TCM     c1 2503   3.491   2.100   1.674
  468TCM    cl1 2504   3.512   2.127   1.498
  468TCM    cl2 2505   3.444   1.929   1.701
  468TCM     h1 2506   3.584   2.122   1.726
  468TCM    cl3 2507   3.361   2.209   1.735
  469TCM     c1 2508   2.658   0.753   4.099
  469TCM    cl1 2509   2.625   0.849   3.951
  469TCM    cl2 2510   2.504   0.683   4.160
  469TCM     h1 2511   2.728   0.673   4.076
  469TCM    cl3 2512   2.728   0.859   4.226
  470TCM     c1 2513   4.707   2.522   4.635
  470TCM    cl1 2514   4.666   2.594   4.794
  470TCM    cl2 2515   4.691   2.343   4.641
  470TCM     h1 2516   4.641   2.562   4.558
  470TCM    cl3 2517   4.877   2.564   4.595
  471TCM     c1 2518   3.769   0.700   2.668
  471TCM    cl1 2519   3.598   0.725   2.620
  471TCM    cl2 2520   3.870   0.833   2.604
  471TCM     h1 2521   3.776   0.698   2.777
  471TCM    cl3 2522   3.827   0.543   2.601
  472TCM     c1 2523   3.072   2.001   3.052
  472TCM    cl1 2524   3.198   1.889   2.990
  472TCM    cl2 2525   2.990   2.079   2.913
  472TCM     h1 2526   2.999   1.946   3.112
  472TCM    cl3 2527   3.151   2.128   3.152
  473TCM     c1 2528   3.568   1.515   1.500
  473TCM    cl1 2529   3.702   1.612   1.430
  473TCM    cl2 2530   3.548   1.559   1.673
  473TCM     h1 2531   3.475   1.536   1.446
  473TCM    cl3 2532   3.607   1.340   1.488
  474TCM     c1 2533   0.303   3.375   1.429
  474TCM    cl1 2534   0.135   3.311   1.421
  474TCM    cl2 2535   0.414   3.266   1.339
  474TCM     h1 2536   0.305   3.475   1.384
  474TCM    cl3 2537   0.355   3.386   1.600
  475TCM     c1 2538   2.386   3.350   4.557
  475TCM    cl1 2539   2.489   3.355   4.703
  475TCM    cl2 2540   2.248   3.463   4.576
  475TCM     h1 2541   2.445   3.378   4.469
  475TCM    cl3 2542   2.322   3.183   4.537
  476TCM     c1 2543   1.864   1.677   1.881
  476TCM    cl1 2544   1.969   1.534   1.907
  476TCM    cl2 2545   1.750   1.643   1.746
  476TCM     h1 2546   1.807   1.698   1.972
  476TCM    cl3 2547   1.966   1.819   1.840
  477TCM     c1 2548   4.556   2.507   0.231
  477TCM    cl1 2549   4.727   2.537   0.187
  477TCM    cl2 2550   4.538   2.340   0.296
  477TCM     h1 2551   4.525   2.578   0.307
  477TCM    cl3 2552   4.453   2.526   0.085
  478TCM     c1 2553   2.960   4.395   3.473
  478TCM    cl1 2554   2.919   4.220   3.469
  478TCM    cl2 2555   2.975   4.455   3.305
  478TCM     h1 2556   2.881   4.450   3.526
  478TCM    cl3 2557   3.117   4.417   3.558
  479TCM     c1 2558   0.075   3.853   0.080
  479TCM    cl1 2559  -0.042   3.853   0.217
  479TCM    cl2 2560   0.031   3.983  -0.035
  479TCM     h1 2561   0.176   3.872   0.118
  479TCM    cl3 2562   0.070   3.695  -0.003
  480TCM     c1 2563   0.948   2.470   3.305
  480TCM    cl1 2564   0.907   2.330   3.410
  480TCM    cl2 2565   0.833   2.604   3.338
  480TCM     h1 2566   1.050   2.503   3.325
  480TCM    cl3 2567   0.933   2.421   3.133
  481TCM     c1 2568   2.429   2.645   1.132
  481TCM    cl1 2569   2.257   2.681   1.095
  481TCM    cl2 2570   2.448   2.470   1.162
  481TCM     h1 2571   2.491   2.675   1.047
  481TCM    cl3 2572   2.480   2.736   1.278
  482TCM     c1 2573   4.879   3.524   3.364
  482TCM    cl1 2574   5.025   3.501   3.262
  482TCM    cl2 2575   4.761   3.393   3.330
  482TCM     h1 2576   4.907   3.521   3.470
  482TCM    cl3 2577   4.805   3.683   3.326
  483TCM     c1 2578   2.241   4.925   3.035
  483TCM    cl1 2579   2.272   4.754   3.078
  483TCM    cl2 2580   2.071   4.967   3.077
  483TCM     h1 2581   2.309   4.990   3.091
  483TCM    cl3 2582   2.266   4.950   2.859
  484TCM     c1 2583   4.882   2.727   3.948
  484TCM    cl1 2584   5.039   2.745   4.034
  484TCM    cl2 2585   4.790   2.880   3.962
  484TCM     h1 2586   4.901   2.705   3.842
  484TCM    cl3 2587   4.788   2.593   4.021
  485TCM     c1 2588   2.455   2.156   3.431
  485TCM    cl1 2589   2.451   2.056   3.580
  485TCM    cl2 2590   2.371   2.069   3.298
  485TCM     h1 2591   2.405   2.251   3.450
  485TCM    cl3 2592   2.625   2.186   3.383
  486TCM     c1 2593   1.940   0.772   3.885
  486TCM    cl1 2594   1.981   0.650   4.010
  486TCM    cl2 2595   1.879   0.921   3.964
  486TCM     h1 2596   2.028   0.796   3.826
  486TCM    cl3 2597   1.813   0.705   3.777
  487TCM     c1 2598   1.103   0.097   0.420
  487TCM    cl1 2599   1.217  -0.042   0.408
  487TCM    cl2 2600   0.946   0.051   0.347
  487TCM     h1 2601   1.088   0.122   0.526
  487TCM    cl3 2602   1.172   0.238   0.333
  488TCM     c1 2603   4.004   1.095   3.365
  488TCM    cl1 2604   4.053   1.151   3.202
  488TCM    cl2 2605   3.885   1.211   3.433
  488TCM     h1 2606   3.958   0.996   3.357
  488TCM    cl3 2607   4.148   1.086   3.471
  489TCM     c1 2608   3.261   4.699   3.264
  489TCM    cl1 2609   3.372   4.828   3.208
  489TCM    cl2 2610   3.192   4.744   3.423
  489TCM     h1 2611   3.180   4.685   3.192
  489TCM    cl3 2612   3.351   4.545   3.282
  490TCM     c1 2613   2.542   2.303   2.879
  490TCM    cl1 2614   2.539   2.147   2.968
  490TCM    cl2 2615   2.401   2.403   2.929
  490TCM     h1 2616   2.635   2.356   2.902
  490TCM    cl3 2617   2.533   2.273   2.703
  491TCM     c1 2618   1.518   0.581   0.227
  491TCM    cl1 2619   1.641   0.680   0.313
  491TCM    cl2 2620   1.493   0.645   0.062
  491TCM     h1 2621   1.553   0.477   0.221
  491TCM    cl3 2622   1.363   0.586   0.318
  492TCM     c1 2623   2.207   4.348   4.251
  492TCM    cl1 2624   2.106   4.495   4.231
  492TCM    cl2 2625   2.182   4.283   4.416
  492TCM     h1 2626   2.178   4.273   4.177
  492TCM    cl3 2627   2.381   4.390   4.230
  493TCM     c1 2628   0.732   3.746   4.972
  493TCM    cl1 2629   0.856   3.837   4.879
  493TCM    cl2 2630   0.589   3.715   4.867
  493TCM     h1 2631   0.774   3.651   5.006
  493TCM    cl3 2632   0.680   3.842   5.114
  494TCM     c1 2633   0.078   2.840   1.554
  494TCM    cl1 2634  -0.018   2.970   1.476
  494TCM    cl2 2635   0.119   2.887   1.722
  494TCM     h1 2636   0.019   2.748   1.555
  494TCM    cl3 2637   0.229   2.814   1.461
  495TCM     c1 2638   3.265   1.041   3.148
  495TCM    cl1 2639   3.357   0.952   3.273
  495TCM    cl2 2640   3.378   1.096   3.020
  495TCM     h1 2641   3.189   0.976   3.104
  495TCM    cl3 2642   3.184   1.184   3.222
  496TCM     c1 2643   4.991   1.402   1.926
  496TCM    cl1 2644   5.149   1.426   2.007
  496TCM    cl2 2645   4.894   1.279   2.013
  496TCM     h1 2646   4.936   1.497   1.924
  496TCM    cl3 2647   5.020   1.347   1.757
  497TCM     c1 2648   1.911   4.803   1.239
  497TCM    cl1 2649   1.863   4.669   1.130
  497TCM    cl2 2650   2.088   4.798   1.266
  497TCM     h1 2651   1.884   4.899   1.194
  497TCM    cl3 2652   1.826   4.785   1.396
  498TCM     c1 2653   2.707   3.065   3.762
  498TCM    cl1 2654   2.616   3.079   3.917
  498TCM    cl2 2655   2.883   3.080   3.796
  498TCM     h1 2656   2.687   2.967   3.717
  498TCM    cl3 2657   2.656   3.195   3.650
  499TCM     c1 2658   0.097   3.144   1.058
  499TCM    cl1 2659   0.187   3.298   1.036
  499TCM    cl2 2660  -0.061   3.180   1.136
  499TCM     h1 2661   0.080   3.097   0.961
  499TCM    cl3 2662   0.192   3.034   1.163
  500TCM     c1 2663   1.865   0.404   4.903
  500TCM    cl1 2664   1.824   0.268   4.794
  500TCM    cl2 2665   2.042   0.404   4.934
  500TCM     h1 2666   1.837   0.499   4.857
  500TCM    cl3 2667   1.777   0.384   5.059
  501TCM     c1 2668   0.725   1.946   2.940
  501TCM    cl1 2669   0.782   1.798   2.855
  501TCM    cl2 2670   0.866   2.050   2.978
  501TCM     h1 2671   0.656   2.001   2.876
  501TCM    cl3 2672   0.642   1.899   3.092
  502TCM     c1 2673   2.584   3.625   2.182
  502TCM    cl1 2674   2.699   3.589   2.050
  502TCM    cl2 2675   2.664   3.595   2.340
  502TCM     h1 2676   2.552   3.729   2.176
  502TCM    cl3 2677   2.441   3.517   2.166
  503TCM     c1 2678   1.477   0.536   2.763
  503TCM    cl1 2679   1.372   0.551   2.908
  503TCM    cl2 2680   1.442   0.380   2.682
  503TCM     h1 2681   1.457   0.619   2.694
  503TCM    cl3 2682   1.649   0.540   2.813
  504TCM     c1 2683   4.987   0.258   2.868
  504TCM    cl1 2684   4.969   0.083   2.833
  504TCM    cl2 2685   5.162   0.296   2.882
  504TCM     h1 2686   4.943   0.317   2.788
  504TCM    cl3 2687   4.905   0.294   3.024
  505TCM     c1 2688   2.611   3.838   3.039
  505TCM    cl1 2689   2.519   3.985   2.991
  505TCM    cl2 2690   2.617   3.725   2.899
  505TCM     h1 2691   2.712   3.867   3.067
  505TCM    cl3 2692   2.529   3.759   3.177
  506TCM     c1 2693   0.087   0.044   4.858
  506TCM    cl1 2694  -0.045   0.107   4.962
  506TCM    cl2 2695   0.044  -0.121   4.802
  506TCM     h1 2696   0.100   0.110   4.772
  506TCM    cl3 2697   0.241   0.035   4.950
  507TCM     c1 2698   1.387   3.895   4.985
  507TCM    cl1 2699   1.214   3.850   4.975
  507TCM    cl2 2700   1.473   3.781   5.094
  507TCM     h1 2701   1.432   3.891   4.886
  507TCM    cl3 2702   1.402   4.061   5.052
  508TCM     c1 2703   0.405   1.972   3.361
  508TCM    cl1 2704   0.315   2.053   3.228
  508TCM    cl2 2705   0.387   1.795   3.343
  508TCM     h1 2706   0.511   1.999   3.356
  508TCM    cl3 2707   0.338   2.024   3.519
  509TCM     c1 2708   4.689   0.414   4.718
  509TCM    cl1 2709   4.765   0.428   4.880
  509TCM    cl2 2710   4.693   0.573   4.635
  509TCM     h1 2711   4.744   0.341   4.658
  509TCM    cl3 2712   4.518   0.361   4.736
  510TCM     c1 2713   4.063   2.228   2.355
  510TCM    cl1 2714   3.913   2.139   2.397
  510TCM    cl2 2715   4.048   2.397   2.412
  510TCM     h1 2716   4.149   2.180   2.404
  510TCM    cl3 2717   4.086   2.227   2.178
  511TCM     c1 2718   3.139   4.742   1.574
  511TCM    cl1 2719   3.304   4.731   1.644
  511TCM    cl2 2720   3.127   4.890   1.472
  511TCM     h1 2721   3.120   4.654   1.512
  511TCM    cl3 2722   3.018   4.751   1.706
  512TCM     c1 2723  -0.000   4.975   0.561
  512TCM    cl1 2724   0.119   5.094   0.623
  512TCM    cl2 2725  -0.134   5.062   0.480
  512TCM     h1 2726   0.049   4.909   0.489
  512TCM    cl3 2727  -0.065   4.877   0.696
  513TCM     c1 2728   3.879   0.051   0.172
  513TCM    cl1 2729   3.958  -0.057   0.292
  513TCM    cl2 2730   3.922  -0.003   0.007
  513TCM     h1 2731   3.770   0.046   0.185
  513TCM    cl3 2732   3.935   0.219   0.198
  514TCM     c1 2733   0.761   0.251   2.412
  514TCM    cl1 2734   0.634   0.366   2.360
  514TCM    cl2 2735   0.824   0.164   2.268
  514TCM     h1 2736   0.842   0.305   2.461
  514TCM    cl3 2737   0.690   0.131   2.525
  515TCM     c1 2738   2.828   0.045   4.201
  515TCM    cl1 2739   2.687  -0.046   4.135
  515TCM    cl2 2740   2.978  -0.047   4.168
  515TCM     h1 2741   2.833   0.143   4.153
  515TCM    cl3 2742   2.810   0.065   4.378
  516TCM     c1 2743   4.268   4.051   1.697
  516TCM    cl1 2744   4.142   3.948   1.622
  516TCM    cl2 2745   4.323   3.975   1.850
  516TCM     h1 2746   4.353   4.062   1.629
  516TCM    cl3 2747   4.198   4.213   1.733
  517TCM     c1 2748   3.101   3.679   4.830
  517TCM    cl1 2749   3.103   3.692   5.009
  517TCM    cl2 2750   3.205   3.543   4.778
  517TCM     h1 2751   2.998   3.660   4.796
  517TCM    cl3 2752   3.161   3.831   4.758
  518TCM     c1 2753   2.541   0.356   4.285
  518TCM    cl1 2754   2.669   0.397   4.404
  518TCM    cl2 2755   2.462   0.202   4.334
  518TCM     h1 2756   2.466   0.435   4.283
  518TCM    cl3 2757   2.615   0.337   4.123
  519TCM     c1 2758   3.165   3.317   1.908
  519TCM    cl1 2759   3.336   3.262   1.910
  519TCM    cl2 2760   3.148   3.464   2.010
  519TCM     h1 2761   3.136   3.340   1.806
  519TCM    cl3 2762   3.060   3.186   1.972
  520TCM     c1 2763   4.943   3.086   3.253
  520TCM    cl1 2764   5.010   3.168   3.109
  520TCM    cl2 2765   5.017   3.154   3.402
  520TCM     h1 2766   4.834   3.101   3.257
  520TCM    cl3 2767   4.979   2.911   3.244
  521TCM     c1 2768   1.534   3.300   2.869
  521TCM    cl1 2769   1.672   3.211   2.796
  521TCM    cl2 2770   1.591   3.387   3.016
  521TCM     h1 2771   1.494   3.372   2.798
  521TCM    cl3 2772   1.405   3.184   2.915
  522TCM     c1 2773   2.687   4.181   1.687
  522TCM    cl1 2774   2.679   4.115   1.520
  522TCM    cl2 2775   2.548   4.119   1.782
  522TCM     h1 2776   2.781   4.150   1.734
  522TCM    cl3 2777   2.680   4.360   1.679
  523TCM     c1 2778   0.277   1.408   2.805
  523TCM    cl1 2779   0.196   1.484   2.664
  523TCM    cl2 2780   0.453   1.437   2.796
  523TCM     h1 2781   0.237   1.451   2.898
  523TCM    cl3 2782   0.247   1.231   2.804
  524TCM     c1 2783   4.407   3.187   2.793
  524TCM    cl1 2784   4.319   3.167   2.638
  524TCM    cl2 2785   4.289   3.228   2.922
  524TCM     h1 2786   4.459   3.095   2.818
  524TCM    cl3 2787   4.524   3.322   2.776
  525TCM     c1 2788   2.495   4.612   2.568
  525TCM    cl1 2789   2.654   4.542   2.524
  525TCM    cl2 2790   2.504   4.676   2.735
  525TCM     h1 2791   2.470   4.693   2.499
  525TCM    cl3 2792   2.368   4.486   2.557
  526TCM     c1 2793   2.860   3.078   2.361
  526TCM    cl1 2794   2.962   2.972   2.463
  526TCM    cl2 2795   2.821   2.993   2.208
  526TCM     h1 2796   2.767   3.102   2.414
  526TCM    cl3 2797   2.948   3.231   2.325
  527TCM     c1 2798   1.962   3.354   4.231
  527TCM    cl1 2799   1.972   3.463   4.089
  527TCM    cl2 2800   1.933   3.450   4.379
  527TCM     h1 2801   1.879   3.284   4.217
  527TCM    cl3 2802   2.116   3.263   4.248
  528TCM     c1 2803   0.011   1.853   0.280
  528TCM    cl1 2804   0.083   1.760   0.145
  528TCM    cl2 2805  -0.061   1.740   0.399
  528TCM     h1 2806   0.088   1.913   0.329
  528TCM    cl3 2807  -0.118   1.962   0.217
  529TCM     c1 2808   1.963   2.855   1.991
  529TCM    cl1 2809   1.958   2.879   2.169
  529TCM    cl2 2810   2.086   2.965   1.920
  529TCM     h1 2811   1.990   2.752   1.969
  529TCM    cl3 2812   1.802   2.892   1.921
  530TCM     c1 2813   1.904   0.803   4.877
  530TCM    cl1 2814   1.746   0.749   4.809
  530TCM    cl2 2815   2.037   0.734   4.778
  530TCM     h1 2816   1.909   0.912   4.874
  530TCM    cl3 2817   1.919   0.746   5.046
  531TCM     c1 2818   0.394   0.000   4.153
  531TCM    cl1 2819   0.430   0.070   4.314
  531TCM    cl2 2820   0.541   0.008   4.050
  531TCM     h1 2821   0.363  -0.104   4.164
  531TCM    cl3 2822   0.262   0.095   4.076
  532TCM     c1 2823   1.804   4.320   1.541
  532TCM    cl1 2824   1.852   4.402   1.389
  532TCM    cl2 2825   1.952   4.279   1.634
  532TCM     h1 2826   1.741   4.386   1.600
  532TCM    cl3 2827   1.715   4.170   1.501
  533TCM     c1 2828   4.858   0.931   3.917
  533TCM    cl1 2829   4.931   0.823   4.040
  533TCM    cl2 2830   4.723   0.844   3.837
  533TCM     h1 2831   4.819   1.021   3.966
  533TCM    cl3 2832   4.981   0.976   3.795
  534TCM     c1 2833   2.262   3.037   0.004
  534TCM    cl1 2834   2.153   3.079  -0.132
  534TCM    cl2 2835   2.180   3.068   0.160
  534TCM     h1 2836   2.289   2.932  -0.003
  534TCM    cl3 2837   2.410   3.138  -0.007
  535TCM     c1 2838   2.584   4.281   1.211
  535TCM    cl1 2839   2.592   4.435   1.303
  535TCM    cl2 2840   2.620   4.312   1.038
  535TCM     h1 2841   2.657   4.211   1.251
  535TCM    cl3 2842   2.419   4.213   1.227
  536TCM     c1 2843   1.518   0.940   3.832
  536TCM    cl1 2844   1.507   0.860   3.992
  536TCM    cl2 2845   1.583   1.106   3.853
  536TCM     h1 2846   1.585   0.882   3.767
  536TCM    cl3 2847   1.355   0.950   3.759
  537TCM     c1 2848   1.564   1.062   2.631
  537TCM    cl1 2849   1.420   1.089   2.527
  537TCM    cl2 2850   1.576   0.888   2.674
  537TCM     h1 2851   1.654   1.094   2.578
  537TCM    cl3 2852   1.545   1.158   2.781
  538TCM     c1 2853   1.867   2.795   3.407
  538TCM    cl1 2854   1.975   2.912   3.324
  538TCM    cl2 2855   1.908   2.789   3.582
  538TCM     h1 2856   1.763   2.826   3.395
  538TCM    cl3 2857   1.890   2.632   3.335
  539TCM     c1 2858   3.860   4.331   2.925
  539TCM    cl1 2859   3.814   4.415   3.076
  539TCM    cl2 2860   3.818   4.434   2.784
  539TCM     h1 2861   3.968   4.311   2.925
  539TCM    cl3 2862   3.771   4.175   2.913
  540TCM     c1 2863   2.624   4.942   0.373
  540TCM    cl1 2864   2.781   4.906   0.294
  540TCM    cl2 2865   2.546   5.080   0.288
  540TCM     h1 2866   2.559   4.855   0.367
  540TCM    cl3 2867   2.652   4.985   0.545
  541TCM     c1 2868   1.572   3.525   4.118
  541TCM    cl1 2869   1.665   3.645   4.213
  541TCM    cl2 2870   1.622   3.360   4.166
  541TCM     h1 2871   1.465   3.537   4.137
  541TCM    cl3 2872   1.605   3.548   3.943
  542TCM     c1 2873   2.343   2.076   0.964
  542TCM    cl1 2874   2.314   2.244   0.907
  542TCM    cl2 2875   2.197   2.016   1.050
  542TCM     h1 2876   2.364   2.012   0.878
  542TCM    cl3 2877   2.483   2.074   1.076
  543TCM     c1 2878   2.944   0.008   3.646
  543TCM    cl1 2879   3.120   0.028   3.620
  543TCM    cl2 2880   2.907   0.043   3.818
  543TCM     h1 2881   2.889   0.077   3.582
  543TCM    cl3 2882   2.896  -0.161   3.607
  544TCM     c1 2883   2.018   1.188   2.025
  544TCM    cl1 2884   2.178   1.114   2.058
  544TCM    cl2 2885   1.968   1.284   2.168
  544TCM     h1 2886   2.025   1.253   1.937
  544TCM    cl3 2887   1.897   1.059   1.995
  545TCM     c1 2888   2.160   2.412   0.117
  545TCM    cl1 2889   2.100   2.516   0.250
  545TCM    cl2 2890   2.181   2.245   0.180
  545TCM     h1 2891   2.088   2.411   0.035
  545TCM    cl3 2892   2.317   2.475   0.058
  546TCM     c1 2893   3.821   2.246   4.516
  546TCM    cl1 2894   3.912   2.326   4.649
  546TCM    cl2 2895   3.918   2.110   4.451
  546TCM     h1 2896   3.726   2.209   4.554
  546TCM    cl3 2897   3.791   2.365   4.385
  547TCM     c1 2898   0.826   0.562   2.073
  547TCM    cl1 2899   0.723   0.429   2.010
  547TCM    cl2 2900   0.947   0.496   2.186
  547TCM     h1 2901   0.877   0.611   1.989
  547TCM    cl3 2902   0.723   0.682   2.158
  548TCM     c1 2903   0.072   2.881   3.620
  548TCM    cl1 2904   0.091   3.005   3.748
  548TCM    cl2 2905  -0.103   2.847   3.597
  548TCM     h1 2906   0.115   2.917   3.526
  548TCM    cl3 2907   0.156   2.730   3.671
  549TCM     c1 2908   4.389   4.754   0.609
  549TCM    cl1 2909   4.369   4.722   0.785
  549TCM    cl2 2910   4.527   4.865   0.583
  549TCM     h1 2911   4.408   4.660   0.558
  549TCM    cl3 2912   4.239   4.828   0.545
  550TCM     c1 2913   0.103   4.144   1.032
  550TCM    cl1 2914   0.054   3.975   0.997
  550TCM    cl2 2915  -0.029   4.229   1.120
  550TCM     h1 2916   0.193   4.143   1.093
  550TCM    cl3 2917   0.135   4.229   0.878
  551TCM     c1 2918   2.049   2.256   3.643
  551TCM    cl1 2919   2.048   2.432   3.606
  551TCM    cl2 2920   2.179   2.221   3.760
  551TCM     h1 2921   1.952   2.227   3.685
  551TCM    cl3 2922   2.078   2.164   3.492
  552TCM     c1 2923   0.417   4.098   1.325
  552TCM    cl1 2924   0.403   3.978   1.192
  552TCM    cl2 2925   0.391   4.262   1.257
  552TCM     h1 2926   0.342   4.078   1.402
  552TCM    cl3 2927   0.581   4.089   1.397
  553TCM     c1 2928   1.529   3.732   0.458
  553TCM    cl1 2929   1.651   3.606   0.419
  553TCM    cl2 2930   1.611   3.889   0.484
  553TCM     h1 2931   1.459   3.741   0.375
  553TCM    cl3 2932   1.440   3.685   0.607
  554TCM     c1 2933   3.194   1.964   2.613
  554TCM    cl1 2934   3.327   1.899   2.512
  554TCM    cl2 2935   3.048   1.861   2.594
  554TCM     h1 2936   3.225   1.964   2.718
  554TCM    cl3 2937   3.155   2.131   2.563
  555TCM     c1 2938   1.811   2.654   2.433
  555TCM    cl1 2939   1.870   2.718   2.590
  555TCM    cl2 2940   1.674   2.542   2.462
  555TCM     h1 2941   1.777   2.737   2.370
  555TCM    cl3 2942   1.944   2.567   2.351
  556TCM     c1 2943   2.998   4.987   1.988
  556TCM    cl1 2944   2.870   5.061   1.886
  556TCM    cl2 2945   2.922   4.884   2.114
  556TCM     h1 2946   3.065   4.927   1.926
  556TCM    cl3 2947   3.092   5.117   2.069
  557TCM     c1 2948   0.726   2.568   4.171
  557TCM    cl1 2949   0.797   2.549   4.335
  557TCM    cl2 2950   0.763   2.422   4.073
  557TCM     h1 2951   0.618   2.580   4.179
  557TCM    cl3 2952   0.798   2.712   4.092
  558TCM     c1 2953   4.707   3.422   4.936
  558TCM    cl1 2954   4.834   3.378   5.055
  558TCM    cl2 2955   4.694   3.293   4.812
  558TCM     h1 2956   4.611   3.434   4.987
  558TCM    cl3 2957   4.751   3.577   4.856
  559TCM     c1 2958   0.003   1.793   3.687
  559TCM    cl1 2959   0.059   1.951   3.749
  559TCM    cl2 2960   0.078   1.761   3.527
  559TCM     h1 2961   0.031   1.714   3.757
  559TCM    cl3 2962  -0.176   1.796   3.669
  560TCM     c1 2963   3.983   2.237   2.749
  560TCM    cl1 2964   4.024   2.320   2.903
  560TCM    cl2 2965   3.842   2.129   2.774
  560TCM     h1 2966   3.959   2.312   2.673
  560TCM    cl3 2967   4.124   2.139   2.696
  561TCM     c1 2968   1.425   2.681   4.966
  561TCM    cl1 2969   1.458   2.853   5.003
  561TCM    cl2 2970   1.318   2.670   4.822
  561TCM     h1 2971   1.519   2.629   4.945
  561TCM    cl3 2972   1.344   2.604   5.106
  562TCM     c1 2973   3.553   1.776   2.958
  562TCM    cl1 2974   3.540   1.887   2.818
  562TCM    cl2 2975   3.582   1.872   3.107
  562TCM     h1 2976   3.460   1.720   2.969
  562TCM    cl3 2977   3.689   1.663   2.931
  563TCM     c1 2978   2.763   4.943   1.011
  563TCM    cl1 2979   2.836   5.072   1.113
  563TCM    cl2 2980   2.585   4.942   1.036
  563TCM     h1 2981   2.784   4.964   0.906
  563TCM    cl3 2982   2.831   4.784   1.057
  564TCM     c1 2983   1.670   3.785   0.885
  564TCM    cl1 2984   1.722   3.746   1.052
  564TCM    cl2 2985   1.771   3.694   0.768
  564TCM     h1 2986   1.565   3.756   0.871
  564TCM    cl3 2987   1.688   3.961   0.856
  565TCM     c1 2988   4.962   2.827   4.841
  565TCM    cl1 2989   4.886   2.986   4.876
  565TCM    cl2 2990   4.974   2.734   4.994
  565TCM     h1 2991   4.900   2.773   4.769
  565TCM    cl3 2992   5.126   2.852   4.773
  566TCM     c1 2993   2.918   4.737   2.897
  566TCM    cl1 2994   3.078   4.799   2.951
  566TCM    cl2 2995   2.934   4.666   2.733
  566TCM     h1 2996   2.883   4.660   2.967
  566TCM    cl3 2997   2.800   4.872   2.892
  567TCM     c1 2998   4.458   3.694   3.619
  567TCM    cl1 2999   4.330   3.618   3.719
  567TCM    cl2 3000   4.393   3.725   3.455
  567TCM     h1 3001   4.490   3.788   3.665
  567TCM    cl3 3002   4.598   3.582   3.607
  568TCM     c1 3003   1.525   0.917   3.066
  568TCM    cl1 3004   1.685   0.838   3.040
  568TCM    cl2 3005   1.551   1.071   3.153
  568TCM     h1 3006   1.478   0.936   2.969
  568TCM    cl3 3007   1.422   0.809   3.165
  569TCM     c1 3008   3.080   2.486   4.885
  569TCM    cl1 3009   2.995   2.525   4.732
  569TCM    cl2 3010   3.066   2.311   4.918
  569TCM     h1 3011   3.186   2.514   4.876
  569TCM    cl3 3012   3.004   2.577   5.019
  570TCM     c1 3013   2.303   4.013   0.313
  570TCM    cl1 3014   2.163   4.012   0.202
  570TCM    cl2 3015   2.278   3.889   0.441
  570TCM     h1 3016   2.394   3.989   0.257
  570TCM    cl3 3017   2.322   4.174   0.389
  571TCM     c1 3018   3.542   1.627   0.104
  571TCM    cl1 3019   3.461   1.764   0.021
  571TCM    cl2 3020   3.550   1.486  -0.007
  571TCM     h1 3021   3.644   1.657   0.133
  571TCM    cl3 3022   3.450   1.583   0.251
  572TCM     c1 3023   2.525   1.684   3.745
  572TCM    cl1 3024   2.681   1.621   3.807
  572TCM    cl2 3025   2.447   1.787   3.870
  572TCM     h1 3026   2.543   1.743   3.655
  572TCM    cl3 3027   2.417   1.546   3.707
  573TCM     c1 3028   1.132   1.005   2.876
  573TCM    cl1 3029   1.250   0.885   2.814
  573TCM    cl2 3030   1.130   1.148   2.766
  573TCM     h1 3031   1.032   0.960   2.879
  573TCM    cl3 3032   1.180   1.057   3.040
  574TCM     c1 3033   2.792   4.198   4.965
  574TCM    cl1 3034   2.759   4.159   5.136
  574TCM    cl2 3035   2.653   4.142   4.866
  574TCM     h1 3036   2.804   4.306   4.953
  574TCM    cl3 3037   2.941   4.114   4.912
  575TCM     c1 3038   2.294   4.491   1.517
  575TCM    cl1 3039   2.193   4.585   1.632
  575TCM    cl2 3040   2.204   4.470   1.363
  575TCM     h1 3041   2.388   4.544   1.498
  575TCM    cl3 3042   2.329   4.329   1.586
  576TCM     c1 3043   0.885   2.716   4.987
  576TCM    cl1 3044   0.709   2.682   5.002
  576TCM    cl2 3045   0.941   2.663   4.825
  576TCM     h1 3046   0.903   2.823   4.998
  576TCM    cl3 3047   0.974   2.626   5.114
  577TCM     c1 3048   1.735   1.181   1.585
  577TCM    cl1 3049   1.583   1.264   1.539
  577TCM    cl2 3050   1.697   1.017   1.648
  577TCM     h1 3051   1.801   1.173   1.498
  577TCM    cl3 3052   1.817   1.276   1.714
  578TCM     c1 3053   0.177   3.599   3.639
  578TCM    cl1 3054   0.044   3.718   3.626
  578TCM    cl2 3055   0.286   3.617   3.498
  578TCM     h1 3056   0.232   3.616   3.732
  578TCM    cl3 3057   0.108   3.433   3.640
  579TCM     c1 3058   0.192   0.245   3.756
  579TCM    cl1 3059   0.358   0.308   3.781
  579TCM    cl2 3060   0.201   0.076   3.695
  579TCM     h1 3061   0.137   0.247   3.850
  579TCM    cl3 3062   0.107   0.346   3.634
  580TCM     c1 3063   4.473   0.075   3.064
  580TCM    cl1 3064   4.516   0.231   3.141
  580TCM    cl2 3065   4.616   0.009   2.978
  580TCM     h1 3066   4.440   0.003   3.140
  580TCM    cl3 3067   4.341   0.102   2.946
  581TCM     c1 3068   3.165   3.992   1.310
  581TCM    cl1 3069   3.305   4.047   1.409
  581TCM    cl2 3070   3.146   3.814   1.331
  581TCM     h1 3071   3.074   4.043   1.343
  581TCM    cl3 3072   3.196   4.028   1.137
  582TCM     c1 3073   4.475   4.301   3.721
  582TCM    cl1 3074   4.517   4.383   3.875
  582TCM    cl2 3075   4.509   4.126   3.737
  582TCM     h1 3076   4.369   4.316   3.699
  582TCM    cl3 3077   4.575   4.370   3.588
  583TCM     c1 3078   1.119   3.681   0.340
  583TCM    cl1 3079   1.247   3.561   0.304
  583TCM    cl2 3080   0.991   3.671   0.215
  583TCM     h1 3081   1.076   3.660   0.438
  583TCM    cl3 3082   1.190   3.846   0.342
  584TCM     c1 3083   0.276   2.254   0.007
  584TCM    cl1 3084   0.186   2.103   0.044
  584TCM    cl2 3085   0.423   2.213  -0.087
  584TCM     h1 3086   0.214   2.322  -0.050
  584TCM    cl3 3087   0.325   2.332   0.161
  585TCM     c1 3088   1.122   0.214   2.576
  585TCM    cl1 3089   1.014   0.315   2.678
  585TCM    cl2 3090   1.143   0.291   2.416
  585TCM     h1 3091   1.219   0.205   2.625
  585TCM    cl3 3092   1.049   0.051   2.556
  586TCM     c1 3093   0.899   1.306   4.152
  586TCM    cl1 3094   0.815   1.447   4.225
  586TCM    cl2 3095   0.842   1.281   3.984
  586TCM     h1 3096   1.006   1.324   4.152
  586TCM    cl3 3097   0.862   1.159   4.249
  587TCM     c1 3098   4.005   2.720   4.547
  587TCM    cl1 3099   4.072   2.622   4.412
  587TCM    cl2 3100   4.078   2.665   4.702
  587TCM     h1 3101   4.027   2.825   4.531
  587TCM    cl3 3102   3.827   2.696   4.555
  588TCM     c1 3103   2.153   3.426   0.120
  588TCM    cl1 3104   2.204   3.434  -0.051
  588TCM    cl2 3105   1.983   3.369   0.128
  588TCM     h1 3106   2.218   3.357   0.174
  588TCM    cl3 3107   2.164   3.589   0.195
  589TCM     c1 3108   1.378   0.215   0.728
  589TCM    cl1 3109   1.456   0.076   0.646
  589TCM    cl2 3110   1.210   0.170   0.772
  589TCM     h1 3111   1.434   0.241   0.818
  589TCM    cl3 3112   1.373   0.355   0.616
  590TCM     c1 3113   0.395   3.712   0.353
  590TCM    cl1 3114   0.376   3.664   0.181
  590TCM    cl2 3115   0.345   3.576   0.459
  590TCM     h1 3116   0.499   3.739   0.373
  590TCM    cl3 3117   0.289   3.854   0.387
  591TCM     c1 3118   2.922   1.461   3.267
  591TCM    cl1 3119   2.972   1.628   3.222
  591TCM    cl2 3120   2.850   1.381   3.123
  591TCM     h1 3121   3.009   1.405   3.300
  591TCM    cl3 3122   2.801   1.469   3.399
  592TCM     c1 3123   2.586   4.548   0.137
  592TCM    cl1 3124   2.515   4.712   0.118
  592TCM    cl2 3125   2.761   4.555   0.101
  592TCM     h1 3126   2.570   4.514   0.240
  592TCM    cl3 3127   2.506   4.435   0.023
  593TCM     c1 3128   3.372   3.560   3.185
  593TCM    cl1 3129   3.543   3.528   3.140
  593TCM    cl2 3130   3.340   3.736   3.174
  593TCM     h1 3131   3.305   3.506   3.116
  593TCM    cl3 3132   3.342   3.504   3.352
  594TCM     c1 3133   2.783   3.965   0.722
  594TCM    cl1 3134   2.635   4.050   0.668
  594TCM    cl2 3135   2.775   3.793   0.671
  594TCM     h1 3136   2.871   4.012   0.677
  594TCM    cl3 3137   2.796   3.974   0.901
  595TCM     c1 3138   4.400   4.192   1.024
  595TCM    cl1 3139   4.430   4.351   0.947
  595TCM    cl2 3140   4.540   4.148   1.127
  595TCM     h1 3141   4.310   4.198   1.086
  595TCM    cl3 3142   4.377   4.069   0.896
  596TCM     c1 3143   4.644   2.900   0.175
  596TCM    cl1 3144   4.480   2.860   0.236
  596TCM    cl2 3145   4.764   2.869   0.304
  596TCM     h1 3146   4.667   2.838   0.087
  596TCM    cl3 3147   4.649   3.074   0.130
  597TCM     c1 3148   2.755   0.860   2.138
  597TCM    cl1 3149   2.729   0.684   2.118
  597TCM    cl2 3150   2.743   0.939   1.978
  597TCM     h1 3151   2.679   0.901   2.205
  597TCM    cl3 3152   2.919   0.888   2.207
  598TCM     c1 3153   3.401   4.414   2.930
  598TCM    cl1 3154   3.228   4.455   2.953
  598TCM    cl2 3155   3.448   4.286   3.046
  598TCM     h1 3156   3.417   4.378   2.828
  598TCM    cl3 3157   3.501   4.561   2.957
  599TCM     c1 3158   3.615   3.661   3.643
  599TCM    cl1 3159   3.764   3.662   3.742
  599TCM    cl2 3160   3.510   3.525   3.693
  599TCM     h1 3161   3.562   3.756   3.656
  599TCM    cl3 3162   3.660   3.640   3.470
  600TCM     c1 3163   4.030   0.431   4.913
  600TCM    cl1 3164   4.169   0.510   4.831
  600TCM    cl2 3165   3.953   0.314   4.801
  600TCM     h1 3166   4.065   0.378   5.002
  600TCM    cl3 3167   3.910   0.555   4.962
  601TCM     c1 3168   3.114   3.199   3.533
  601TCM    cl1 3169   3.261   3.261   3.616
  601TCM    cl2 3170   3.154   3.165   3.362
  601TCM     h1 3171   3.081   3.107   3.582
  601TCM    cl3 3172   2.984   3.321   3.541
  602TCM     c1 3173   0.638   2.424   1.695
  602TCM    cl1 3174   0.784   2.423   1.799
  602TCM    cl2 3175   0.628   2.269   1.605
  602TCM     h1 3176   0.548   2.436   1.757
  602TCM    cl3 3177   0.649   2.559   1.578
  603TCM     c1 3178   0.001   4.239   2.991
  603TCM    cl1 3179  -0.010   4.415   2.958
  603TCM    cl2 3180   0.117   4.211   3.125
  603TCM     h1 3181  -0.097   4.200   3.018
  603TCM    cl3 3182   0.060   4.153   2.844
  604TCM     c1 3183   2.149   3.456   1.349
  604TCM    cl1 3184   2.244   3.351   1.238
  604TCM    cl2 3185   2.250   3.500   1.491
  604TCM     h1 3186   2.119   3.547   1.296
  604TCM    cl3 3187   2.002   3.368   1.404
  605TCM     c1 3188   4.921   1.309   2.452
  605TCM    cl1 3189   5.011   1.417   2.340
  605TCM    cl2 3190   5.023   1.167   2.492
  605TCM     h1 3191   4.897   1.364   2.544
  605TCM    cl3 3192   4.770   1.254   2.373
  606TCM     c1 3193   4.016   3.235   3.663
  606TCM    cl1 3194   3.986   3.059   3.685
  606TCM    cl2 3195   4.187   3.271   3.703
  606TCM     h1 3196   3.996   3.262   3.559
  606TCM    cl3 3197   3.908   3.328   3.772
  607TCM     c1 3198   1.607   3.163   3.305
  607TCM    cl1 3199   1.663   3.055   3.174
  607TCM    cl2 3200   1.669   3.103   3.463
  607TCM     h1 3201   1.644   3.265   3.288
  607TCM    cl3 3202   1.428   3.163   3.310
  608TCM     c1 3203   2.432   3.081   2.442
  608TCM    cl1 3204   2.319   3.123   2.575
  608TCM    cl2 3205   2.546   2.954   2.498
  608TCM     h1 3206   2.375   3.043   2.356
  608TCM    cl3 3207   2.524   3.227   2.394
  609TCM     c1 3208   1.882   2.804   0.003
  609TCM    cl1 3209   1.782   2.667   0.062
  609TCM    cl2 3210   1.822   2.855  -0.159
  609TCM     h1 3211   1.875   2.887   0.073
  609TCM    cl3 3212   2.052   2.750  -0.012
  610TCM     c1 3213   4.843   0.770   2.721
  610TCM    cl1 3214   4.903   0.602   2.739
  610TCM    cl2 3215   4.825   0.809   2.546
  610TCM     h1 3216   4.746   0.780   2.770
  610TCM    cl3 3217   4.960   0.884   2.795
  611TCM     c1 3218   0.152   2.149   1.145
  611TCM    cl1 3219   0.055   2.090   1.006
  611TCM    cl2 3220   0.077   2.298   1.211
  611TCM     h1 3221   0.156   2.072   1.222
  611TCM    cl3 3222   0.318   2.186   1.089
  612TCM     c1 3223   2.996   3.951   0.310
  612TCM    cl1 3224   3.029   3.796   0.392
  612TCM    cl2 3225   3.138   3.997   0.211
  612TCM     h1 3226   2.908   3.941   0.246
  612TCM    cl3 3227   2.966   4.078   0.434
  613TCM     c1 3228   2.513   4.235   3.441
  613TCM    cl1 3229   2.574   4.194   3.604
  613TCM    cl2 3230   2.539   4.095   3.332
  613TCM     h1 3231   2.407   4.259   3.446
  613TCM    cl3 3232   2.604   4.376   3.377
  614TCM     c1 3233   2.237   4.260   1.935
  614TCM    cl1 3234   2.335   4.236   2.084
  614TCM    cl2 3235   2.125   4.398   1.959
  614TCM     h1 3236   2.304   4.281   1.851
  614TCM    cl3 3237   2.143   4.111   1.902
  615TCM     c1 3238   1.608   1.700   0.328
  615TCM    cl1 3239   1.498   1.838   0.362
  615TCM    cl2 3240   1.516   1.568   0.249
  615TCM     h1 3241   1.689   1.733   0.263
  615TCM    cl3 3242   1.675   1.640   0.483
  616TCM     c1 3243   0.288   2.849   4.366
  616TCM    cl1 3244   0.221   2.973   4.254
  616TCM    cl2 3245   0.431   2.772   4.290
  616TCM     h1 3246   0.318   2.897   4.460
  616TCM    cl3 3247   0.163   2.725   4.399
  617TCM     c1 3248   0.409   1.456   4.580
  617TCM    cl1 3249   0.510   1.360   4.467
  617TCM    cl2 3250   0.460   1.425   4.749
  617TCM     h1 3251   0.420   1.563   4.557
  617TCM    cl3 3252   0.236   1.410   4.561
  618TCM     c1 3253   0.144   2.794   0.588
  618TCM    cl1 3254   0.072   2.768   0.750
  618TCM    cl2 3255   0.052   2.702   0.465
  618TCM     h1 3256   0.141   2.901   0.564
  618TCM    cl3 3257   0.314   2.738   0.590
  619TCM     c1 3258   2.083   4.116   4.736
  619TCM    cl1 3259   2.231   4.092   4.834
  619TCM    cl2 3260   1.937   4.096   4.838
  619TCM     h1 3261   2.084   4.216   4.693
  619TCM    cl3 3262   2.080   3.994   4.604
  620TCM     c1 3263   2.898   3.405   3.198
  620TCM    cl1 3264   2.749   3.473   3.126
  620TCM    cl2 3265   3.004   3.540   3.252
  620TCM     h1 3266   2.873   3.342   3.283
  620TCM    cl3 3267   2.984   3.308   3.074
  621TCM     c1 3268   2.823   4.400   0.491
  621TCM    cl1 3269   2.837   4.362   0.666
  621TCM    cl2 3270   2.832   4.578   0.467
  621TCM     h1 3271   2.904   4.352   0.436
  621TCM    cl3 3272   2.666   4.339   0.429
  622TCM     c1 3273   3.218   4.411   0.302
  622TCM    cl1 3274   3.070   4.364   0.211
  622TCM    cl2 3275   3.351   4.296   0.265
  622TCM     h1 3276   3.249   4.512   0.272
  622TCM    cl3 3277   3.184   4.409   0.478
  623TCM     c1 3278   2.380   3.644   0.808
  623TCM    cl1 3279   2.476   3.782   0.870
  623TCM    cl2 3280   2.419   3.498   0.905
  623TCM     h1 3281   2.273   3.666   0.816
  623TCM    cl3 3282   2.424   3.615   0.637
  624TCM     c1 3283   3.999   3.662   3.359
  624TCM    cl1 3284   4.105   3.611   3.225
  624TCM    cl2 3285   4.031   3.834   3.398
  624TCM     h1 3286   3.894   3.650   3.330
  624TCM    cl3 3287   4.034   3.563   3.504
  625TCM     c1 3288   0.075   4.702   4.102
  625TCM    cl1 3289  -0.093   4.717   4.041
  625TCM    cl2 3290   0.097   4.813   4.240
  625TCM     h1 3291   0.093   4.599   4.134
  625TCM    cl3 3292   0.192   4.744   3.972
  626TCM     c1 3293   4.187   0.157   3.352
  626TCM    cl1 3294   4.089   0.188   3.498
  626TCM    cl2 3295   4.078   0.137   3.210
  626TCM     h1 3296   4.255   0.240   3.334
  626TCM    cl3 3297   4.281   0.006   3.374
  627TCM     c1 3298   2.323   2.587   3.255
  627TCM    cl1 3299   2.503   2.578   3.252
  627TCM    cl2 3300   2.272   2.703   3.382
  627TCM     h1 3301   2.286   2.620   3.158
  627TCM    cl3 3302   2.257   2.425   3.292
  628TCM     c1 3303   4.991   4.658   2.630
  628TCM    cl1 3304   5.000   4.789   2.508
  628TCM    cl2 3305   4.941   4.728   2.787
  628TCM     h1 3306   4.918   4.584   2.597
  628TCM    cl3 3307   5.151   4.580   2.649
  629TCM     c1 3308   2.252   0.689   1.882
  629TCM    cl1 3309   2.197   0.558   1.992
  629TCM    cl2 3310   2.389   0.779   1.955
  629TCM     h1 3311   2.283   0.645   1.786
  629TCM    cl3 3312   2.116   0.803   1.855
  630TCM     c1 3313   0.336   2.292   2.685
  630TCM    cl1 3314   0.171   2.332   2.742
  630TCM    cl2 3315   0.326   2.174   2.550
  630TCM     h1 3316   0.386   2.384   2.650
  630TCM    cl3 3317   0.430   2.221   2.821
  631TCM     c1 3318   1.267   4.032   0.844
  631TCM    cl1 3319   1.308   4.017   0.670
  631TCM    cl2 3320   1.325   3.886   0.932
  631TCM     h1 3321   1.316   4.120   0.886
  631TCM    cl3 3322   1.089   4.046   0.863
  632TCM     c1 3323   2.419   3.126   0.501
  632TCM    cl1 3324   2.474   3.208   0.351
  632TCM    cl2 3325   2.431   3.239   0.639
  632TCM     h1 3326   2.315   3.093   0.489
  632TCM    cl3 3327   2.524   2.983   0.532
  633TCM     c1 3328   1.913   2.674   4.093
  633TCM    cl1 3329   1.939   2.595   3.934
  633TCM    cl2 3330   1.751   2.752   4.095
  633TCM     h1 3331   1.919   2.600   4.173
  633TCM    cl3 3332   2.039   2.800   4.117
  634TCM     c1 3333   4.911   2.179   2.928
  634TCM    cl1 3334   5.030   2.216   3.058
  634TCM    cl2 3335   4.795   2.314   2.914
  634TCM     h1 3336   4.964   2.165   2.833
  634TCM    cl3 3337   4.823   2.028   2.969
  635TCM     c1 3338   2.487   0.810   3.294
  635TCM    cl1 3339   2.654   0.765   3.245
  635TCM    cl2 3340   2.490   0.876   3.461
  635TCM     h1 3341   2.448   0.885   3.225
  635TCM    cl3 3342   2.382   0.664   3.290
  636TCM     c1 3343   0.202   0.998   2.003
  636TCM    cl1 3344   0.153   1.077   2.157
  636TCM    cl2 3345   0.305   1.110   1.908
  636TCM     h1 3346   0.259   0.907   2.025
  636TCM    cl3 3347   0.056   0.956   1.908
  637TCM     c1 3348   3.956   0.510   4.439
  637TCM    cl1 3349   4.123   0.444   4.448
  637TCM    cl2 3350   3.925   0.617   4.580
  637TCM     h1 3351   3.945   0.568   4.347
  637TCM    cl3 3352   3.839   0.374   4.440
  638TCM     c1 3353   4.979   0.809   4.903
  638TCM    cl1 3354   5.072   0.730   4.771
  638TCM    cl2 3355   4.964   0.695   5.041
  638TCM     h1 3356   5.031   0.899   4.935
  638TCM    cl3 3357   4.816   0.852   4.842
  639TCM     c1 3358   2.735   0.378   1.313
  639TCM    cl1 3359   2.909   0.362   1.350
  639TCM    cl2 3360   2.676   0.534   1.380
  639TCM     h1 3361   2.720   0.378   1.205
  639TCM    cl3 3362   2.643   0.242   1.387
  640TCM     c1 3363   2.134   1.191   3.642
  640TCM    cl1 3364   2.032   1.211   3.788
  640TCM    cl2 3365   2.046   1.255   3.499
  640TCM     h1 3366   2.228   1.246   3.654
  640TCM    cl3 3367   2.168   1.017   3.617
   5.00000   5.00000   5.00000
