FOO
 3367
    1POP     C1    1   0.287   3.529   4.199
    1POP     O2    2   0.297   3.644   4.156
    1POP     C3    3   0.407   3.466   4.259
    1POP     C4    4   0.400   3.337   4.315
    1POP     C5    5   0.515   3.276   4.368
    1POP     C6    6   0.638   3.341   4.365
    1POP     C7    7   0.760   3.273   4.414
    1POP     C8    8   0.873   3.252   4.331
    1POP     C9    9   0.988   3.196   4.388
    1POP    C10   10   0.994   3.157   4.522
    1POP    O11   11   1.113   3.103   4.565
    1POP    C12   12   1.125   3.063   4.702
    1POP    C13   13   0.879   3.174   4.601
    1POP    C14   14   0.764   3.231   4.547
    1POP    C15   15   0.872   3.280   4.186
    1POP    C16   16   0.981   3.342   4.122
    1POP    C17   17   0.980   3.365   3.984
    1POP    C18   18   0.870   3.325   3.905
    1POP    C19   19   0.763   3.262   3.969
    1POP    C20   20   0.764   3.239   4.106
    1POP    C21   21   0.864   3.342   3.754
    1POP    N22   22   0.849   3.211   3.689
    1POP    C23   23   0.978   3.421   3.690
    1POP    C24   24   0.645   3.469   4.310
    1POP    C25   25   0.531   3.531   4.258
    1POP    H26   26   0.307   3.282   4.315
    1POP    H27   27   0.509   3.175   4.408
    1POP    H28   28   1.076   3.179   4.327
    1POP    H29   29   1.227   3.025   4.712
    1POP    H30   30   1.050   2.986   4.719
    1POP    H31   31   1.109   3.153   4.763
    1POP    H32   32   0.877   3.143   4.705
    1POP    H33   33   0.677   3.244   4.611
    1POP    H34   34   1.067   3.374   4.180
    1POP    H35   35   1.066   3.412   3.939
    1POP    H36   36   0.678   3.228   3.911
    1POP    H37   37   0.680   3.187   4.151
    1POP    H38   38   0.772   3.398   3.734
    1POP    H39   39   0.763   3.193   3.639
    1POP    H40   40   0.980   3.517   3.742
    1POP    H41   41   1.069   3.363   3.705
    1POP    H42   42   0.951   3.431   3.585
    1POP    H43   43   0.741   3.521   4.306
    1POP    H44   44   0.541   3.631   4.215
    2POP    C45   45   0.934   3.103   3.705
    2POP    O46   46   1.035   3.112   3.774
    2POP    C47   47   0.905   2.976   3.637
    2POP    C48   48   0.836   2.972   3.515
    2POP    C49   49   0.819   2.851   3.447
    2POP    C50   50   0.868   2.731   3.500
    2POP    C51   51   0.860   2.606   3.421
    2POP    C52   52   0.969   2.516   3.405
    2POP    C53   53   0.950   2.400   3.329
    2POP    C54   54   0.829   2.371   3.265
    2POP    O55   55   0.826   2.255   3.191
    2POP    C56   56   0.706   2.222   3.120
    2POP    C57   57   0.723   2.461   3.280
    2POP    C58   58   0.738   2.576   3.357
    2POP    C59   59   1.105   2.542   3.458
    2POP    C60   60   1.177   2.441   3.524
    2POP    C61   61   1.305   2.466   3.575
    2POP    C62   62   1.363   2.593   3.564
    2POP    C63   63   1.291   2.694   3.498
    2POP    C64   64   1.165   2.667   3.443
    2POP    C65   65   1.500   2.626   3.619
    2POP    N66   66   1.603   2.537   3.566
    2POP    C67   67   1.502   2.617   3.772
    2POP    C68   68   0.929   2.734   3.626
    2POP    C69   69   0.950   2.855   3.692
    2POP    H70   70   0.799   3.063   3.469
    2POP    H71   71   0.771   2.852   3.350
    2POP    H72   72   1.032   2.330   3.314
    2POP    H73   73   0.728   2.128   3.069
    2POP    H74   74   0.687   2.304   3.050
    2POP    H75   75   0.627   2.210   3.195
    2POP    H76   76   0.627   2.443   3.233
    2POP    H77   77   0.654   2.644   3.368
    2POP    H78   78   1.135   2.342   3.536
    2POP    H79   79   1.360   2.386   3.625
    2POP    H80   80   1.332   2.793   3.489
    2POP    H81   81   1.114   2.748   3.391
    2POP    H82   82   1.526   2.728   3.592
    2POP    H83   83   1.661   2.486   3.632
    2POP    H84   84   1.424   2.686   3.806
    2POP    H85   85   1.480   2.513   3.798
    2POP    H86   86   1.602   2.649   3.803
    2POP    H87   87   0.967   2.642   3.671
    2POP    H88   88   1.004   2.855   3.786
    3POP    C89   89   1.650   2.543   3.436
    3POP    O90   90   1.583   2.600   3.350
    3POP    C91   91   1.786   2.498   3.404
    3POP    C92   92   1.888   2.501   3.500
    3POP    C93   93   2.019   2.467   3.467
    3POP    C94   94   2.052   2.426   3.337
    3POP    C95   95   2.191   2.392   3.303
    3POP    C96   96   2.228   2.268   3.244
    3POP    C97   97   2.363   2.247   3.212
    3POP    C98   98   2.462   2.341   3.240
    3POP    O99   99   2.591   2.305   3.210
    3POP   C100  100   2.699   2.390   3.252
    3POP   C101  101   2.424   2.463   3.298
    3POP   C102  102   2.290   2.487   3.329
    3POP   C103  103   2.133   2.157   3.224
    3POP   C104  104   2.127   2.088   3.102
    3POP   C105  105   2.041   1.978   3.087
    3POP   C106  106   1.962   1.934   3.195
    3POP   C107  107   1.968   2.005   3.316
    3POP   C108  108   2.052   2.114   3.330
    3POP   C109  109   1.872   1.812   3.186
    3POP   N110  110   1.946   1.689   3.163
    3POP   C111  111   1.766   1.829   3.077
    3POP   C112  112   1.950   2.420   3.241
    3POP   C113  113   1.819   2.457   3.273
    3POP   H114  114   1.867   2.533   3.602
    3POP   H115  115   2.097   2.472   3.543
    3POP   H116  116   2.393   2.153   3.167
    3POP   H117  117   2.790   2.338   3.221
    3POP   H118  118   2.691   2.398   3.361
    3POP   H119  119   2.685   2.485   3.200
    3POP   H120  120   2.497   2.540   3.321
    3POP   H121  121   2.262   2.583   3.372
    3POP   H122  122   2.188   2.120   3.019
    3POP   H123  123   2.038   1.925   2.992
    3POP   H124  124   1.908   1.973   3.400
    3POP   H125  125   2.055   2.166   3.425
    3POP   H126  126   1.819   1.802   3.281
    3POP   H127  127   1.908   1.625   3.094
    3POP   H128  128   1.713   1.921   3.101
    3POP   H129  129   1.819   1.835   2.982
    3POP   H130  130   1.702   1.741   3.084
    3POP   H131  131   1.974   2.388   3.140
    3POP   H132  132   1.742   2.455   3.196
    4POP   C133  133   2.032   1.633   3.255
    4POP   O134  134   2.088   1.702   3.340
    4POP   C135  135   2.052   1.487   3.258
    4POP   C136  136   1.947   1.398   3.230
    4POP   C137  137   1.967   1.260   3.240
    4POP   C138  138   2.091   1.207   3.277
    4POP   C139  139   2.112   1.062   3.295
    4POP   C140  140   2.224   0.993   3.243
    4POP   C141  141   2.242   0.858   3.275
    4POP   C142  142   2.153   0.788   3.357
    4POP   O143  143   2.183   0.657   3.383
    4POP   C144  144   2.117   0.592   3.493
    4POP   C145  145   2.039   0.856   3.404
    4POP   C146  146   2.020   0.991   3.373
    4POP   C147  147   2.323   1.055   3.153
    4POP   C148  148   2.461   1.041   3.176
    4POP   C149  149   2.554   1.100   3.091
    4POP   C150  150   2.512   1.173   2.979
    4POP   C151  151   2.375   1.188   2.955
    4POP   C152  152   2.282   1.129   3.041
    4POP   C153  153   2.612   1.233   2.882
    4POP   N154  154   2.707   1.131   2.839
    4POP   C155  155   2.687   1.349   2.946
    4POP   C156  156   2.196   1.297   3.302
    4POP   C157  157   2.177   1.435   3.294
    4POP   H158  158   1.848   1.435   3.204
    4POP   H159  159   1.884   1.192   3.220
    4POP   H160  160   2.327   0.803   3.236
    4POP   H161  161   2.169   0.497   3.505
    4POP   H162  162   2.013   0.578   3.463
    4POP   H163  163   2.129   0.657   3.579
    4POP   H164  164   1.965   0.806   3.465
    4POP   H165  165   1.932   1.041   3.414
    4POP   H166  166   2.496   0.985   3.262
    4POP   H167  167   2.660   1.088   3.113
    4POP   H168  168   2.340   1.244   2.869
    4POP   H169  169   2.176   1.141   3.021
    4POP   H170  170   2.558   1.272   2.795
    4POP   H171  171   2.782   1.107   2.903
    4POP   H172  172   2.610   1.419   2.980
    4POP   H173  173   2.746   1.308   3.028
    4POP   H174  174   2.749   1.391   2.866
    4POP   H175  175   2.294   1.260   3.330
    4POP   H176  176   2.260   1.501   3.315
    5CAP   C177  177   0.056   3.520   4.141
    5CAP   O178  178   0.172   3.455   4.196
    5CAP   H179  179   0.037   3.608   4.204
    5CAP   H180  180  -0.024   3.446   4.148
    5CAP   H181  181   0.081   3.546   4.038
    6CAP   C182  182   2.874   0.734   2.676
    6CAP   C183  183   2.749   0.821   2.652
    6CAP   C184  184   2.746   0.861   2.504
    6CAP   C185  185   2.625   0.736   2.689
    6CAP   O186  186   2.768   0.934   2.740
    6CAP   C187  187   2.676   1.034   2.747
    6CAP   O188  188   2.572   1.042   2.684
    6CAP   H189  189   2.865   0.647   2.610
    6CAP   H190  190   2.960   0.796   2.651
    6CAP   H191  191   2.873   0.706   2.782
    6CAP   H192  192   2.833   0.926   2.489
    6CAP   H193  193   2.652   0.913   2.486
    6CAP   H194  194   2.752   0.769   2.446
    6CAP   H195  195   2.629   0.722   2.797
    6CAP   H196  196   2.538   0.793   2.658
    6CAP   H197  197   2.634   0.642   2.634
    7TCM     c1  198   4.435   0.382   2.506
    7TCM    cl1  199   4.377   0.551   2.484
    7TCM    cl2  200   4.498   0.362   2.673
    7TCM     h1  201   4.353   0.312   2.489
    7TCM    cl3  202   4.568   0.351   2.390
    8TCM     c1  203   1.762   2.288   3.961
    8TCM    cl1  204   1.733   2.313   3.786
    8TCM    cl2  205   1.707   2.123   4.008
    8TCM     h1  206   1.869   2.299   3.983
    8TCM    cl3  207   1.668   2.410   4.053
    9TCM     c1  208   1.749   2.115   0.447
    9TCM    cl1  209   1.664   2.167   0.298
    9TCM    cl2  210   1.730   1.938   0.467
    9TCM     h1  211   1.855   2.141   0.440
    9TCM    cl3  212   1.676   2.199   0.588
   10TCM     c1  213   2.651   0.401   3.493
   10TCM    cl1  214   2.677   0.310   3.645
   10TCM    cl2  215   2.494   0.354   3.421
   10TCM     h1  216   2.651   0.508   3.514
   10TCM    cl3  217   2.784   0.363   3.379
   11TCM     c1  218   2.002   1.658   2.589
   11TCM    cl1  219   2.171   1.604   2.612
   11TCM    cl2  220   1.996   1.785   2.462
   11TCM     h1  221   1.939   1.574   2.559
   11TCM    cl3  222   1.940   1.727   2.743
   12TCM     c1  223   4.784   1.205   0.130
   12TCM    cl1  224   4.718   1.371   0.138
   12TCM    cl2  225   4.964   1.211   0.130
   12TCM     h1  226   4.749   1.147   0.216
   12TCM    cl3  227   4.728   1.125  -0.021
   13TCM     c1  228   3.006   0.796   2.222
   13TCM    cl1  229   2.918   0.952   2.204
   13TCM    cl2  230   2.889   0.660   2.215
   13TCM     h1  231   3.079   0.786   2.141
   13TCM    cl3  232   3.091   0.794   2.380
   14TCM     c1  233   3.526   3.988   4.388
   14TCM    cl1  234   3.665   3.988   4.501
   14TCM    cl2  235   3.536   4.131   4.280
   14TCM     h1  236   3.527   3.896   4.328
   14TCM    cl3  237   3.374   3.995   4.483
   15TCM     c1  238   0.529   3.888   3.240
   15TCM    cl1  239   0.459   3.831   3.395
   15TCM    cl2  240   0.579   3.746   3.144
   15TCM     h1  241   0.454   3.946   3.185
   15TCM    cl3  242   0.672   3.990   3.274
   16TCM     c1  243   3.849   1.158   2.419
   16TCM    cl1  244   3.894   1.251   2.567
   16TCM    cl2  245   3.993   1.069   2.360
   16TCM     h1  246   3.769   1.088   2.443
   16TCM    cl3  247   3.793   1.273   2.293
   17TCM     c1  248   4.900   2.997   4.164
   17TCM    cl1  249   4.880   2.823   4.200
   17TCM    cl2  250   5.058   3.025   4.085
   17TCM     h1  251   4.819   3.030   4.098
   17TCM    cl3  252   4.893   3.091   4.317
   18TCM     c1  253   0.550   2.681   1.059
   18TCM    cl1  254   0.611   2.732   0.898
   18TCM    cl2  255   0.437   2.543   1.038
   18TCM     h1  256   0.634   2.649   1.122
   18TCM    cl3  257   0.465   2.818   1.138
   19TCM     c1  258   1.377   1.732   2.079
   19TCM    cl1  259   1.413   1.883   2.168
   19TCM    cl2  260   1.525   1.678   1.994
   19TCM     h1  261   1.346   1.654   2.150
   19TCM    cl3  262   1.245   1.760   1.961
   20TCM     c1  263   4.330   4.263   0.385
   20TCM    cl1  264   4.249   4.298   0.229
   20TCM    cl2  265   4.213   4.286   0.520
   20TCM     h1  266   4.365   4.159   0.385
   20TCM    cl3  267   4.469   4.374   0.406
   21TCM     c1  268   2.483   4.961   3.471
   21TCM    cl1  269   2.378   5.008   3.334
   21TCM    cl2  270   2.428   5.042   3.621
   21TCM     h1  271   2.479   4.852   3.485
   21TCM    cl3  272   2.652   5.010   3.434
   22TCM     c1  273   2.708   1.726   2.809
   22TCM    cl1  274   2.551   1.644   2.777
   22TCM    cl2  275   2.835   1.650   2.707
   22TCM     h1  276   2.700   1.832   2.785
   22TCM    cl3  277   2.752   1.708   2.982
   23TCM     c1  278   0.625   2.824   4.523
   23TCM    cl1  279   0.660   2.648   4.526
   23TCM    cl2  280   0.719   2.900   4.391
   23TCM     h1  281   0.519   2.840   4.507
   23TCM    cl3  282   0.673   2.896   4.680
   24TCM     c1  283   4.285   3.134   1.766
   24TCM    cl1  284   4.384   3.241   1.661
   24TCM    cl2  285   4.352   2.967   1.762
   24TCM     h1  286   4.287   3.172   1.869
   24TCM    cl3  287   4.116   3.134   1.706
   25TCM     c1  288   0.362   3.778   4.575
   25TCM    cl1  289   0.245   3.644   4.554
   25TCM    cl2  290   0.283   3.916   4.658
   25TCM     h1  291   0.447   3.744   4.635
   25TCM    cl3  292   0.421   3.832   4.414
   26TCM     c1  293   2.271   0.947   2.718
   26TCM    cl1  294   2.303   0.826   2.847
   26TCM    cl2  295   2.112   1.024   2.749
   26TCM     h1  296   2.349   1.024   2.720
   26TCM    cl3  297   2.268   0.866   2.558
   27TCM     c1  298   1.151   1.947   2.395
   27TCM    cl1  299   1.010   2.041   2.454
   27TCM    cl2  300   1.098   1.787   2.334
   27TCM     h1  301   1.199   2.003   2.314
   27TCM    cl3  302   1.269   1.925   2.529
   28TCM     c1  303   2.964   4.656   4.488
   28TCM    cl1  304   2.989   4.492   4.557
   28TCM    cl2  305   2.809   4.661   4.398
   28TCM     h1  306   2.961   4.730   4.569
   28TCM    cl3  307   3.099   4.694   4.376
   29TCM     c1  308   2.604   2.178   2.267
   29TCM    cl1  309   2.634   2.001   2.268
   29TCM    cl2  310   2.585   2.236   2.436
   29TCM     h1  311   2.690   2.228   2.221
   29TCM    cl3  312   2.456   2.214   2.173
   30TCM     c1  313   2.723   2.170   4.910
   30TCM    cl1  314   2.547   2.134   4.901
   30TCM    cl2  315   2.791   2.098   5.060
   30TCM     h1  316   2.774   2.127   4.823
   30TCM    cl3  317   2.748   2.347   4.913
   31TCM     c1  318   0.104   4.921   1.111
   31TCM    cl1  319   0.162   4.983   1.270
   31TCM    cl2  320   0.210   4.787   1.057
   31TCM     h1  321   0.002   4.885   1.120
   31TCM    cl3  322   0.110   5.054   0.990
   32TCM     c1  323   3.086   0.508   0.912
   32TCM    cl1  324   3.213   0.474   1.034
   32TCM    cl2  325   3.054   0.360   0.816
   32TCM     h1  326   2.994   0.540   0.962
   32TCM    cl3  327   3.142   0.638   0.802
   33TCM     c1  328   3.720   3.212   1.502
   33TCM    cl1  329   3.562   3.190   1.420
   33TCM    cl2  330   3.852   3.167   1.389
   33TCM     h1  331   3.732   3.316   1.532
   33TCM    cl3  332   3.727   3.107   1.647
   34TCM     c1  333   1.009   0.767   3.203
   34TCM    cl1  334   1.108   0.659   3.100
   34TCM    cl2  335   1.110   0.832   3.336
   34TCM     h1  336   0.969   0.850   3.143
   34TCM    cl3  337   0.873   0.673   3.274
   35TCM     c1  338   0.645   0.249   4.047
   35TCM    cl1  339   0.636   0.077   4.099
   35TCM    cl2  340   0.676   0.255   3.870
   35TCM     h1  341   0.550   0.299   4.069
   35TCM    cl3  342   0.778   0.331   4.134
   36TCM     c1  343   2.790   3.422   3.300
   36TCM    cl1  344   2.885   3.270   3.286
   36TCM    cl2  345   2.787   3.476   3.472
   36TCM     h1  346   2.837   3.499   3.239
   36TCM    cl3  347   2.622   3.393   3.244
   37TCM     c1  348   0.492   0.771   2.220
   37TCM    cl1  349   0.325   0.787   2.284
   37TCM    cl2  350   0.486   0.732   2.045
   37TCM     h1  351   0.546   0.866   2.234
   37TCM    cl3  352   0.578   0.640   2.307
   38TCM     c1  353   4.760   1.818   1.963
   38TCM    cl1  354   4.933   1.780   1.939
   38TCM    cl2  355   4.659   1.703   1.869
   38TCM     h1  356   4.735   1.810   2.069
   38TCM    cl3  357   4.727   1.986   1.908
   39TCM     c1  358   1.540   3.480   2.085
   39TCM    cl1  359   1.411   3.491   2.209
   39TCM    cl2  360   1.564   3.308   2.039
   39TCM     h1  361   1.511   3.537   1.996
   39TCM    cl3  362   1.693   3.545   2.151
   40TCM     c1  363   3.653   1.456   1.940
   40TCM    cl1  364   3.603   1.628   1.950
   40TCM    cl2  365   3.831   1.446   1.930
   40TCM     h1  366   3.617   1.402   2.028
   40TCM    cl3  367   3.580   1.385   1.792
   41TCM     c1  368   0.968   2.088   1.998
   41TCM    cl1  369   1.138   2.095   2.054
   41TCM    cl2  370   0.955   2.168   1.838
   41TCM     h1  371   0.936   1.984   1.989
   41TCM    cl3  372   0.864   2.173   2.117
   42TCM     c1  373   2.243   3.575   1.583
   42TCM    cl1  374   2.303   3.408   1.609
   42TCM    cl2  375   2.224   3.603   1.406
   42TCM     h1  376   2.147   3.588   1.633
   42TCM    cl3  377   2.361   3.693   1.649
   43TCM     c1  378   0.792   4.247   0.837
   43TCM    cl1  379   0.645   4.307   0.753
   43TCM    cl2  380   0.895   4.386   0.885
   43TCM     h1  381   0.762   4.191   0.927
   43TCM    cl3  382   0.884   4.139   0.727
   44TCM     c1  383   0.028   1.145   4.584
   44TCM    cl1  384   0.150   1.037   4.509
   44TCM    cl2  385   0.048   1.142   4.763
   44TCM     h1  386   0.041   1.247   4.547
   44TCM    cl3  387  -0.136   1.085   4.541
   45TCM     c1  388   1.198   3.578   4.544
   45TCM    cl1  389   1.129   3.743   4.522
   45TCM    cl2  390   1.228   3.503   4.384
   45TCM     h1  391   1.291   3.585   4.600
   45TCM    cl3  392   1.080   3.477   4.634
   46TCM     c1  393   4.965   0.727   4.397
   46TCM    cl1  394   4.858   0.585   4.416
   46TCM    cl2  395   4.915   0.822   4.253
   46TCM     h1  396   4.959   0.790   4.486
   46TCM    cl3  397   5.134   0.671   4.375
   47TCM     c1  398   1.331   4.198   1.815
   47TCM    cl1  399   1.179   4.202   1.911
   47TCM    cl2  400   1.353   4.355   1.732
   47TCM     h1  401   1.416   4.180   1.882
   47TCM    cl3  402   1.319   4.066   1.694
   48TCM     c1  403   3.454   4.046   4.834
   48TCM    cl1  404   3.396   3.960   4.980
   48TCM    cl2  405   3.619   4.110   4.863
   48TCM     h1  406   3.456   3.976   4.750
   48TCM    cl3  407   3.341   4.180   4.798
   49TCM     c1  408   1.575   1.612   1.344
   49TCM    cl1  409   1.523   1.660   1.179
   49TCM    cl2  410   1.705   1.722   1.400
   49TCM     h1  411   1.489   1.618   1.412
   49TCM    cl3  412   1.636   1.443   1.341
   50TCM     c1  413   3.257   0.477   2.022
   50TCM    cl1  414   3.116   0.556   1.944
   50TCM    cl2  415   3.212   0.311   2.071
   50TCM     h1  416   3.341   0.474   1.952
   50TCM    cl3  417   3.303   0.571   2.168
   51TCM     c1  418   0.102   0.659   1.786
   51TCM    cl1  419   0.036   0.797   1.691
   51TCM    cl2  420  -0.005   0.516   1.767
   51TCM     h1  421   0.202   0.635   1.750
   51TCM    cl3  422   0.109   0.706   1.959
   52TCM     c1  423   3.652   2.534   0.997
   52TCM    cl1  424   3.493   2.558   1.077
   52TCM    cl2  425   3.719   2.375   1.046
   52TCM     h1  426   3.641   2.537   0.889
   52TCM    cl3  427   3.765   2.663   1.049
   53TCM     c1  428   4.000   0.002   0.401
   53TCM    cl1  429   4.149  -0.027   0.305
   53TCM    cl2  430   4.042   0.007   0.575
   53TCM     h1  431   3.955   0.098   0.372
   53TCM    cl3  432   3.882  -0.130   0.371
   54TCM     c1  433   4.814   1.628   3.049
   54TCM    cl1  434   4.971   1.698   3.100
   54TCM    cl2  435   4.783   1.669   2.877
   54TCM     h1  436   4.817   1.519   3.060
   54TCM    cl3  437   4.683   1.694   3.151
   55TCM     c1  438   2.046   3.276   2.248
   55TCM    cl1  439   1.906   3.240   2.141
   55TCM    cl2  440   2.031   3.181   2.400
   55TCM     h1  441   2.139   3.248   2.198
   55TCM    cl3  442   2.050   3.451   2.286
   56TCM     c1  443   0.554   0.097   4.497
   56TCM    cl1  444   0.410   0.131   4.397
   56TCM    cl2  445   0.677   0.224   4.469
   56TCM     h1  446   0.526   0.096   4.603
   56TCM    cl3  447   0.621  -0.063   4.451
   57TCM     c1  448   4.435   0.296   4.256
   57TCM    cl1  449   4.395   0.225   4.097
   57TCM    cl2  450   4.585   0.393   4.240
   57TCM     h1  451   4.353   0.361   4.289
   57TCM    cl3  452   4.460   0.165   4.376
   58TCM     c1  453   3.786   4.649   1.167
   58TCM    cl1  454   3.937   4.728   1.223
   58TCM    cl2  455   3.685   4.608   1.310
   58TCM     h1  456   3.731   4.716   1.101
   58TCM    cl3  457   3.828   4.498   1.079
   59TCM     c1  458   4.476   4.221   4.829
   59TCM    cl1  459   4.527   4.205   5.000
   59TCM    cl2  460   4.576   4.346   4.748
   59TCM     h1  461   4.489   4.125   4.778
   59TCM    cl3  462   4.303   4.270   4.824
   60TCM     c1  463   3.803   4.226   1.337
   60TCM    cl1  464   3.858   4.121   1.203
   60TCM    cl2  465   3.939   4.331   1.389
   60TCM     h1  466   3.719   4.288   1.303
   60TCM    cl3  467   3.749   4.124   1.474
   61TCM     c1  468   3.599   3.902   3.220
   61TCM    cl1  469   3.650   3.875   3.390
   61TCM    cl2  470   3.737   3.864   3.111
   61TCM     h1  471   3.515   3.837   3.197
   61TCM    cl3  472   3.552   4.073   3.198
   62TCM     c1  473   0.208   0.662   3.076
   62TCM    cl1  474   0.374   0.666   3.009
   62TCM    cl2  475   0.089   0.672   2.942
   62TCM     h1  476   0.193   0.568   3.131
   62TCM    cl3  477   0.186   0.801   3.188
   63TCM     c1  478   2.973   2.131   2.562
   63TCM    cl1  479   2.855   1.996   2.575
   63TCM    cl2  480   2.945   2.247   2.695
   63TCM     h1  481   3.075   2.092   2.567
   63TCM    cl3  482   2.947   2.216   2.406
   64TCM     c1  483   3.625   2.190   2.274
   64TCM    cl1  484   3.539   2.268   2.138
   64TCM    cl2  485   3.785   2.268   2.298
   64TCM     h1  486   3.566   2.199   2.365
   64TCM    cl3  487   3.651   2.016   2.237
   65TCM     c1  488   4.874   0.492   2.266
   65TCM    cl1  489   4.934   0.332   2.318
   65TCM    cl2  490   4.821   0.483   2.095
   65TCM     h1  491   4.790   0.523   2.328
   65TCM    cl3  492   5.007   0.611   2.281
   66TCM     c1  493   0.695   0.135   2.679
   66TCM    cl1  494   0.548   0.056   2.613
   66TCM    cl2  495   0.733   0.282   2.583
   66TCM     h1  496   0.679   0.163   2.783
   66TCM    cl3  497   0.832   0.020   2.668
   67TCM     c1  498   0.193   3.485   0.710
   67TCM    cl1  499   0.266   3.386   0.840
   67TCM    cl2  500   0.164   3.381   0.566
   67TCM     h1  501   0.098   3.527   0.744
   67TCM    cl3  502   0.306   3.617   0.666
   68TCM     c1  503   1.511   3.387   0.608
   68TCM    cl1  504   1.470   3.262   0.486
   68TCM    cl2  505   1.468   3.327   0.771
   68TCM     h1  506   1.619   3.408   0.604
   68TCM    cl3  507   1.419   3.537   0.573
   69TCM     c1  508   4.828   0.114   2.043
   69TCM    cl1  509   4.663   0.128   2.110
   69TCM    cl2  510   4.821   0.042   1.878
   69TCM     h1  511   4.874   0.213   2.037
   69TCM    cl3  512   4.926   0.008   2.149
   70TCM     c1  513   2.702   4.220   3.856
   70TCM    cl1  514   2.771   4.381   3.820
   70TCM    cl2  515   2.675   4.205   4.032
   70TCM     h1  516   2.607   4.209   3.803
   70TCM    cl3  517   2.816   4.092   3.803
   71TCM     c1  518   4.822   1.562   4.829
   71TCM    cl1  519   4.792   1.413   4.733
   71TCM    cl2  520   4.851   1.699   4.718
   71TCM     h1  521   4.735   1.583   4.892
   71TCM    cl3  522   4.967   1.537   4.932
   72TCM     c1  523   2.929   4.655   4.056
   72TCM    cl1  524   2.752   4.676   4.031
   72TCM    cl2  525   3.014   4.687   3.901
   72TCM     h1  526   2.963   4.726   4.131
   72TCM    cl3  527   2.963   4.487   4.110
   73TCM     c1  528   3.754   3.898   1.854
   73TCM    cl1  529   3.809   4.068   1.844
   73TCM    cl2  530   3.876   3.801   1.944
   73TCM     h1  531   3.658   3.893   1.906
   73TCM    cl3  532   3.736   3.830   1.689
   74TCM     c1  533   0.867   0.337   3.109
   74TCM    cl1  534   0.734   0.438   3.044
   74TCM    cl2  535   0.887   0.192   3.005
   74TCM     h1  536   0.960   0.395   3.111
   74TCM    cl3  537   0.826   0.286   3.276
   75TCM     c1  538   0.748   1.359   2.350
   75TCM    cl1  539   0.863   1.497   2.347
   75TCM    cl2  540   0.797   1.243   2.477
   75TCM     h1  541   0.647   1.396   2.371
   75TCM    cl3  542   0.751   1.278   2.190
   76TCM     c1  543   1.159   0.578   2.268
   76TCM    cl1  544   1.127   0.736   2.188
   76TCM    cl2  545   1.098   0.582   2.437
   76TCM     h1  546   1.108   0.498   2.213
   76TCM    cl3  547   1.335   0.546   2.269
   77TCM     c1  548   2.831   0.907   3.560
   77TCM    cl1  549   2.776   1.025   3.683
   77TCM    cl2  550   2.783   0.963   3.396
   77TCM     h1  551   2.940   0.899   3.564
   77TCM    cl3  552   2.758   0.747   3.592
   78TCM     c1  553   4.690   4.774   0.752
   78TCM    cl1  554   4.778   4.618   0.760
   78TCM    cl2  555   4.796   4.905   0.815
   78TCM     h1  556   4.662   4.796   0.649
   78TCM    cl3  557   4.542   4.765   0.854
   79TCM     c1  558   0.388   4.288   4.984
   79TCM    cl1  559   0.499   4.304   4.844
   79TCM    cl2  560   0.482   4.234   5.127
   79TCM     h1  561   0.341   4.384   5.005
   79TCM    cl3  562   0.264   4.165   4.946
   80TCM     c1  563   2.448   3.262   1.892
   80TCM    cl1  564   2.418   3.111   1.800
   80TCM    cl2  565   2.585   3.237   2.005
   80TCM     h1  566   2.473   3.343   1.823
   80TCM    cl3  567   2.301   3.306   1.984
   81TCM     c1  568   0.379   3.070   0.706
   81TCM    cl1  569   0.477   3.173   0.597
   81TCM    cl2  570   0.454   3.068   0.869
   81TCM     h1  571   0.278   3.111   0.713
   81TCM    cl3  572   0.373   2.903   0.642
   82TCM     c1  573   3.120   3.529   0.697
   82TCM    cl1  574   3.141   3.688   0.778
   82TCM    cl2  575   3.064   3.409   0.818
   82TCM     h1  576   3.045   3.538   0.617
   82TCM    cl3  577   3.276   3.476   0.627
   83TCM     c1  578   3.217   3.150   4.776
   83TCM    cl1  579   3.349   3.070   4.685
   83TCM    cl2  580   3.289   3.263   4.896
   83TCM     h1  581   3.154   3.206   4.707
   83TCM    cl3  582   3.119   3.027   4.861
   84TCM     c1  583   1.030   1.362   1.795
   84TCM    cl1  584   1.045   1.201   1.872
   84TCM    cl2  585   0.906   1.458   1.882
   84TCM     h1  586   1.126   1.413   1.798
   84TCM    cl3  587   0.980   1.338   1.624
   85TCM     c1  588   1.815   2.490   4.482
   85TCM    cl1  589   1.774   2.405   4.635
   85TCM    cl2  590   1.673   2.583   4.425
   85TCM     h1  591   1.899   2.558   4.500
   85TCM    cl3  592   1.861   2.369   4.358
   86TCM     c1  593   2.335   3.962   3.859
   86TCM    cl1  594   2.241   3.873   3.983
   86TCM    cl2  595   2.503   3.899   3.853
   86TCM     h1  596   2.288   3.951   3.761
   86TCM    cl3  597   2.340   4.136   3.903
   87TCM     c1  598   0.737   0.071   4.884
   87TCM    cl1  599   0.742   0.065   5.063
   87TCM    cl2  600   0.643   0.215   4.831
   87TCM     h1  601   0.839   0.078   4.845
   87TCM    cl3  602   0.658  -0.077   4.820
   88TCM     c1  603   1.138   0.414   2.750
   88TCM    cl1  604   0.984   0.490   2.799
   88TCM    cl2  605   1.103   0.259   2.668
   88TCM     h1  606   1.192   0.481   2.682
   88TCM    cl3  607   1.238   0.382   2.896
   89TCM     c1  608   4.528   2.897   2.861
   89TCM    cl1  609   4.607   2.761   2.774
   89TCM    cl2  610   4.374   2.941   2.779
   89TCM     h1  611   4.507   2.866   2.964
   89TCM    cl3  612   4.637   3.040   2.863
   90TCM     c1  613   3.186   4.680   4.883
   90TCM    cl1  614   3.195   4.764   4.725
   90TCM    cl2  615   3.323   4.732   4.986
   90TCM     h1  616   3.092   4.705   4.933
   90TCM    cl3  617   3.195   4.503   4.857
   91TCM     c1  618   1.875   0.014   3.486
   91TCM    cl1  619   2.041   0.073   3.453
   91TCM    cl2  620   1.876  -0.084   3.637
   91TCM     h1  621   1.807   0.099   3.498
   91TCM    cl3  622   1.821  -0.089   3.350
   92TCM     c1  623   0.920   0.574   3.670
   92TCM    cl1  624   0.913   0.750   3.636
   92TCM    cl2  625   0.779   0.492   3.595
   92TCM     h1  626   1.012   0.533   3.629
   92TCM    cl3  627   0.918   0.548   3.848
   93TCM     c1  628   2.274   4.993   2.285
   93TCM    cl1  629   2.267   4.846   2.388
   93TCM    cl2  630   2.147   5.108   2.337
   93TCM     h1  631   2.372   5.039   2.294
   93TCM    cl3  632   2.246   4.945   2.114
   94TCM     c1  633   1.198   1.287   2.266
   94TCM    cl1  634   1.165   1.430   2.162
   94TCM    cl2  635   1.092   1.151   2.219
   94TCM     h1  636   1.302   1.257   2.255
   94TCM    cl3  637   1.166   1.329   2.438
   95TCM     c1  638   1.539   1.677   4.741
   95TCM    cl1  639   1.396   1.745   4.825
   95TCM    cl2  640   1.598   1.535   4.834
   95TCM     h1  641   1.510   1.646   4.640
   95TCM    cl3  642   1.668   1.801   4.733
   96TCM     c1  643   4.238   2.895   2.195
   96TCM    cl1  644   4.169   3.025   2.093
   96TCM    cl2  645   4.272   2.750   2.094
   96TCM     h1  646   4.331   2.930   2.242
   96TCM    cl3  647   4.120   2.849   2.323
   97TCM     c1  648   2.936   4.574   1.088
   97TCM    cl1  649   2.947   4.753   1.070
   97TCM    cl2  650   2.891   4.535   1.257
   97TCM     h1  651   2.860   4.535   1.019
   97TCM    cl3  652   3.095   4.499   1.051
   98TCM     c1  653   4.307   2.341   2.790
   98TCM    cl1  654   4.251   2.244   2.930
   98TCM    cl2  655   4.318   2.235   2.646
   98TCM     h1  656   4.236   2.422   2.771
   98TCM    cl3  657   4.469   2.410   2.825
   99TCM     c1  658   4.159   0.683   3.420
   99TCM    cl1  659   4.251   0.645   3.569
   99TCM    cl2  660   4.272   0.694   3.281
   99TCM     h1  661   4.085   0.604   3.401
   99TCM    cl3  662   4.074   0.840   3.440
  100TCM     c1  663   4.280   1.005   3.035
  100TCM    cl1  664   4.428   0.912   2.999
  100TCM    cl2  665   4.287   1.058   3.206
  100TCM     h1  666   4.275   1.093   2.970
  100TCM    cl3  667   4.136   0.902   3.010
  101TCM     c1  668   2.101   0.011   3.077
  101TCM    cl1  669   2.200   0.041   2.930
  101TCM    cl2  670   2.077  -0.165   3.096
  101TCM     h1  671   2.153   0.051   3.165
  101TCM    cl3  672   1.943   0.094   3.057
  102TCM     c1  673   0.229   4.188   3.449
  102TCM    cl1  674   0.108   4.314   3.409
  102TCM    cl2  675   0.372   4.204   3.341
  102TCM     h1  676   0.261   4.199   3.553
  102TCM    cl3  677   0.154   4.026   3.427
  103TCM     c1  678   0.187   1.880   4.670
  103TCM    cl1  679   0.173   1.837   4.844
  103TCM    cl2  680   0.358   1.922   4.634
  103TCM     h1  681   0.156   1.795   4.609
  103TCM    cl3  682   0.083   2.022   4.635
  104TCM     c1  683   1.110   4.977   4.794
  104TCM    cl1  684   1.102   5.063   4.951
  104TCM    cl2  685   1.038   5.080   4.666
  104TCM     h1  686   1.214   4.955   4.770
  104TCM    cl3  687   1.016   4.825   4.806
  105TCM     c1  688   0.601   2.184   0.889
  105TCM    cl1  689   0.695   2.332   0.853
  105TCM    cl2  690   0.662   2.047   0.791
  105TCM     h1  691   0.610   2.160   0.996
  105TCM    cl3  692   0.428   2.212   0.850
  106TCM     c1  693   4.678   1.460   2.149
  106TCM    cl1  694   4.772   1.583   2.239
  106TCM    cl2  695   4.608   1.342   2.265
  106TCM     h1  696   4.597   1.509   2.093
  106TCM    cl3  697   4.786   1.374   2.035
  107TCM     c1  698   2.814   1.361   2.468
  107TCM    cl1  699   2.821   1.377   2.289
  107TCM    cl2  700   2.910   1.218   2.519
  107TCM     h1  701   2.856   1.451   2.514
  107TCM    cl3  702   2.644   1.341   2.519
  108TCM     c1  703   3.097   0.391   2.597
  108TCM    cl1  704   2.959   0.374   2.710
  108TCM    cl2  705   3.186   0.542   2.635
  108TCM     h1  706   3.164   0.306   2.608
  108TCM    cl3  707   3.036   0.398   2.429
  109TCM     c1  708   2.415   4.534   0.811
  109TCM    cl1  709   2.330   4.443   0.940
  109TCM    cl2  710   2.302   4.653   0.738
  109TCM     h1  711   2.502   4.586   0.853
  109TCM    cl3  712   2.469   4.420   0.683
  110TCM     c1  713   0.376   3.284   3.849
  110TCM    cl1  714   0.465   3.193   3.723
  110TCM    cl2  715   0.453   3.444   3.874
  110TCM     h1  716   0.272   3.297   3.818
  110TCM    cl3  717   0.382   3.192   4.003
  111TCM     c1  718   2.725   4.796   1.746
  111TCM    cl1  719   2.853   4.740   1.859
  111TCM    cl2  720   2.587   4.682   1.751
  111TCM     h1  721   2.691   4.896   1.776
  111TCM    cl3  722   2.793   4.803   1.580
  112TCM     c1  723   2.830   4.703   3.534
  112TCM    cl1  724   2.755   4.674   3.373
  112TCM    cl2  725   2.936   4.565   3.574
  112TCM     h1  726   2.889   4.795   3.531
  112TCM    cl3  727   2.701   4.718   3.658
  113TCM     c1  728   3.397   3.525   4.605
  113TCM    cl1  729   3.530   3.410   4.640
  113TCM    cl2  730   3.251   3.432   4.555
  113TCM     h1  731   3.374   3.583   4.694
  113TCM    cl3  732   3.446   3.635   4.472
  114TCM     c1  733   1.735   0.037   4.137
  114TCM    cl1  734   1.621  -0.096   4.176
  114TCM    cl2  735   1.641   0.185   4.101
  114TCM     h1  736   1.802   0.054   4.222
  114TCM    cl3  737   1.833  -0.009   3.993
  115TCM     c1  738   3.272   3.826   1.622
  115TCM    cl1  739   3.107   3.771   1.668
  115TCM    cl2  740   3.387   3.781   1.752
  115TCM     h1  741   3.301   3.779   1.528
  115TCM    cl3  742   3.270   4.005   1.602
  116TCM     c1  743   0.071   2.433   1.720
  116TCM    cl1  744  -0.048   2.468   1.849
  116TCM    cl2  745   0.230   2.507   1.761
  116TCM     h1  746   0.083   2.325   1.710
  116TCM    cl3  747   0.013   2.501   1.564
  117TCM     c1  748   1.837   0.628   3.052
  117TCM    cl1  749   1.673   0.664   2.989
  117TCM    cl2  750   1.891   0.468   2.992
  117TCM     h1  751   1.907   0.705   3.018
  117TCM    cl3  752   1.833   0.625   3.231
  118TCM     c1  753   1.681   4.596   3.495
  118TCM    cl1  754   1.858   4.566   3.490
  118TCM    cl2  755   1.631   4.630   3.664
  118TCM     h1  756   1.656   4.682   3.431
  118TCM    cl3  757   1.595   4.450   3.435
  119TCM     c1  758   1.175   3.303   3.322
  119TCM    cl1  759   1.006   3.244   3.342
  119TCM    cl2  760   1.193   3.462   3.402
  119TCM     h1  761   1.244   3.231   3.366
  119TCM    cl3  762   1.211   3.321   3.147
  120TCM     c1  763   4.617   2.065   2.258
  120TCM    cl1  764   4.566   2.139   2.413
  120TCM    cl2  765   4.500   1.939   2.209
  120TCM     h1  766   4.623   2.143   2.181
  120TCM    cl3  767   4.779   1.989   2.280
  121TCM     c1  768   2.249   1.391   1.723
  121TCM    cl1  769   2.370   1.259   1.741
  121TCM    cl2  770   2.278   1.476   1.568
  121TCM     h1  771   2.148   1.348   1.724
  121TCM    cl3  772   2.266   1.506   1.859
  122TCM     c1  773   1.361   4.918   3.432
  122TCM    cl1  774   1.215   4.952   3.530
  122TCM    cl2  775   1.367   4.743   3.394
  122TCM     h1  776   1.357   4.976   3.339
  122TCM    cl3  777   1.507   4.963   3.526
  123TCM     c1  778   4.274   3.724   2.573
  123TCM    cl1  779   4.123   3.628   2.558
  123TCM    cl2  780   4.242   3.894   2.524
  123TCM     h1  781   4.308   3.722   2.677
  123TCM    cl3  782   4.400   3.653   2.467
  124TCM     c1  783   4.502   1.165   3.549
  124TCM    cl1  784   4.348   1.073   3.560
  124TCM    cl2  785   4.530   1.252   3.704
  124TCM     h1  786   4.585   1.096   3.531
  124TCM    cl3  787   4.493   1.284   3.415
  125TCM     c1  788   3.716   1.693   2.357
  125TCM    cl1  789   3.828   1.692   2.217
  125TCM    cl2  790   3.780   1.585   2.484
  125TCM     h1  791   3.708   1.795   2.397
  125TCM    cl3  792   3.554   1.636   2.306
  126TCM     c1  793   4.840   3.894   3.211
  126TCM    cl1  794   4.789   3.877   3.382
  126TCM    cl2  795   4.858   4.069   3.172
  126TCM     h1  796   4.936   3.843   3.196
  126TCM    cl3  797   4.715   3.822   3.105
  127TCM     c1  798   0.540   2.031   0.021
  127TCM    cl1  799   0.604   2.119  -0.122
  127TCM    cl2  800   0.658   2.042   0.155
  127TCM     h1  801   0.445   2.075   0.052
  127TCM    cl3  802   0.516   1.859  -0.022
  128TCM     c1  803   3.506   1.562   3.439
  128TCM    cl1  804   3.624   1.427   3.436
  128TCM    cl2  805   3.383   1.534   3.312
  128TCM     h1  806   3.457   1.567   3.537
  128TCM    cl3  807   3.591   1.716   3.406
  129TCM     c1  808   1.575   2.492   2.654
  129TCM    cl1  809   1.504   2.328   2.651
  129TCM    cl2  810   1.610   2.545   2.486
  129TCM     h1  811   1.505   2.562   2.700
  129TCM    cl3  812   1.728   2.489   2.749
  130TCM     c1  813   0.365   2.662   4.898
  130TCM    cl1  814   0.461   2.782   4.991
  130TCM    cl2  815   0.336   2.728   4.733
  130TCM     h1  816   0.421   2.568   4.890
  130TCM    cl3  817   0.209   2.633   4.981
  131TCM     c1  818   0.703   4.597   4.621
  131TCM    cl1  819   0.778   4.470   4.519
  131TCM    cl2  820   0.750   4.570   4.792
  131TCM     h1  821   0.739   4.696   4.588
  131TCM    cl3  822   0.524   4.590   4.605
  132TCM     c1  823   4.902   4.431   4.951
  132TCM    cl1  824   5.055   4.471   5.036
  132TCM    cl2  825   4.763   4.492   5.046
  132TCM     h1  826   4.902   4.477   4.851
  132TCM    cl3  827   4.890   4.253   4.935
  133TCM     c1  828   0.612   1.715   0.327
  133TCM    cl1  829   0.703   1.813   0.447
  133TCM    cl2  830   0.442   1.772   0.321
  133TCM     h1  831   0.658   1.725   0.228
  133TCM    cl3  832   0.613   1.543   0.378
  134TCM     c1  833   2.239   0.372   3.084
  134TCM    cl1  834   2.270   0.548   3.068
  134TCM    cl2  835   2.145   0.341   3.234
  134TCM     h1  836   2.182   0.337   2.997
  134TCM    cl3  837   2.395   0.285   3.092
  135TCM     c1  838   0.476   1.376   3.109
  135TCM    cl1  839   0.585   1.465   2.997
  135TCM    cl2  840   0.573   1.293   3.234
  135TCM     h1  841   0.407   1.446   3.156
  135TCM    cl3  842   0.382   1.254   3.016
  136TCM     c1  843   0.209   4.269   4.607
  136TCM    cl1  844   0.239   4.287   4.431
  136TCM    cl2  845   0.056   4.179   4.632
  136TCM     h1  846   0.292   4.214   4.653
  136TCM    cl3  847   0.193   4.430   4.683
  137TCM     c1  848   4.291   1.234   1.933
  137TCM    cl1  849   4.141   1.273   1.843
  137TCM    cl2  850   4.250   1.149   2.086
  137TCM     h1  851   4.354   1.169   1.872
  137TCM    cl3  852   4.379   1.386   1.970
  138TCM     c1  853   1.157   0.395   1.653
  138TCM    cl1  854   1.252   0.415   1.502
  138TCM    cl2  855   0.984   0.428   1.620
  138TCM     h1  856   1.169   0.293   1.690
  138TCM    cl3  857   1.217   0.511   1.777
  139TCM     c1  858   0.035   0.159   3.209
  139TCM    cl1  859   0.081   0.322   3.150
  139TCM    cl2  860   0.180   0.054   3.210
  139TCM     h1  861  -0.006   0.167   3.310
  139TCM    cl3  862  -0.089   0.090   3.099
  140TCM     c1  863   2.340   1.658   3.577
  140TCM    cl1  864   2.483   1.584   3.497
  140TCM    cl2  865   2.396   1.743   3.724
  140TCM     h1  866   2.291   1.728   3.508
  140TCM    cl3  867   2.226   1.528   3.624
  141TCM     c1  868   2.479   3.290   3.643
  141TCM    cl1  869   2.347   3.215   3.738
  141TCM    cl2  870   2.415   3.432   3.555
  141TCM     h1  871   2.559   3.321   3.710
  141TCM    cl3  872   2.542   3.169   3.526
  142TCM     c1  873   0.984   1.164   3.348
  142TCM    cl1  874   0.916   1.127   3.186
  142TCM    cl2  875   0.902   1.309   3.415
  142TCM     h1  876   0.967   1.079   3.415
  142TCM    cl3  877   1.160   1.195   3.333
  143TCM     c1  878   0.845   4.451   1.642
  143TCM    cl1  879   1.017   4.499   1.664
  143TCM    cl2  880   0.741   4.596   1.645
  143TCM     h1  881   0.834   4.399   1.547
  143TCM    cl3  882   0.798   4.341   1.776
  144TCM     c1  883   3.622   4.041   2.305
  144TCM    cl1  884   3.643   4.197   2.220
  144TCM    cl2  885   3.596   3.910   2.185
  144TCM     h1  886   3.712   4.019   2.364
  144TCM    cl3  887   3.480   4.051   2.415
  145TCM     c1  888   0.315   2.409   3.409
  145TCM    cl1  889   0.140   2.401   3.448
  145TCM    cl2  890   0.358   2.577   3.363
  145TCM     h1  891   0.373   2.379   3.497
  145TCM    cl3  892   0.351   2.299   3.272
  146TCM     c1  893   1.795   3.665   1.443
  146TCM    cl1  894   1.920   3.730   1.554
  146TCM    cl2  895   1.873   3.555   1.325
  146TCM     h1  896   1.720   3.611   1.501
  146TCM    cl3  897   1.717   3.801   1.355
  147TCM     c1  898   1.611   1.500   2.416
  147TCM    cl1  899   1.653   1.544   2.585
  147TCM    cl2  900   1.730   1.574   2.304
  147TCM     h1  901   1.613   1.392   2.405
  147TCM    cl3  902   1.447   1.562   2.380
  148TCM     c1  903   3.834   0.114   3.715
  148TCM    cl1  904   3.779   0.060   3.877
  148TCM    cl2  905   3.755   0.013   3.588
  148TCM     h1  906   3.807   0.218   3.700
  148TCM    cl3  907   4.012   0.094   3.702
  149TCM     c1  908   4.892   4.274   4.328
  149TCM    cl1  909   4.919   4.269   4.150
  149TCM    cl2  910   4.734   4.198   4.366
  149TCM     h1  911   4.972   4.220   4.378
  149TCM    cl3  912   4.891   4.445   4.384
  150TCM     c1  913   1.012   1.618   0.474
  150TCM    cl1  914   0.926   1.533   0.607
  150TCM    cl2  915   0.971   1.540   0.319
  150TCM     h1  916   0.982   1.724   0.472
  150TCM    cl3  917   1.189   1.607   0.501
  151TCM     c1  918   2.630   2.848   0.011
  151TCM    cl1  919   2.779   2.947  -0.003
  151TCM    cl2  920   2.675   2.678   0.044
  151TCM     h1  921   2.568   2.887   0.092
  151TCM    cl3  922   2.539   2.856  -0.144
  152TCM     c1  923   3.573   1.279   3.094
  152TCM    cl1  924   3.690   1.267   2.959
  152TCM    cl2  925   3.585   1.133   3.197
  152TCM     h1  926   3.596   1.368   3.154
  152TCM    cl3  927   3.407   1.292   3.028
  153TCM     c1  928   3.615   0.203   1.691
  153TCM    cl1  929   3.613   0.351   1.794
  153TCM    cl2  930   3.727   0.082   1.762
  153TCM     h1  931   3.515   0.161   1.686
  153TCM    cl3  932   3.671   0.245   1.526
  154TCM     c1  933   3.648   2.468   1.406
  154TCM    cl1  934   3.551   2.413   1.546
  154TCM    cl2  935   3.812   2.395   1.415
  154TCM     h1  936   3.599   2.436   1.313
  154TCM    cl3  937   3.662   2.646   1.409
  155TCM     c1  938   2.842   4.081   2.422
  155TCM    cl1  939   2.872   4.030   2.592
  155TCM    cl2  940   2.756   4.238   2.421
  155TCM     h1  941   2.938   4.092   2.370
  155TCM    cl3  942   2.743   3.957   2.338
  156TCM     c1  943   4.344   0.944   2.551
  156TCM    cl1  944   4.462   0.856   2.653
  156TCM    cl2  945   4.432   1.045   2.432
  156TCM     h1  946   4.280   0.873   2.499
  156TCM    cl3  947   4.243   1.050   2.656
  157TCM     c1  948   1.176   1.889   4.536
  157TCM    cl1  949   1.130   1.721   4.578
  157TCM    cl2  950   1.346   1.892   4.479
  157TCM     h1  951   1.110   1.927   4.459
  157TCM    cl3  952   1.162   1.990   4.684
  158TCM     c1  953   2.403   4.583   4.075
  158TCM    cl1  954   2.225   4.574   4.102
  158TCM    cl2  955   2.446   4.490   3.928
  158TCM     h1  956   2.433   4.688   4.063
  158TCM    cl3  957   2.487   4.512   4.217
  159TCM     c1  958   2.210   4.985   4.795
  159TCM    cl1  959   2.334   4.893   4.887
  159TCM    cl2  960   2.092   4.872   4.721
  159TCM     h1  961   2.158   5.053   4.862
  159TCM    cl3  962   2.288   5.079   4.664
  160TCM     c1  963   1.915   1.323   2.849
  160TCM    cl1  964   2.075   1.391   2.892
  160TCM    cl2  965   1.902   1.310   2.671
  160TCM     h1  966   1.903   1.224   2.895
  160TCM    cl3  967   1.787   1.433   2.911
  161TCM     c1  968   1.960   2.273   4.975
  161TCM    cl1  969   2.112   2.179   4.961
  161TCM    cl2  970   1.947   2.340   5.141
  161TCM     h1  971   1.961   2.355   4.902
  161TCM    cl3  972   1.821   2.165   4.944
  162TCM     c1  973   2.190   1.826   1.532
  162TCM    cl1  974   2.066   1.806   1.403
  162TCM    cl2  975   2.115   1.794   1.691
  162TCM     h1  976   2.272   1.755   1.515
  162TCM    cl3  977   2.254   1.994   1.527
  163TCM     c1  978   2.671   2.772   0.471
  163TCM    cl1  979   2.809   2.786   0.359
  163TCM    cl2  980   2.732   2.726   0.634
  163TCM     h1  981   2.620   2.868   0.478
  163TCM    cl3  982   2.556   2.647   0.413
  164TCM     c1  983   3.250   1.691   1.841
  164TCM    cl1  984   3.235   1.845   1.751
  164TCM    cl2  985   3.260   1.554   1.726
  164TCM     h1  986   3.341   1.694   1.902
  164TCM    cl3  987   3.107   1.670   1.947
  165TCM     c1  988   4.577   4.606   2.618
  165TCM    cl1  989   4.404   4.654   2.619
  165TCM    cl2  990   4.676   4.736   2.692
  165TCM     h1  991   4.590   4.514   2.674
  165TCM    cl3  992   4.632   4.582   2.449
  166TCM     c1  993   3.005   0.172   4.519
  166TCM    cl1  994   2.901   0.264   4.404
  166TCM    cl2  995   2.950   0.002   4.527
  166TCM     h1  996   3.109   0.176   4.485
  166TCM    cl3  997   2.991   0.245   4.682
  167TCM     c1  998   3.778   3.947   3.807
  167TCM    cl1  999   3.734   3.787   3.740
  167TCM    cl2 1000   3.634   4.022   3.883
  167TCM     h1 1001   3.857   3.936   3.881
  167TCM    cl3 1002   3.836   4.052   3.673
  168TCM     c1 1003   2.166   1.247   2.355
  168TCM    cl1 1004   2.059   1.104   2.365
  168TCM    cl2 1005   2.258   1.263   2.509
  168TCM     h1 1006   2.236   1.236   2.272
  168TCM    cl3 1007   2.066   1.394   2.330
  169TCM     c1 1008   2.658   0.182   4.813
  169TCM    cl1 1009   2.511   0.251   4.890
  169TCM    cl2 1010   2.631   0.165   4.636
  169TCM     h1 1011   2.743   0.248   4.831
  169TCM    cl3 1012   2.691   0.020   4.883
  170TCM     c1 1013   2.396   2.524   1.924
  170TCM    cl1 1014   2.574   2.505   1.938
  170TCM    cl2 1015   2.360   2.658   1.810
  170TCM     h1 1016   2.351   2.431   1.887
  170TCM    cl3 1017   2.329   2.563   2.085
  171TCM     c1 1018   0.911   4.986   1.551
  171TCM    cl1 1019   0.953   4.885   1.693
  171TCM    cl2 1020   0.861   4.881   1.415
  171TCM     h1 1021   0.830   5.054   1.577
  171TCM    cl3 1022   1.056   5.081   1.503
  172TCM     c1 1023   4.156   2.153   4.224
  172TCM    cl1 1024   4.168   2.304   4.127
  172TCM    cl2 1025   4.101   2.194   4.390
  172TCM     h1 1026   4.085   2.085   4.177
  172TCM    cl3 1027   4.318   2.075   4.233
  173TCM     c1 1028   1.743   4.763   4.579
  173TCM    cl1 1029   1.684   4.813   4.740
  173TCM    cl2 1030   1.807   4.907   4.492
  173TCM     h1 1031   1.822   4.688   4.590
  173TCM    cl3 1032   1.607   4.694   4.485
  174TCM     c1 1033   3.215   3.631   0.250
  174TCM    cl1 1034   3.139   3.724   0.383
  174TCM    cl2 1035   3.167   3.701   0.093
  174TCM     h1 1036   3.324   3.635   0.260
  174TCM    cl3 1037   3.160   3.460   0.259
  175TCM     c1 1038   4.470   0.689   0.252
  175TCM    cl1 1039   4.550   0.843   0.209
  175TCM    cl2 1040   4.291   0.707   0.240
  175TCM     h1 1041   4.503   0.609   0.185
  175TCM    cl3 1042   4.512   0.645   0.421
  176TCM     c1 1043   4.066   1.726   1.948
  176TCM    cl1 1044   4.172   1.667   1.817
  176TCM    cl2 1045   3.929   1.818   1.877
  176TCM     h1 1046   4.027   1.640   2.004
  176TCM    cl3 1047   4.159   1.832   2.059
  177TCM     c1 1048   3.719   1.607   4.808
  177TCM    cl1 1049   3.726   1.487   4.675
  177TCM    cl2 1050   3.826   1.746   4.769
  177TCM     h1 1051   3.616   1.643   4.820
  177TCM    cl3 1052   3.773   1.531   4.961
  178TCM     c1 1053   0.251   4.804   4.319
  178TCM    cl1 1054   0.367   4.800   4.182
  178TCM    cl2 1055   0.207   4.637   4.363
  178TCM     h1 1056   0.298   4.853   4.405
  178TCM    cl3 1057   0.104   4.895   4.272
  179TCM     c1 1058   4.120   2.947   4.699
  179TCM    cl1 1059   4.084   3.061   4.833
  179TCM    cl2 1060   4.242   2.827   4.754
  179TCM     h1 1061   4.028   2.896   4.670
  179TCM    cl3 1062   4.186   3.038   4.559
  180TCM     c1 1063   1.202   0.285   3.399
  180TCM    cl1 1064   1.372   0.290   3.455
  180TCM    cl2 1065   1.196   0.217   3.233
  180TCM     h1 1066   1.143   0.223   3.466
  180TCM    cl3 1067   1.136   0.452   3.397
  181TCM     c1 1068   3.566   0.156   1.115
  181TCM    cl1 1069   3.493   0.300   1.193
  181TCM    cl2 1070   3.464   0.104   0.976
  181TCM     h1 1071   3.666   0.181   1.078
  181TCM    cl3 1072   3.578   0.022   1.234
  182TCM     c1 1073   1.042   0.210   3.909
  182TCM    cl1 1074   0.983   0.044   3.941
  182TCM    cl2 1075   1.070   0.230   3.733
  182TCM     h1 1076   0.967   0.283   3.942
  182TCM    cl3 1077   1.196   0.237   3.998
  183TCM     c1 1078   3.242   0.196   3.348
  183TCM    cl1 1079   3.328   0.227   3.502
  183TCM    cl2 1080   3.221   0.351   3.261
  183TCM     h1 1081   3.300   0.127   3.287
  183TCM    cl3 1082   3.081   0.126   3.385
  184TCM     c1 1083   2.116   1.021   3.901
  184TCM    cl1 1084   2.188   0.939   4.044
  184TCM    cl2 1085   1.941   1.045   3.929
  184TCM     h1 1086   2.165   1.117   3.886
  184TCM    cl3 1087   2.140   0.918   3.756
  185TCM     c1 1088   3.114   0.448   0.028
  185TCM    cl1 1089   2.948   0.380   0.018
  185TCM    cl2 1090   3.228   0.343  -0.063
  185TCM     h1 1091   3.115   0.548  -0.015
  185TCM    cl3 1092   3.167   0.455   0.199
  186TCM     c1 1093   1.641   1.989   2.615
  186TCM    cl1 1094   1.603   1.884   2.756
  186TCM    cl2 1095   1.640   1.889   2.466
  186TCM     h1 1096   1.565   2.067   2.607
  186TCM    cl3 1097   1.803   2.063   2.637
  187TCM     c1 1098   4.682   3.879   4.601
  187TCM    cl1 1099   4.526   3.925   4.526
  187TCM    cl2 1100   4.745   4.019   4.692
  187TCM     h1 1101   4.667   3.795   4.669
  187TCM    cl3 1102   4.799   3.831   4.474
  188TCM     c1 1103   0.662   0.774   2.799
  188TCM    cl1 1104   0.725   0.698   2.650
  188TCM    cl2 1105   0.605   0.940   2.761
  188TCM     h1 1106   0.579   0.715   2.839
  188TCM    cl3 1107   0.793   0.784   2.921
  189TCM     c1 1108   4.664   0.820   3.292
  189TCM    cl1 1109   4.581   0.779   3.446
  189TCM    cl2 1110   4.812   0.720   3.276
  189TCM     h1 1111   4.597   0.801   3.208
  189TCM    cl3 1112   4.709   0.994   3.295
  190TCM     c1 1113   4.948   4.644   0.336
  190TCM    cl1 1114   5.105   4.730   0.318
  190TCM    cl2 1115   4.828   4.754   0.413
  190TCM     h1 1116   4.912   4.614   0.238
  190TCM    cl3 1117   4.970   4.499   0.439
  191TCM     c1 1118   0.728   3.180   0.021
  191TCM    cl1 1119   0.749   3.002   0.031
  191TCM    cl2 1120   0.606   3.218  -0.104
  191TCM     h1 1121   0.695   3.219   0.118
  191TCM    cl3 1122   0.885   3.255  -0.023
  192TCM     c1 1123   1.384   2.260   4.519
  192TCM    cl1 1124   1.409   2.407   4.618
  192TCM    cl2 1125   1.502   2.258   4.384
  192TCM     h1 1126   1.398   2.171   4.581
  192TCM    cl3 1127   1.218   2.261   4.453
  193TCM     c1 1128   1.688   4.077   4.549
  193TCM    cl1 1129   1.702   4.077   4.728
  193TCM    cl2 1130   1.539   3.988   4.501
  193TCM     h1 1131   1.682   4.180   4.513
  193TCM    cl3 1132   1.831   3.996   4.478
  194TCM     c1 1133   0.778   2.992   0.416
  194TCM    cl1 1134   0.777   3.165   0.368
  194TCM    cl2 1135   0.776   2.977   0.594
  194TCM     h1 1136   0.690   2.943   0.374
  194TCM    cl3 1137   0.926   2.913   0.352
  195TCM     c1 1138   4.115   1.476   2.370
  195TCM    cl1 1139   4.096   1.456   2.193
  195TCM    cl2 1140   4.150   1.648   2.406
  195TCM     h1 1141   4.023   1.446   2.420
  195TCM    cl3 1142   4.251   1.374   2.427
  196TCM     c1 1143   1.983   0.414   4.180
  196TCM    cl1 1144   1.923   0.302   4.308
  196TCM    cl2 1145   1.992   0.325   4.024
  196TCM     h1 1146   1.915   0.498   4.170
  196TCM    cl3 1147   2.146   0.473   4.225
  197TCM     c1 1148   0.343   0.014   2.326
  197TCM    cl1 1149   0.288  -0.090   2.191
  197TCM    cl2 1150   0.202   0.104   2.392
  197TCM     h1 1151   0.387  -0.048   2.405
  197TCM    cl3 1152   0.465   0.130   2.266
  198TCM     c1 1153   1.940   4.510   4.320
  198TCM    cl1 1154   1.851   4.621   4.211
  198TCM    cl2 1155   1.825   4.401   4.404
  198TCM     h1 1156   2.011   4.451   4.262
  198TCM    cl3 1157   2.030   4.606   4.442
  199TCM     c1 1158   4.203   4.462   1.146
  199TCM    cl1 1159   4.180   4.323   1.034
  199TCM    cl2 1160   4.271   4.601   1.057
  199TCM     h1 1161   4.107   4.489   1.191
  199TCM    cl3 1162   4.318   4.415   1.276
  200TCM     c1 1163   0.970   2.404   0.314
  200TCM    cl1 1164   0.987   2.306   0.463
  200TCM    cl2 1165   0.822   2.353   0.226
  200TCM     h1 1166   0.962   2.510   0.340
  200TCM    cl3 1167   1.112   2.380   0.207
  201TCM     c1 1168   1.409   0.491   3.858
  201TCM    cl1 1169   1.511   0.359   3.792
  201TCM    cl2 1170   1.276   0.527   3.744
  201TCM     h1 1171   1.367   0.460   3.955
  201TCM    cl3 1172   1.508   0.639   3.880
  202TCM     c1 1173   1.534   1.670   0.691
  202TCM    cl1 1174   1.682   1.714   0.783
  202TCM    cl2 1175   1.392   1.675   0.801
  202TCM     h1 1176   1.519   1.741   0.610
  202TCM    cl3 1177   1.552   1.505   0.624
  203TCM     c1 1178   1.162   4.669   1.288
  203TCM    cl1 1179   1.026   4.554   1.305
  203TCM    cl2 1180   1.204   4.738   1.448
  203TCM     h1 1181   1.249   4.617   1.247
  203TCM    cl3 1182   1.115   4.802   1.176
  204TCM     c1 1183   0.016   2.257   2.251
  204TCM    cl1 1184   0.079   2.205   2.092
  204TCM    cl2 1185  -0.139   2.345   2.228
  204TCM     h1 1186  -0.002   2.168   2.313
  204TCM    cl3 1187   0.135   2.363   2.333
  205TCM     c1 1188   0.964   2.274   4.858
  205TCM    cl1 1189   1.132   2.333   4.833
  205TCM    cl2 1190   0.968   2.123   4.955
  205TCM     h1 1191   0.906   2.349   4.911
  205TCM    cl3 1192   0.890   2.241   4.698
  206TCM     c1 1193   3.525   4.466   3.156
  206TCM    cl1 1194   3.464   4.402   3.000
  206TCM    cl2 1195   3.517   4.645   3.154
  206TCM     h1 1196   3.464   4.427   3.238
  206TCM    cl3 1197   3.696   4.415   3.178
  207TCM     c1 1198   2.460   0.907   2.245
  207TCM    cl1 1199   2.496   1.080   2.275
  207TCM    cl2 1200   2.584   0.839   2.134
  207TCM     h1 1201   2.462   0.852   2.340
  207TCM    cl3 1202   2.298   0.893   2.169
  208TCM     c1 1203   0.624   4.509   4.146
  208TCM    cl1 1204   0.698   4.659   4.210
  208TCM    cl2 1205   0.513   4.441   4.268
  208TCM     h1 1206   0.568   4.532   4.054
  208TCM    cl3 1207   0.753   4.390   4.110
  209TCM     c1 1208   2.145   4.673   3.667
  209TCM    cl1 1209   2.183   4.499   3.690
  209TCM    cl2 1210   2.193   4.723   3.502
  209TCM     h1 1211   2.037   4.689   3.680
  209TCM    cl3 1212   2.235   4.771   3.787
  210TCM     c1 1213   0.947   0.162   1.003
  210TCM    cl1 1214   0.849   0.012   1.011
  210TCM    cl2 1215   1.039   0.181   1.156
  210TCM     h1 1216   1.016   0.156   0.919
  210TCM    cl3 1217   0.837   0.303   0.981
  211TCM     c1 1218   2.487   3.065   0.735
  211TCM    cl1 1219   2.652   3.094   0.672
  211TCM    cl2 1220   2.423   2.913   0.666
  211TCM     h1 1221   2.490   3.058   0.845
  211TCM    cl3 1222   2.381   3.200   0.686
  212TCM     c1 1223   1.051   3.395   0.603
  212TCM    cl1 1224   1.092   3.224   0.568
  212TCM    cl2 1225   1.107   3.437   0.768
  212TCM     h1 1226   1.100   3.460   0.530
  212TCM    cl3 1227   0.873   3.417   0.594
  213TCM     c1 1228   3.672   2.134   1.811
  213TCM    cl1 1229   3.730   2.103   1.644
  213TCM    cl2 1230   3.813   2.168   1.917
  213TCM     h1 1231   3.604   2.219   1.811
  213TCM    cl3 1232   3.586   1.988   1.871
  214TCM     c1 1233   2.749   2.328   0.816
  214TCM    cl1 1234   2.697   2.361   0.647
  214TCM    cl2 1235   2.610   2.261   0.909
  214TCM     h1 1236   2.831   2.256   0.815
  214TCM    cl3 1237   2.804   2.480   0.893
  215TCM     c1 1238   2.540   3.405   4.044
  215TCM    cl1 1239   2.379   3.338   4.086
  215TCM    cl2 1240   2.522   3.536   3.922
  215TCM     h1 1241   2.587   3.445   4.135
  215TCM    cl3 1242   2.643   3.275   3.976
  216TCM     c1 1243   0.976   2.818   4.122
  216TCM    cl1 1244   1.016   2.674   4.022
  216TCM    cl2 1245   0.848   2.913   4.040
  216TCM     h1 1246   0.941   2.786   4.220
  216TCM    cl3 1247   1.122   2.921   4.141
  217TCM     c1 1248   1.455   2.863   3.238
  217TCM    cl1 1249   1.573   2.933   3.355
  217TCM    cl2 1250   1.527   2.862   3.074
  217TCM     h1 1251   1.429   2.761   3.268
  217TCM    cl3 1252   1.307   2.966   3.237
  218TCM     c1 1253   3.711   4.398   3.570
  218TCM    cl1 1254   3.692   4.385   3.748
  218TCM    cl2 1255   3.878   4.451   3.532
  218TCM     h1 1256   3.692   4.301   3.524
  218TCM    cl3 1257   3.595   4.519   3.508
  219TCM     c1 1258   0.269   2.960   0.265
  219TCM    cl1 1259   0.170   3.055   0.380
  219TCM    cl2 1260   0.266   2.787   0.314
  219TCM     h1 1261   0.228   2.970   0.164
  219TCM    cl3 1262   0.438   3.019   0.268
  220TCM     c1 1263   1.467   2.169   4.990
  220TCM    cl1 1264   1.482   2.109   4.822
  220TCM    cl2 1265   1.319   2.100   5.064
  220TCM     h1 1266   1.555   2.137   5.047
  220TCM    cl3 1267   1.459   2.348   4.990
  221TCM     c1 1268   0.506   1.730   2.662
  221TCM    cl1 1269   0.597   1.884   2.680
  221TCM    cl2 1270   0.616   1.600   2.606
  221TCM     h1 1271   0.463   1.702   2.759
  221TCM    cl3 1272   0.376   1.752   2.541
  222TCM     c1 1273   3.460   0.115   4.659
  222TCM    cl1 1274   3.357   0.245   4.590
  222TCM    cl2 1275   3.478  -0.016   4.538
  222TCM     h1 1276   3.558   0.156   4.684
  222TCM    cl3 1277   3.382   0.050   4.807
  223TCM     c1 1278   1.856   2.374   2.029
  223TCM    cl1 1279   1.792   2.504   1.924
  223TCM    cl2 1280   2.035   2.365   2.012
  223TCM     h1 1281   1.830   2.394   2.134
  223TCM    cl3 1282   1.783   2.219   1.978
  224TCM     c1 1283   4.075   0.488   3.859
  224TCM    cl1 1284   4.026   0.632   3.954
  224TCM    cl2 1285   3.958   0.463   3.725
  224TCM     h1 1286   4.175   0.503   3.818
  224TCM    cl3 1287   4.074   0.344   3.966
  225TCM     c1 1288   0.215   3.605   1.129
  225TCM    cl1 1289   0.314   3.712   1.024
  225TCM    cl2 1290   0.049   3.592   1.059
  225TCM     h1 1291   0.260   3.506   1.134
  225TCM    cl3 1292   0.204   3.677   1.293
  226TCM     c1 1293   0.383   1.802   0.682
  226TCM    cl1 1294   0.401   1.802   0.860
  226TCM    cl2 1295   0.287   1.945   0.631
  226TCM     h1 1296   0.482   1.807   0.635
  226TCM    cl3 1297   0.299   1.653   0.630
  227TCM     c1 1298   3.490   2.016   2.689
  227TCM    cl1 1299   3.590   2.155   2.636
  227TCM    cl2 1300   3.495   1.890   2.562
  227TCM     h1 1301   3.530   1.976   2.783
  227TCM    cl3 1302   3.320   2.070   2.712
  228TCM     c1 1303   0.378   4.681   2.697
  228TCM    cl1 1304   0.556   4.675   2.674
  228TCM    cl2 1305   0.300   4.735   2.544
  228TCM     h1 1306   0.341   4.581   2.723
  228TCM    cl3 1307   0.339   4.796   2.828
  229TCM     c1 1308   0.013   4.672   2.221
  229TCM    cl1 1309   0.149   4.556   2.236
  229TCM    cl2 1310  -0.027   4.738   2.384
  229TCM     h1 1311   0.042   4.754   2.154
  229TCM    cl3 1312  -0.131   4.588   2.155
  230TCM     c1 1313   0.511   2.289   2.186
  230TCM    cl1 1314   0.536   2.347   2.354
  230TCM    cl2 1315   0.408   2.404   2.096
  230TCM     h1 1316   0.608   2.280   2.136
  230TCM    cl3 1317   0.431   2.128   2.191
  231TCM     c1 1318   0.600   4.071   2.792
  231TCM    cl1 1319   0.543   4.113   2.957
  231TCM    cl2 1320   0.463   4.084   2.676
  231TCM     h1 1321   0.680   4.139   2.763
  231TCM    cl3 1322   0.662   3.902   2.792
  232TCM     c1 1323   2.380   0.538   3.850
  232TCM    cl1 1324   2.213   0.594   3.887
  232TCM    cl2 1325   2.425   0.595   3.686
  232TCM     h1 1326   2.449   0.579   3.924
  232TCM    cl3 1327   2.384   0.359   3.855
  233TCM     c1 1328   1.971   1.856   2.108
  233TCM    cl1 1329   1.973   1.693   2.032
  233TCM    cl2 1330   1.801   1.904   2.138
  233TCM     h1 1331   2.025   1.853   2.203
  233TCM    cl3 1332   2.049   1.974   1.999
  234TCM     c1 1333   1.200   3.153   2.009
  234TCM    cl1 1334   1.266   3.139   2.175
  234TCM    cl2 1335   1.313   3.073   1.894
  234TCM     h1 1336   1.103   3.103   2.004
  234TCM    cl3 1337   1.182   3.326   1.966
  235TCM     c1 1338   4.598   3.505   2.946
  235TCM    cl1 1339   4.466   3.386   2.975
  235TCM    cl2 1340   4.554   3.609   2.807
  235TCM     h1 1341   4.611   3.567   3.035
  235TCM    cl3 1342   4.750   3.417   2.910
  236TCM     c1 1343   4.103   0.716   4.312
  236TCM    cl1 1344   4.034   0.784   4.464
  236TCM    cl2 1345   4.227   0.593   4.353
  236TCM     h1 1346   4.023   0.670   4.254
  236TCM    cl3 1347   4.179   0.848   4.218
  237TCM     c1 1348   0.261   2.819   4.301
  237TCM    cl1 1349   0.342   2.664   4.343
  237TCM    cl2 1350   0.386   2.944   4.271
  237TCM     h1 1351   0.200   2.806   4.212
  237TCM    cl3 1352   0.159   2.871   4.439
  238TCM     c1 1353   1.054   1.769   0.002
  238TCM    cl1 1354   1.194   1.761   0.113
  238TCM    cl2 1355   0.906   1.804   0.098
  238TCM     h1 1356   1.069   1.847  -0.072
  238TCM    cl3 1357   1.035   1.610  -0.080
  239TCM     c1 1358   1.812   1.992   1.620
  239TCM    cl1 1359   1.931   2.118   1.665
  239TCM    cl2 1360   1.666   2.070   1.550
  239TCM     h1 1361   1.856   1.925   1.546
  239TCM    cl3 1362   1.765   1.897   1.765
  240TCM     c1 1363   2.565   4.270   3.464
  240TCM    cl1 1364   2.513   4.434   3.512
  240TCM    cl2 1365   2.485   4.149   3.570
  240TCM     h1 1366   2.537   4.251   3.359
  240TCM    cl3 1367   2.744   4.256   3.480
  241TCM     c1 1368   3.197   0.240   1.547
  241TCM    cl1 1369   3.265   0.316   1.694
  241TCM    cl2 1370   3.304   0.107   1.493
  241TCM     h1 1371   3.097   0.201   1.568
  241TCM    cl3 1372   3.186   0.364   1.417
  242TCM     c1 1373   2.435   4.703   4.523
  242TCM    cl1 1374   2.331   4.803   4.417
  242TCM    cl2 1375   2.333   4.612   4.639
  242TCM     h1 1376   2.492   4.632   4.462
  242TCM    cl3 1377   2.549   4.808   4.613
  243TCM     c1 1378   2.326   1.779   3.091
  243TCM    cl1 1379   2.438   1.657   3.159
  243TCM    cl2 1380   2.230   1.702   2.960
  243TCM     h1 1381   2.259   1.817   3.169
  243TCM    cl3 1382   2.422   1.912   3.020
  244TCM     c1 1383   0.734   1.752   4.612
  244TCM    cl1 1384   0.785   1.581   4.632
  244TCM    cl2 1385   0.784   1.810   4.450
  244TCM     h1 1386   0.625   1.759   4.622
  244TCM    cl3 1387   0.813   1.853   4.738
  245TCM     c1 1388   3.076   1.030   2.823
  245TCM    cl1 1389   3.194   0.895   2.820
  245TCM    cl2 1390   3.162   1.184   2.789
  245TCM     h1 1391   2.999   1.013   2.748
  245TCM    cl3 1392   3.002   1.041   2.986
  246TCM     c1 1393   3.508   0.649   1.332
  246TCM    cl1 1394   3.514   0.573   1.494
  246TCM    cl2 1395   3.618   0.791   1.328
  246TCM     h1 1396   3.540   0.577   1.257
  246TCM    cl3 1397   3.340   0.702   1.297
  247TCM     c1 1398   0.372   0.144   0.220
  247TCM    cl1 1399   0.208   0.203   0.260
  247TCM    cl2 1400   0.464   0.277   0.141
  247TCM     h1 1401   0.423   0.112   0.311
  247TCM    cl3 1402   0.358   0.006   0.107
  248TCM     c1 1403   0.796   3.732   3.605
  248TCM    cl1 1404   0.830   3.684   3.436
  248TCM    cl2 1405   0.643   3.654   3.657
  248TCM     h1 1406   0.878   3.699   3.670
  248TCM    cl3 1407   0.778   3.910   3.616
  249TCM     c1 1408   0.182   3.948   4.168
  249TCM    cl1 1409   0.064   3.896   4.044
  249TCM    cl2 1410   0.097   3.970   4.325
  249TCM     h1 1411   0.260   3.872   4.179
  249TCM    cl3 1412   0.256   4.104   4.118
  250TCM     c1 1413   3.302   1.874   0.859
  250TCM    cl1 1414   3.285   1.695   0.855
  250TCM    cl2 1415   3.146   1.948   0.909
  250TCM     h1 1416   3.380   1.901   0.930
  250TCM    cl3 1417   3.345   1.933   0.695
  251TCM     c1 1418   3.316   4.071   3.647
  251TCM    cl1 1419   3.425   4.182   3.556
  251TCM    cl2 1420   3.382   3.905   3.640
  251TCM     h1 1421   3.309   4.104   3.751
  251TCM    cl3 1422   3.153   4.073   3.571
  252TCM     c1 1423   1.641   4.702   2.993
  252TCM    cl1 1424   1.480   4.759   3.050
  252TCM    cl2 1425   1.732   4.634   3.132
  252TCM     h1 1426   1.627   4.625   2.917
  252TCM    cl3 1427   1.732   4.840   2.923
  253TCM     c1 1428   2.650   0.373   2.324
  253TCM    cl1 1429   2.572   0.533   2.347
  253TCM    cl2 1430   2.542   0.267   2.227
  253TCM     h1 1431   2.746   0.385   2.271
  253TCM    cl3 1432   2.679   0.298   2.484
  254TCM     c1 1433   3.210   1.935   3.987
  254TCM    cl1 1434   3.066   2.020   3.921
  254TCM    cl2 1435   3.356   1.987   3.897
  254TCM     h1 1436   3.221   1.959   4.093
  254TCM    cl3 1437   3.187   1.758   3.968
  255TCM     c1 1438   2.971   2.475   0.171
  255TCM    cl1 1439   3.085   2.601   0.228
  255TCM    cl2 1440   2.866   2.423   0.307
  255TCM     h1 1441   2.909   2.514   0.090
  255TCM    cl3 1442   3.066   2.334   0.113
  256TCM     c1 1443   1.423   0.088   4.425
  256TCM    cl1 1444   1.288   0.202   4.397
  256TCM    cl2 1445   1.377  -0.030   4.552
  256TCM     h1 1446   1.445   0.035   4.332
  256TCM    cl3 1447   1.567   0.179   4.479
  257TCM     c1 1448   0.827   1.820   1.594
  257TCM    cl1 1449   0.892   1.811   1.761
  257TCM    cl2 1450   0.834   1.659   1.517
  257TCM     h1 1451   0.723   1.855   1.596
  257TCM    cl3 1452   0.927   1.936   1.500
  258TCM     c1 1453   4.784   2.895   0.209
  258TCM    cl1 1454   4.720   3.029   0.108
  258TCM    cl2 1455   4.807   2.953   0.377
  258TCM     h1 1456   4.714   2.811   0.208
  258TCM    cl3 1457   4.942   2.842   0.142
  259TCM     c1 1458   0.595   1.483   3.540
  259TCM    cl1 1459   0.634   1.502   3.714
  259TCM    cl2 1460   0.655   1.626   3.449
  259TCM     h1 1461   0.644   1.393   3.501
  259TCM    cl3 1462   0.418   1.468   3.518
  260TCM     c1 1463   0.782   0.460   0.072
  260TCM    cl1 1464   0.916   0.388  -0.023
  260TCM    cl2 1465   0.679   0.561  -0.034
  260TCM     h1 1466   0.722   0.380   0.116
  260TCM    cl3 1467   0.850   0.561   0.204
  261TCM     c1 1468   3.467   4.542   4.594
  261TCM    cl1 1469   3.558   4.654   4.701
  261TCM    cl2 1470   3.555   4.387   4.579
  261TCM     h1 1471   3.368   4.524   4.635
  261TCM    cl3 1472   3.450   4.617   4.431
  262TCM     c1 1473   3.097   3.784   3.335
  262TCM    cl1 1474   3.123   3.687   3.484
  262TCM    cl2 1475   3.048   3.675   3.201
  262TCM     h1 1476   3.019   3.858   3.353
  262TCM    cl3 1477   3.250   3.867   3.289
  263TCM     c1 1478   2.851   4.143   3.059
  263TCM    cl1 1479   2.794   4.010   2.952
  263TCM    cl2 1480   2.918   4.072   3.209
  263TCM     h1 1481   2.928   4.201   3.007
  263TCM    cl3 1482   2.713   4.251   3.100
  264TCM     c1 1483   3.402   1.210   2.538
  264TCM    cl1 1484   3.451   1.311   2.399
  264TCM    cl2 1485   3.546   1.172   2.637
  264TCM     h1 1486   3.330   1.265   2.599
  264TCM    cl3 1487   3.327   1.059   2.479
  265TCM     c1 1488   4.524   2.007   4.638
  265TCM    cl1 1489   4.428   2.149   4.692
  265TCM    cl2 1490   4.534   1.887   4.771
  265TCM     h1 1491   4.476   1.961   4.551
  265TCM    cl3 1492   4.690   2.060   4.594
  266TCM     c1 1493   3.105   2.162   0.430
  266TCM    cl1 1494   3.036   2.132   0.593
  266TCM    cl2 1495   3.133   2.005   0.347
  266TCM     h1 1496   3.035   2.222   0.371
  266TCM    cl3 1497   3.261   2.249   0.446
  267TCM     c1 1498   4.655   4.611   1.163
  267TCM    cl1 1499   4.813   4.685   1.124
  267TCM    cl2 1500   4.639   4.596   1.341
  267TCM     h1 1501   4.574   4.674   1.124
  267TCM    cl3 1502   4.646   4.448   1.089
  268TCM     c1 1503   4.658   0.555   2.952
  268TCM    cl1 1504   4.719   0.721   2.926
  268TCM    cl2 1505   4.539   0.555   3.086
  268TCM     h1 1506   4.610   0.518   2.860
  268TCM    cl3 1507   4.793   0.447   2.996
  269TCM     c1 1508   3.369   1.971   0.049
  269TCM    cl1 1509   3.470   2.076   0.154
  269TCM    cl2 1510   3.475   1.871  -0.057
  269TCM     h1 1511   3.307   1.907   0.111
  269TCM    cl3 1512   3.264   2.074  -0.054
  270TCM     c1 1513   1.877   0.101   2.684
  270TCM    cl1 1514   1.972  -0.050   2.662
  270TCM    cl2 1515   1.769   0.124   2.543
  270TCM     h1 1516   1.817   0.093   2.775
  270TCM    cl3 1517   1.989   0.241   2.697
  271TCM     c1 1518   1.125   4.490   4.686
  271TCM    cl1 1519   1.156   4.429   4.852
  271TCM    cl2 1520   1.119   4.352   4.571
  271TCM     h1 1521   1.029   4.544   4.684
  271TCM    cl3 1522   1.258   4.601   4.639
  272TCM     c1 1523   4.983   0.243   4.461
  272TCM    cl1 1524   5.068   0.116   4.555
  272TCM    cl2 1525   4.829   0.177   4.397
  272TCM     h1 1526   4.963   0.329   4.526
  272TCM    cl3 1527   5.086   0.295   4.324
  273TCM     c1 1528   4.321   4.585   0.022
  273TCM    cl1 1529   4.386   4.645  -0.134
  273TCM    cl2 1530   4.160   4.659   0.052
  273TCM     h1 1531   4.311   4.476   0.018
  273TCM    cl3 1532   4.433   4.630   0.154
  274TCM     c1 1533   0.707   2.391   3.661
  274TCM    cl1 1534   0.566   2.500   3.666
  274TCM    cl2 1535   0.665   2.245   3.565
  274TCM     h1 1536   0.792   2.442   3.614
  274TCM    cl3 1537   0.751   2.343   3.828
  275TCM     c1 1538   3.664   1.180   1.438
  275TCM    cl1 1539   3.785   1.189   1.569
  275TCM    cl2 1540   3.748   1.183   1.280
  275TCM     h1 1541   3.606   1.088   1.447
  275TCM    cl3 1542   3.554   1.322   1.447
  276TCM     c1 1543   1.538   4.452   4.896
  276TCM    cl1 1544   1.647   4.549   5.001
  276TCM    cl2 1545   1.509   4.292   4.973
  276TCM     h1 1546   1.443   4.504   4.884
  276TCM    cl3 1547   1.614   4.428   4.735
  277TCM     c1 1548   3.267   0.977   3.822
  277TCM    cl1 1549   3.402   0.949   3.708
  277TCM    cl2 1550   3.137   1.070   3.740
  277TCM     h1 1551   3.228   0.881   3.857
  277TCM    cl3 1552   3.327   1.072   3.963
  278TCM     c1 1553   4.503   3.198   3.267
  278TCM    cl1 1554   4.676   3.187   3.223
  278TCM    cl2 1555   4.485   3.171   3.444
  278TCM     h1 1556   4.464   3.297   3.242
  278TCM    cl3 1557   4.411   3.072   3.178
  279TCM     c1 1558   1.189   0.347   0.219
  279TCM    cl1 1559   1.110   0.200   0.283
  279TCM    cl2 1560   1.358   0.309   0.172
  279TCM     h1 1561   1.135   0.383   0.131
  279TCM    cl3 1562   1.190   0.474   0.346
  280TCM     c1 1563   1.071   1.862   0.864
  280TCM    cl1 1564   1.020   1.700   0.923
  280TCM    cl2 1565   1.017   1.988   0.979
  280TCM     h1 1566   1.180   1.865   0.854
  280TCM    cl3 1567   0.996   1.892   0.703
  281TCM     c1 1568   3.330   2.834   1.749
  281TCM    cl1 1569   3.166   2.810   1.815
  281TCM    cl2 1570   3.354   3.008   1.709
  281TCM     h1 1571   3.405   2.803   1.823
  281TCM    cl3 1572   3.349   2.735   1.600
  282TCM     c1 1573   3.426   3.483   3.112
  282TCM    cl1 1574   3.417   3.542   3.282
  282TCM    cl2 1575   3.472   3.620   3.006
  282TCM     h1 1576   3.501   3.404   3.105
  282TCM    cl3 1577   3.266   3.419   3.063
  283TCM     c1 1578   1.107   1.301   4.734
  283TCM    cl1 1579   1.022   1.305   4.575
  283TCM    cl2 1580   1.260   1.393   4.721
  283TCM     h1 1581   1.043   1.345   4.810
  283TCM    cl3 1582   1.143   1.130   4.777
  284TCM     c1 1583   3.015   0.025   0.625
  284TCM    cl1 1584   3.006   0.000   0.803
  284TCM    cl2 1585   2.852   0.066   0.563
  284TCM     h1 1586   3.084   0.107   0.603
  284TCM    cl3 1587   3.073  -0.126   0.548
  285TCM     c1 1588   2.043   3.299   0.683
  285TCM    cl1 1589   2.100   3.454   0.612
  285TCM    cl2 1590   1.867   3.281   0.653
  285TCM     h1 1591   2.097   3.216   0.637
  285TCM    cl3 1592   2.073   3.300   0.860
  286TCM     c1 1593   2.805   3.534   1.649
  286TCM    cl1 1594   2.735   3.699   1.647
  286TCM    cl2 1595   2.905   3.508   1.503
  286TCM     h1 1596   2.866   3.521   1.738
  286TCM    cl3 1597   2.671   3.414   1.651
  287TCM     c1 1598   4.586   0.374   3.812
  287TCM    cl1 1599   4.687   0.235   3.761
  287TCM    cl2 1600   4.419   0.352   3.751
  287TCM     h1 1601   4.586   0.381   3.921
  287TCM    cl3 1602   4.655   0.525   3.743
  288TCM     c1 1603   4.526   2.914   4.486
  288TCM    cl1 1604   4.684   2.848   4.538
  288TCM    cl2 1605   4.468   2.821   4.344
  288TCM     h1 1606   4.454   2.906   4.567
  288TCM    cl3 1607   4.546   3.087   4.440
  289TCM     c1 1608   1.062   4.685   1.967
  289TCM    cl1 1609   1.118   4.844   2.027
  289TCM    cl2 1610   0.888   4.664   2.002
  289TCM     h1 1611   1.078   4.679   1.859
  289TCM    cl3 1612   1.156   4.554   2.047
  290TCM     c1 1613   4.972   4.997   0.095
  290TCM    cl1 1614   4.987   5.114  -0.039
  290TCM    cl2 1615   4.926   4.837   0.029
  290TCM     h1 1616   5.068   4.988   0.148
  290TCM    cl3 1617   4.847   5.054   0.210
  291TCM     c1 1618   4.699   0.326   3.352
  291TCM    cl1 1619   4.841   0.395   3.437
  291TCM    cl2 1620   4.550   0.408   3.408
  291TCM     h1 1621   4.710   0.340   3.244
  291TCM    cl3 1622   4.687   0.151   3.389
  292TCM     c1 1623   3.370   4.909   4.199
  292TCM    cl1 1624   3.492   5.010   4.114
  292TCM    cl2 1625   3.300   4.790   4.084
  292TCM     h1 1626   3.419   4.856   4.282
  292TCM    cl3 1627   3.240   5.015   4.264
  293TCM     c1 1628   1.262   1.787   1.578
  293TCM    cl1 1629   1.430   1.807   1.637
  293TCM    cl2 1630   1.206   1.622   1.618
  293TCM     h1 1631   1.197   1.861   1.626
  293TCM    cl3 1632   1.259   1.810   1.400
  294TCM     c1 1633   3.224   1.623   2.489
  294TCM    cl1 1634   3.167   1.602   2.320
  294TCM    cl2 1635   3.165   1.486   2.588
  294TCM     h1 1636   3.333   1.626   2.491
  294TCM    cl3 1637   3.158   1.776   2.553
  295TCM     c1 1638   3.572   0.259   0.154
  295TCM    cl1 1639   3.432   0.150   0.183
  295TCM    cl2 1640   3.595   0.281  -0.022
  295TCM     h1 1641   3.553   0.356   0.201
  295TCM    cl3 1642   3.720   0.187   0.226
  296TCM     c1 1643   0.502   1.306   1.782
  296TCM    cl1 1644   0.341   1.348   1.717
  296TCM    cl2 1645   0.528   1.393   1.937
  296TCM     h1 1646   0.509   1.198   1.800
  296TCM    cl3 1647   0.628   1.355   1.664
  297TCM     c1 1648   2.864   3.665   1.026
  297TCM    cl1 1649   2.824   3.818   0.942
  297TCM    cl2 1650   2.743   3.540   0.982
  297TCM     h1 1651   2.964   3.631   0.997
  297TCM    cl3 1652   2.859   3.694   1.203
  298TCM     c1 1653   2.259   2.453   4.160
  298TCM    cl1 1654   2.399   2.342   4.178
  298TCM    cl2 1655   2.213   2.518   4.321
  298TCM     h1 1656   2.286   2.535   4.094
  298TCM    cl3 1657   2.120   2.363   4.090
  299TCM     c1 1658   0.423   2.267   0.375
  299TCM    cl1 1659   0.344   2.117   0.317
  299TCM    cl2 1660   0.463   2.369   0.233
  299TCM     h1 1661   0.356   2.321   0.442
  299TCM    cl3 1662   0.573   2.222   0.464
  300TCM     c1 1663   2.622   0.305   1.422
  300TCM    cl1 1664   2.607   0.146   1.505
  300TCM    cl2 1665   2.550   0.433   1.525
  300TCM     h1 1666   2.728   0.327   1.405
  300TCM    cl3 1667   2.536   0.298   1.265
  301TCM     c1 1668   0.279   3.281   4.643
  301TCM    cl1 1669   0.362   3.122   4.648
  301TCM    cl2 1670   0.246   3.338   4.810
  301TCM     h1 1671   0.342   3.354   4.592
  301TCM    cl3 1672   0.124   3.263   4.555
  302TCM     c1 1673   3.737   1.746   1.572
  302TCM    cl1 1674   3.764   1.813   1.407
  302TCM    cl2 1675   3.809   1.581   1.580
  302TCM     h1 1676   3.784   1.810   1.646
  302TCM    cl3 1677   3.561   1.735   1.602
  303TCM     c1 1678   2.501   2.613   2.422
  303TCM    cl1 1679   2.628   2.574   2.301
  303TCM    cl2 1680   2.475   2.791   2.425
  303TCM     h1 1681   2.408   2.563   2.396
  303TCM    cl3 1682   2.556   2.559   2.584
  304TCM     c1 1683   4.628   2.435   0.482
  304TCM    cl1 1684   4.719   2.384   0.628
  304TCM    cl2 1685   4.558   2.598   0.510
  304TCM     h1 1686   4.695   2.439   0.396
  304TCM    cl3 1687   4.496   2.318   0.450
  305TCM     c1 1688   4.909   4.045   1.137
  305TCM    cl1 1689   4.812   3.898   1.167
  305TCM    cl2 1690   4.843   4.132   0.995
  305TCM     h1 1691   4.906   4.110   1.225
  305TCM    cl3 1692   5.079   3.997   1.104
  306TCM     c1 1693   3.099   1.695   3.551
  306TCM    cl1 1694   2.974   1.756   3.663
  306TCM    cl2 1695   3.130   1.521   3.583
  306TCM     h1 1696   3.065   1.707   3.448
  306TCM    cl3 1697   3.251   1.787   3.576
  307TCM     c1 1698   1.264   3.811   1.956
  307TCM    cl1 1699   1.409   3.889   2.027
  307TCM    cl2 1700   1.158   3.751   2.088
  307TCM     h1 1701   1.209   3.884   1.896
  307TCM    cl3 1702   1.315   3.674   1.853
  308TCM     c1 1703   2.867   4.042   1.932
  308TCM    cl1 1704   2.956   4.095   1.786
  308TCM    cl2 1705   2.922   4.140   2.072
  308TCM     h1 1706   2.759   4.057   1.917
  308TCM    cl3 1707   2.899   3.869   1.964
  309TCM     c1 1708   1.608   2.806   2.018
  309TCM    cl1 1709   1.702   2.958   2.006
  309TCM    cl2 1710   1.530   2.770   1.860
  309TCM     h1 1711   1.675   2.724   2.045
  309TCM    cl3 1712   1.481   2.823   2.144
  310TCM     c1 1713   4.667   4.848   4.653
  310TCM    cl1 1714   4.693   4.823   4.477
  310TCM    cl2 1715   4.760   4.992   4.705
  310TCM     h1 1716   4.561   4.864   4.672
  310TCM    cl3 1717   4.724   4.703   4.742
  311TCM     c1 1718   4.057   4.907   2.046
  311TCM    cl1 1719   4.057   4.849   2.216
  311TCM    cl2 1720   3.927   4.824   1.954
  311TCM     h1 1721   4.039   5.015   2.045
  311TCM    cl3 1722   4.216   4.873   1.971
  312TCM     c1 1723   1.370   0.027   2.755
  312TCM    cl1 1724   1.426  -0.132   2.692
  312TCM    cl2 1725   1.511   0.116   2.822
  312TCM     h1 1726   1.326   0.085   2.673
  312TCM    cl3 1727   1.249   0.001   2.885
  313TCM     c1 1728   3.373   4.824   3.599
  313TCM    cl1 1729   3.423   4.883   3.437
  313TCM    cl2 1730   3.194   4.815   3.604
  313TCM     h1 1731   3.416   4.726   3.617
  313TCM    cl3 1732   3.428   4.939   3.726
  314TCM     c1 1733   3.567   2.100   4.472
  314TCM    cl1 1734   3.714   2.005   4.509
  314TCM    cl2 1735   3.456   2.097   4.613
  314TCM     h1 1736   3.595   2.203   4.450
  314TCM    cl3 1737   3.483   2.029   4.330
  315TCM     c1 1738   4.597   4.209   2.409
  315TCM    cl1 1739   4.773   4.243   2.413
  315TCM    cl2 1740   4.525   4.249   2.569
  315TCM     h1 1741   4.550   4.270   2.332
  315TCM    cl3 1742   4.570   4.035   2.374
  316TCM     c1 1743   4.707   2.764   2.141
  316TCM    cl1 1744   4.606   2.901   2.085
  316TCM    cl2 1745   4.863   2.763   2.051
  316TCM     h1 1746   4.727   2.775   2.248
  316TCM    cl3 1747   4.620   2.610   2.112
  317TCM     c1 1748   1.308   2.028   0.417
  317TCM    cl1 1749   1.137   1.990   0.375
  317TCM    cl2 1750   1.348   1.955   0.576
  317TCM     h1 1751   1.374   1.988   0.340
  317TCM    cl3 1752   1.331   2.206   0.428
  318TCM     c1 1753   1.030   1.594   4.269
  318TCM    cl1 1754   1.085   1.755   4.210
  318TCM    cl2 1755   1.173   1.487   4.289
  318TCM     h1 1756   0.980   1.606   4.365
  318TCM    cl3 1757   0.916   1.522   4.151
  319TCM     c1 1758   3.942   3.617   0.994
  319TCM    cl1 1759   4.074   3.600   1.115
  319TCM    cl2 1760   3.893   3.789   0.984
  319TCM     h1 1761   3.977   3.583   0.897
  319TCM    cl3 1762   3.801   3.518   1.045
  320TCM     c1 1763   0.317   4.998   1.753
  320TCM    cl1 1764   0.251   5.141   1.667
  320TCM    cl2 1765   0.186   4.920   1.847
  320TCM     h1 1766   0.356   4.927   1.680
  320TCM    cl3 1767   0.449   5.050   1.863
  321TCM     c1 1768   1.402   2.207   1.754
  321TCM    cl1 1769   1.272   2.139   1.651
  321TCM    cl2 1770   1.456   2.084   1.873
  321TCM     h1 1771   1.487   2.237   1.692
  321TCM    cl3 1772   1.340   2.351   1.841
  322TCM     c1 1773   0.435   1.986   3.667
  322TCM    cl1 1774   0.320   2.105   3.599
  322TCM    cl2 1775   0.372   1.820   3.639
  322TCM     h1 1776   0.532   1.996   3.618
  322TCM    cl3 1777   0.453   2.015   3.843
  323TCM     c1 1778   1.086   0.766   4.897
  323TCM    cl1 1779   1.163   0.666   5.026
  323TCM    cl2 1780   0.942   0.848   4.964
  323TCM     h1 1781   1.158   0.840   4.861
  323TCM    cl3 1782   1.037   0.659   4.762
  324TCM     c1 1783   3.427   2.860   0.840
  324TCM    cl1 1784   3.499   2.924   0.992
  324TCM    cl2 1785   3.554   2.778   0.744
  324TCM     h1 1786   3.348   2.789   0.865
  324TCM    cl3 1787   3.358   2.996   0.745
  325TCM     c1 1788   3.264   4.679   2.606
  325TCM    cl1 1789   3.263   4.831   2.510
  325TCM    cl2 1790   3.099   4.648   2.670
  325TCM     h1 1791   3.294   4.596   2.542
  325TCM    cl3 1792   3.380   4.696   2.742
  326TCM     c1 1793   4.572   3.227   4.819
  326TCM    cl1 1794   4.396   3.251   4.791
  326TCM    cl2 1795   4.514   3.057   4.809
  326TCM     h1 1796   4.624   3.184   4.905
  326TCM    cl3 1797   4.536   3.352   4.942
  327TCM     c1 1798   4.396   2.632   2.443
  327TCM    cl1 1799   4.292   2.637   2.589
  327TCM    cl2 1800   4.513   2.497   2.458
  327TCM     h1 1801   4.334   2.616   2.355
  327TCM    cl3 1802   4.485   2.787   2.428
  328TCM     c1 1803   2.200   4.394   3.308
  328TCM    cl1 1804   2.123   4.272   3.415
  328TCM    cl2 1805   2.075   4.472   3.206
  328TCM     h1 1806   2.250   4.470   3.369
  328TCM    cl3 1807   2.320   4.312   3.203
  329TCM     c1 1808   3.304   2.292   0.818
  329TCM    cl1 1809   3.383   2.439   0.752
  329TCM    cl2 1810   3.156   2.339   0.909
  329TCM     h1 1811   3.276   2.225   0.736
  329TCM    cl3 1812   3.417   2.208   0.929
  330TCM     c1 1813   2.337   1.925   2.615
  330TCM    cl1 1814   2.498   1.984   2.666
  330TCM    cl2 1815   2.311   1.968   2.443
  330TCM     h1 1816   2.333   1.816   2.627
  330TCM    cl3 1817   2.210   2.001   2.716
  331TCM     c1 1818   2.620   2.863   3.122
  331TCM    cl1 1819   2.506   2.824   3.255
  331TCM    cl2 1820   2.777   2.782   3.152
  331TCM     h1 1821   2.578   2.828   3.027
  331TCM    cl3 1822   2.645   3.040   3.117
  332TCM     c1 1823   4.988   1.936   1.530
  332TCM    cl1 1824   4.971   2.072   1.646
  332TCM    cl2 1825   4.962   1.996   1.362
  332TCM     h1 1826   5.089   1.894   1.538
  332TCM    cl3 1827   4.867   1.809   1.567
  333TCM     c1 1828   1.537   1.070   3.204
  333TCM    cl1 1829   1.437   1.012   3.067
  333TCM    cl2 1830   1.584   1.240   3.176
  333TCM     h1 1831   1.479   1.062   3.297
  333TCM    cl3 1832   1.685   0.969   3.217
  334TCM     c1 1833   3.286   4.115   1.974
  334TCM    cl1 1834   3.451   4.117   1.903
  334TCM    cl2 1835   3.275   4.240   2.102
  334TCM     h1 1836   3.213   4.136   1.896
  334TCM    cl3 1837   3.254   3.954   2.046
  335TCM     c1 1838   2.064   3.342   0.183
  335TCM    cl1 1839   2.106   3.501   0.256
  335TCM    cl2 1840   1.948   3.369   0.048
  335TCM     h1 1841   2.155   3.295   0.144
  335TCM    cl3 1842   1.990   3.236   0.307
  336TCM     c1 1843   4.587   1.997   2.952
  336TCM    cl1 1844   4.596   2.144   3.054
  336TCM    cl2 1845   4.610   2.043   2.780
  336TCM     h1 1846   4.666   1.928   2.982
  336TCM    cl3 1847   4.427   1.919   2.971
  337TCM     c1 1848   2.515   3.804   1.157
  337TCM    cl1 1849   2.534   3.978   1.118
  337TCM    cl2 1850   2.353   3.749   1.106
  337TCM     h1 1851   2.592   3.746   1.105
  337TCM    cl3 1852   2.533   3.782   1.334
  338TCM     c1 1853   0.998   4.878   4.289
  338TCM    cl1 1854   1.171   4.865   4.242
  338TCM    cl2 1855   0.956   5.050   4.311
  338TCM     h1 1856   0.935   4.835   4.210
  338TCM    cl3 1857   0.972   4.789   4.443
  339TCM     c1 1858   3.600   3.008   3.317
  339TCM    cl1 1859   3.510   2.900   3.205
  339TCM    cl2 1860   3.556   3.179   3.283
  339TCM     h1 1861   3.574   2.984   3.420
  339TCM    cl3 1862   3.776   2.986   3.292
  340TCM     c1 1863   3.460   3.767   0.922
  340TCM    cl1 1864   3.415   3.641   1.042
  340TCM    cl2 1865   3.569   3.693   0.799
  340TCM     h1 1866   3.370   3.805   0.873
  340TCM    cl3 1867   3.545   3.901   1.006
  341TCM     c1 1868   2.401   1.124   3.561
  341TCM    cl1 1869   2.530   1.218   3.477
  341TCM    cl2 1870   2.392   1.180   3.731
  341TCM     h1 1871   2.305   1.141   3.511
  341TCM    cl3 1872   2.441   0.949   3.554
  342TCM     c1 1873   1.817   3.616   4.799
  342TCM    cl1 1874   1.698   3.720   4.714
  342TCM    cl2 1875   1.928   3.719   4.895
  342TCM     h1 1876   1.764   3.547   4.865
  342TCM    cl3 1877   1.909   3.521   4.678
  343TCM     c1 1878   4.248   3.760   3.018
  343TCM    cl1 1879   4.362   3.702   3.144
  343TCM    cl2 1880   4.194   3.622   2.919
  343TCM     h1 1881   4.162   3.807   3.066
  343TCM    cl3 1882   4.332   3.880   2.914
  344TCM     c1 1883   3.129   1.898   4.655
  344TCM    cl1 1884   3.119   1.719   4.659
  344TCM    cl2 1885   2.985   1.967   4.738
  344TCM     h1 1886   3.220   1.931   4.705
  344TCM    cl3 1887   3.131   1.953   4.484
  345TCM     c1 1888   0.468   0.651   3.833
  345TCM    cl1 1889   0.548   0.758   3.714
  345TCM    cl2 1890   0.581   0.612   3.966
  345TCM     h1 1891   0.379   0.701   3.873
  345TCM    cl3 1892   0.419   0.499   3.751
  346TCM     c1 1893   3.341   0.835   1.736
  346TCM    cl1 1894   3.446   0.724   1.830
  346TCM    cl2 1895   3.224   0.737   1.641
  346TCM     h1 1896   3.287   0.900   1.804
  346TCM    cl3 1897   3.441   0.934   1.624
  347TCM     c1 1898   2.591   4.361   1.983
  347TCM    cl1 1899   2.719   4.468   2.048
  347TCM    cl2 1900   2.567   4.223   2.095
  347TCM     h1 1901   2.498   4.417   1.973
  347TCM    cl3 1902   2.641   4.300   1.822
  348TCM     c1 1903   0.841   0.926   2.009
  348TCM    cl1 1904   0.841   0.760   1.943
  348TCM    cl2 1905   0.806   0.920   2.185
  348TCM     h1 1906   0.940   0.972   1.994
  348TCM    cl3 1907   0.715   1.024   1.926
  349TCM     c1 1908   2.416   4.202   2.834
  349TCM    cl1 1909   2.291   4.182   2.707
  349TCM    cl2 1910   2.575   4.229   2.757
  349TCM     h1 1911   2.390   4.287   2.897
  349TCM    cl3 1912   2.423   4.053   2.935
  350TCM     c1 1913   4.035   1.796   4.469
  350TCM    cl1 1914   3.993   1.843   4.300
  350TCM    cl2 1915   4.203   1.850   4.505
  350TCM     h1 1916   3.966   1.843   4.538
  350TCM    cl3 1917   4.026   1.618   4.485
  351TCM     c1 1918   0.274   0.397   4.818
  351TCM    cl1 1919   0.296   0.219   4.813
  351TCM    cl2 1920   0.174   0.441   4.960
  351TCM     h1 1921   0.372   0.445   4.826
  351TCM    cl3 1922   0.192   0.450   4.668
  352TCM     c1 1923   3.646   3.650   4.935
  352TCM    cl1 1924   3.631   3.740   4.780
  352TCM    cl2 1925   3.488   3.576   4.975
  352TCM     h1 1926   3.722   3.572   4.925
  352TCM    cl3 1927   3.693   3.764   5.066
  353TCM     c1 1928   2.069   2.254   2.461
  353TCM    cl1 1929   2.229   2.329   2.431
  353TCM    cl2 1930   2.028   2.144   2.325
  353TCM     h1 1931   2.072   2.198   2.555
  353TCM    cl3 1932   1.945   2.382   2.470
  354TCM     c1 1933   2.176   4.032   1.250
  354TCM    cl1 1934   2.048   3.909   1.224
  354TCM    cl2 1935   2.245   4.013   1.415
  354TCM     h1 1936   2.254   4.020   1.176
  354TCM    cl3 1937   2.102   4.196   1.235
  355TCM     c1 1938   3.993   3.569   1.626
  355TCM    cl1 1939   3.861   3.487   1.715
  355TCM    cl2 1940   4.023   3.482   1.472
  355TCM     h1 1941   3.965   3.673   1.605
  355TCM    cl3 1942   4.142   3.565   1.726
  356TCM     c1 1943   2.351   4.586   0.356
  356TCM    cl1 1944   2.203   4.485   0.350
  356TCM    cl2 1945   2.325   4.736   0.261
  356TCM     h1 1946   2.374   4.611   0.460
  356TCM    cl3 1947   2.489   4.495   0.285
  357TCM     c1 1948   2.582   2.272   4.510
  357TCM    cl1 1949   2.754   2.251   4.558
  357TCM    cl2 1950   2.503   2.394   4.615
  357TCM     h1 1951   2.578   2.305   4.406
  357TCM    cl3 1952   2.497   2.115   4.526
  358TCM     c1 1953   1.585   3.121   2.363
  358TCM    cl1 1954   1.716   2.998   2.362
  358TCM    cl2 1955   1.652   3.278   2.417
  358TCM     h1 1956   1.544   3.131   2.262
  358TCM    cl3 1957   1.456   3.068   2.476
  359TCM     c1 1958   0.693   4.141   4.385
  359TCM    cl1 1959   0.573   4.137   4.518
  359TCM    cl2 1960   0.624   4.063   4.238
  359TCM     h1 1961   0.719   4.244   4.361
  359TCM    cl3 1962   0.841   4.052   4.434
  360TCM     c1 1963   0.260   2.208   1.278
  360TCM    cl1 1964   0.166   2.336   1.193
  360TCM    cl2 1965   0.241   2.228   1.455
  360TCM     h1 1966   0.222   2.110   1.249
  360TCM    cl3 1967   0.433   2.221   1.235
  361TCM     c1 1968   4.458   0.768   3.993
  361TCM    cl1 1969   4.384   0.606   4.014
  361TCM    cl2 1970   4.442   0.820   3.823
  361TCM     h1 1971   4.407   0.840   4.058
  361TCM    cl3 1972   4.631   0.759   4.038
  362TCM     c1 1973   3.927   0.669   0.201
  362TCM    cl1 1974   3.889   0.831   0.267
  362TCM    cl2 1975   3.973   0.684   0.028
  362TCM     h1 1976   4.010   0.625   0.257
  362TCM    cl3 1977   3.783   0.563   0.216
  363TCM     c1 1978   1.785   1.816   3.706
  363TCM    cl1 1979   1.643   1.748   3.792
  363TCM    cl2 1980   1.746   1.981   3.647
  363TCM     h1 1981   1.870   1.821   3.774
  363TCM    cl3 1982   1.826   1.711   3.566
  364TCM     c1 1983   0.347   1.696   1.844
  364TCM    cl1 1984   0.236   1.746   1.713
  364TCM    cl2 1985   0.321   1.802   1.987
  364TCM     h1 1986   0.328   1.592   1.871
  364TCM    cl3 1987   0.516   1.712   1.786
  365TCM     c1 1988   1.636   0.248   3.153
  365TCM    cl1 1989   1.554   0.091   3.178
  365TCM    cl2 1990   1.732   0.286   3.300
  365TCM     h1 1991   1.702   0.242   3.066
  365TCM    cl3 1992   1.513   0.375   3.127
  366TCM     c1 1993   2.272   4.086   0.702
  366TCM    cl1 1994   2.263   4.071   0.881
  366TCM    cl2 1995   2.174   4.226   0.648
  366TCM     h1 1996   2.376   4.099   0.671
  366TCM    cl3 1997   2.205   3.937   0.627
  367TCM     c1 1998   3.399   1.501   3.854
  367TCM    cl1 1999   3.502   1.639   3.801
  367TCM    cl2 2000   3.441   1.457   4.023
  367TCM     h1 2001   3.294   1.529   3.848
  367TCM    cl3 2002   3.430   1.360   3.747
  368TCM     c1 2003   2.068   3.510   4.002
  368TCM    cl1 2004   1.943   3.638   4.013
  368TCM    cl2 2005   2.165   3.535   3.853
  368TCM     h1 2006   2.133   3.515   4.090
  368TCM    cl3 2007   1.988   3.350   3.994
  369TCM     c1 2008   2.979   0.734   4.701
  369TCM    cl1 2009   3.068   0.885   4.663
  369TCM    cl2 2010   2.931   0.734   4.874
  369TCM     h1 2011   2.890   0.727   4.638
  369TCM    cl3 2012   3.085   0.593   4.669
  370TCM     c1 2013   2.977   2.478   2.161
  370TCM    cl1 2014   2.960   2.634   2.074
  370TCM    cl2 2015   3.150   2.429   2.164
  370TCM     h1 2016   2.940   2.490   2.263
  370TCM    cl3 2017   2.881   2.352   2.077
  371TCM     c1 2018   4.769   4.067   0.401
  371TCM    cl1 2019   4.797   4.196   0.281
  371TCM    cl2 2020   4.873   3.926   0.364
  371TCM     h1 2021   4.793   4.104   0.501
  371TCM    cl3 2022   4.597   4.016   0.395
  372TCM     c1 2023   1.980   2.735   3.986
  372TCM    cl1 2024   1.922   2.681   4.147
  372TCM    cl2 2025   1.951   2.606   3.865
  372TCM     h1 2026   1.927   2.826   3.956
  372TCM    cl3 2027   2.156   2.769   3.995
  373TCM     c1 2028   2.676   3.876   4.184
  373TCM    cl1 2029   2.512   3.937   4.225
  373TCM    cl2 2030   2.683   3.699   4.214
  373TCM     h1 2031   2.697   3.897   4.079
  373TCM    cl3 2032   2.797   3.957   4.288
  374TCM     c1 2033   4.427   0.012   2.351
  374TCM    cl1 2034   4.372   0.015   2.521
  374TCM    cl2 2035   4.316   0.114   2.253
  374TCM     h1 2036   4.528   0.052   2.345
  374TCM    cl3 2037   4.425  -0.156   2.289
  375TCM     c1 2038   1.886   3.409   1.807
  375TCM    cl1 2039   2.012   3.511   1.884
  375TCM    cl2 2040   1.945   3.353   1.647
  375TCM     h1 2041   1.864   3.323   1.871
  375TCM    cl3 2042   1.738   3.507   1.783
  376TCM     c1 2043   3.352   0.410   0.573
  376TCM    cl1 2044   3.487   0.465   0.469
  376TCM    cl2 2045   3.412   0.383   0.740
  376TCM     h1 2046   3.273   0.487   0.574
  376TCM    cl3 2047   3.286   0.257   0.508
  377TCM     c1 2048   0.184   3.727   2.970
  377TCM    cl1 2049   0.315   3.809   2.880
  377TCM    cl2 2050   0.025   3.791   2.918
  377TCM     h1 2051   0.188   3.619   2.951
  377TCM    cl3 2052   0.205   3.757   3.146
  378TCM     c1 2053   2.921   2.734   4.726
  378TCM    cl1 2054   3.007   2.649   4.859
  378TCM    cl2 2055   2.785   2.631   4.669
  378TCM     h1 2056   2.882   2.829   4.762
  378TCM    cl3 2057   3.034   2.763   4.590
  379TCM     c1 2058   2.172   0.253   0.149
  379TCM    cl1 2059   2.328   0.317   0.209
  379TCM    cl2 2060   2.175   0.074   0.158
  379TCM     h1 2061   2.091   0.291   0.211
  379TCM    cl3 2062   2.148   0.304  -0.021
  380TCM     c1 2063   2.971   0.003   2.071
  380TCM    cl1 2064   3.006   0.061   1.905
  380TCM    cl2 2065   2.899   0.135   2.168
  380TCM     h1 2066   2.900  -0.081   2.067
  380TCM    cl3 2067   3.123  -0.054   2.149
  381TCM     c1 2068   1.612   3.488   4.352
  381TCM    cl1 2069   1.624   3.667   4.341
  381TCM    cl2 2070   1.558   3.442   4.516
  381TCM     h1 2071   1.541   3.451   4.277
  381TCM    cl3 2072   1.774   3.417   4.321
  382TCM     c1 2073   0.618   2.653   0.535
  382TCM    cl1 2074   0.775   2.578   0.577
  382TCM    cl2 2075   0.484   2.545   0.586
  382TCM     h1 2076   0.608   2.749   0.586
  382TCM    cl3 2077   0.611   2.679   0.357
  383TCM     c1 2078   2.776   0.151   3.074
  383TCM    cl1 2079   2.935   0.233   3.062
  383TCM    cl2 2080   2.803  -0.025   3.100
  383TCM     h1 2081   2.719   0.193   3.157
  383TCM    cl3 2082   2.686   0.174   2.920
  384TCM     c1 2083   2.089   2.901   0.909
  384TCM    cl1 2084   2.073   2.941   0.735
  384TCM    cl2 2085   2.235   2.982   0.976
  384TCM     h1 2086   2.000   2.935   0.963
  384TCM    cl3 2087   2.107   2.723   0.928
  385TCM     c1 2088   3.063   0.123   3.741
  385TCM    cl1 2089   2.910   0.029   3.730
  385TCM    cl2 2090   3.136   0.099   3.903
  385TCM     h1 2091   3.132   0.088   3.665
  385TCM    cl3 2092   3.028   0.297   3.716
  386TCM     c1 2093   0.035   0.421   3.982
  386TCM    cl1 2094  -0.122   0.478   4.047
  386TCM    cl2 2095   0.164   0.540   4.022
  386TCM     h1 2096   0.060   0.325   4.028
  386TCM    cl3 2097   0.025   0.402   3.804
  387TCM     c1 2098   2.466   2.536   3.715
  387TCM    cl1 2099   2.323   2.488   3.813
  387TCM    cl2 2100   2.418   2.670   3.606
  387TCM     h1 2101   2.546   2.570   3.781
  387TCM    cl3 2102   2.522   2.395   3.619
  388TCM     c1 2103   0.691   1.354   0.026
  388TCM    cl1 2104   0.763   1.289  -0.126
  388TCM    cl2 2105   0.522   1.296   0.042
  388TCM     h1 2106   0.750   1.320   0.112
  388TCM    cl3 2107   0.692   1.533   0.019
  389TCM     c1 2108   4.671   2.835   1.579
  389TCM    cl1 2109   4.721   3.000   1.631
  389TCM    cl2 2110   4.690   2.721   1.717
  389TCM     h1 2111   4.566   2.837   1.549
  389TCM    cl3 2112   4.773   2.781   1.442
  390TCM     c1 2113   3.015   3.171   0.442
  390TCM    cl1 2114   2.998   3.036   0.558
  390TCM    cl2 2115   2.909   3.307   0.492
  390TCM     h1 2116   3.119   3.205   0.440
  390TCM    cl3 2117   2.966   3.116   0.278
  391TCM     c1 2118   2.615   4.786   1.263
  391TCM    cl1 2119   2.569   4.666   1.139
  391TCM    cl2 2120   2.482   4.801   1.383
  391TCM     h1 2121   2.707   4.754   1.314
  391TCM    cl3 2122   2.643   4.945   1.185
  392TCM     c1 2123   2.531   3.767   4.647
  392TCM    cl1 2124   2.679   3.867   4.626
  392TCM    cl2 2125   2.549   3.615   4.554
  392TCM     h1 2126   2.517   3.744   4.752
  392TCM    cl3 2127   2.387   3.856   4.587
  393TCM     c1 2128   3.818   3.810   2.764
  393TCM    cl1 2129   3.831   3.637   2.808
  393TCM    cl2 2130   3.776   3.826   2.591
  393TCM     h1 2131   3.741   3.857   2.825
  393TCM    cl3 2132   3.976   3.891   2.795
  394TCM     c1 2133   2.383   1.572   2.321
  394TCM    cl1 2134   2.282   1.686   2.226
  394TCM    cl2 2135   2.515   1.663   2.403
  394TCM     h1 2136   2.321   1.523   2.396
  394TCM    cl3 2137   2.453   1.449   2.211
  395TCM     c1 2138   0.011   2.225   0.312
  395TCM    cl1 2139  -0.166   2.230   0.285
  395TCM    cl2 2140   0.045   2.240   0.488
  395TCM     h1 2141   0.050   2.130   0.275
  395TCM    cl3 2142   0.090   2.360   0.224
  396TCM     c1 2143   4.119   0.580   2.790
  396TCM    cl1 2144   4.286   0.594   2.853
  396TCM    cl2 2145   4.101   0.423   2.704
  396TCM     h1 2146   4.048   0.585   2.873
  396TCM    cl3 2147   4.088   0.714   2.675
  397TCM     c1 2148   4.860   2.237   4.878
  397TCM    cl1 2149   4.911   2.406   4.908
  397TCM    cl2 2150   4.693   2.214   4.939
  397TCM     h1 2151   4.863   2.216   4.771
  397TCM    cl3 2152   4.970   2.125   4.964
  398TCM     c1 2153   3.617   0.716   0.834
  398TCM    cl1 2154   3.555   0.624   0.975
  398TCM    cl2 2155   3.480   0.759   0.726
  398TCM     h1 2156   3.667   0.807   0.868
  398TCM    cl3 2157   3.733   0.614   0.743
  399TCM     c1 2158   2.680   4.271   4.520
  399TCM    cl1 2159   2.745   4.312   4.358
  399TCM    cl2 2160   2.534   4.169   4.501
  399TCM     h1 2161   2.756   4.217   4.577
  399TCM    cl3 2162   2.635   4.421   4.606
  400TCM     c1 2163   1.473   4.908   0.012
  400TCM    cl1 2164   1.409   4.946   0.176
  400TCM    cl2 2165   1.464   5.054  -0.092
  400TCM     h1 2166   1.577   4.875   0.020
  400TCM    cl3 2167   1.373   4.779  -0.061
  401TCM     c1 2168   1.298   3.169   3.930
  401TCM    cl1 2169   1.356   3.219   4.092
  401TCM    cl2 2170   1.380   3.017   3.882
  401TCM     h1 2171   1.190   3.154   3.933
  401TCM    cl3 2172   1.338   3.298   3.810
  402TCM     c1 2173   1.510   2.246   2.217
  402TCM    cl1 2174   1.657   2.216   2.315
  402TCM    cl2 2175   1.516   2.414   2.152
  402TCM     h1 2176   1.505   2.175   2.134
  402TCM    cl3 2177   1.365   2.228   2.321
  403TCM     c1 2178   1.220   1.307   0.181
  403TCM    cl1 2179   1.064   1.284   0.096
  403TCM    cl2 2180   1.320   1.427   0.092
  403TCM     h1 2181   1.202   1.343   0.283
  403TCM    cl3 2182   1.307   1.150   0.188
  404TCM     c1 2183   0.371   0.221   2.934
  404TCM    cl1 2184   0.249   0.149   2.824
  404TCM    cl2 2185   0.456   0.354   2.849
  404TCM     h1 2186   0.321   0.261   3.023
  404TCM    cl3 2187   0.492   0.098   2.984
  405TCM     c1 2188   2.742   3.761   0.046
  405TCM    cl1 2189   2.816   3.688   0.192
  405TCM    cl2 2190   2.683   3.630  -0.061
  405TCM     h1 2191   2.659   3.825   0.076
  405TCM    cl3 2192   2.865   3.857  -0.043
  406TCM     c1 2193   0.056   1.784   0.347
  406TCM    cl1 2194   0.114   1.868   0.199
  406TCM    cl2 2195  -0.013   1.625   0.302
  406TCM     h1 2196   0.140   1.770   0.416
  406TCM    cl3 2197  -0.071   1.883   0.426
  407TCM     c1 2198   3.260   4.405   3.902
  407TCM    cl1 2199   3.385   4.293   3.966
  407TCM    cl2 2200   3.121   4.308   3.842
  407TCM     h1 2201   3.226   4.472   3.981
  407TCM    cl3 2202   3.328   4.500   3.766
  408TCM     c1 2203   0.305   2.961   3.424
  408TCM    cl1 2204   0.237   3.127   3.422
  408TCM    cl2 2205   0.256   2.877   3.575
  408TCM     h1 2206   0.268   2.905   3.338
  408TCM    cl3 2207   0.484   2.971   3.417
  409TCM     c1 2208   2.726   0.340   1.829
  409TCM    cl1 2209   2.666   0.175   1.864
  409TCM    cl2 2210   2.863   0.331   1.713
  409TCM     h1 2211   2.645   0.400   1.786
  409TCM    cl3 2212   2.781   0.416   1.981
  410TCM     c1 2213   4.812   4.941   4.046
  410TCM    cl1 2214   4.645   4.957   4.111
  410TCM    cl2 2215   4.890   5.103   4.046
  410TCM     h1 2216   4.869   4.873   4.109
  410TCM    cl3 2217   4.805   4.879   3.878
  411TCM     c1 2218   3.913   0.995   1.852
  411TCM    cl1 2219   4.058   0.893   1.880
  411TCM    cl2 2220   3.866   1.075   2.005
  411TCM     h1 2221   3.936   1.071   1.777
  411TCM    cl3 2222   3.777   0.892   1.795
  412TCM     c1 2223   2.239   4.558   2.114
  412TCM    cl1 2224   2.273   4.578   1.939
  412TCM    cl2 2225   2.393   4.559   2.205
  412TCM     h1 2226   2.175   4.639   2.149
  412TCM    cl3 2227   2.156   4.401   2.141
  413TCM     c1 2228   2.171   2.426   0.660
  413TCM    cl1 2229   2.321   2.336   0.622
  413TCM    cl2 2230   2.032   2.347   0.579
  413TCM     h1 2231   2.155   2.428   0.768
  413TCM    cl3 2232   2.186   2.595   0.600
  414TCM     c1 2233   2.020   4.573   4.976
  414TCM    cl1 2234   2.198   4.546   4.975
  414TCM    cl2 2235   1.957   4.559   4.808
  414TCM     h1 2236   1.972   4.498   5.039
  414TCM    cl3 2237   1.984   4.736   5.040
  415TCM     c1 2238   3.444   1.042   2.124
  415TCM    cl1 2239   3.578   0.965   2.215
  415TCM    cl2 2240   3.310   0.925   2.103
  415TCM     h1 2241   3.408   1.129   2.179
  415TCM    cl3 2242   3.502   1.091   1.962
  416TCM     c1 2243   3.487   3.971   0.496
  416TCM    cl1 2244   3.640   3.992   0.588
  416TCM    cl2 2245   3.351   3.950   0.611
  416TCM     h1 2246   3.469   4.060   0.434
  416TCM    cl3 2247   3.499   3.826   0.391
  417TCM     c1 2248   1.738   3.930   1.798
  417TCM    cl1 2249   1.608   3.844   1.709
  417TCM    cl2 2250   1.779   3.840   1.947
  417TCM     h1 2251   1.827   3.937   1.735
  417TCM    cl3 2252   1.681   4.095   1.841
  418TCM     c1 2253   4.799   2.340   2.659
  418TCM    cl1 2254   4.886   2.201   2.585
  418TCM    cl2 2255   4.855   2.491   2.580
  418TCM     h1 2256   4.691   2.328   2.645
  418TCM    cl3 2257   4.837   2.347   2.834
  419TCM     c1 2258   1.486   1.234   1.968
  419TCM    cl1 2259   1.389   1.090   2.014
  419TCM    cl2 2260   1.548   1.311   2.117
  419TCM     h1 2261   1.570   1.204   1.904
  419TCM    cl3 2262   1.382   1.350   1.880
  420TCM     c1 2263   0.950   4.086   4.888
  420TCM    cl1 2264   0.871   4.073   5.048
  420TCM    cl2 2265   0.851   4.192   4.782
  420TCM     h1 2266   1.050   4.130   4.900
  420TCM    cl3 2267   0.964   3.923   4.815
  421TCM     c1 2268   3.080   2.680   0.621
  421TCM    cl1 2269   3.043   2.505   0.603
  421TCM    cl2 2270   3.238   2.715   0.543
  421TCM     h1 2271   3.002   2.739   0.573
  421TCM    cl3 2272   3.089   2.720   0.795
  422TCM     c1 2273   0.608   1.815   2.217
  422TCM    cl1 2274   0.675   1.871   2.060
  422TCM    cl2 2275   0.731   1.839   2.345
  422TCM     h1 2276   0.518   1.873   2.242
  422TCM    cl3 2277   0.565   1.641   2.206
  423TCM     c1 2278   2.655   0.512   4.487
  423TCM    cl1 2279   2.763   0.621   4.393
  423TCM    cl2 2280   2.486   0.571   4.479
  423TCM     h1 2281   2.660   0.411   4.445
  423TCM    cl3 2282   2.709   0.509   4.658
  424TCM     c1 2283   0.351   3.908   3.818
  424TCM    cl1 2284   0.474   3.850   3.934
  424TCM    cl2 2285   0.286   3.771   3.723
  424TCM     h1 2286   0.270   3.956   3.873
  424TCM    cl3 2287   0.426   4.028   3.708
  425TCM     c1 2288   4.869   3.793   0.806
  425TCM    cl1 2289   4.841   3.628   0.742
  425TCM    cl2 2290   4.759   3.908   0.724
  425TCM     h1 2291   4.849   3.794   0.914
  425TCM    cl3 2292   5.039   3.841   0.776
  426TCM     c1 2293   2.371   2.351   0.149
  426TCM    cl1 2294   2.375   2.449  -0.002
  426TCM    cl2 2295   2.267   2.432   0.270
  426TCM     h1 2296   2.331   2.252   0.127
  426TCM    cl3 2297   2.536   2.335   0.216
  427TCM     c1 2298   3.278   2.362   1.786
  427TCM    cl1 2299   3.381   2.482   1.871
  427TCM    cl2 2300   3.107   2.419   1.789
  427TCM     h1 2301   3.311   2.352   1.683
  427TCM    cl3 2302   3.290   2.204   1.870
  428TCM     c1 2303   3.902   1.151   4.765
  428TCM    cl1 2304   3.976   0.988   4.787
  428TCM    cl2 2305   4.019   1.276   4.819
  428TCM     h1 2306   3.879   1.166   4.659
  428TCM    cl3 2307   3.752   1.162   4.863
  429TCM     c1 2308   0.888   2.143   4.124
  429TCM    cl1 2309   0.959   2.093   4.280
  429TCM    cl2 2310   0.709   2.129   4.134
  429TCM     h1 2311   0.915   2.247   4.102
  429TCM    cl3 2312   0.949   2.037   3.992
  430TCM     c1 2313   0.303   0.333   2.019
  430TCM    cl1 2314   0.296   0.441   2.162
  430TCM    cl2 2315   0.353   0.427   1.875
  430TCM     h1 2316   0.374   0.253   2.038
  430TCM    cl3 2317   0.140   0.264   1.992
  431TCM     c1 2318   3.736   0.264   0.651
  431TCM    cl1 2319   3.651   0.123   0.579
  431TCM    cl2 2320   3.863   0.322   0.539
  431TCM     h1 2321   3.664   0.345   0.669
  431TCM    cl3 2322   3.809   0.215   0.808
  432TCM     c1 2323   3.048   2.115   3.563
  432TCM    cl1 2324   3.219   2.166   3.577
  432TCM    cl2 2325   3.026   2.026   3.408
  432TCM     h1 2326   3.021   2.050   3.646
  432TCM    cl3 2327   2.941   2.259   3.563
  433TCM     c1 2328   3.428   2.646   3.466
  433TCM    cl1 2329   3.365   2.511   3.567
  433TCM    cl2 2330   3.601   2.616   3.428
  433TCM     h1 2331   3.370   2.652   3.373
  433TCM    cl3 2332   3.413   2.799   3.557
  434TCM     c1 2333   3.081   4.430   1.588
  434TCM    cl1 2334   2.912   4.446   1.644
  434TCM    cl2 2335   3.089   4.301   1.463
  434TCM     h1 2336   3.115   4.524   1.545
  434TCM    cl3 2337   3.186   4.385   1.727
  435TCM     c1 2338   0.199   0.915   4.035
  435TCM    cl1 2339   0.148   1.070   4.111
  435TCM    cl2 2340   0.340   0.850   4.123
  435TCM     h1 2341   0.116   0.844   4.039
  435TCM    cl3 2342   0.244   0.945   3.864
  436TCM     c1 2343   0.433   1.746   1.308
  436TCM    cl1 2344   0.460   1.623   1.436
  436TCM    cl2 2345   0.587   1.834   1.277
  436TCM     h1 2346   0.399   1.698   1.217
  436TCM    cl3 2347   0.310   1.864   1.364
  437TCM     c1 2348   0.063   2.683   1.043
  437TCM    cl1 2349   0.123   2.721   1.208
  437TCM    cl2 2350   0.170   2.760   0.921
  437TCM     h1 2351   0.062   2.575   1.028
  437TCM    cl3 2352  -0.103   2.749   1.026
  438TCM     c1 2353   0.735   3.571   4.657
  438TCM    cl1 2354   0.568   3.506   4.663
  438TCM    cl2 2355   0.788   3.605   4.825
  438TCM     h1 2356   0.802   3.498   4.611
  438TCM    cl3 2357   0.737   3.723   4.562
  439TCM     c1 2358   3.376   1.058   1.076
  439TCM    cl1 2359   3.264   0.931   1.016
  439TCM    cl2 2360   3.543   1.018   1.024
  439TCM     h1 2361   3.347   1.155   1.034
  439TCM    cl3 2362   3.369   1.066   1.255
  440TCM     c1 2363   3.485   1.644   4.420
  440TCM    cl1 2364   3.469   1.732   4.575
  440TCM    cl2 2365   3.645   1.680   4.347
  440TCM     h1 2366   3.477   1.536   4.438
  440TCM    cl3 2367   3.354   1.696   4.308
  441TCM     c1 2368   0.886   3.754   4.051
  441TCM    cl1 2369   0.756   3.643   3.998
  441TCM    cl2 2370   1.013   3.760   3.923
  441TCM     h1 2371   0.845   3.854   4.066
  441TCM    cl3 2372   0.957   3.693   4.204
  442TCM     c1 2373   3.669   3.125   4.872
  442TCM    cl1 2374   3.731   3.089   4.707
  442TCM    cl2 2375   3.729   3.286   4.923
  442TCM     h1 2376   3.560   3.124   4.871
  442TCM    cl3 2377   3.729   3.000   4.986
  443TCM     c1 2378   0.863   2.285   1.273
  443TCM    cl1 2379   0.766   2.424   1.214
  443TCM    cl2 2380   0.783   2.133   1.222
  443TCM     h1 2381   0.964   2.290   1.230
  443TCM    cl3 2382   0.875   2.290   1.452
  444TCM     c1 2383   4.432   4.983   0.087
  444TCM    cl1 2384   4.303   4.997  -0.037
  444TCM    cl2 2385   4.461   5.144   0.161
  444TCM     h1 2386   4.401   4.912   0.164
  444TCM    cl3 2387   4.582   4.926   0.007
  445TCM     c1 2388   4.372   0.746   4.805
  445TCM    cl1 2389   4.231   0.653   4.745
  445TCM    cl2 2390   4.476   0.640   4.905
  445TCM     h1 2391   4.430   0.783   4.720
  445TCM    cl3 2392   4.316   0.885   4.904
  446TCM     c1 2393   3.074   0.709   3.146
  446TCM    cl1 2394   3.038   0.592   3.015
  446TCM    cl2 2395   3.252   0.732   3.156
  446TCM     h1 2396   3.026   0.805   3.123
  446TCM    cl3 2397   3.010   0.646   3.302
  447TCM     c1 2398   4.426   1.066   4.527
  447TCM    cl1 2399   4.521   1.088   4.678
  447TCM    cl2 2400   4.252   1.096   4.562
  447TCM     h1 2401   4.461   1.136   4.451
  447TCM    cl3 2402   4.447   0.897   4.468
  448TCM     c1 2403   4.977   2.103   3.305
  448TCM    cl1 2404   5.127   2.012   3.269
  448TCM    cl2 2405   4.836   1.992   3.295
  448TCM     h1 2406   4.983   2.145   3.406
  448TCM    cl3 2407   4.957   2.235   3.186
  449TCM     c1 2408   0.026   4.911   3.568
  449TCM    cl1 2409   0.198   4.876   3.535
  449TCM    cl2 2410  -0.074   4.858   3.429
  449TCM     h1 2411  -0.006   4.858   3.658
  449TCM    cl3 2412   0.004   5.088   3.592
  450TCM     c1 2413   3.237   0.572   3.613
  450TCM    cl1 2414   3.325   0.519   3.761
  450TCM    cl2 2415   3.353   0.647   3.498
  450TCM     h1 2416   3.190   0.486   3.566
  450TCM    cl3 2417   3.112   0.692   3.659
  451TCM     c1 2418   3.666   3.713   1.311
  451TCM    cl1 2419   3.542   3.823   1.377
  451TCM    cl2 2420   3.653   3.553   1.391
  451TCM     h1 2421   3.652   3.702   1.203
  451TCM    cl3 2422   3.829   3.780   1.343
  452TCM     c1 2423   0.507   0.128   0.949
  452TCM    cl1 2424   0.404   0.264   0.895
  452TCM    cl2 2425   0.458  -0.022   0.864
  452TCM     h1 2426   0.612   0.150   0.926
  452TCM    cl3 2427   0.488   0.105   1.126
  453TCM     c1 2428   2.214   3.759   3.372
  453TCM    cl1 2429   2.187   3.916   3.290
  453TCM    cl2 2430   2.298   3.787   3.528
  453TCM     h1 2431   2.118   3.710   3.390
  453TCM    cl3 2432   2.316   3.654   3.267
  454TCM     c1 2433   4.404   3.940   1.104
  454TCM    cl1 2434   4.481   4.102   1.116
  454TCM    cl2 2435   4.496   3.840   0.987
  454TCM     h1 2436   4.404   3.892   1.202
  454TCM    cl3 2437   4.235   3.959   1.047
  455TCM     c1 2438   3.091   4.209   4.317
  455TCM    cl1 2439   3.048   4.138   4.477
  455TCM    cl2 2440   3.141   4.079   4.205
  455TCM     h1 2441   3.004   4.261   4.276
  455TCM    cl3 2442   3.225   4.326   4.337
  456TCM     c1 2443   2.133   2.154   4.569
  456TCM    cl1 2444   2.151   2.149   4.390
  456TCM    cl2 2445   1.976   2.080   4.615
  456TCM     h1 2446   2.215   2.099   4.615
  456TCM    cl3 2447   2.136   2.325   4.625
  457TCM     c1 2448   1.517   3.243   1.597
  457TCM    cl1 2449   1.609   3.332   1.472
  457TCM    cl2 2450   1.422   3.361   1.694
  457TCM     h1 2451   1.449   3.172   1.550
  457TCM    cl3 2452   1.631   3.155   1.704
  458TCM     c1 2453   1.367   0.051   1.294
  458TCM    cl1 2454   1.458  -0.085   1.220
  458TCM    cl2 2455   1.403   0.202   1.205
  458TCM     h1 2456   1.260   0.030   1.289
  458TCM    cl3 2457   1.417   0.069   1.466
  459TCM     c1 2458   4.022   4.200   3.229
  459TCM    cl1 2459   4.084   4.064   3.130
  459TCM    cl2 2460   4.154   4.261   3.334
  459TCM     h1 2461   3.987   4.280   3.163
  459TCM    cl3 2462   3.886   4.142   3.331
  460TCM     c1 2463   0.546   0.902   3.330
  460TCM    cl1 2464   0.570   0.935   3.155
  460TCM    cl2 2465   0.693   0.953   3.419
  460TCM     h1 2466   0.460   0.958   3.366
  460TCM    cl3 2467   0.519   0.726   3.354
  461TCM     c1 2468   1.887   4.086   0.104
  461TCM    cl1 2469   1.902   4.134   0.277
  461TCM    cl2 2470   1.890   4.234   0.003
  461TCM     h1 2471   1.970   4.021   0.077
  461TCM    cl3 2472   1.732   4.000   0.080
  462TCM     c1 2473   3.102   4.973   0.135
  462TCM    cl1 2474   3.042   5.009  -0.031
  462TCM    cl2 2475   3.034   4.816   0.188
  462TCM     h1 2476   3.211   4.968   0.135
  462TCM    cl3 2477   3.048   5.102   0.247
  463TCM     c1 2478   3.760   0.902   2.933
  463TCM    cl1 2479   3.582   0.910   2.907
  463TCM    cl2 2480   3.844   0.979   2.795
  463TCM     h1 2481   3.786   0.954   3.026
  463TCM    cl3 2482   3.811   0.730   2.944
  464TCM     c1 2483   4.920   4.158   3.700
  464TCM    cl1 2484   4.850   3.995   3.729
  464TCM    cl2 2485   5.083   4.166   3.773
  464TCM     h1 2486   4.926   4.177   3.593
  464TCM    cl3 2487   4.816   4.283   3.777
  465TCM     c1 2488   4.340   1.447   4.748
  465TCM    cl1 2489   4.272   1.608   4.788
  465TCM    cl2 2490   4.454   1.396   4.877
  465TCM     h1 2491   4.259   1.374   4.740
  465TCM    cl3 2492   4.428   1.456   4.591
  466TCM     c1 2493   0.264   0.522   2.538
  466TCM    cl1 2494   0.336   0.651   2.640
  466TCM    cl2 2495   0.125   0.447   2.624
  466TCM     h1 2496   0.229   0.565   2.444
  466TCM    cl3 2497   0.387   0.397   2.506
  467TCM     c1 2498   0.479   2.069   1.784
  467TCM    cl1 2499   0.598   2.184   1.852
  467TCM    cl2 2500   0.519   2.038   1.611
  467TCM     h1 2501   0.483   1.976   1.840
  467TCM    cl3 2502   0.314   2.138   1.796
  468TCM     c1 2503   3.442   2.016   1.362
  468TCM    cl1 2504   3.307   2.002   1.244
  468TCM    cl2 2505   3.381   2.090   1.514
  468TCM     h1 2506   3.483   1.917   1.383
  468TCM    cl3 2507   3.570   2.121   1.292
  469TCM     c1 2508   2.573   0.877   4.066
  469TCM    cl1 2509   2.522   0.874   3.894
  469TCM    cl2 2510   2.751   0.867   4.076
  469TCM     h1 2511   2.539   0.970   4.112
  469TCM    cl3 2512   2.499   0.737   4.151
  470TCM     c1 2513   4.562   2.493   4.503
  470TCM    cl1 2514   4.427   2.553   4.604
  470TCM    cl2 2515   4.505   2.360   4.397
  470TCM     h1 2516   4.600   2.575   4.441
  470TCM    cl3 2517   4.693   2.434   4.610
  471TCM     c1 2518   3.752   0.719   2.554
  471TCM    cl1 2519   3.714   0.551   2.605
  471TCM    cl2 2520   3.601   0.816   2.548
  471TCM     h1 2521   3.821   0.763   2.627
  471TCM    cl3 2522   3.829   0.717   2.392
  472TCM     c1 2523   3.060   2.005   3.051
  472TCM    cl1 2524   3.234   1.975   3.084
  472TCM    cl2 2525   3.017   1.937   2.891
  472TCM     h1 2526   2.999   1.957   3.129
  472TCM    cl3 2527   3.029   2.181   3.052
  473TCM     c1 2528   3.515   1.599   1.214
  473TCM    cl1 2529   3.484   1.459   1.107
  473TCM    cl2 2530   3.369   1.633   1.312
  473TCM     h1 2531   3.599   1.576   1.281
  473TCM    cl3 2532   3.554   1.744   1.115
  474TCM     c1 2533   0.403   3.198   1.214
  474TCM    cl1 2534   0.256   3.271   1.289
  474TCM    cl2 2535   0.507   3.129   1.343
  474TCM     h1 2536   0.374   3.120   1.144
  474TCM    cl3 2537   0.492   3.327   1.127
  475TCM     c1 2538   2.182   3.596   4.398
  475TCM    cl1 2539   2.150   3.420   4.381
  475TCM    cl2 2540   2.030   3.687   4.372
  475TCM     h1 2541   2.221   3.616   4.498
  475TCM    cl3 2542   2.302   3.645   4.274
  476TCM     c1 2543   1.801   1.524   1.764
  476TCM    cl1 2544   1.634   1.520   1.700
  476TCM    cl2 2545   1.916   1.493   1.630
  476TCM     h1 2546   1.822   1.622   1.808
  476TCM    cl3 2547   1.820   1.396   1.889
  477TCM     c1 2548   4.581   2.564   4.967
  477TCM    cl1 2549   4.625   2.725   4.901
  477TCM    cl2 2550   4.402   2.553   4.981
  477TCM     h1 2551   4.617   2.485   4.900
  477TCM    cl3 2552   4.654   2.544   5.130
  478TCM     c1 2553   3.138   4.362   3.344
  478TCM    cl1 2554   3.232   4.247   3.244
  478TCM    cl2 2555   3.002   4.426   3.246
  478TCM     h1 2556   3.099   4.311   3.432
  478TCM    cl3 2557   3.246   4.496   3.395
  479TCM     c1 2558   4.983   3.892   4.939
  479TCM    cl1 2559   4.993   3.765   4.813
  479TCM    cl2 2560   5.107   3.861   5.065
  479TCM     h1 2561   5.001   3.990   4.894
  479TCM    cl3 2562   4.820   3.889   5.014
  480TCM     c1 2563   1.016   2.662   3.081
  480TCM    cl1 2564   0.938   2.615   2.927
  480TCM    cl2 2565   0.976   2.833   3.118
  480TCM     h1 2566   0.978   2.598   3.161
  480TCM    cl3 2567   1.194   2.643   3.068
  481TCM     c1 2568   2.474   2.688   1.000
  481TCM    cl1 2569   2.601   2.813   0.978
  481TCM    cl2 2570   2.523   2.573   1.129
  481TCM     h1 2571   2.380   2.736   1.029
  481TCM    cl3 2572   2.451   2.598   0.847
  482TCM     c1 2573   0.037   3.474   3.364
  482TCM    cl1 2574  -0.067   3.362   3.458
  482TCM    cl2 2575   0.044   3.633   3.447
  482TCM     h1 2576   0.138   3.432   3.357
  482TCM    cl3 2577  -0.031   3.495   3.199
  483TCM     c1 2578   2.528   4.686   3.083
  483TCM    cl1 2579   2.486   4.839   3.001
  483TCM    cl2 2580   2.498   4.548   2.972
  483TCM     h1 2581   2.633   4.687   3.112
  483TCM    cl3 2582   2.425   4.667   3.229
  484TCM     c1 2583   0.069   2.581   3.878
  484TCM    cl1 2584  -0.001   2.740   3.833
  484TCM    cl2 2585   0.120   2.584   4.049
  484TCM     h1 2586  -0.007   2.503   3.864
  484TCM    cl3 2587   0.211   2.546   3.774
  485TCM     c1 2588   2.582   2.038   3.415
  485TCM    cl1 2589   2.417   1.968   3.414
  485TCM    cl2 2590   2.682   1.958   3.289
  485TCM     h1 2591   2.577   2.145   3.395
  485TCM    cl3 2592   2.657   2.011   3.576
  486TCM     c1 2593   1.886   0.675   3.787
  486TCM    cl1 2594   1.847   0.510   3.728
  486TCM    cl2 2595   1.855   0.684   3.963
  486TCM     h1 2596   1.991   0.695   3.768
  486TCM    cl3 2597   1.785   0.796   3.701
  487TCM     c1 2598   0.776   0.096   0.483
  487TCM    cl1 2599   0.763   0.250   0.390
  487TCM    cl2 2600   0.667  -0.025   0.409
  487TCM     h1 2601   0.879   0.060   0.480
  487TCM    cl3 2602   0.726   0.123   0.653
  488TCM     c1 2603   3.949   1.309   3.305
  488TCM    cl1 2604   3.898   1.440   3.193
  488TCM    cl2 2605   4.118   1.338   3.357
  488TCM     h1 2606   3.884   1.308   3.393
  488TCM    cl3 2607   3.938   1.151   3.220
  489TCM     c1 2608   3.130   4.806   3.091
  489TCM    cl1 2609   3.269   4.918   3.082
  489TCM    cl2 2610   3.077   4.792   3.261
  489TCM     h1 2611   3.048   4.845   3.030
  489TCM    cl3 2612   3.177   4.644   3.030
  490TCM     c1 2613   2.096   2.523   2.830
  490TCM    cl1 2614   2.207   2.568   2.695
  490TCM    cl2 2615   2.172   2.572   2.985
  490TCM     h1 2616   2.001   2.575   2.817
  490TCM    cl3 2617   2.069   2.346   2.828
  491TCM     c1 2618   1.395   0.452   4.693
  491TCM    cl1 2619   1.447   0.578   4.810
  491TCM    cl2 2620   1.328   0.532   4.547
  491TCM     h1 2621   1.481   0.391   4.665
  491TCM    cl3 2622   1.269   0.348   4.769
  492TCM     c1 2623   2.218   4.180   4.258
  492TCM    cl1 2624   2.180   4.028   4.346
  492TCM    cl2 2625   2.235   4.313   4.377
  492TCM     h1 2626   2.312   4.168   4.203
  492TCM    cl3 2627   2.084   4.218   4.145
  493TCM     c1 2628   0.475   3.861   4.981
  493TCM    cl1 2629   0.421   3.696   4.936
  493TCM    cl2 2630   0.583   3.925   4.852
  493TCM     h1 2631   0.389   3.926   4.993
  493TCM    cl3 2632   0.566   3.853   5.136
  494TCM     c1 2633   0.133   2.858   1.539
  494TCM    cl1 2634   0.058   2.849   1.702
  494TCM    cl2 2635   0.311   2.877   1.557
  494TCM     h1 2636   0.111   2.766   1.484
  494TCM    cl3 2637   0.067   2.998   1.450
  495TCM     c1 2638   3.224   1.127   3.317
  495TCM    cl1 2639   3.103   1.250   3.269
  495TCM    cl2 2640   3.142   0.984   3.387
  495TCM     h1 2641   3.283   1.097   3.230
  495TCM    cl3 2642   3.333   1.198   3.441
  496TCM     c1 2643   1.219   4.902   0.768
  496TCM    cl1 2644   1.061   4.956   0.702
  496TCM    cl2 2645   1.207   4.731   0.819
  496TCM     h1 2646   1.296   4.913   0.692
  496TCM    cl3 2647   1.261   5.003   0.910
  497TCM     c1 2648   2.725   2.851   3.543
  497TCM    cl1 2649   2.766   2.680   3.505
  497TCM    cl2 2650   2.855   2.958   3.482
  497TCM     h1 2651   2.631   2.878   3.495
  497TCM    cl3 2652   2.710   2.870   3.721
  498TCM     c1 2653   4.963   3.111   0.896
  498TCM    cl1 2654   5.014   3.054   0.733
  498TCM    cl2 2655   4.912   3.283   0.884
  498TCM     h1 2656   4.879   3.050   0.932
  498TCM    cl3 2657   5.101   3.098   1.009
  499TCM     c1 2658   1.799   0.161   4.774
  499TCM    cl1 2659   1.705   0.306   4.822
  499TCM    cl2 2660   1.858   0.078   4.922
  499TCM     h1 2661   1.736   0.094   4.716
  499TCM    cl3 2662   1.940   0.212   4.675
  500TCM     c1 2663   1.036   1.597   2.649
  500TCM    cl1 2664   0.960   1.755   2.690
  500TCM    cl2 2665   0.950   1.465   2.735
  500TCM     h1 2666   1.030   1.581   2.541
  500TCM    cl3 2667   1.209   1.598   2.699
  501TCM     c1 2668   2.488   3.756   2.020
  501TCM    cl1 2669   2.311   3.725   2.013
  501TCM    cl2 2670   2.529   3.894   1.913
  501TCM     h1 2671   2.517   3.780   2.123
  501TCM    cl3 2672   2.576   3.610   1.966
  502TCM     c1 2673   1.542   0.475   2.585
  502TCM    cl1 2674   1.443   0.612   2.646
  502TCM    cl2 2675   1.435   0.335   2.550
  502TCM     h1 2676   1.595   0.504   2.494
  502TCM    cl3 2677   1.660   0.428   2.712
  503TCM     c1 2678   4.902   0.105   2.596
  503TCM    cl1 2679   4.761   0.053   2.497
  503TCM    cl2 2680   4.973  -0.038   2.678
  503TCM     h1 2681   4.977   0.152   2.532
  503TCM    cl3 2682   4.847   0.224   2.719
  504TCM     c1 2683   2.638   3.772   2.710
  504TCM    cl1 2684   2.519   3.876   2.625
  504TCM    cl2 2685   2.698   3.646   2.597
  504TCM     h1 2686   2.722   3.833   2.745
  504TCM    cl3 2687   2.559   3.693   2.851
  505TCM     c1 2688   0.199   4.842   4.781
  505TCM    cl1 2689   0.262   4.724   4.900
  505TCM    cl2 2690   0.069   4.767   4.683
  505TCM     h1 2691   0.159   4.930   4.833
  505TCM    cl3 2692   0.332   4.892   4.672
  506TCM     c1 2693   1.371   3.971   4.861
  506TCM    cl1 2694   1.344   3.800   4.812
  506TCM    cl2 2695   1.299   3.998   5.023
  506TCM     h1 2696   1.478   3.991   4.865
  506TCM    cl3 2697   1.292   4.081   4.744
  507TCM     c1 2698   0.440   1.876   3.181
  507TCM    cl1 2699   0.372   1.718   3.234
  507TCM    cl2 2700   0.556   1.849   3.048
  507TCM     h1 2701   0.358   1.940   3.147
  507TCM    cl3 2702   0.523   1.955   3.319
  508TCM     c1 2703   4.615   0.350   4.646
  508TCM    cl1 2704   4.531   0.495   4.581
  508TCM    cl2 2705   4.508   0.267   4.764
  508TCM     h1 2706   4.638   0.281   4.564
  508TCM    cl3 2707   4.767   0.399   4.727
  509TCM     c1 2708   4.172   2.271   2.235
  509TCM    cl1 2709   4.171   2.109   2.312
  509TCM    cl2 2710   4.334   2.303   2.165
  509TCM     h1 2711   4.096   2.274   2.155
  509TCM    cl3 2712   4.135   2.396   2.358
  510TCM     c1 2713   3.292   4.743   1.343
  510TCM    cl1 2714   3.125   4.776   1.401
  510TCM    cl2 2715   3.304   4.783   1.169
  510TCM     h1 2716   3.363   4.804   1.400
  510TCM    cl3 2717   3.328   4.570   1.368
  511TCM     c1 2718   0.176   4.950   0.638
  511TCM    cl1 2719   0.041   5.036   0.557
  511TCM    cl2 2720   0.316   4.941   0.526
  511TCM     h1 2721   0.205   5.005   0.729
  511TCM    cl3 2722   0.123   4.784   0.683
  512TCM     c1 2723   3.798   4.882   4.927
  512TCM    cl1 2724   3.653   4.877   5.031
  512TCM    cl2 2725   3.934   4.957   5.016
  512TCM     h1 2726   3.825   4.781   4.896
  512TCM    cl3 2727   3.764   4.982   4.781
  513TCM     c1 2728   0.772   4.922   2.315
  513TCM    cl1 2729   0.635   4.808   2.326
  513TCM    cl2 2730   0.782   4.989   2.148
  513TCM     h1 2731   0.758   5.004   2.386
  513TCM    cl3 2732   0.924   4.835   2.353
  514TCM     c1 2733   2.724   0.048   4.161
  514TCM    cl1 2734   2.630  -0.055   4.274
  514TCM    cl2 2735   2.651   0.038   3.997
  514TCM     h1 2736   2.722   0.151   4.196
  514TCM    cl3 2737   2.894  -0.009   4.154
  515TCM     c1 2738   4.121   3.955   1.430
  515TCM    cl1 2739   4.234   4.091   1.406
  515TCM    cl2 2740   4.068   3.950   1.601
  515TCM     h1 2741   4.034   3.967   1.365
  515TCM    cl3 2742   4.205   3.801   1.390
  516TCM     c1 2743   3.034   3.765   4.636
  516TCM    cl1 2744   3.073   3.755   4.461
  516TCM    cl2 2745   3.185   3.796   4.729
  516TCM     h1 2746   2.963   3.846   4.653
  516TCM    cl3 2747   2.962   3.610   4.690
  517TCM     c1 2748   2.746   0.391   3.988
  517TCM    cl1 2749   2.909   0.360   4.056
  517TCM    cl2 2750   2.744   0.549   3.904
  517TCM     h1 2751   2.719   0.311   3.918
  517TCM    cl3 2752   2.627   0.395   4.123
  518TCM     c1 2753   3.322   3.391   1.608
  518TCM    cl1 2754   3.188   3.413   1.725
  518TCM    cl2 2755   3.478   3.431   1.688
  518TCM     h1 2756   3.324   3.287   1.573
  518TCM    cl3 2757   3.298   3.501   1.467
  519TCM     c1 2758   1.397   3.286   2.815
  519TCM    cl1 2759   1.298   3.337   2.675
  519TCM    cl2 2760   1.570   3.317   2.780
  519TCM     h1 2761   1.367   3.341   2.904
  519TCM    cl3 2762   1.374   3.110   2.844
  520TCM     c1 2763   2.779   4.118   1.461
  520TCM    cl1 2764   2.876   3.967   1.462
  520TCM    cl2 2765   2.611   4.083   1.514
  520TCM     h1 2766   2.824   4.191   1.530
  520TCM    cl3 2767   2.779   4.184   1.295
  521TCM     c1 2768   0.133   1.508   2.793
  521TCM    cl1 2769   0.224   1.427   2.661
  521TCM    cl2 2770   0.250   1.595   2.898
  521TCM     h1 2771   0.062   1.579   2.750
  521TCM    cl3 2772   0.044   1.386   2.890
  522TCM     c1 2773   4.317   3.294   2.578
  522TCM    cl1 2774   4.282   3.151   2.475
  522TCM    cl2 2775   4.490   3.293   2.623
  522TCM     h1 2776   4.294   3.385   2.522
  522TCM    cl3 2777   4.215   3.287   2.726
  523TCM     c1 2778   2.649   4.810   2.285
  523TCM    cl1 2779   2.613   4.861   2.116
  523TCM    cl2 2780   2.622   4.949   2.395
  523TCM     h1 2781   2.584   4.727   2.313
  523TCM    cl3 2782   2.821   4.758   2.295
  524TCM     c1 2783   2.662   2.848   2.059
  524TCM    cl1 2784   2.718   2.898   1.896
  524TCM    cl2 2785   2.487   2.886   2.077
  524TCM     h1 2786   2.678   2.741   2.072
  524TCM    cl3 2787   2.754   2.938   2.184
  525TCM     c1 2788   1.824   3.499   3.676
  525TCM    cl1 2789   1.835   3.323   3.642
  525TCM    cl2 2790   1.659   3.556   3.635
  525TCM     h1 2791   1.844   3.517   3.781
  525TCM    cl3 2792   1.944   3.587   3.575
  526TCM     c1 2793   4.630   1.814   0.164
  526TCM    cl1 2794   4.543   1.971   0.178
  526TCM    cl2 2795   4.777   1.836   0.064
  526TCM     h1 2796   4.659   1.779   0.264
  526TCM    cl3 2797   4.524   1.692   0.086
  527TCM     c1 2798   2.127   2.922   1.943
  527TCM    cl1 2799   2.144   2.967   2.115
  527TCM    cl2 2800   2.048   3.057   1.854
  527TCM     h1 2801   2.225   2.902   1.900
  527TCM    cl3 2802   2.024   2.775   1.931
  528TCM     c1 2803   1.659   0.624   4.375
  528TCM    cl1 2804   1.600   0.522   4.239
  528TCM    cl2 2805   1.805   0.713   4.323
  528TCM     h1 2806   1.581   0.695   4.404
  528TCM    cl3 2807   1.701   0.519   4.514
  529TCM     c1 2808   0.313   0.043   3.917
  529TCM    cl1 2809   0.175  -0.070   3.899
  529TCM    cl2 2810   0.280   0.157   4.051
  529TCM     h1 2811   0.404  -0.014   3.938
  529TCM    cl3 2812   0.334   0.137   3.766
  530TCM     c1 2813   1.782   4.187   1.421
  530TCM    cl1 2814   1.820   4.360   1.452
  530TCM    cl2 2815   1.614   4.153   1.473
  530TCM     h1 2816   1.793   4.166   1.314
  530TCM    cl3 2817   1.895   4.085   1.515
  531TCM     c1 2818   4.872   0.810   3.670
  531TCM    cl1 2819   5.009   0.843   3.559
  531TCM    cl2 2820   4.774   0.959   3.690
  531TCM     h1 2821   4.810   0.730   3.628
  531TCM    cl3 2822   4.936   0.760   3.830
  532TCM     c1 2823   2.202   3.057   4.915
  532TCM    cl1 2824   2.329   3.107   5.031
  532TCM    cl2 2825   2.164   3.193   4.805
  532TCM     h1 2826   2.237   2.971   4.857
  532TCM    cl3 2827   2.054   3.011   5.006
  533TCM     c1 2828   2.755   4.194   0.914
  533TCM    cl1 2829   2.904   4.249   0.830
  533TCM    cl2 2830   2.643   4.120   0.795
  533TCM     h1 2831   2.781   4.120   0.991
  533TCM    cl3 2832   2.676   4.336   0.990
  534TCM     c1 2833   1.440   0.675   3.443
  534TCM    cl1 2834   1.437   0.695   3.265
  534TCM    cl2 2835   1.448   0.837   3.520
  534TCM     h1 2836   1.349   0.623   3.476
  534TCM    cl3 2837   1.584   0.580   3.490
  535TCM     c1 2838   1.371   1.030   2.516
  535TCM    cl1 2839   1.423   0.985   2.682
  535TCM    cl2 2840   1.384   0.888   2.408
  535TCM     h1 2841   1.268   1.066   2.518
  535TCM    cl3 2842   1.479   1.160   2.454
  536TCM     c1 2843   1.732   2.946   2.807
  536TCM    cl1 2844   1.821   3.059   2.700
  536TCM    cl2 2845   1.849   2.836   2.887
  536TCM     h1 2846   1.677   3.003   2.883
  536TCM    cl3 2847   1.616   2.849   2.711
  537TCM     c1 2848   3.679   4.201   2.795
  537TCM    cl1 2849   3.804   4.185   2.923
  537TCM    cl2 2850   3.558   4.070   2.814
  537TCM     h1 2851   3.630   4.298   2.803
  537TCM    cl3 2852   3.756   4.187   2.634
  538TCM     c1 2853   2.577   0.024   0.242
  538TCM    cl1 2854   2.680   0.169   0.218
  538TCM    cl2 2855   2.493   0.037   0.401
  538TCM     h1 2856   2.503   0.017   0.162
  538TCM    cl3 2857   2.680  -0.123   0.241
  539TCM     c1 2858   1.496   3.595   3.948
  539TCM    cl1 2859   1.576   3.755   3.964
  539TCM    cl2 2860   1.356   3.587   4.060
  539TCM     h1 2861   1.461   3.582   3.845
  539TCM    cl3 2862   1.613   3.466   3.988
  540TCM     c1 2863   2.307   2.240   1.155
  540TCM    cl1 2864   2.244   2.333   1.015
  540TCM    cl2 2865   2.240   2.073   1.151
  540TCM     h1 2866   2.416   2.235   1.150
  540TCM    cl3 2867   2.257   2.321   1.307
  541TCM     c1 2868   2.039   1.059   1.944
  541TCM    cl1 2869   2.134   1.195   2.012
  541TCM    cl2 2870   2.021   1.084   1.767
  541TCM     h1 2871   2.091   0.965   1.963
  541TCM    cl3 2872   1.877   1.056   2.021
  542TCM     c1 2873   2.217   2.786   0.302
  542TCM    cl1 2874   2.046   2.743   0.267
  542TCM    cl2 2875   2.225   2.953   0.366
  542TCM     h1 2876   2.258   2.716   0.375
  542TCM    cl3 2877   2.313   2.775   0.151
  543TCM     c1 2878   3.383   2.425   3.931
  543TCM    cl1 2879   3.221   2.356   3.896
  543TCM    cl2 2880   3.478   2.308   4.028
  543TCM     h1 2881   3.435   2.447   3.838
  543TCM    cl3 2882   3.362   2.577   4.026
  544TCM     c1 2883   0.584   0.230   1.456
  544TCM    cl1 2884   0.592   0.326   1.607
  544TCM    cl2 2885   0.558   0.057   1.497
  544TCM     h1 2886   0.501   0.265   1.394
  544TCM    cl3 2887   0.738   0.247   1.366
  545TCM     c1 2888   4.276   4.645   0.554
  545TCM    cl1 2889   4.189   4.698   0.702
  545TCM    cl2 2890   4.400   4.766   0.509
  545TCM     h1 2891   4.324   4.549   0.573
  545TCM    cl3 2892   4.158   4.627   0.420
  546TCM     c1 2893   0.198   4.127   0.477
  546TCM    cl1 2894   0.221   3.950   0.462
  546TCM    cl2 2895   0.060   4.161   0.587
  546TCM     h1 2896   0.289   4.172   0.518
  546TCM    cl3 2897   0.164   4.196   0.315
  547TCM     c1 2898   2.196   2.107   3.668
  547TCM    cl1 2899   2.117   1.946   3.664
  547TCM    cl2 2900   2.337   2.103   3.780
  547TCM     h1 2901   2.231   2.134   3.568
  547TCM    cl3 2902   2.078   2.228   3.727
  548TCM     c1 2903   0.469   3.940   0.784
  548TCM    cl1 2904   0.545   3.969   0.624
  548TCM    cl2 2905   0.343   4.065   0.813
  548TCM     h1 2906   0.423   3.841   0.785
  548TCM    cl3 2907   0.593   3.952   0.912
  549TCM     c1 2908   1.426   3.658   0.148
  549TCM    cl1 2909   1.397   3.491   0.207
  549TCM    cl2 2910   1.585   3.664   0.064
  549TCM     h1 2911   1.347   3.686   0.078
  549TCM    cl3 2912   1.428   3.772   0.286
  550TCM     c1 2913   3.204   1.960   2.226
  550TCM    cl1 2914   3.335   1.884   2.130
  550TCM    cl2 2915   3.084   2.035   2.116
  550TCM     h1 2916   3.154   1.883   2.286
  550TCM    cl3 2917   3.274   2.084   2.335
  551TCM     c1 2918   1.975   2.760   2.364
  551TCM    cl1 2919   1.919   2.741   2.533
  551TCM    cl2 2920   1.863   2.676   2.253
  551TCM     h1 2921   1.980   2.866   2.339
  551TCM    cl3 2922   2.138   2.686   2.349
  552TCM     c1 2923   3.378   4.823   1.798
  552TCM    cl1 2924   3.484   4.814   1.653
  552TCM    cl2 2925   3.215   4.761   1.754
  552TCM     h1 2926   3.420   4.762   1.878
  552TCM    cl3 2927   3.365   4.994   1.852
  553TCM     c1 2928   1.109   2.608   4.454
  553TCM    cl1 2929   1.052   2.775   4.485
  553TCM    cl2 2930   1.245   2.612   4.337
  553TCM     h1 2931   1.142   2.563   4.548
  553TCM    cl3 2932   0.974   2.513   4.385
  554TCM     c1 2933   4.391   3.620   4.750
  554TCM    cl1 2934   4.477   3.732   4.859
  554TCM    cl2 2935   4.504   3.562   4.623
  554TCM     h1 2936   4.353   3.535   4.807
  554TCM    cl3 2937   4.253   3.706   4.673
  555TCM     c1 2938   4.974   1.740   3.594
  555TCM    cl1 2939   5.035   1.650   3.737
  555TCM    cl2 2940   5.067   1.690   3.449
  555TCM     h1 2941   4.868   1.718   3.579
  555TCM    cl3 2942   4.995   1.916   3.621
  556TCM     c1 2943   4.017   2.043   2.624
  556TCM    cl1 2944   3.959   2.212   2.640
  556TCM    cl2 2945   3.901   1.950   2.524
  556TCM     h1 2946   4.115   2.042   2.577
  556TCM    cl3 2947   4.029   1.968   2.787
  557TCM     c1 2948   1.411   2.718   4.806
  557TCM    cl1 2949   1.413   2.774   4.635
  557TCM    cl2 2950   1.241   2.687   4.855
  557TCM     h1 2951   1.470   2.627   4.816
  557TCM    cl3 2952   1.480   2.847   4.911
  558TCM     c1 2953   3.661   1.606   2.860
  558TCM    cl1 2954   3.536   1.548   2.745
  558TCM    cl2 2955   3.587   1.627   3.023
  558TCM     h1 2956   3.742   1.534   2.866
  558TCM    cl3 2957   3.725   1.764   2.805
  559TCM     c1 2958   2.738   4.751   0.694
  559TCM    cl1 2959   2.670   4.845   0.831
  559TCM    cl2 2960   2.611   4.733   0.568
  559TCM     h1 2961   2.824   4.804   0.652
  559TCM    cl3 2962   2.789   4.590   0.753
  560TCM     c1 2963   1.756   3.674   0.433
  560TCM    cl1 2964   1.796   3.659   0.607
  560TCM    cl2 2965   1.747   3.510   0.359
  560TCM     h1 2966   1.659   3.724   0.422
  560TCM    cl3 2967   1.882   3.771   0.349
  561TCM     c1 2968   0.032   2.973   4.769
  561TCM    cl1 2969  -0.106   3.087   4.786
  561TCM    cl2 2970  -0.030   2.805   4.771
  561TCM     h1 2971   0.083   2.992   4.675
  561TCM    cl3 2972   0.146   2.998   4.905
  562TCM     c1 2973   2.904   0.020   2.686
  562TCM    cl1 2974   2.958   0.027   2.515
  562TCM    cl2 2975   3.047   0.010   2.793
  562TCM     h1 2976   2.846   0.110   2.709
  562TCM    cl3 2977   2.801  -0.125   2.711
  563TCM     c1 2978   4.548   3.619   3.449
  563TCM    cl1 2979   4.648   3.602   3.597
  563TCM    cl2 2980   4.387   3.545   3.475
  563TCM     h1 2981   4.536   3.725   3.424
  563TCM    cl3 2982   4.630   3.535   3.313
  564TCM     c1 2983   1.754   0.866   2.702
  564TCM    cl1 2984   1.767   0.954   2.546
  564TCM    cl2 2985   1.770   0.982   2.838
  564TCM     h1 2986   1.658   0.816   2.708
  564TCM    cl3 2987   1.886   0.744   2.711
  565TCM     c1 2988   3.206   2.376   4.298
  565TCM    cl1 2989   3.077   2.409   4.419
  565TCM    cl2 2990   3.183   2.210   4.232
  565TCM     h1 2991   3.200   2.448   4.217
  565TCM    cl3 2992   3.366   2.387   4.378
  566TCM     c1 2993   2.261   4.128   0.285
  566TCM    cl1 2994   2.277   4.209   0.126
  566TCM    cl2 2995   2.416   4.140   0.375
  566TCM     h1 2996   2.182   4.177   0.343
  566TCM    cl3 2997   2.220   3.956   0.259
  567TCM     c1 2998   3.231   1.506   4.984
  567TCM    cl1 2999   3.371   1.519   4.873
  567TCM    cl2 3000   3.099   1.415   4.903
  567TCM     h1 3001   3.261   1.453   5.075
  567TCM    cl3 3002   3.173   1.670   5.027
  568TCM     c1 3003   2.195   1.557   3.973
  568TCM    cl1 3004   2.239   1.600   4.142
  568TCM    cl2 3005   2.060   1.663   3.919
  568TCM     h1 3006   2.281   1.572   3.908
  568TCM    cl3 3007   2.144   1.385   3.966
  569TCM     c1 3008   1.007   0.948   2.675
  569TCM    cl1 3009   1.110   0.818   2.743
  569TCM    cl2 3010   1.009   0.937   2.496
  569TCM     h1 3011   0.905   0.938   2.712
  569TCM    cl3 3012   1.073   1.108   2.725
  570TCM     c1 3013   2.620   4.191   4.944
  570TCM    cl1 3014   2.660   4.205   5.118
  570TCM    cl2 3015   2.538   4.034   4.915
  570TCM     h1 3016   2.555   4.274   4.914
  570TCM    cl3 3017   2.773   4.196   4.849
  571TCM     c1 3018   2.434   4.429   1.401
  571TCM    cl1 3019   2.332   4.365   1.534
  571TCM    cl2 3020   2.440   4.309   1.267
  571TCM     h1 3021   2.391   4.522   1.364
  571TCM    cl3 3022   2.600   4.458   1.462
  572TCM     c1 3023   0.799   2.647   4.917
  572TCM    cl1 3024   0.687   2.508   4.933
  572TCM    cl2 3025   0.905   2.620   4.776
  572TCM     h1 3026   0.742   2.739   4.903
  572TCM    cl3 3027   0.900   2.662   5.065
  573TCM     c1 3028   1.583   1.023   1.631
  573TCM    cl1 3029   1.682   1.172   1.626
  573TCM    cl2 3030   1.409   1.067   1.637
  573TCM     h1 3031   1.603   0.963   1.542
  573TCM    cl3 3032   1.626   0.929   1.778
  574TCM     c1 3033   0.496   3.463   3.382
  574TCM    cl1 3034   0.370   3.469   3.510
  574TCM    cl2 3035   0.418   3.417   3.228
  574TCM     h1 3036   0.544   3.561   3.372
  574TCM    cl3 3037   0.621   3.340   3.426
  575TCM     c1 3038   0.422   0.345   3.416
  575TCM    cl1 3039   0.434   0.391   3.243
  575TCM    cl2 3040   0.488   0.179   3.437
  575TCM     h1 3041   0.480   0.415   3.477
  575TCM    cl3 3042   0.250   0.349   3.465
  576TCM     c1 3043   4.437   0.078   2.955
  576TCM    cl1 3044   4.505   0.199   3.069
  576TCM    cl2 3045   4.561   0.038   2.832
  576TCM     h1 3046   4.409  -0.012   3.010
  576TCM    cl3 3047   4.292   0.147   2.874
  577TCM     c1 3048   3.161   4.013   1.244
  577TCM    cl1 3049   3.318   4.100   1.234
  577TCM    cl2 3050   3.191   3.837   1.260
  577TCM     h1 3051   3.105   4.049   1.331
  577TCM    cl3 3052   3.066   4.043   1.095
  578TCM     c1 3053   4.471   4.088   3.466
  578TCM    cl1 3054   4.617   4.192   3.467
  578TCM    cl2 3055   4.492   3.956   3.586
  578TCM     h1 3056   4.383   4.148   3.493
  578TCM    cl3 3057   4.449   4.017   3.303
  579TCM     c1 3058   1.011   3.606   0.108
  579TCM    cl1 3059   1.120   3.551  -0.023
  579TCM    cl2 3060   1.061   3.770   0.160
  579TCM     h1 3061   0.908   3.609   0.071
  579TCM    cl3 3062   1.023   3.492   0.246
  580TCM     c1 3063   0.301   2.305   4.708
  580TCM    cl1 3064   0.286   2.281   4.885
  580TCM    cl2 3065   0.456   2.386   4.671
  580TCM     h1 3066   0.298   2.207   4.657
  580TCM    cl3 3067   0.165   2.406   4.649
  581TCM     c1 3068   1.121   0.122   2.260
  581TCM    cl1 3069   1.226   0.063   2.393
  581TCM    cl2 3070   1.220   0.209   2.139
  581TCM     h1 3071   1.071   0.037   2.212
  581TCM    cl3 3072   0.997   0.234   2.326
  582TCM     c1 3073   0.655   1.146   3.813
  582TCM    cl1 3074   0.624   1.026   3.942
  582TCM    cl2 3075   0.523   1.140   3.691
  582TCM     h1 3076   0.660   1.246   3.856
  582TCM    cl3 3077   0.811   1.109   3.732
  583TCM     c1 3078   3.773   2.482   3.787
  583TCM    cl1 3079   3.656   2.618   3.796
  583TCM    cl2 3080   3.688   2.335   3.728
  583TCM     h1 3081   3.854   2.508   3.720
  583TCM    cl3 3082   3.838   2.450   3.952
  584TCM     c1 3083   2.264   3.590   4.946
  584TCM    cl1 3084   2.370   3.462   5.012
  584TCM    cl2 3085   2.251   3.568   4.768
  584TCM     h1 3086   2.165   3.583   4.991
  584TCM    cl3 3087   2.336   3.750   4.980
  585TCM     c1 3088   1.201   0.359   0.687
  585TCM    cl1 3089   1.029   0.320   0.654
  585TCM    cl2 3090   1.306   0.233   0.613
  585TCM     h1 3091   1.225   0.456   0.644
  585TCM    cl3 3092   1.227   0.363   0.864
  586TCM     c1 3093   0.502   3.505   0.233
  586TCM    cl1 3094   0.661   3.498   0.152
  586TCM    cl2 3095   0.524   3.480   0.409
  586TCM     h1 3096   0.456   3.602   0.216
  586TCM    cl3 3097   0.396   3.375   0.167
  587TCM     c1 3098   3.146   1.549   3.047
  587TCM    cl1 3099   3.234   1.646   2.924
  587TCM    cl2 3100   3.018   1.454   2.965
  587TCM     h1 3101   3.215   1.481   3.097
  587TCM    cl3 3102   3.071   1.658   3.169
  588TCM     c1 3103   2.752   4.635   4.970
  588TCM    cl1 3104   2.591   4.565   4.934
  588TCM    cl2 3105   2.828   4.694   4.819
  588TCM     h1 3106   2.741   4.718   5.041
  588TCM    cl3 3107   2.857   4.508   5.041
  589TCM     c1 3108   4.068   3.328   3.081
  589TCM    cl1 3109   4.177   3.381   3.213
  589TCM    cl2 3110   3.907   3.405   3.102
  589TCM     h1 3111   4.110   3.357   2.985
  589TCM    cl3 3112   4.049   3.149   3.087
  590TCM     c1 3113   2.831   3.838   0.517
  590TCM    cl1 3114   2.669   3.907   0.484
  590TCM    cl2 3115   2.813   3.679   0.599
  590TCM     h1 3116   2.884   3.823   0.422
  590TCM    cl3 3117   2.926   3.949   0.620
  591TCM     c1 3118   4.549   4.261   0.789
  591TCM    cl1 3119   4.449   4.410   0.780
  591TCM    cl2 3120   4.692   4.279   0.681
  591TCM     h1 3121   4.583   4.246   0.892
  591TCM    cl3 3122   4.451   4.121   0.736
  592TCM     c1 3123   4.334   2.900   0.105
  592TCM    cl1 3124   4.167   2.837   0.118
  592TCM    cl2 3125   4.436   2.827   0.234
  592TCM     h1 3126   4.376   2.875   0.007
  592TCM    cl3 3127   4.333   3.079   0.127
  593TCM     c1 3128   2.821   0.872   1.829
  593TCM    cl1 3129   2.790   0.709   1.762
  593TCM    cl2 3130   2.777   0.996   1.706
  593TCM     h1 3131   2.761   0.888   1.919
  593TCM    cl3 3132   2.995   0.888   1.868
  594TCM     c1 3133   3.247   4.241   2.655
  594TCM    cl1 3134   3.135   4.279   2.520
  594TCM    cl2 3135   3.165   4.273   2.812
  594TCM     h1 3136   3.276   4.136   2.649
  594TCM    cl3 3137   3.392   4.345   2.640
  595TCM     c1 3138   3.772   3.366   3.516
  595TCM    cl1 3139   3.785   3.410   3.689
  595TCM    cl2 3140   3.922   3.281   3.465
  595TCM     h1 3141   3.686   3.300   3.502
  595TCM    cl3 3142   3.749   3.514   3.418
  596TCM     c1 3143   4.103   0.289   0.063
  596TCM    cl1 3144   4.069   0.328   0.234
  596TCM    cl2 3145   4.238   0.391   0.005
  596TCM     h1 3146   4.130   0.184   0.054
  596TCM    cl3 3147   3.957   0.321  -0.037
  597TCM     c1 3148   3.127   2.998   3.254
  597TCM    cl1 3149   3.209   3.081   3.391
  597TCM    cl2 3150   3.148   2.821   3.271
  597TCM     h1 3151   3.021   3.023   3.255
  597TCM    cl3 3152   3.200   3.054   3.100
  598TCM     c1 3153   0.500   2.571   1.524
  598TCM    cl1 3154   0.637   2.665   1.457
  598TCM    cl2 3155   0.555   2.406   1.567
  598TCM     h1 3156   0.461   2.621   1.613
  598TCM    cl3 3157   0.371   2.559   1.401
  599TCM     c1 3158   0.138   4.224   2.919
  599TCM    cl1 3159   0.266   4.344   2.882
  599TCM    cl2 3160   0.191   4.119   3.053
  599TCM     h1 3161   0.046   4.276   2.947
  599TCM    cl3 3162   0.107   4.122   2.774
  600TCM     c1 3163   2.412   3.355   1.170
  600TCM    cl1 3164   2.494   3.248   1.051
  600TCM    cl2 3165   2.533   3.419   1.286
  600TCM     h1 3166   2.363   3.438   1.118
  600TCM    cl3 3167   2.288   3.259   1.259
  601TCM     c1 3168   4.932   1.150   2.300
  601TCM    cl1 3169   5.053   1.282   2.291
  601TCM    cl2 3170   4.868   1.141   2.467
  601TCM     h1 3171   4.850   1.170   2.231
  601TCM    cl3 3172   5.010   0.994   2.256
  602TCM     c1 3173   3.905   2.915   3.676
  602TCM    cl1 3174   3.745   2.995   3.660
  602TCM    cl2 3175   3.912   2.771   3.569
  602TCM     h1 3176   3.984   2.985   3.648
  602TCM    cl3 3177   3.929   2.862   3.846
  603TCM     c1 3178   1.649   3.279   3.299
  603TCM    cl1 3179   1.577   3.236   3.141
  603TCM    cl2 3180   1.519   3.289   3.423
  603TCM     h1 3181   1.721   3.202   3.328
  603TCM    cl3 3182   1.731   3.438   3.286
  604TCM     c1 3183   2.483   3.337   2.384
  604TCM    cl1 3184   2.427   3.479   2.290
  604TCM    cl2 3185   2.659   3.315   2.360
  604TCM     h1 3186   2.463   3.354   2.491
  604TCM    cl3 3187   2.397   3.190   2.329
  605TCM     c1 3188   1.866   2.704   4.905
  605TCM    cl1 3189   1.747   2.578   4.953
  605TCM    cl2 3190   1.824   2.764   4.741
  605TCM     h1 3191   1.863   2.786   4.977
  605TCM    cl3 3192   2.030   2.632   4.901
  606TCM     c1 3193   4.800   0.757   2.576
  606TCM    cl1 3194   4.778   0.581   2.603
  606TCM    cl2 3195   4.732   0.800   2.415
  606TCM     h1 3196   4.747   0.813   2.654
  606TCM    cl3 3197   4.975   0.797   2.582
  607TCM     c1 3198   0.026   1.869   0.997
  607TCM    cl1 3199   0.005   1.810   0.829
  607TCM    cl2 3200   0.135   2.012   0.998
  607TCM     h1 3201  -0.071   1.897   1.039
  607TCM    cl3 3202   0.099   1.739   1.097
  608TCM     c1 3203   3.092   4.065   0.161
  608TCM    cl1 3204   3.228   4.075   0.276
  608TCM    cl2 3205   3.077   4.219   0.071
  608TCM     h1 3206   3.108   3.982   0.091
  608TCM    cl3 3207   2.941   4.036   0.254
  609TCM     c1 3208   2.622   3.828   3.334
  609TCM    cl1 3209   2.743   3.869   3.460
  609TCM    cl2 3210   2.703   3.745   3.197
  609TCM     h1 3211   2.545   3.763   3.376
  609TCM    cl3 3212   2.546   3.978   3.272
  610TCM     c1 3213   2.155   4.143   1.762
  610TCM    cl1 3214   2.299   4.184   1.862
  610TCM    cl2 3215   2.020   4.252   1.807
  610TCM     h1 3216   2.180   4.155   1.656
  610TCM    cl3 3217   2.109   3.972   1.794
  611TCM     c1 3218   1.566   1.702   0.164
  611TCM    cl1 3219   1.479   1.717   0.320
  611TCM    cl2 3220   1.716   1.606   0.190
  611TCM     h1 3221   1.503   1.651   0.090
  611TCM    cl3 3222   1.610   1.865   0.105
  612TCM     c1 3223   0.523   2.838   3.934
  612TCM    cl1 3224   0.589   2.845   3.767
  612TCM    cl2 3225   0.569   2.683   4.012
  612TCM     h1 3226   0.563   2.922   3.992
  612TCM    cl3 3227   0.344   2.849   3.927
  613TCM     c1 3228   0.325   1.432   4.753
  613TCM    cl1 3229   0.436   1.573   4.766
  613TCM    cl2 3230   0.413   1.296   4.675
  613TCM     h1 3231   0.291   1.402   4.852
  613TCM    cl3 3232   0.185   1.478   4.651
  614TCM     c1 3233   0.001   2.690   0.545
  614TCM    cl1 3234  -0.122   2.724   0.671
  614TCM    cl2 3235  -0.078   2.610   0.406
  614TCM     h1 3236   0.047   2.784   0.513
  614TCM    cl3 3237   0.127   2.581   0.612
  615TCM     c1 3238   2.178   4.147   4.704
  615TCM    cl1 3239   2.302   4.261   4.764
  615TCM    cl2 3240   2.028   4.238   4.665
  615TCM     h1 3241   2.214   4.097   4.614
  615TCM    cl3 3242   2.142   4.025   4.830
  616TCM     c1 3243   2.777   3.317   2.916
  616TCM    cl1 3244   2.688   3.311   2.760
  616TCM    cl2 3245   2.845   3.481   2.940
  616TCM     h1 3246   2.708   3.293   2.997
  616TCM    cl3 3247   2.911   3.197   2.913
  617TCM     c1 3248   2.884   4.376   0.391
  617TCM    cl1 3249   2.753   4.298   0.485
  617TCM    cl2 3250   3.042   4.336   0.465
  617TCM     h1 3251   2.882   4.339   0.288
  617TCM    cl3 3252   2.861   4.554   0.392
  618TCM     c1 3253   3.509   4.402   0.175
  618TCM    cl1 3254   3.544   4.435   0.002
  618TCM    cl2 3255   3.549   4.230   0.212
  618TCM     h1 3256   3.570   4.468   0.237
  618TCM    cl3 3257   3.335   4.431   0.207
  619TCM     c1 3258   2.397   3.642   0.713
  619TCM    cl1 3259   2.500   3.776   0.773
  619TCM    cl2 3260   2.383   3.517   0.840
  619TCM     h1 3261   2.297   3.681   0.688
  619TCM    cl3 3262   2.470   3.570   0.566
  620TCM     c1 3263   4.014   3.789   3.461
  620TCM    cl1 3264   4.022   3.724   3.293
  620TCM    cl2 3265   4.137   3.917   3.481
  620TCM     h1 3266   3.914   3.830   3.480
  620TCM    cl3 3267   4.048   3.657   3.577
  621TCM     c1 3268   0.092   4.498   3.936
  621TCM    cl1 3269   0.093   4.560   3.767
  621TCM    cl2 3270   0.015   4.620   4.043
  621TCM     h1 3271   0.036   4.405   3.940
  621TCM    cl3 3272   0.261   4.470   3.989
  622TCM     c1 3273   4.224   0.267   3.280
  622TCM    cl1 3274   4.178   0.098   3.240
  622TCM    cl2 3275   4.137   0.319   3.428
  622TCM     h1 3276   4.331   0.273   3.297
  622TCM    cl3 3277   4.178   0.375   3.144
  623TCM     c1 3278   2.609   2.280   2.842
  623TCM    cl1 3279   2.431   2.283   2.868
  623TCM    cl2 3280   2.682   2.142   2.930
  623TCM     h1 3281   2.629   2.270   2.735
  623TCM    cl3 3282   2.681   2.434   2.900
  624TCM     c1 3283   4.949   4.507   2.665
  624TCM    cl1 3284   5.024   4.610   2.791
  624TCM    cl2 3285   4.843   4.386   2.744
  624TCM     h1 3286   4.890   4.569   2.597
  624TCM    cl3 3287   5.078   4.424   2.572
  625TCM     c1 3288   2.361   0.729   1.782
  625TCM    cl1 3289   2.191   0.731   1.840
  625TCM    cl2 3290   2.453   0.603   1.871
  625TCM     h1 3291   2.363   0.707   1.675
  625TCM    cl3 3292   2.435   0.890   1.810
  626TCM     c1 3293   0.349   2.271   2.666
  626TCM    cl1 3294   0.311   2.126   2.567
  626TCM    cl2 3295   0.459   2.225   2.800
  626TCM     h1 3296   0.398   2.346   2.603
  626TCM    cl3 3297   0.198   2.340   2.734
  627TCM     c1 3298   0.901   3.812   0.538
  627TCM    cl1 3299   0.795   3.741   0.412
  627TCM    cl2 3300   1.069   3.750   0.518
  627TCM     h1 3301   0.901   3.921   0.530
  627TCM    cl3 3302   0.840   3.764   0.700
  628TCM     c1 3303   2.558   3.252   0.350
  628TCM    cl1 3304   2.382   3.288   0.345
  628TCM    cl2 3305   2.644   3.354   0.230
  628TCM     h1 3306   2.597   3.273   0.451
  628TCM    cl3 3307   2.583   3.079   0.311
  629TCM     c1 3308   0.475   0.467   0.550
  629TCM    cl1 3309   0.621   0.478   0.653
  629TCM    cl2 3310   0.425   0.295   0.536
  629TCM     h1 3311   0.394   0.525   0.595
  629TCM    cl3 3312   0.512   0.532   0.387
  630TCM     c1 3313   0.082   1.991   2.805
  630TCM    cl1 3314  -0.058   2.003   2.917
  630TCM    cl2 3315   0.053   1.857   2.689
  630TCM     h1 3316   0.093   2.085   2.751
  630TCM    cl3 3317   0.230   1.956   2.899
  631TCM     c1 3318   2.612   0.684   3.099
  631TCM    cl1 3319   2.738   0.805   3.062
  631TCM    cl2 3320   2.585   0.678   3.276
  631TCM     h1 3321   2.518   0.711   3.049
  631TCM    cl3 3322   2.667   0.523   3.042
  632TCM     c1 3323   0.260   1.034   1.988
  632TCM    cl1 3324   0.386   1.104   2.095
  632TCM    cl2 3325   0.336   0.981   1.834
  632TCM     h1 3326   0.213   0.948   2.038
  632TCM    cl3 3327   0.136   1.158   1.952
  633TCM     c1 3328   3.723   0.327   4.170
  633TCM    cl1 3329   3.570   0.337   4.265
  633TCM    cl2 3330   3.853   0.416   4.256
  633TCM     h1 3331   3.751   0.222   4.160
  633TCM    cl3 3332   3.698   0.399   4.008
  634TCM     c1 3333   4.867   0.815   4.827
  634TCM    cl1 3334   5.025   0.766   4.757
  634TCM    cl2 3335   4.833   0.715   4.973
  634TCM     h1 3336   4.870   0.920   4.855
  634TCM    cl3 3337   4.738   0.788   4.705
  635TCM     c1 3338   2.962   0.123   1.182
  635TCM    cl1 3339   3.138   0.117   1.146
  635TCM    cl2 3340   2.901   0.289   1.156
  635TCM     h1 3341   2.909   0.053   1.116
  635TCM    cl3 3342   2.935   0.078   1.354
  636TCM     c1 3343   1.898   1.350   3.601
  636TCM    cl1 3344   1.843   1.410   3.761
  636TCM    cl2 3345   1.761   1.267   3.520
  636TCM     h1 3346   1.932   1.434   3.540
  636TCM    cl3 3347   2.033   1.234   3.626
  637TCM     c1 3348   3.160   1.327   2.072
  637TCM    cl1 3349   3.324   1.400   2.066
  637TCM    cl2 3350   3.144   1.234   2.224
  637TCM     h1 3351   3.084   1.406   2.069
  637TCM    cl3 3352   3.139   1.218   1.931
  638TCM     c1 3353   3.762   2.077   4.019
  638TCM    cl1 3354   3.919   2.067   3.932
  638TCM    cl2 3355   3.789   2.157   4.177
  638TCM     h1 3356   3.692   2.135   3.959
  638TCM    cl3 3357   3.698   1.912   4.045
  639TCM     c1 3358   1.324   2.255   4.065
  639TCM    cl1 3359   1.173   2.350   4.084
  639TCM    cl2 3360   1.364   2.244   3.890
  639TCM     h1 3361   1.405   2.305   4.118
  639TCM    cl3 3362   1.300   2.090   4.130
  640TCM     c1 3363   0.796   0.361   1.928
  640TCM    cl1 3364   0.666   0.347   2.051
  640TCM    cl2 3365   0.826   0.200   1.854
  640TCM     h1 3366   0.767   0.433   1.851
  640TCM    cl3 3367   0.947   0.417   2.009
   5.00000   5.00000   5.00000
