Green Red Orange Magenta Azure Cyan Skyblue
 3367
    1POP     C1    1   0.389   3.849   4.456
    1POP     O2    2   0.403   3.925   4.361
    1POP     C3    3   0.502   3.779   4.525
    1POP     C4    4   0.478   3.686   4.627
    1POP     C5    5   0.584   3.615   4.683
    1POP     C6    6   0.716   3.637   4.641
    1POP     C7    7   0.828   3.559   4.699
    1POP     C8    8   0.917   3.480   4.621
    1POP     C9    9   1.023   3.412   4.685
    1POP    C10   10   1.042   3.420   4.823
    1POP    O11   11   1.150   3.350   4.870
    1POP    C12   12   1.174   3.354   5.009
    1POP    C13   13   0.953   3.494   4.900
    1POP    C14   14   0.848   3.562   4.839
    1POP    C15   15   0.900   3.465   4.475
    1POP    C16   16   1.003   3.501   4.387
    1POP    C17   17   0.985   3.493   4.250
    1POP    C18   18   0.863   3.445   4.197
    1POP    C19   19   0.762   3.406   4.284
    1POP    C20   20   0.781   3.415   4.422
    1POP    C21   21   0.844   3.428   4.049
    1POP    N22   22   0.948   3.347   3.985
    1POP    C23   23   0.829   3.563   3.981
    1POP    C24   24   0.738   3.732   4.540
    1POP    C25   25   0.632   3.803   4.481
    1POP    H26   26   0.377   3.665   4.662
    1POP    H27   27   0.563   3.541   4.759
    1POP    H28   28   1.091   3.352   4.626
    1POP    H29   29   1.264   3.294   5.030
    1POP    H30   30   1.091   3.309   5.065
    1POP    H31   31   1.193   3.455   5.043
    1POP    H32   32   0.962   3.501   5.008
    1POP    H33   33   0.780   3.622   4.900
    1POP    H34   34   1.097   3.538   4.426
    1POP    H35   35   1.067   3.518   4.182
    1POP    H36   36   0.668   3.368   4.247
    1POP    H37   37   0.700   3.382   4.488
    1POP    H38   38   0.751   3.372   4.031
    1POP    H39   39   0.948   3.357   3.885
    1POP    H40   40   0.746   3.620   4.024
    1POP    H41   41   0.920   3.625   3.992
    1POP    H42   42   0.811   3.552   3.874
    1POP    H43   43   0.839   3.750   4.502
    1POP    H44   44   0.652   3.873   4.401
    2POP    C45   45   0.970   3.219   4.035
    2POP    O46   46   0.993   3.195   4.153
    2POP    C47   47   0.957   3.105   3.940
    2POP    C48   48   0.929   3.121   3.803
    2POP    C49   49   0.909   3.009   3.723
    2POP    C50   50   0.915   2.879   3.776
    2POP    C51   51   0.899   2.762   3.688
    2POP    C52   52   0.999   2.662   3.677
    2POP    C53   53   0.974   2.551   3.593
    2POP    C54   54   0.855   2.538   3.520
    2POP    O55   55   0.846   2.425   3.445
    2POP    C56   56   0.729   2.407   3.368
    2POP    C57   57   0.760   2.639   3.529
    2POP    C58   58   0.781   2.749   3.612
    2POP    C59   59   1.127   2.670   3.748
    2POP    C60   60   1.166   2.569   3.838
    2POP    C61   61   1.284   2.580   3.911
    2POP    C62   62   1.367   2.692   3.895
    2POP    C63   63   1.329   2.792   3.805
    2POP    C64   64   1.212   2.780   3.732
    2POP    C65   65   1.500   2.701   3.966
    2POP    N66   66   1.585   2.585   3.944
    2POP    C67   67   1.478   2.727   4.115
    2POP    C68   68   0.940   2.864   3.913
    2POP    C69   69   0.963   2.976   3.994
    2POP    H70   70   0.921   3.218   3.756
    2POP    H71   71   0.890   3.023   3.616
    2POP    H72   72   1.049   2.473   3.584
    2POP    H73   73   0.737   2.312   3.315
    2POP    H74   74   0.718   2.487   3.294
    2POP    H75   75   0.639   2.402   3.432
    2POP    H76   76   0.666   2.635   3.473
    2POP    H77   77   0.704   2.826   3.618
    2POP    H78   78   1.103   2.481   3.852
    2POP    H79   79   1.313   2.499   3.977
    2POP    H80   80   1.394   2.878   3.789
    2POP    H81   81   1.187   2.859   3.661
    2POP    H82   82   1.556   2.786   3.926
    2POP    H83   83   1.661   2.579   4.011
    2POP    H84   84   1.420   2.819   4.130
    2POP    H85   85   1.424   2.645   4.163
    2POP    H86   86   1.574   2.738   4.167
    2POP    H87   87   0.946   2.765   3.958
    2POP    H88   88   0.984   2.961   4.100
    3POP    C89   89   1.616   2.550   3.813
    3POP    O90   90   1.533   2.533   3.726
    3POP    C91   91   1.760   2.544   3.776
    3POP    C92   92   1.865   2.566   3.865
    3POP    C93   93   1.997   2.569   3.821
    3POP    C94   94   2.028   2.550   3.685
    3POP    C95   95   2.169   2.547   3.640
    3POP    C96   96   2.225   2.437   3.572
    3POP    C97   97   2.359   2.444   3.531
    3POP    C98   98   2.439   2.556   3.556
    3POP    O99   99   2.566   2.547   3.507
    3POP   C100  100   2.652   2.658   3.530
    3POP   C101  101   2.384   2.663   3.625
    3POP   C102  102   2.251   2.659   3.667
    3POP   C103  103   2.149   2.314   3.546
    3POP   C104  104   2.131   2.268   3.414
    3POP   C105  105   2.054   2.155   3.388
    3POP   C106  106   1.993   2.085   3.494
    3POP   C107  107   2.011   2.130   3.626
    3POP   C108  108   2.089   2.242   3.651
    3POP   C109  109   1.916   1.957   3.469
    3POP   N110  110   1.990   1.858   3.394
    3POP   C111  111   1.781   1.989   3.402
    3POP   C112  112   1.922   2.529   3.595
    3POP   C113  113   1.790   2.524   3.640
    3POP   H114  114   1.848   2.584   3.971
    3POP   H115  115   2.076   2.585   3.893
    3POP   H116  116   2.404   2.359   3.477
    3POP   H117  117   2.748   2.636   3.484
    3POP   H118  118   2.668   2.673   3.638
    3POP   H119  119   2.613   2.749   3.483
    3POP   H120  120   2.443   2.752   3.649
    3POP   H121  121   2.210   2.746   3.720
    3POP   H122  122   2.177   2.320   3.331
    3POP   H123  123   2.045   2.118   3.287
    3POP   H124  124   1.967   2.077   3.709
    3POP   H125  125   2.103   2.274   3.753
    3POP   H126  126   1.893   1.909   3.566
    3POP   H127  127   1.930   1.785   3.357
    3POP   H128  128   1.723   2.058   3.464
    3POP   H129  129   1.795   2.035   3.304
    3POP   H130  130   1.722   1.897   3.389
    3POP   H131  131   1.942   2.514   3.490
    3POP   H132  132   1.711   2.507   3.567
    4POP   C133  133   2.112   1.816   3.444
    4POP   O134  134   2.204   1.893   3.473
    4POP   C135  135   2.130   1.671   3.474
    4POP   C136  136   2.033   1.574   3.445
    4POP   C137  137   2.053   1.442   3.483
    4POP   C138  138   2.170   1.403   3.551
    4POP   C139  139   2.193   1.260   3.585
    4POP   C140  140   2.305   1.188   3.539
    4POP   C141  141   2.321   1.054   3.580
    4POP   C142  142   2.227   0.990   3.662
    4POP   O143  143   2.257   0.861   3.693
    4POP   C144  144   2.164   0.791   3.776
    4POP   C145  145   2.115   1.061   3.704
    4POP   C146  146   2.098   1.195   3.666
    4POP   C147  147   2.407   1.247   3.449
    4POP   C148  148   2.542   1.252   3.486
    4POP   C149  149   2.637   1.313   3.402
    4POP   C150  150   2.598   1.369   3.280
    4POP   C151  151   2.464   1.364   3.242
    4POP   C152  152   2.370   1.302   3.325
    4POP   C153  153   2.700   1.429   3.184
    4POP   N154  154   2.803   1.330   3.157
    4POP   C155  155   2.753   1.560   3.242
    4POP   C156  156   2.266   1.500   3.580
    4POP   C157  157   2.247   1.633   3.542
    4POP   H158  158   1.939   1.597   3.396
    4POP   H159  159   1.977   1.368   3.459
    4POP   H160  160   2.408   0.997   3.546
    4POP   H161  161   2.204   0.691   3.793
    4POP   H162  162   2.068   0.782   3.727
    4POP   H163  163   2.155   0.840   3.873
    4POP   H164  164   2.038   1.016   3.766
    4POP   H165  165   2.010   1.248   3.700
    4POP   H166  166   2.575   1.210   3.580
    4POP   H167  167   2.741   1.313   3.433
    4POP   H168  168   2.432   1.405   3.147
    4POP   H169  169   2.266   1.298   3.292
    4POP   H170  170   2.653   1.451   3.087
    4POP   H171  171   2.900   1.359   3.144
    4POP   H172  172   2.670   1.630   3.260
    4POP   H173  173   2.806   1.546   3.337
    4POP   H174  174   2.822   1.610   3.172
    4POP   H175  175   2.358   1.474   3.632
    4POP   H176  176   2.323   1.707   3.565
    5CAP   C177  177   0.192   3.739   4.408
    5CAP   O178  178   0.272   3.807   4.506
    5CAP   H179  179   0.192   3.790   4.313
    5CAP   H180  180   0.090   3.731   4.446
    5CAP   H181  181   0.233   3.638   4.398
    6CAP   C182  182   2.940   0.890   3.119
    6CAP   C183  183   2.827   0.982   3.068
    6CAP   C184  184   2.828   0.979   2.915
    6CAP   C185  185   2.696   0.928   3.126
    6CAP   O186  186   2.859   1.117   3.113
    6CAP   C187  187   2.768   1.215   3.094
    6CAP   O188  188   2.662   1.201   3.032
    6CAP   H189  189   2.927   0.787   3.084
    6CAP   H190  190   3.038   0.926   3.085
    6CAP   H191  191   2.943   0.889   3.228
    6CAP   H192  192   2.920   1.025   2.875
    6CAP   H193  193   2.744   1.036   2.872
    6CAP   H194  194   2.820   0.877   2.877
    6CAP   H195  195   2.694   0.933   3.235
    6CAP   H196  196   2.608   0.983   3.090
    6CAP   H197  197   2.680   0.823   3.097
    1TCM     c1  198   4.332   0.347   2.671
    1TCM    cl1  199   4.444   0.469   2.607
    1TCM    cl2  200   4.322   0.363   2.848
    1TCM     h1  201   4.232   0.361   2.626
    1TCM    cl3  202   4.393   0.184   2.630
    1TCM     c1  203   1.825   2.517   4.362
    1TCM    cl1  204   1.833   2.388   4.240
    1TCM    cl2  205   1.773   2.448   4.518
    1TCM     h1  206   1.926   2.563   4.374
    1TCM    cl3  207   1.709   2.641   4.310
    1TCM     c1  208   1.877   2.330   0.976
    1TCM    cl1  209   1.764   2.334   0.838
    1TCM    cl2  210   1.871   2.170   1.053
    1TCM     h1  211   1.980   2.350   0.939
    1TCM    cl3  212   1.830   2.454   1.094
    1TCM     c1  213   2.648   0.637   3.770
    1TCM    cl1  214   2.743   0.495   3.722
    1TCM    cl2  215   2.475   0.601   3.753
    1TCM     h1  216   2.670   0.662   3.876
    1TCM    cl3  217   2.690   0.775   3.666
    1TCM     c1  218   2.131   1.740   2.859
    1TCM    cl1  219   2.271   1.632   2.847
    1TCM    cl2  220   2.070   1.776   2.696
    1TCM     h1  221   2.051   1.690   2.918
    1TCM    cl3  222   2.179   1.891   2.939
    1TCM     c1  223   5.033   1.263   0.558
    1TCM    cl1  224   5.012   1.326   0.723
    1TCM    cl2  225   5.207   1.256   0.519
    1TCM     h1  226   4.989   1.161   0.552
    1TCM    cl3  227   4.951   1.371   0.443
    1TCM     c1  228   2.891   0.813   2.547
    1TCM    cl1  229   2.731   0.876   2.591
    1TCM    cl2  230   2.887   0.635   2.544
    1TCM     h1  231   2.920   0.851   2.447
    1TCM    cl3  232   3.011   0.868   2.667
    1TCM     c1  233   3.750   4.049   4.779
    1TCM    cl1  234   3.861   4.183   4.816
    1TCM    cl2  235   3.684   4.070   4.615
    1TCM     h1  236   3.806   3.953   4.785
    1TCM    cl3  237   3.618   4.048   4.897
    1TCM     c1  238   0.777   4.167   3.470
    1TCM    cl1  239   0.602   4.158   3.439
    1TCM    cl2  240   0.857   4.025   3.400
    1TCM     h1  241   0.818   4.259   3.424
    1TCM    cl3  242   0.805   4.171   3.646
    1TCM     c1  243   3.918   1.292   2.630
    1TCM    cl1  244   4.065   1.352   2.711
    1TCM    cl2  245   3.963   1.165   2.513
    1TCM     h1  246   3.849   1.251   2.705
    1TCM    cl3  247   3.839   1.426   2.543
    1TCM     c1  248   4.909   3.078   4.464
    1TCM    cl1  249   4.973   2.966   4.587
    1TCM    cl2  250   4.999   3.231   4.472
    1TCM     h1  251   4.922   3.033   4.363
    1TCM    cl3  252   4.737   3.108   4.495
    1TCM     c1  253   0.607   2.906   1.443
    1TCM    cl1  254   0.664   2.869   1.279
    1TCM    cl2  255   0.474   2.797   1.486
    1TCM     h1  256   0.691   2.893   1.515
    1TCM    cl3  257   0.550   3.075   1.450
    1TCM     c1  258   1.421   1.875   2.462
    1TCM    cl1  259   1.383   2.033   2.390
    1TCM    cl2  260   1.549   1.796   2.368
    1TCM     h1  261   1.455   1.889   2.567
    1TCM    cl3  262   1.275   1.773   2.461
    1TCM     c1  263   4.298   4.431   0.715
    1TCM    cl1  264   4.219   4.513   0.578
    1TCM    cl2  265   4.176   4.338   0.806
    1TCM     h1  266   4.376   4.362   0.677
    1TCM    cl3  267   4.372   4.551   0.822
    1TCM     c1  268   2.553   5.275   3.698
    1TCM    cl1  269   2.418   5.332   3.596
    1TCM    cl2  270   2.529   5.332   3.865
    1TCM     h1  271   2.556   5.165   3.696
    1TCM    cl3  272   2.706   5.340   3.634
    1TCM     c1  273   2.901   1.923   3.095
    1TCM    cl1  274   2.727   1.892   3.077
    1TCM    cl2  275   2.988   1.856   2.955
    1TCM     h1  276   2.919   2.032   3.101
    1TCM    cl3  277   2.960   1.845   3.244
    1TCM     c1  278   0.671   3.093   5.008
    1TCM    cl1  279   0.555   2.967   5.056
    1TCM    cl2  280   0.593   3.206   4.894
    1TCM     h1  281   0.705   3.149   5.098
    1TCM    cl3  282   0.812   3.018   4.930
    1TCM     c1  283   4.593   3.546   2.164
    1TCM    cl1  284   4.676   3.648   2.044
    1TCM    cl2  285   4.622   3.374   2.126
    1TCM     h1  286   4.632   3.568   2.265
    1TCM    cl3  287   4.418   3.579   2.159
    1TCM     c1  288   5.199   3.671   4.885
    1TCM    cl1  289   5.042   3.677   4.802
    1TCM    cl2  290   5.248   3.836   4.930
    1TCM     h1  291   5.190   3.609   4.977
    1TCM    cl3  292   5.321   3.601   4.777
    1TCM     c1  293   2.075   1.030   3.330
    1TCM    cl1  294   2.050   1.157   3.452
    1TCM    cl2  295   2.113   1.105   3.174
    1TCM     h1  296   2.160   0.965   3.362
    1TCM    cl3  297   1.928   0.933   3.315
    1TCM     c1  298   1.285   2.067   2.701
    1TCM    cl1  299   1.171   1.955   2.624
    1TCM    cl2  300   1.403   1.975   2.796
    1TCM     h1  301   1.337   2.126   2.623
    1TCM    cl3  302   1.196   2.177   2.808
    1TCM     c1  303   3.149   4.741   4.848
    1TCM    cl1  304   3.282   4.631   4.893
    1TCM    cl2  305   3.004   4.700   4.944
    1TCM     h1  306   3.179   4.846   4.869
    1TCM    cl3  307   3.113   4.723   4.675
    1TCM     c1  308   2.717   2.483   2.008
    1TCM    cl1  309   2.745   2.311   1.970
    1TCM    cl2  310   2.726   2.506   2.184
    1TCM     h1  311   2.795   2.545   1.959
    1TCM    cl3  312   2.557   2.531   1.949
    1TCM     c1  313   2.753   2.030   5.067
    1TCM    cl1  314   2.630   1.954   4.963
    1TCM    cl2  315   2.742   1.962   5.231
    1TCM     h1  316   2.854   2.010   5.025
    1TCM    cl3  317   2.724   2.205   5.073
    1TCM     c1  318   5.014   0.250   1.339
    1TCM    cl1  319   4.910   0.389   1.376
    1TCM    cl2  320   5.156   0.253   1.446
    1TCM     h1  321   4.958   0.156   1.355
    1TCM    cl3  322   5.068   0.259   1.170
    1TCM     c1  323   3.064   0.884   1.214
    1TCM    cl1  324   3.208   0.850   1.312
    1TCM    cl2  325   3.101   0.854   1.043
    1TCM     h1  326   2.981   0.818   1.246
    1TCM    cl3  327   3.017   1.054   1.235
    1TCM     c1  328   3.950   3.284   1.889
    1TCM    cl1  329   3.825   3.210   1.991
    1TCM    cl2  330   3.943   3.214   1.725
    1TCM     h1  331   3.933   3.393   1.883
    1TCM    cl3  332   4.110   3.253   1.960
    1TCM     c1  333   1.118   0.849   3.650
    1TCM    cl1  334   1.273   0.819   3.733
    1TCM    cl2  335   1.064   1.015   3.683
    1TCM     h1  336   1.132   0.835   3.541
    1TCM    cl3  337   0.997   0.734   3.710
    1TCM     c1  338   0.696   5.194   4.111
    1TCM    cl1  339   0.770   5.065   4.208
    1TCM    cl2  340   0.676   5.138   3.943
    1TCM     h1  341   0.596   5.220   4.153
    1TCM    cl3  342   0.800   5.338   4.113
    1TCM     c1  343   2.843   3.636   3.475
    1TCM    cl1  344   2.904   3.486   3.548
    1TCM    cl2  345   2.812   3.755   3.603
    1TCM     h1  346   2.918   3.676   3.405
    1TCM    cl3  347   2.692   3.602   3.388
    1TCM     c1  348   0.424   0.913   2.432
    1TCM    cl1  349   0.295   0.914   2.555
    1TCM    cl2  350   0.353   0.881   2.272
    1TCM     h1  351   0.474   1.012   2.431
    1TCM    cl3  352   0.542   0.787   2.472
    1TCM     c1  353   4.952   1.995   2.148
    1TCM    cl1  354   5.097   1.917   2.081
    1TCM    cl2  355   4.847   2.050   2.015
    1TCM     h1  356   4.897   1.923   2.211
    1TCM    cl3  357   5.000   2.135   2.247
    1TCM     c1  358   1.268   3.601   2.341
    1TCM    cl1  359   1.110   3.596   2.259
    1TCM    cl2  360   1.362   3.456   2.298
    1TCM     h1  361   1.323   3.692   2.310
    1TCM    cl3  362   1.242   3.605   2.517
    1TCM     c1  363   3.915   1.428   2.069
    1TCM    cl1  364   3.749   1.491   2.083
    1TCM    cl2  365   4.022   1.557   2.009
    1TCM     h1  366   3.950   1.394   2.168
    1TCM    cl3  367   3.917   1.292   1.955
    1TCM     c1  368   0.823   2.231   2.152
    1TCM    cl1  369   0.971   2.253   2.249
    1TCM    cl2  370   0.802   2.058   2.116
    1TCM     h1  371   0.736   2.269   2.209
    1TCM    cl3  372   0.838   2.322   2.000
    1TCM     c1  373   2.150   3.743   1.787
    1TCM    cl1  374   2.066   3.628   1.893
    1TCM    cl2  375   2.090   3.726   1.621
    1TCM     h1  376   2.132   3.846   1.822
    1TCM    cl3  377   2.325   3.710   1.790
    1TCM     c1  378   1.030   4.526   1.150
    1TCM    cl1  379   0.949   4.504   1.307
    1TCM    cl2  380   1.046   4.700   1.115
    1TCM     h1  381   1.131   4.480   1.153
    1TCM    cl3  382   0.934   4.449   1.022
    1TCM     c1  383   0.220   1.277   4.806
    1TCM    cl1  384   0.370   1.261   4.712
    1TCM    cl2  385   0.260   1.332   4.971
    1TCM     h1  386   0.154   1.351   4.758
    1TCM    cl3  387   0.139   1.119   4.814
    1TCM     c1  388   1.333   3.875   4.782
    1TCM    cl1  389   1.429   3.979   4.889
    1TCM    cl2  390   1.402   3.879   4.618
    1TCM     h1  391   1.334   3.771   4.820
    1TCM    cl3  392   1.165   3.935   4.777
    1TCM     c1  393   0.159   0.766   4.928
    1TCM    cl1  394   0.138   0.626   4.820
    1TCM    cl2  395   0.220   0.904   4.834
    1TCM     h1  396   0.061   0.793   4.973
    1TCM    cl3  397   0.275   0.725   5.056
    1TCM     c1  398   1.110   4.275   2.259
    1TCM    cl1  399   0.974   4.312   2.368
    1TCM    cl2  400   1.247   4.381   2.299
    1TCM     h1  401   1.140   4.169   2.272
    1TCM    cl3  402   1.061   4.304   2.091
    1TCM     c1  403   3.685   4.099   0.158
    1TCM    cl1  404   3.803   3.986   0.230
    1TCM    cl2  405   3.770   4.242   0.096
    1TCM     h1  406   3.632   4.048   0.075
    1TCM    cl3  407   3.568   4.148   0.282
    1TCM     c1  408   1.646   1.573   1.453
    1TCM    cl1  409   1.496   1.621   1.369
    1TCM    cl2  410   1.766   1.704   1.439
    1TCM     h1  411   1.624   1.554   1.560
    1TCM    cl3  412   1.711   1.425   1.378
    1TCM     c1  413   3.510   0.641   2.304
    1TCM    cl1  414   3.437   0.769   2.205
    1TCM    cl2  415   3.385   0.568   2.408
    1TCM     h1  416   3.554   0.563   2.239
    1TCM    cl3  417   3.638   0.711   2.406
    1TCM     c1  418   0.138   0.632   1.990
    1TCM    cl1  419   0.308   0.589   1.961
    1TCM    cl2  420   0.063   0.682   1.836
    1TCM     h1  421   0.084   0.544   2.030
    1TCM    cl3  422   0.129   0.766   2.107
    1TCM     c1  423   3.909   2.622   1.114
    1TCM    cl1  424   3.770   2.720   1.166
    1TCM    cl2  425   3.866   2.449   1.125
    1TCM     h1  426   3.935   2.647   1.009
    1TCM    cl3  427   4.048   2.655   1.220
    1TCM     c1  428   4.174   0.099   0.776
    1TCM    cl1  429   4.305   0.026   0.681
    1TCM    cl2  430   4.216   0.096   0.948
    1TCM     h1  431   4.159   0.204   0.743
    1TCM    cl3  432   4.024   0.008   0.750
    1TCM     c1  433   4.915   1.780   3.409
    1TCM    cl1  434   4.940   1.918   3.518
    1TCM    cl2  435   4.960   1.826   3.243
    1TCM     h1  436   4.978   1.694   3.442
    1TCM    cl3  437   4.744   1.732   3.413
    1TCM     c1  438   2.015   3.605   2.414
    1TCM    cl1  439   1.839   3.591   2.436
    1TCM    cl2  440   2.097   3.476   2.506
    1TCM     h1  441   2.040   3.594   2.306
    1TCM    cl3  442   2.070   3.763   2.472
    1TCM     c1  443   0.721   0.278   4.880
    1TCM    cl1  444   0.753   0.231   4.712
    1TCM    cl2  445   0.868   0.254   4.978
    1TCM     h1  446   0.692   0.385   4.884
    1TCM    cl3  447   0.589   0.178   4.945
    1TCM     c1  448   4.498   0.656   4.512
    1TCM    cl1  449   4.639   0.564   4.455
    1TCM    cl2  450   4.551   0.780   4.628
    1TCM     h1  451   4.448   0.705   4.426
    1TCM    cl3  452   4.383   0.545   4.592
    1TCM     c1  453   3.837   4.703   1.552
    1TCM    cl1  454   3.852   4.854   1.459
    1TCM    cl2  455   3.822   4.742   1.725
    1TCM     h1  456   3.747   4.648   1.519
    1TCM    cl3  457   3.981   4.603   1.526
    1TCM     c1  458   4.502   4.561   4.898
    1TCM    cl1  459   4.544   4.575   5.070
    1TCM    cl2  460   4.435   4.715   4.841
    1TCM     h1  461   4.593   4.536   4.840
    1TCM    cl3  462   4.381   4.432   4.877
    1TCM     c1  463   3.974   4.288   1.730
    1TCM    cl1  464   4.115   4.327   1.630
    1TCM    cl2  465   3.996   4.356   1.893
    1TCM     h1  466   3.883   4.332   1.684
    1TCM    cl3  467   3.955   4.112   1.741
    1TCM     c1  468   3.869   4.046   3.390
    1TCM    cl1  469   3.899   3.974   3.550
    1TCM    cl2  470   4.018   4.039   3.293
    1TCM     h1  471   3.788   3.990   3.338
    1TCM    cl3  472   3.820   4.216   3.410
    1TCM     c1  473   0.369   0.902   3.419
    1TCM    cl1  474   0.536   0.843   3.416
    1TCM    cl2  475   0.279   0.835   3.281
    1TCM     h1  476   0.320   0.871   3.514
    1TCM    cl3  477   0.369   1.080   3.409
    1TCM     c1  478   3.049   2.578   2.751
    1TCM    cl1  479   2.928   2.575   2.621
    1TCM    cl2  480   3.000   2.695   2.875
    1TCM     h1  481   3.057   2.477   2.797
    1TCM    cl3  482   3.207   2.625   2.684
    1TCM     c1  483   3.740   2.394   2.475
    1TCM    cl1  484   3.664   2.543   2.414
    1TCM    cl2  485   3.897   2.370   2.394
    1TCM     h1  486   3.757   2.403   2.584
    1TCM    cl3  487   3.634   2.255   2.442
    1TCM     c1  488   5.003   0.678   2.444
    1TCM    cl1  489   4.931   0.563   2.559
    1TCM    cl2  490   4.935   0.651   2.282
    1TCM     h1  491   4.980   0.782   2.477
    1TCM    cl3  492   5.179   0.655   2.439
    1TCM     c1  493   0.437   0.144   3.053
    1TCM    cl1  494   0.304   0.103   2.943
    1TCM    cl2  495   0.400   0.296   3.138
    1TCM     h1  496   0.450   0.062   3.128
    1TCM    cl3  497   0.587   0.162   2.960
    1TCM     c1  498   5.238   3.676   1.382
    1TCM    cl1  499   5.336   3.529   1.363
    1TCM    cl2  500   5.093   3.665   1.279
    1TCM     h1  501   5.207   3.687   1.488
    1TCM    cl3  502   5.334   3.818   1.334
    1TCM     c1  503   1.515   3.289   0.946
    1TCM    cl1  504   1.414   3.229   0.812
    1TCM    cl2  505   1.473   3.201   1.095
    1TCM     h1  506   1.622   3.272   0.922
    1TCM    cl3  507   1.485   3.463   0.970
    1TCM     c1  508   4.872   0.150   2.169
    1TCM    cl1  509   4.699   0.111   2.181
    1TCM    cl2  510   4.928   0.119   2.003
    1TCM     h1  511   4.887   0.257   2.194
    1TCM    cl3  512   4.963   0.049   2.283
    1TCM     c1  513   2.687   4.497   4.211
    1TCM    cl1  514   2.748   4.629   4.109
    1TCM    cl2  515   2.673   4.554   4.379
    1TCM     h1  516   2.588   4.464   4.175
    1TCM    cl3  517   2.800   4.360   4.205
    1TCM     c1  518   4.671   1.730   0.354
    1TCM    cl1  519   4.619   1.652   0.203
    1TCM    cl2  520   4.655   1.907   0.337
    1TCM     h1  521   4.608   1.695   0.438
    1TCM    cl3  522   4.841   1.689   0.386
    1TCM     c1  523   2.935   4.754   4.433
    1TCM    cl1  524   2.803   4.795   4.544
    1TCM    cl2  525   2.883   4.782   4.265
    1TCM     h1  526   3.023   4.818   4.456
    1TCM    cl3  527   2.979   4.583   4.454
    1TCM     c1  528   3.806   4.164   2.086
    1TCM    cl1  529   3.764   4.334   2.055
    1TCM    cl2  530   3.769   4.125   2.256
    1TCM     h1  531   3.747   4.098   2.019
    1TCM    cl3  532   3.980   4.140   2.057
    1TCM     c1  533   0.922   0.280   3.482
    1TCM    cl1  534   0.757   0.331   3.524
    1TCM    cl2  535   0.926   0.227   3.312
    1TCM     h1  536   0.991   0.365   3.496
    1TCM    cl3  537   0.970   0.145   3.587
    1TCM     c1  538   0.913   1.372   2.596
    1TCM    cl1  539   1.045   1.476   2.537
    1TCM    cl2  540   0.952   1.316   2.761
    1TCM     h1  541   0.818   1.430   2.598
    1TCM    cl3  542   0.896   1.232   2.489
    1TCM     c1  543   1.161   0.753   2.235
    1TCM    cl1  544   1.182   0.902   2.141
    1TCM    cl2  545   1.037   0.777   2.360
    1TCM     h1  546   1.130   0.671   2.168
    1TCM    cl3  547   1.315   0.710   2.313
    1TCM     c1  548   2.948   1.159   3.940
    1TCM    cl1  549   2.804   1.158   4.044
    1TCM    cl2  550   2.902   1.207   3.775
    1TCM     h1  551   3.023   1.231   3.980
    1TCM    cl3  552   3.019   0.996   3.936
    1TCM     c1  553   4.619   5.128   1.268
    1TCM    cl1  554   4.762   5.123   1.163
    1TCM    cl2  555   4.670   5.165   1.435
    1TCM     h1  556   4.550   5.207   1.233
    1TCM    cl3  557   4.537   4.971   1.265
    1TCM     c1  558   0.525   4.430   0.319
    1TCM    cl1  559   0.690   4.369   0.294
    1TCM    cl2  560   0.501   4.470   0.490
    1TCM     h1  561   0.510   4.522   0.257
    1TCM    cl3  562   0.407   4.306   0.270
    1TCM     c1  563   2.435   3.431   2.237
    1TCM    cl1  564   2.403   3.410   2.063
    1TCM    cl2  565   2.596   3.365   2.275
    1TCM     h1  566   2.432   3.539   2.262
    1TCM    cl3  567   2.311   3.345   2.331
    1TCM     c1  568   0.349   3.153   1.098
    1TCM    cl1  569   0.394   3.258   0.961
    1TCM    cl2  570   0.411   3.224   1.249
    1TCM     h1  571   0.238   3.146   1.104
    1TCM    cl3  572   0.418   2.991   1.075
    1TCM     c1  573   3.363   3.634   1.048
    1TCM    cl1  574   3.486   3.744   0.982
    1TCM    cl2  575   3.387   3.615   1.223
    1TCM     h1  576   3.262   3.676   1.028
    1TCM    cl3  577   3.377   3.475   0.969
    1TCM     c1  578   3.202   3.083   4.938
    1TCM    cl1  579   3.372   3.044   4.906
    1TCM    cl2  580   3.187   3.155   5.100
    1TCM     h1  581   3.166   3.156   4.862
    1TCM    cl3  582   3.105   2.935   4.929
    1TCM     c1  583   1.135   1.293   1.937
    1TCM    cl1  584   1.022   1.224   1.818
    1TCM    cl2  585   1.128   1.470   1.929
    1TCM     h1  586   1.108   1.259   2.039
    1TCM    cl3  587   1.301   1.239   1.899
    1TCM     c1  588   1.957   2.671   4.776
    1TCM    cl1  589   1.918   2.613   4.939
    1TCM    cl2  590   1.827   2.777   4.718
    1TCM     h1  591   2.052   2.727   4.778
    1TCM    cl3  592   1.973   2.531   4.666
    1TCM     c1  593   2.253   4.134   4.134
    1TCM    cl1  594   2.093   4.118   4.059
    1TCM    cl2  595   2.253   4.054   4.293
    1TCM     h1  596   2.329   4.087   4.069
    1TCM    cl3  597   2.292   4.306   4.155
    1TCM     c1  598   0.788   0.349   0.135
    1TCM    cl1  599   0.878   0.221   0.219
    1TCM    cl2  600   0.766   0.488   0.244
    1TCM     h1  601   0.844   0.381   0.045
    1TCM    cl3  602   0.628   0.287   0.086
    1TCM     c1  603   1.137   0.632   2.929
    1TCM    cl1  604   1.041   0.700   3.063
    1TCM    cl2  605   1.042   0.638   2.779
    1TCM     h1  606   1.230   0.691   2.917
    1TCM    cl3  607   1.178   0.463   2.966
    1TCM     c1  608   4.536   3.196   3.276
    1TCM    cl1  609   4.500   3.085   3.141
    1TCM    cl2  610   4.384   3.256   3.345
    1TCM     h1  611   4.594   3.142   3.354
    1TCM    cl3  612   4.632   3.333   3.216
    1TCM     c1  613   3.188   4.763   5.221
    1TCM    cl1  614   3.170   4.894   5.102
    1TCM    cl2  615   3.348   4.773   5.296
    1TCM     h1  616   3.109   4.773   5.299
    1TCM    cl3  617   3.170   4.606   5.139
    1TCM     c1  618   1.827   0.143   3.539
    1TCM    cl1  619   1.977   0.050   3.517
    1TCM    cl2  620   1.818   0.201   3.707
    1TCM     h1  621   1.827   0.230   3.470
    1TCM    cl3  622   1.688   0.039   3.505
    1TCM     c1  623   1.030   0.755   4.016
    1TCM    cl1  624   1.023   0.898   3.909
    1TCM    cl2  625   0.997   0.609   3.921
    1TCM     h1  626   1.130   0.748   4.062
    1TCM    cl3  627   0.907   0.771   4.144
    1TCM     c1  628   2.043   5.158   2.389
    1TCM    cl1  629   2.150   5.200   2.525
    1TCM    cl2  630   1.882   5.114   2.451
    1TCM     h1  631   2.033   5.245   2.321
    1TCM    cl3  632   2.111   5.020   2.300
    1TCM     c1  633   1.303   1.314   2.435
    1TCM    cl1  634   1.393   1.459   2.384
    1TCM    cl2  635   1.143   1.313   2.357
    1TCM     h1  636   1.360   1.223   2.404
    1TCM    cl3  637   1.283   1.315   2.611
    1TCM     c1  638   1.623   1.628   0.170
    1TCM    cl1  639   1.512   1.691   0.046
    1TCM    cl2  640   1.530   1.546   0.297
    1TCM     h1  641   1.694   1.556   0.123
    1TCM    cl3  642   1.714   1.763   0.241
    1TCM     c1  643   4.236   3.109   2.489
    1TCM    cl1  644   4.143   3.258   2.463
    1TCM    cl2  645   4.378   3.109   2.383
    1TCM     h1  646   4.269   3.104   2.595
    1TCM    cl3  647   4.134   2.968   2.452
    1TCM     c1  648   2.915   4.886   1.435
    1TCM    cl1  649   2.996   4.957   1.577
    1TCM    cl2  650   2.862   4.721   1.473
    1TCM     h1  651   2.827   4.948   1.407
    1TCM    cl3  652   3.030   4.882   1.298
    1TCM     c1  653   4.310   2.471   3.353
    1TCM    cl1  654   4.349   2.347   3.474
    1TCM    cl2  655   4.294   2.396   3.193
    1TCM     h1  656   4.215   2.521   3.380
    1TCM    cl3  657   4.441   2.592   3.348
    1TCM     c1  658   4.317   0.750   3.685
    1TCM    cl1  659   4.477   0.817   3.727
    1TCM    cl2  660   4.311   0.719   3.510
    1TCM     h1  661   4.302   0.655   3.740
    1TCM    cl3  662   4.190   0.866   3.729
    1TCM     c1  663   4.263   0.994   3.328
    1TCM    cl1  664   4.389   0.907   3.237
    1TCM    cl2  665   4.336   1.074   3.469
    1TCM     h1  666   4.217   1.071   3.262
    1TCM    cl3  667   4.139   0.879   3.382
    1TCM     c1  668   2.096   0.272   3.389
    1TCM    cl1  669   2.217   0.396   3.349
    1TCM    cl2  670   2.178   0.115   3.410
    1TCM     h1  671   2.044   0.299   3.483
    1TCM    cl3  672   1.978   0.259   3.256
    1TCM     c1  673   0.537   4.481   3.679
    1TCM    cl1  674   0.386   4.510   3.770
    1TCM    cl2  675   0.533   4.575   3.528
    1TCM     h1  676   0.623   4.513   3.740
    1TCM    cl3  677   0.551   4.308   3.641
    1TCM     c1  678   0.293   1.932   4.786
    1TCM    cl1  679   0.201   1.933   4.939
    1TCM    cl2  680   0.383   2.084   4.771
    1TCM     h1  681   0.364   1.847   4.786
    1TCM    cl3  682   0.180   1.915   4.650
    1TCM     c1  683   1.114   5.107   5.151
    1TCM    cl1  684   1.106   5.239   5.269
    1TCM    cl2  685   1.047   5.161   4.996
    1TCM     h1  686   1.219   5.076   5.138
    1TCM    cl3  687   1.019   4.968   5.211
    1TCM     c1  688   0.844   2.194   1.181
    1TCM    cl1  689   0.981   2.306   1.168
    1TCM    cl2  690   0.846   2.081   1.044
    1TCM     h1  691   0.853   2.136   1.276
    1TCM    cl3  692   0.692   2.285   1.181
    1TCM     c1  693   4.825   1.693   2.320
    1TCM    cl1  694   4.824   1.816   2.448
    1TCM    cl2  695   4.752   1.543   2.381
    1TCM     h1  696   4.767   1.730   2.233
    1TCM    cl3  697   4.993   1.661   2.269
    1TCM     c1  698   2.938   1.344   2.589
    1TCM    cl1  699   2.847   1.235   2.481
    1TCM    cl2  700   3.010   1.249   2.721
    1TCM     h1  701   3.018   1.394   2.531
    1TCM    cl3  702   2.828   1.466   2.656
    1TCM     c1  703   3.166   0.548   2.693
    1TCM    cl1  704   3.028   0.625   2.776
    1TCM    cl2  705   3.187   0.621   2.533
    1TCM     h1  706   3.258   0.563   2.753
    1TCM    cl3  707   3.134   0.374   2.675
    1TCM     c1  708   2.393   4.667   1.109
    1TCM    cl1  709   2.274   4.611   1.229
    1TCM    cl2  710   2.309   4.734   0.968
    1TCM     h1  711   2.458   4.745   1.155
    1TCM    cl3  712   2.494   4.529   1.058
    1TCM     c1  713   0.493   3.466   4.054
    1TCM    cl1  714   0.543   3.295   4.062
    1TCM    cl2  715   0.579   3.558   4.179
    1TCM     h1  716   0.519   3.507   3.954
    1TCM    cl3  717   0.318   3.478   4.080
    1TCM     c1  718   2.509   0.107   1.740
    1TCM    cl1  719   2.392   0.000   1.820
    1TCM    cl2  720   2.429   0.189   1.603
    1TCM     h1  721   2.545   0.183   1.812
    1TCM    cl3  722   2.646   0.012   1.679
    1TCM     c1  723   2.702   4.907   3.757
    1TCM    cl1  724   2.699   4.926   3.580
    1TCM    cl2  725   2.730   4.736   3.798
    1TCM     h1  726   2.783   4.969   3.799
    1TCM    cl3  727   2.546   4.959   3.825
    1TCM     c1  728   3.668   3.570   4.898
    1TCM    cl1  729   3.822   3.629   4.965
    1TCM    cl2  730   3.694   3.514   4.731
    1TCM     h1  731   3.631   3.486   4.960
    1TCM    cl3  732   3.549   3.702   4.898
    1TCM     c1  733   1.862   0.243   4.826
    1TCM    cl1  734   1.865   0.070   4.869
    1TCM    cl2  735   1.789   0.262   4.664
    1TCM     h1  736   1.802   0.299   4.900
    1TCM    cl3  737   2.028   0.306   4.824
    1TCM     c1  738   3.421   3.748   1.915
    1TCM    cl1  739   3.249   3.705   1.900
    1TCM    cl2  740   3.472   3.730   2.085
    1TCM     h1  741   3.482   3.680   1.851
    1TCM    cl3  742   3.446   3.916   1.863
    1TCM     c1  743   0.154   2.733   2.139
    1TCM    cl1  744   0.002   2.730   2.232
    1TCM    cl2  745   0.258   2.864   2.198
    1TCM     h1  746   0.206   2.636   2.152
    1TCM    cl3  747   0.117   2.759   1.967
    1TCM     c1  748   1.808   0.869   3.618
    1TCM    cl1  749   1.634   0.833   3.609
    1TCM    cl2  750   1.896   0.761   3.508
    1TCM     h1  751   1.825   0.975   3.588
    1TCM    cl3  752   1.865   0.845   3.785
    1TCM     c1  753   1.445   4.577   3.674
    1TCM    cl1  754   1.618   4.555   3.637
    1TCM    cl2  755   1.411   4.512   3.836
    1TCM     h1  756   1.420   4.685   3.671
    1TCM    cl3  757   1.347   4.490   3.554
    1TCM     c1  758   1.225   3.601   3.607
    1TCM    cl1  759   1.067   3.521   3.590
    1TCM    cl2  760   1.259   3.630   3.779
    1TCM     h1  761   1.304   3.536   3.564
    1TCM    cl3  762   1.223   3.756   3.519
    1TCM     c1  763   4.851   2.346   2.478
    1TCM    cl1  764   4.757   2.349   2.629
    1TCM    cl2  765   4.932   2.189   2.463
    1TCM     h1  766   4.783   2.362   2.392
    1TCM    cl3  767   4.973   2.476   2.482
    1TCM     c1  768   2.345   1.436   1.854
    1TCM    cl1  769   2.345   1.260   1.881
    1TCM    cl2  770   2.391   1.470   1.686
    1TCM     h1  771   2.243   1.477   1.873
    1TCM    cl3  772   2.461   1.513   1.964
    1TCM     c1  773   1.255   0.139   3.681
    1TCM    cl1  774   1.146   0.034   3.774
    1TCM    cl2  775   1.258   0.086   3.511
    1TCM     h1  776   1.219   0.244   3.686
    1TCM    cl3  777   1.419   0.129   3.749
    1TCM     c1  778   4.355   3.798   2.794
    1TCM    cl1  779   4.235   3.815   2.924
    1TCM    cl2  780   4.271   3.789   2.637
    1TCM     h1  781   4.424   3.885   2.795
    1TCM    cl3  782   4.449   3.648   2.819
    1TCM     c1  783   4.463   1.311   4.073
    1TCM    cl1  784   4.330   1.220   3.997
    1TCM    cl2  785   4.464   1.279   4.247
    1TCM     h1  786   4.559   1.279   4.028
    1TCM    cl3  787   4.438   1.485   4.044
    1TCM     c1  788   3.813   2.072   2.622
    1TCM    cl1  789   3.920   2.010   2.494
    1TCM    cl2  790   3.873   2.018   2.780
    1TCM     h1  791   3.812   2.183   2.618
    1TCM    cl3  792   3.648   2.010   2.597
    1TCM     c1  793   5.007   4.050   3.281
    1TCM    cl1  794   4.865   4.015   3.382
    1TCM    cl2  795   4.957   4.063   3.111
    1TCM     h1  796   5.053   4.146   3.314
    1TCM    cl3  797   5.126   3.918   3.298
    1TCM     c1  798   0.479   1.852   0.573
    1TCM    cl1  799   0.427   2.016   0.617
    1TCM    cl2  800   0.500   1.754   0.720
    1TCM     h1  801   0.403   1.805   0.508
    1TCM    cl3  802   0.634   1.861   0.486
    1TCM     c1  803   3.645   1.808   3.667
    1TCM    cl1  804   3.723   1.656   3.716
    1TCM    cl2  805   3.643   1.820   3.490
    1TCM     h1  806   3.541   1.810   3.706
    1TCM    cl3  807   3.736   1.946   3.734
    1TCM     c1  808   1.477   2.414   2.962
    1TCM    cl1  809   1.628   2.336   3.014
    1TCM    cl2  810   1.481   2.440   2.786
    1TCM     h1  811   1.391   2.349   2.988
    1TCM    cl3  812   1.460   2.571   3.045
    1TCM     c1  813   0.318   3.037   0.160
    1TCM    cl1  814   0.378   3.151   0.282
    1TCM    cl2  815   0.399   3.069   0.005
    1TCM     h1  816   0.339   2.933   0.192
    1TCM    cl3  817   0.143   3.058   0.140
    1TCM     c1  818   0.832   4.664   5.019
    1TCM    cl1  819   0.968   4.568   4.956
    1TCM    cl2  820   0.857   4.694   5.193
    1TCM     h1  821   0.827   4.761   4.965
    1TCM    cl3  822   0.680   4.575   4.996
    1TCM     c1  823   4.691   4.849   0.175
    1TCM    cl1  824   4.853   4.776   0.182
    1TCM    cl2  825   4.655   4.928   0.330
    1TCM     h1  826   4.688   4.924   0.093
    1TCM    cl3  827   4.570   4.723   0.144
    1TCM     c1  828   0.723   1.549   0.705
    1TCM    cl1  829   0.712   1.579   0.879
    1TCM    cl2  830   0.564   1.498   0.643
    1TCM     h1  831   0.754   1.642   0.653
    1TCM    cl3  832   0.842   1.420   0.674
    1TCM     c1  833   2.442   0.340   3.582
    1TCM    cl1  834   2.296   0.440   3.600
    1TCM    cl2  835   2.460   0.236   3.724
    1TCM     h1  836   2.432   0.278   3.491
    1TCM    cl3  837   2.584   0.446   3.567
    1TCM     c1  838   0.508   1.524   3.340
    1TCM    cl1  839   0.651   1.629   3.329
    1TCM    cl2  840   0.473   1.489   3.511
    1TCM     h1  841   0.421   1.575   3.294
    1TCM    cl3  842   0.539   1.372   3.253
    1TCM     c1  843   0.386   4.479   5.026
    1TCM    cl1  844   0.408   4.404   4.866
    1TCM    cl2  845   0.256   4.394   5.114
    1TCM     h1  846   0.480   4.471   5.084
    1TCM    cl3  847   0.342   4.650   5.005
    1TCM     c1  848   4.337   1.397   2.207
    1TCM    cl1  849   4.284   1.290   2.075
    1TCM    cl2  850   4.249   1.355   2.356
    1TCM     h1  851   4.446   1.385   2.223
    1TCM    cl3  852   4.302   1.566   2.163
    1TCM     c1  853   1.496   0.660   1.815
    1TCM    cl1  854   1.622   0.672   1.690
    1TCM    cl2  855   1.430   0.495   1.817
    1TCM     h1  856   1.541   0.683   1.914
    1TCM    cl3  857   1.366   0.776   1.780
    1TCM     c1  858   0.141   5.134   3.538
    1TCM    cl1  859   0.108   5.284   3.447
    1TCM    cl2  860   0.292   5.062   3.478
    1TCM     h1  861   0.152   5.158   3.646
    1TCM    cl3  862   0.007   5.020   3.516
    1TCM     c1  863   2.475   1.807   3.711
    1TCM    cl1  864   2.561   1.656   3.675
    1TCM    cl2  865   2.568   1.901   3.831
    1TCM     h1  866   2.464   1.867   3.618
    1TCM    cl3  867   2.314   1.769   3.777
    1TCM     c1  868   2.677   3.565   3.804
    1TCM    cl1  869   2.531   3.555   3.905
    1TCM    cl2  870   2.632   3.610   3.638
    1TCM     h1  871   2.746   3.641   3.846
    1TCM    cl3  872   2.759   3.407   3.802
    1TCM     c1  873   0.936   1.389   3.808
    1TCM    cl1  874   0.818   1.337   3.685
    1TCM    cl2  875   0.857   1.396   3.967
    1TCM     h1  876   1.020   1.316   3.812
    1TCM    cl3  877   0.999   1.550   3.765
    1TCM     c1  878   0.757   4.416   1.915
    1TCM    cl1  879   0.934   4.435   1.912
    1TCM    cl2  880   0.681   4.574   1.942
    1TCM     h1  881   0.723   4.374   1.817
    1TCM    cl3  882   0.711   4.305   2.046
    1TCM     c1  883   3.749   4.185   2.585
    1TCM    cl1  884   3.750   4.331   2.483
    1TCM    cl2  885   3.724   4.041   2.484
    1TCM     h1  886   3.846   4.177   2.638
    1TCM    cl3  887   3.618   4.197   2.704
    1TCM     c1  888   0.480   2.508   3.613
    1TCM    cl1  889   0.356   2.602   3.700
    1TCM    cl2  890   0.470   2.543   3.439
    1TCM     h1  891   0.581   2.537   3.650
    1TCM    cl3  892   0.454   2.335   3.640
    1TCM     c1  893   1.838   3.933   1.802
    1TCM    cl1  894   1.936   3.945   1.949
    1TCM    cl2  895   1.844   3.766   1.740
    1TCM     h1  896   1.733   3.960   1.825
    1TCM    cl3  897   1.903   4.043   1.678
    1TCM     c1  898   1.713   1.678   2.602
    1TCM    cl1  899   1.735   1.822   2.704
    1TCM    cl2  900   1.746   1.719   2.433
    1TCM     h1  901   1.783   1.598   2.636
    1TCM    cl3  902   1.545   1.620   2.618
    1TCM     c1  903   3.948   0.159   4.028
    1TCM    cl1  904   3.959   0.284   4.153
    1TCM    cl2  905   3.854   0.021   4.090
    1TCM     h1  906   3.898   0.200   3.938
    1TCM    cl3  907   4.111   0.104   3.984
    1TCM     c1  908   0.171   4.530   4.558
    1TCM    cl1  909   0.061   4.434   4.456
    1TCM    cl2  910   0.166   4.469   4.725
    1TCM     h1  911   0.275   4.521   4.519
    1TCM    cl3  912   0.121   4.700   4.556
    1TCM     c1  913   1.107   1.725   0.790
    1TCM    cl1  914   1.122   1.556   0.840
    1TCM    cl2  915   1.060   1.733   0.618
    1TCM     h1  916   1.030   1.776   0.851
    1TCM    cl3  917   1.264   1.807   0.812
    1TCM     c1  918   2.670   2.809   0.253
    1TCM    cl1  919   2.845   2.816   0.224
    1TCM    cl2  920   2.638   2.719   0.403
    1TCM     h1  921   2.630   2.912   0.263
    1TCM    cl3  922   2.590   2.728   0.117
    1TCM     c1  923   3.652   1.388   3.446
    1TCM    cl1  924   3.805   1.432   3.365
    1TCM    cl2  925   3.675   1.237   3.537
    1TCM     h1  926   3.623   1.469   3.515
    1TCM    cl3  927   3.526   1.365   3.323
    1TCM     c1  928   3.489   0.310   1.943
    1TCM    cl1  929   3.464   0.453   2.046
    1TCM    cl2  930   3.648   0.239   1.979
    1TCM     h1  931   3.409   0.235   1.964
    1TCM    cl3  932   3.482   0.358   1.772
    1TCM     c1  933   4.121   2.685   1.517
    1TCM    cl1  934   4.222   2.734   1.654
    1TCM    cl2  935   4.105   2.508   1.516
    1TCM     h1  936   4.021   2.731   1.527
    1TCM    cl3  937   4.197   2.739   1.365
    1TCM     c1  938   3.011   4.287   2.699
    1TCM    cl1  939   2.905   4.420   2.751
    1TCM    cl2  940   3.110   4.340   2.561
    1TCM     h1  941   3.078   4.257   2.783
    1TCM    cl3  942   2.912   4.148   2.651
    1TCM     c1  943   4.442   1.101   2.767
    1TCM    cl1  944   4.495   1.071   2.934
    1TCM    cl2  945   4.584   1.122   2.663
    1TCM     h1  946   4.382   1.014   2.731
    1TCM    cl3  947   4.342   1.248   2.762
    1TCM     c1  948   1.089   2.015   4.972
    1TCM    cl1  949   1.086   1.878   5.085
    1TCM    cl2  950   1.252   2.033   4.904
    1TCM     h1  951   1.016   1.997   4.890
    1TCM    cl3  952   1.044   2.164   5.059
    1TCM     c1  953   2.420   4.664   4.577
    1TCM    cl1  954   2.256   4.632   4.638
    1TCM    cl2  955   2.423   4.641   4.401
    1TCM     h1  956   2.448   4.769   4.601
    1TCM    cl3  957   2.535   4.553   4.654
    1TCM     c1  958   2.302   5.127   5.128
    1TCM    cl1  959   2.269   5.051   5.286
    1TCM    cl2  960   2.340   5.001   5.009
    1TCM     h1  961   2.212   5.183   5.095
    1TCM    cl3  962   2.439   5.238   5.144
    1TCM     c1  963   2.016   1.263   3.014
    1TCM    cl1  964   2.193   1.256   3.032
    1TCM    cl2  965   1.970   1.421   2.947
    1TCM     h1  966   1.983   1.182   2.946
    1TCM    cl3  967   1.940   1.241   3.173
    1TCM     c1  968   1.944   2.217   5.135
    1TCM    cl1  969   1.914   2.042   5.138
    1TCM    cl2  970   2.025   2.266   5.285
    1TCM     h1  971   2.007   2.242   5.048
    1TCM    cl3  972   1.788   2.303   5.121
    1TCM     c1  973   2.292   1.843   1.690
    1TCM    cl1  974   2.138   1.927   1.720
    1TCM    cl2  975   2.406   1.879   1.821
    1TCM     h1  976   2.274   1.733   1.686
    1TCM    cl3  977   2.360   1.897   1.535
    1TCM     c1  978   2.751   2.720   0.786
    1TCM    cl1  979   2.885   2.606   0.766
    1TCM    cl2  980   2.750   2.781   0.953
    1TCM     h1  981   2.764   2.805   0.716
    1TCM    cl3  982   2.597   2.638   0.753
    1TCM     c1  983   3.074   1.872   2.010
    1TCM    cl1  984   2.996   1.994   2.113
    1TCM    cl2  985   3.080   1.931   1.842
    1TCM     h1  986   3.177   1.853   2.046
    1TCM    cl3  987   2.981   1.720   2.016
    1TCM     c1  988   4.642   4.611   2.807
    1TCM    cl1  989   4.469   4.649   2.811
    1TCM    cl2  990   4.734   4.750   2.869
    1TCM     h1  991   4.663   4.522   2.869
    1TCM    cl3  992   4.692   4.578   2.639
    1TCM     c1  993   3.279   0.431   4.924
    1TCM    cl1  994   3.130   0.422   4.828
    1TCM    cl2  995   3.345   0.268   4.946
    1TCM     h1  996   3.354   0.494   4.872
    1TCM    cl3  997   3.243   0.502   5.083
    1TCM     c1  998   3.971   3.976   4.136
    1TCM    cl1  999   3.851   3.998   4.007
    1TCM    cl2 1000   3.898   4.015   4.293
    1TCM     h1 1001   4.006   3.870   4.137
    1TCM    cl3 1002   4.110   4.083   4.107
    1TCM     c1 1003   2.066   1.377   2.586
    1TCM    cl1 1004   1.998   1.233   2.507
    1TCM    cl2 1005   2.204   1.330   2.688
    1TCM     h1 1006   2.100   1.449   2.508
    1TCM    cl3 1007   1.941   1.454   2.687
    1TCM     c1 1008   2.686   0.483   0.138
    1TCM    cl1 1009   2.722   0.534   0.304
    1TCM    cl2 1010   2.592   0.610   0.056
    1TCM     h1 1011   2.781   0.466   0.083
    1TCM    cl3 1012   2.591   0.333   0.141
    1TCM     c1 1013   2.430   2.916   2.019
    1TCM    cl1 1014   2.550   2.885   1.892
    1TCM    cl2 1015   2.437   3.088   2.066
    1TCM     h1 1016   2.329   2.892   1.981
    1TCM    cl3 1017   2.466   2.815   2.161
    1TCM     c1 1018   1.102   4.951   1.626
    1TCM    cl1 1019   1.217   4.826   1.678
    1TCM    cl2 1020   0.936   4.890   1.644
    1TCM     h1 1021   1.115   5.042   1.688
    1TCM    cl3 1022   1.132   4.991   1.455
    1TCM     c1 1023   4.244   2.310   4.424
    1TCM    cl1 1024   4.179   2.461   4.355
    1TCM    cl2 1025   4.393   2.346   4.514
    1TCM     h1 1026   4.169   2.265   4.492
    1TCM    cl3 1027   4.281   2.196   4.293
    1TCM     c1 1028   1.919   5.109   5.118
    1TCM    cl1 1029   2.024   4.991   5.200
    1TCM    cl2 1030   1.996   5.269   5.121
    1TCM     h1 1031   1.904   5.077   5.012
    1TCM    cl3 1032   1.762   5.117   5.201
    1TCM     c1 1033   3.442   3.888   0.659
    1TCM    cl1 1034   3.268   3.911   0.633
    1TCM    cl2 1035   3.527   3.892   0.503
    1TCM     h1 1036   3.481   3.969   0.724
    1TCM    cl3 1037   3.470   3.731   0.738
    1TCM     c1 1038   4.651   0.986   1.067
    1TCM    cl1 1039   4.706   1.135   1.146
    1TCM    cl2 1040   4.504   0.927   1.147
    1TCM     h1 1041   4.630   1.006   0.961
    1TCM    cl3 1042   4.778   0.862   1.080
    1TCM     c1 1043   4.175   1.829   1.965
    1TCM    cl1 1044   4.237   1.849   1.799
    1TCM    cl2 1045   4.007   1.884   1.973
    1TCM     h1 1046   4.181   1.722   1.993
    1TCM    cl3 1047   4.274   1.925   2.077
    1TCM     c1 1048   4.117   1.737   0.116
    1TCM    cl1 1049   4.121   1.564   0.074
    1TCM    cl2 1050   4.220   1.827   0.002
    1TCM     h1 1051   4.013   1.774   0.109
    1TCM    cl3 1052   4.179   1.758   0.281
    1TCM     c1 1053   0.133   0.069   4.401
    1TCM    cl1 1054   0.306   0.027   4.405
    1TCM    cl2 1055   0.052   0.001   4.544
    1TCM     h1 1056   0.122   0.180   4.401
    1TCM    cl3 1057   0.059   0.002   4.254
    1TCM     c1 1058   3.987   3.234   4.809
    1TCM    cl1 1059   3.950   3.380   4.903
    1TCM    cl2 1060   4.135   3.158   4.873
    1TCM     h1 1061   3.903   3.162   4.817
    1TCM    cl3 1062   4.012   3.277   4.638
    1TCM     c1 1063   1.287   0.469   3.780
    1TCM    cl1 1064   1.424   0.454   3.667
    1TCM    cl2 1065   1.135   0.479   3.688
    1TCM     h1 1066   1.284   0.380   3.846
    1TCM    cl3 1067   1.307   0.616   3.878
    1TCM     c1 1068   3.592   0.350   1.431
    1TCM    cl1 1069   3.560   0.525   1.435
    1TCM    cl2 1070   3.526   0.282   1.280
    1TCM     h1 1071   3.701   0.332   1.435
    1TCM    cl3 1072   3.514   0.272   1.570
    1TCM     c1 1073   1.223   0.461   4.224
    1TCM    cl1 1074   1.286   0.296   4.245
    1TCM    cl2 1075   1.356   0.577   4.239
    1TCM     h1 1076   1.177   0.470   4.123
    1TCM    cl3 1077   1.100   0.494   4.348
    1TCM     c1 1078   3.164   5.235   3.668
    1TCM    cl1 1079   3.286   5.299   3.781
    1TCM    cl2 1080   3.226   5.247   3.502
    1TCM     h1 1081   3.143   5.129   3.693
    1TCM    cl3 1082   3.015   5.331   3.683
    1TCM     c1 1083   2.272   1.161   4.201
    1TCM    cl1 1084   2.400   1.147   4.324
    1TCM    cl2 1085   2.115   1.118   4.274
    1TCM     h1 1086   2.268   1.265   4.163
    1TCM    cl3 1087   2.306   1.050   4.067
    1TCM     c1 1088   3.349   0.780   0.345
    1TCM    cl1 1089   3.194   0.695   0.360
    1TCM    cl2 1090   3.433   0.726   0.198
    1TCM     h1 1091   3.331   0.889   0.340
    1TCM    cl3 1092   3.450   0.744   0.487
    1TCM     c1 1093   1.642   2.188   2.773
    1TCM    cl1 1094   1.695   2.057   2.880
    1TCM    cl2 1095   1.624   2.126   2.607
    1TCM     h1 1096   1.545   2.228   2.808
    1TCM    cl3 1097   1.764   2.318   2.774
    1TCM     c1 1098   4.951   3.996   4.707
    1TCM    cl1 1099   4.882   4.112   4.592
    1TCM    cl2 1100   4.893   4.033   4.871
    1TCM     h1 1101   4.920   3.893   4.679
    1TCM    cl3 1102   5.129   4.007   4.703
    1TCM     c1 1103   0.799   0.900   2.767
    1TCM    cl1 1104   0.909   0.799   2.671
    1TCM    cl2 1105   0.867   1.063   2.783
    1TCM     h1 1106   0.700   0.906   2.717
    1TCM    cl3 1107   0.778   0.828   2.929
    1TCM     c1 1108   4.725   0.975   3.645
    1TCM    cl1 1109   4.704   0.870   3.787
    1TCM    cl2 1110   4.852   1.095   3.678
    1TCM     h1 1111   4.754   0.913   3.557
    1TCM    cl3 1112   4.572   1.059   3.610
    1TCM     c1 1113   5.041   4.821   0.661
    1TCM    cl1 1114   5.208   4.793   0.608
    1TCM    cl2 1115   5.032   4.810   0.838
    1TCM     h1 1116   5.008   4.922   0.629
    1TCM    cl3 1117   4.934   4.699   0.589
    1TCM     c1 1118   0.714   3.404   0.350
    1TCM    cl1 1119   0.586   3.285   0.385
    1TCM    cl2 1120   0.776   3.377   0.186
    1TCM     h1 1121   0.672   3.506   0.357
    1TCM    cl3 1122   0.846   3.385   0.468
    1TCM     c1 1123   1.275   2.428   4.750
    1TCM    cl1 1124   1.321   2.503   4.904
    1TCM    cl2 1125   1.335   2.528   4.615
    1TCM     h1 1126   1.320   2.327   4.743
    1TCM    cl3 1127   1.098   2.416   4.740
    1TCM     c1 1128   1.638   4.143   0.148
    1TCM    cl1 1129   1.718   4.096   0.299
    1TCM    cl2 1130   1.477   4.068   0.141
    1TCM     h1 1131   1.627   4.254   0.145
    1TCM    cl3 1132   1.735   4.089   0.009
    1TCM     c1 1133   0.707   3.183   0.706
    1TCM    cl1 1134   0.676   3.358   0.691
    1TCM    cl2 1135   0.754   3.145   0.873
    1TCM     h1 1136   0.615   3.127   0.679
    1TCM    cl3 1137   0.839   3.137   0.595
    1TCM     c1 1138   4.264   1.661   2.608
    1TCM    cl1 1139   4.217   1.530   2.497
    1TCM    cl2 1140   4.322   1.800   2.514
    1TCM     h1 1141   4.176   1.691   2.668
    1TCM    cl3 1142   4.393   1.603   2.715
    1TCM     c1 1143   2.164   0.629   4.374
    1TCM    cl1 1144   2.108   0.570   4.532
    1TCM    cl2 1145   2.150   0.499   4.253
    1TCM     h1 1146   2.102   0.715   4.342
    1TCM    cl3 1147   2.334   0.680   4.386
    1TCM     c1 1148   0.361   0.153   2.635
    1TCM    cl1 1149   0.316   0.060   2.490
    1TCM    cl2 1150   0.222   0.250   2.689
    1TCM     h1 1151   0.392   0.083   2.715
    1TCM    cl3 1152   0.497   0.261   2.596
    1TCM     c1 1153   1.865   4.550   4.424
    1TCM    cl1 1154   1.857   4.559   4.246
    1TCM    cl2 1155   1.829   4.385   4.476
    1TCM     h1 1156   1.967   4.578   4.458
    1TCM    cl3 1157   1.746   4.662   4.494
    1TCM     c1 1158   4.296   4.603   1.512
    1TCM    cl1 1159   4.433   4.525   1.430
    1TCM    cl2 1160   4.232   4.733   1.408
    1TCM     h1 1161   4.217   4.528   1.531
    1TCM    cl3 1162   4.351   4.673   1.666
    1TCM     c1 1163   1.006   2.592   0.590
    1TCM    cl1 1164   0.947   2.542   0.750
    1TCM    cl2 1165   0.878   2.567   0.470
    1TCM     h1 1166   1.034   2.699   0.593
    1TCM    cl3 1167   1.148   2.494   0.546
    1TCM     c1 1168   1.447   0.925   4.286
    1TCM    cl1 1169   1.504   0.770   4.352
    1TCM    cl2 1170   1.408   0.905   4.114
    1TCM     h1 1171   1.357   0.958   4.341
    1TCM    cl3 1172   1.576   1.047   4.304
    1TCM     c1 1173   1.916   1.536   0.887
    1TCM    cl1 1174   2.004   1.383   0.905
    1TCM    cl2 1175   1.825   1.570   1.036
    1TCM     h1 1176   1.988   1.618   0.868
    1TCM    cl3 1177   1.803   1.523   0.750
    1TCM     c1 1178   1.280   4.599   1.452
    1TCM    cl1 1179   1.119   4.661   1.408
    1TCM    cl2 1180   1.311   4.633   1.624
    1TCM     h1 1181   1.283   4.490   1.435
    1TCM    cl3 1182   1.403   4.679   1.352
    1TCM     c1 1183   5.122   2.766   2.644
    1TCM    cl1 1184   5.136   2.798   2.469
    1TCM    cl2 1185   4.959   2.701   2.678
    1TCM     h1 1186   5.198   2.691   2.674
    1TCM    cl3 1187   5.146   2.916   2.734
    1TCM     c1 1188   0.979   2.501   0.192
    1TCM    cl1 1189   1.100   2.552   0.072
    1TCM    cl2 1190   1.057   2.403   0.317
    1TCM     h1 1191   0.933   2.590   0.238
    1TCM    cl3 1192   0.853   2.404   0.111
    1TCM     c1 1193   3.687   4.747   3.424
    1TCM    cl1 1194   3.566   4.703   3.302
    1TCM    cl2 1195   3.689   4.924   3.445
    1TCM     h1 1196   3.660   4.699   3.521
    1TCM    cl3 1197   3.847   4.691   3.372
    1TCM     c1 1198   2.197   1.068   2.455
    1TCM    cl1 1199   2.266   1.224   2.403
    1TCM    cl2 1200   2.306   0.936   2.408
    1TCM     h1 1201   2.183   1.069   2.565
    1TCM    cl3 1202   2.039   1.045   2.376
    1TCM     c1 1203   0.691   4.584   4.491
    1TCM    cl1 1204   0.808   4.601   4.623
    1TCM    cl2 1205   0.526   4.604   4.554
    1TCM     h1 1206   0.710   4.662   4.414
    1TCM    cl3 1207   0.707   4.423   4.418
    1TCM     c1 1208   2.045   4.851   3.931
    1TCM    cl1 1209   2.043   4.700   4.025
    1TCM    cl2 1210   1.984   4.819   3.767
    1TCM     h1 1211   1.980   4.926   3.981
    1TCM    cl3 1212   2.211   4.914   3.922
    1TCM     c1 1213   1.196   0.290   1.258
    1TCM    cl1 1214   1.138   0.137   1.189
    1TCM    cl2 1215   1.235   0.266   1.431
    1TCM     h1 1216   1.288   0.322   1.204
    1TCM    cl3 1217   1.071   0.414   1.242
    1TCM     c1 1218   2.482   3.151   1.130
    1TCM    cl1 1219   2.580   3.196   1.271
    1TCM    cl2 1220   2.529   2.989   1.074
    1TCM     h1 1221   2.374   3.151   1.158
    1TCM    cl3 1222   2.508   3.269   0.999
    1TCM     c1 1223   1.016   3.626   1.090
    1TCM    cl1 1224   1.057   3.456   1.124
    1TCM    cl2 1225   1.105   3.732   1.201
    1TCM     h1 1226   1.043   3.650   0.985
    1TCM    cl3 1227   0.841   3.650   1.112
    1TCM     c1 1228   3.742   2.420   2.037
    1TCM    cl1 1229   3.810   2.317   1.909
    1TCM    cl2 1230   3.819   2.580   2.033
    1TCM     h1 1231   3.633   2.431   2.022
    1TCM    cl3 1232   3.772   2.344   2.195
    1TCM     c1 1233   2.773   2.447   1.207
    1TCM    cl1 1234   2.633   2.455   1.097
    1TCM    cl2 1235   2.721   2.384   1.365
    1TCM     h1 1236   2.850   2.381   1.163
    1TCM    cl3 1237   2.840   2.610   1.228
    1TCM     c1 1238   2.787   3.471   4.274
    1TCM    cl1 1239   2.647   3.502   4.379
    1TCM    cl2 1240   2.794   3.594   4.146
    1TCM     h1 1241   2.880   3.476   4.335
    1TCM    cl3 1242   2.773   3.310   4.201
    1TCM     c1 1243   1.068   2.979   4.437
    1TCM    cl1 1244   1.183   2.892   4.332
    1TCM    cl2 1245   0.904   2.963   4.370
    1TCM     h1 1246   1.071   2.935   4.539
    1TCM    cl3 1247   1.112   3.151   4.444
    1TCM     c1 1248   1.465   2.790   3.472
    1TCM    cl1 1249   1.592   2.864   3.573
    1TCM    cl2 1250   1.525   2.774   3.305
    1TCM     h1 1251   1.440   2.690   3.512
    1TCM    cl3 1252   1.320   2.893   3.473
    1TCM     c1 1253   3.768   4.768   3.898
    1TCM    cl1 1254   3.626   4.746   4.002
    1TCM    cl2 1255   3.900   4.841   3.993
    1TCM     h1 1256   3.801   4.670   3.859
    1TCM    cl3 1257   3.727   4.875   3.763
    1TCM     c1 1258   0.182   3.221   0.507
    1TCM    cl1 1259   0.077   3.358   0.551
    1TCM    cl2 1260   0.085   3.095   0.427
    1TCM     h1 1261   0.261   3.257   0.438
    1TCM    cl3 1262   0.257   3.155   0.654
    1TCM     c1 1263   1.463   2.289   5.163
    1TCM    cl1 1264   1.470   2.194   5.012
    1TCM    cl2 1265   1.358   2.206   5.280
    1TCM     h1 1266   1.566   2.298   5.205
    1TCM    cl3 1267   1.398   2.450   5.128
    1TCM     c1 1268   0.292   1.926   3.029
    1TCM    cl1 1269   0.329   1.978   3.195
    1TCM    cl2 1270   0.430   1.962   2.923
    1TCM     h1 1271   0.272   1.816   3.029
    1TCM    cl3 1272   0.147   2.011   2.970
    1TCM     c1 1273   3.625   0.254   4.937
    1TCM    cl1 1274   3.571   0.183   4.784
    1TCM    cl2 1275   3.792   0.201   4.971
    1TCM     h1 1276   3.622   0.364   4.930
    1TCM    cl3 1277   3.519   0.200   5.069
    1TCM     c1 1278   1.738   2.799   2.187
    1TCM    cl1 1279   1.623   2.935   2.188
    1TCM    cl2 1280   1.788   2.764   2.020
    1TCM     h1 1281   1.827   2.826   2.247
    1TCM    cl3 1282   1.660   2.655   2.257
    1TCM     c1 1283   4.221   0.657   4.282
    1TCM    cl1 1284   4.227   0.722   4.448
    1TCM    cl2 1285   4.117   0.760   4.181
    1TCM     h1 1286   4.324   0.655   4.240
    1TCM    cl3 1287   4.155   0.491   4.286
    1TCM     c1 1288   0.296   3.802   1.607
    1TCM    cl1 1289   0.329   3.867   1.446
    1TCM    cl2 1290   0.121   3.812   1.640
    1TCM     h1 1291   0.327   3.696   1.612
    1TCM    cl3 1292   0.385   3.896   1.729
    1TCM     c1 1293   0.271   1.624   0.898
    1TCM    cl1 1294   0.378   1.645   1.039
    1TCM    cl2 1295   0.231   1.784   0.831
    1TCM     h1 1296   0.323   1.564   0.821
    1TCM    cl3 1297   0.122   1.542   0.948
    1TCM     c1 1298   3.738   2.488   2.825
    1TCM    cl1 1299   3.647   2.564   2.693
    1TCM    cl2 1300   3.750   2.313   2.796
    1TCM     h1 1301   3.840   2.532   2.830
    1TCM    cl3 1302   3.654   2.517   2.979
    1TCM     c1 1303   0.302   4.824   2.843
    1TCM    cl1 1304   0.364   4.923   2.977
    1TCM    cl2 1305   0.388   4.867   2.693
    1TCM     h1 1306   0.318   4.717   2.866
    1TCM    cl3 1307   0.128   4.855   2.822
    1TCM     c1 1308   0.058   4.652   2.495
    1TCM    cl1 1309   0.232   4.678   2.469
    1TCM    cl2 1310   0.009   4.724   2.651
    1TCM     h1 1311   0.001   4.700   2.413
    1TCM    cl3 1312   0.023   4.478   2.497
    1TCM     c1 1313   0.586   2.469   2.425
    1TCM    cl1 1314   0.714   2.504   2.543
    1TCM    cl2 1315   0.536   2.620   2.345
    1TCM     h1 1316   0.624   2.398   2.349
    1TCM    cl3 1317   0.446   2.396   2.508
    1TCM     c1 1318   0.592   4.027   2.853
    1TCM    cl1 1319   0.472   4.061   2.979
    1TCM    cl2 1320   0.514   4.031   2.693
    1TCM     h1 1321   0.672   4.104   2.857
    1TCM    cl3 1322   0.663   3.866   2.880
    1TCM     c1 1323   2.354   0.683   4.011
    1TCM    cl1 1324   2.197   0.738   4.072
    1TCM    cl2 1325   2.399   0.779   3.868
    1TCM     h1 1326   2.431   0.695   4.089
    1TCM    cl3 1327   2.342   0.511   3.966
    1TCM     c1 1328   1.859   2.036   2.194
    1TCM    cl1 1329   1.926   1.937   2.062
    1TCM    cl2 1330   1.699   1.971   2.240
    1TCM     h1 1331   1.927   2.033   2.281
    1TCM    cl3 1332   1.840   2.204   2.138
    1TCM     c1 1333   0.930   3.233   2.326
    1TCM    cl1 1334   0.962   3.105   2.445
    1TCM    cl2 1335   1.070   3.251   2.219
    1TCM     h1 1336   0.840   3.206   2.266
    1TCM    cl3 1337   0.900   3.387   2.411
    1TCM     c1 1338   4.729   3.768   3.166
    1TCM    cl1 1339   4.694   3.706   3.329
    1TCM    cl2 1340   4.660   3.658   3.045
    1TCM     h1 1341   4.684   3.869   3.155
    1TCM    cl3 1342   4.905   3.779   3.143
    1TCM     c1 1343   4.237   1.034   4.525
    1TCM    cl1 1344   4.097   0.941   4.585
    1TCM    cl2 1345   4.387   0.965   4.591
    1TCM     h1 1346   4.239   1.029   4.414
    1TCM    cl3 1347   4.222   1.203   4.577
    1TCM     c1 1348   0.167   3.081   4.619
    1TCM    cl1 1349   0.193   2.935   4.717
    1TCM    cl2 1350   0.318   3.128   4.539
    1TCM     h1 1351   0.089   3.061   4.543
    1TCM    cl3 1352   0.113   3.214   4.725
    1TCM     c1 1353   1.054   1.803   0.296
    1TCM    cl1 1354   1.153   1.885   0.172
    1TCM    cl2 1355   1.019   1.917   0.428
    1TCM     h1 1356   0.959   1.769   0.250
    1TCM    cl3 1357   1.143   1.664   0.360
    1TCM     c1 1358   1.942   2.141   1.770
    1TCM    cl1 1359   2.100   2.168   1.847
    1TCM    cl2 1360   1.813   2.201   1.877
    1TCM     h1 1361   1.939   2.194   1.673
    1TCM    cl3 1362   1.919   1.966   1.742
    1TCM     c1 1363   2.525   4.474   3.866
    1TCM    cl1 1364   2.572   4.612   3.968
    1TCM    cl2 1365   2.517   4.327   3.965
    1TCM     h1 1366   2.425   4.494   3.821
    1TCM    cl3 1367   2.645   4.452   3.737
    1TCM     c1 1368   3.230   0.554   1.754
    1TCM    cl1 1369   3.292   0.431   1.866
    1TCM    cl2 1370   3.261   0.503   1.586
    1TCM     h1 1371   3.121   0.567   1.769
    1TCM    cl3 1372   3.313   0.709   1.784
    1TCM     c1 1373   2.503   4.783   4.847
    1TCM    cl1 1374   2.427   4.932   4.788
    1TCM    cl2 1375   2.522   4.793   5.024
    1TCM     h1 1376   2.439   4.696   4.821
    1TCM    cl3 1377   2.663   4.764   4.771
    1TCM     c1 1378   2.652   1.950   3.401
    1TCM    cl1 1379   2.785   1.877   3.493
    1TCM    cl2 1380   2.536   1.824   3.355
    1TCM     h1 1381   2.601   2.026   3.463
    1TCM    cl3 1382   2.717   2.027   3.254
    1TCM     c1 1383   0.831   1.812   5.036
    1TCM    cl1 1384   0.945   1.743   4.918
    1TCM    cl2 1385   0.877   1.981   5.070
    1TCM     h1 1386   0.728   1.809   4.995
    1TCM    cl3 1387   0.837   1.718   5.186
    1TCM     c1 1388   3.184   1.166   3.130
    1TCM    cl1 1389   3.326   1.264   3.172
    1TCM    cl2 1390   3.080   1.258   3.018
    1TCM     h1 1391   3.217   1.072   3.081
    1TCM    cl3 1392   3.093   1.127   3.277
    1TCM     c1 1393   3.707   0.780   1.673
    1TCM    cl1 1394   3.671   0.640   1.776
    1TCM    cl2 1395   3.851   0.864   1.737
    1TCM     h1 1396   3.727   0.747   1.570
    1TCM    cl3 1397   3.569   0.891   1.674
    1TCM     c1 1398   0.565   0.451   0.599
    1TCM    cl1 1399   0.488   0.604   0.648
    1TCM    cl2 1400   0.701   0.486   0.489
    1TCM     h1 1401   0.604   0.399   0.689
    1TCM    cl3 1402   0.446   0.349   0.516
    1TCM     c1 1403   0.859   3.816   3.733
    1TCM    cl1 1404   0.851   3.936   3.602
    1TCM    cl2 1405   0.766   3.875   3.873
    1TCM     h1 1406   0.817   3.720   3.698
    1TCM    cl3 1407   1.029   3.792   3.781
    1TCM     c1 1408   5.207   4.233   4.412
    1TCM    cl1 1409   5.108   4.293   4.547
    1TCM    cl2 1410   5.279   4.077   4.457
    1TCM     h1 1411   5.143   4.220   4.322
    1TCM    cl3 1412   5.336   4.350   4.376
    1TCM     c1 1413   3.764   1.800   0.949
    1TCM    cl1 1414   3.767   1.638   0.878
    1TCM    cl2 1415   3.597   1.840   0.998
    1TCM     h1 1416   3.830   1.803   1.038
    1TCM    cl3 1417   3.820   1.919   0.829
    1TCM     c1 1418   3.475   4.504   3.796
    1TCM    cl1 1419   3.624   4.419   3.750
    1TCM    cl2 1420   3.487   4.558   3.965
    1TCM     h1 1421   3.460   4.592   3.730
    1TCM    cl3 1422   3.336   4.394   3.779
    1TCM     c1 1423   1.684   4.739   3.255
    1TCM    cl1 1424   1.535   4.761   3.351
    1TCM    cl2 1425   1.714   4.565   3.232
    1TCM     h1 1426   1.672   4.788   3.157
    1TCM    cl3 1427   1.821   4.812   3.341
    1TCM     c1 1428   2.639   0.547   2.640
    1TCM    cl1 1429   2.509   0.541   2.761
    1TCM    cl2 1430   2.610   0.422   2.517
    1TCM     h1 1431   2.640   0.647   2.591
    1TCM    cl3 1432   2.795   0.518   2.719
    1TCM     c1 1433   3.330   2.159   4.234
    1TCM    cl1 1434   3.154   2.151   4.213
    1TCM    cl2 1435   3.408   2.162   4.074
    1TCM     h1 1436   3.357   2.251   4.289
    1TCM    cl3 1437   3.386   2.016   4.324
    1TCM     c1 1438   2.945   2.381   0.592
    1TCM    cl1 1439   3.098   2.456   0.640
    1TCM    cl2 1440   2.846   2.349   0.737
    1TCM     h1 1441   2.889   2.449   0.524
    1TCM    cl3 1442   2.977   2.227   0.508
    1TCM     c1 1443   1.472   0.467   4.984
    1TCM    cl1 1444   1.342   0.588   4.988
    1TCM    cl2 1445   1.473   0.376   5.137
    1TCM     h1 1446   1.454   0.397   4.899
    1TCM    cl3 1447   1.628   0.548   4.962
    1TCM     c1 1448   0.766   1.639   1.699
    1TCM    cl1 1449   0.911   1.666   1.799
    1TCM    cl2 1450   0.711   1.471   1.720
    1TCM     h1 1451   0.686   1.709   1.730
    1TCM    cl3 1452   0.807   1.666   1.528
    1TCM     c1 1453   4.985   3.154   0.314
    1TCM    cl1 1454   4.998   3.239   0.158
    1TCM    cl2 1455   4.991   3.273   0.446
    1TCM     h1 1456   4.889   3.099   0.318
    1TCM    cl3 1457   5.120   3.039   0.331
    1TCM     c1 1458   0.475   1.807   4.050
    1TCM    cl1 1459   0.437   1.638   4.007
    1TCM    cl2 1460   0.629   1.812   4.138
    1TCM     h1 1461   0.484   1.867   3.957
    1TCM    cl3 1462   0.346   1.873   4.152
    1TCM     c1 1463   0.962   0.789   0.472
    1TCM    cl1 1464   1.042   0.635   0.512
    1TCM    cl2 1465   0.918   0.790   0.300
    1TCM     h1 1466   0.870   0.801   0.534
    1TCM    cl3 1467   1.073   0.924   0.505
    1TCM     c1 1468   3.476   4.906   4.935
    1TCM    cl1 1469   3.593   5.038   4.912
    1TCM    cl2 1470   3.559   4.762   4.996
    1TCM     h1 1471   3.398   4.938   5.008
    1TCM    cl3 1472   3.398   4.868   4.779
    1TCM     c1 1473   3.107   3.889   3.610
    1TCM    cl1 1474   3.037   3.973   3.750
    1TCM    cl2 1475   3.269   3.829   3.653
    1TCM     h1 1476   3.042   3.805   3.581
    1TCM    cl3 1477   3.121   4.003   3.474
    1TCM     c1 1478   2.890   4.318   3.266
    1TCM    cl1 1479   2.797   4.201   3.170
    1TCM    cl2 1480   2.945   4.241   3.417
    1TCM     h1 1481   2.979   4.352   3.208
    1TCM    cl3 1482   2.788   4.458   3.305
    1TCM     c1 1483   3.518   1.370   2.765
    1TCM    cl1 1484   3.630   1.318   2.637
    1TCM    cl2 1485   3.573   1.308   2.922
    1TCM     h1 1486   3.513   1.480   2.768
    1TCM    cl3 1487   3.355   1.305   2.730
    1TCM     c1 1488   4.596   2.080   5.142
    1TCM    cl1 1489   4.436   2.010   5.171
    1TCM    cl2 1490   4.691   2.076   5.293
    1TCM     h1 1491   4.649   2.021   5.064
    1TCM    cl3 1492   4.579   2.248   5.088
    1TCM     c1 1493   3.188   2.245   0.803
    1TCM    cl1 1494   3.210   2.400   0.887
    1TCM    cl2 1495   3.204   2.112   0.921
    1TCM     h1 1496   3.088   2.241   0.757
    1TCM    cl3 1497   3.312   2.227   0.677
    1TCM     c1 1498   4.550   4.838   1.586
    1TCM    cl1 1499   4.657   4.810   1.447
    1TCM    cl2 1500   4.591   4.994   1.663
    1TCM     h1 1501   4.444   4.841   1.552
    1TCM    cl3 1502   4.570   4.707   1.705
    1TCM     c1 1503   4.646   0.722   3.209
    1TCM    cl1 1504   4.785   0.831   3.191
    1TCM    cl2 1505   4.629   0.675   3.380
    1TCM     h1 1506   4.554   0.774   3.176
    1TCM    cl3 1507   4.671   0.576   3.110
    1TCM     c1 1508   3.570   2.216   0.447
    1TCM    cl1 1509   3.450   2.304   0.351
    1TCM    cl2 1510   3.696   2.151   0.340
    1TCM     h1 1511   3.617   2.285   0.520
    1TCM    cl3 1512   3.491   2.082   0.534
    1TCM     c1 1513   1.775   0.161   2.740
    1TCM    cl1 1514   1.883   0.094   2.615
    1TCM    cl2 1515   1.673   0.031   2.806
    1TCM     h1 1516   1.836   0.205   2.821
    1TCM    cl3 1517   1.671   0.286   2.668
    1TCM     c1 1518   1.205   4.671   5.126
    1TCM    cl1 1519   1.121   4.636   5.278
    1TCM    cl2 1520   1.302   4.530   5.077
    1TCM     h1 1521   1.130   4.694   5.047
    1TCM    cl3 1522   1.312   4.811   5.148
    1TCM     c1 1523   5.114   0.294   4.518
    1TCM    cl1 1524   5.170   0.172   4.635
    1TCM    cl2 1525   5.007   0.215   4.399
    1TCM     h1 1526   5.058   0.373   4.571
    1TCM    cl3 1527   5.254   0.364   4.434
    1TCM     c1 1528   4.374   4.851   0.245
    1TCM    cl1 1529   4.482   4.967   0.164
    1TCM    cl2 1530   4.224   4.933   0.293
    1TCM     h1 1531   4.350   4.768   0.175
    1TCM    cl3 1532   4.455   4.785   0.389
    1TCM     c1 1533   0.633   2.584   3.914
    1TCM    cl1 1534   0.456   2.584   3.898
    1TCM    cl2 1535   0.697   2.428   3.860
    1TCM     h1 1536   0.675   2.665   3.851
    1TCM    cl3 1537   0.678   2.611   4.084
    1TCM     c1 1538   4.078   1.324   1.658
    1TCM    cl1 1539   4.240   1.268   1.706
    1TCM    cl2 1540   3.987   1.188   1.588
    1TCM     h1 1541   4.024   1.362   1.747
    1TCM    cl3 1542   4.093   1.454   1.538
    1TCM     c1 1543   1.440   4.909   0.401
    1TCM    cl1 1544   1.501   4.894   0.567
    1TCM    cl2 1545   1.317   4.783   0.371
    1TCM     h1 1546   1.395   5.009   0.386
    1TCM    cl3 1547   1.575   4.887   0.287
    1TCM     c1 1548   3.318   1.092   3.999
    1TCM    cl1 1549   3.467   1.081   3.903
    1TCM    cl2 1550   3.355   1.165   4.157
    1TCM     h1 1551   3.244   1.156   3.945
    1TCM    cl3 1552   3.249   0.930   4.022
    1TCM     c1 1553   4.612   3.515   3.727
    1TCM    cl1 1554   4.788   3.539   3.715
    1TCM    cl2 1555   4.566   3.500   3.898
    1TCM     h1 1556   4.560   3.603   3.682
    1TCM    cl3 1557   4.566   3.368   3.639
    1TCM     c1 1558   1.333   0.878   0.604
    1TCM    cl1 1559   1.297   0.704   0.605
    1TCM    cl2 1560   1.496   0.904   0.670
    1TCM     h1 1561   1.329   0.916   0.500
    1TCM    cl3 1562   1.214   0.964   0.704
    1TCM     c1 1563   1.224   2.030   1.096
    1TCM    cl1 1564   1.117   1.932   0.994
    1TCM    cl2 1565   1.219   1.969   1.263
    1TCM     h1 1566   1.328   2.024   1.057
    1TCM    cl3 1567   1.170   2.199   1.094
    1TCM     c1 1568   3.482   3.074   2.456
    1TCM    cl1 1569   3.417   3.208   2.358
    1TCM    cl2 1570   3.631   3.128   2.538
    1TCM     h1 1571   3.407   3.045   2.532
    1TCM    cl3 1572   3.519   2.936   2.351
    1TCM     c1 1573   3.444   3.496   3.036
    1TCM    cl1 1574   3.564   3.576   3.139
    1TCM    cl2 1575   3.522   3.437   2.887
    1TCM     h1 1576   3.399   3.410   3.090
    1TCM    cl3 1577   3.315   3.611   2.993
    1TCM     c1 1578   1.330   1.156   0.287
    1TCM    cl1 1579   1.260   1.086   0.140
    1TCM    cl2 1580   1.379   1.324   0.256
    1TCM     h1 1581   1.255   1.154   0.369
    1TCM    cl3 1582   1.472   1.061   0.336
    1TCM     c1 1583   3.052   0.223   0.882
    1TCM    cl1 1584   3.009   0.347   1.002
    1TCM    cl2 1585   3.229   0.204   0.878
    1TCM     h1 1586   3.005   0.127   0.909
    1TCM    cl3 1587   2.995   0.274   0.721
    1TCM     c1 1588   1.966   3.370   1.010
    1TCM    cl1 1589   2.115   3.354   0.914
    1TCM    cl2 1590   1.862   3.495   0.937
    1TCM     h1 1591   1.913   3.273   1.011
    1TCM    cl3 1592   2.007   3.417   1.176
    1TCM     c1 1593   2.973   3.802   2.003
    1TCM    cl1 1594   2.804   3.796   2.056
    1TCM    cl2 1595   2.980   3.808   1.826
    1TCM     h1 1596   3.022   3.892   2.045
    1TCM    cl3 1597   3.058   3.656   2.061
    1TCM     c1 1598   4.618   0.555   4.107
    1TCM    cl1 1599   4.524   0.431   4.021
    1TCM    cl2 1600   4.552   0.716   4.069
    1TCM     h1 1601   4.610   0.537   4.217
    1TCM    cl3 1602   4.788   0.547   4.057
    1TCM     c1 1603   4.665   3.019   4.801
    1TCM    cl1 1604   4.771   3.160   4.779
    1TCM    cl2 1605   4.714   2.890   4.689
    1TCM     h1 1606   4.673   2.983   4.905
    1TCM    cl3 1607   4.497   3.066   4.767
    1TCM     c1 1608   1.102   4.694   2.372
    1TCM    cl1 1609   0.981   4.814   2.322
    1TCM    cl2 1610   1.027   4.533   2.378
    1TCM     h1 1611   1.186   4.693   2.299
    1TCM    cl3 1612   1.164   4.737   2.533
    1TCM     c1 1613   5.144   0.223   0.362
    1TCM    cl1 1614   5.107   0.171   0.196
    1TCM    cl2 1615   5.023   0.158   0.474
    1TCM     h1 1616   5.245   0.186   0.391
    1TCM    cl3 1617   5.142   0.401   0.370
    1TCM     c1 1618   4.604   0.468   3.660
    1TCM    cl1 1619   4.738   0.526   3.557
    1TCM    cl2 1620   4.650   0.483   3.831
    1TCM     h1 1621   4.514   0.530   3.641
    1TCM    cl3 1622   4.569   0.298   3.623
    1TCM     c1 1623   3.612   5.095   4.455
    1TCM    cl1 1624   3.781   5.109   4.401
    1TCM    cl2 1625   3.503   5.143   4.323
    1TCM     h1 1626   3.592   4.990   4.484
    1TCM    cl3 1627   3.586   5.201   4.595
    1TCM     c1 1628   1.383   1.872   1.548
    1TCM    cl1 1629   1.558   1.848   1.527
    1TCM    cl2 1630   1.328   1.781   1.691
    1TCM     h1 1631   1.362   1.980   1.563
    1TCM    cl3 1632   1.298   1.814   1.404
    1TCM     c1 1633   3.323   1.778   2.787
    1TCM    cl1 1634   3.282   1.683   2.642
    1TCM    cl2 1635   3.307   1.675   2.931
    1TCM     h1 1636   3.427   1.815   2.779
    1TCM    cl3 1637   3.211   1.916   2.800
    1TCM     c1 1638   3.604   0.413   0.533
    1TCM    cl1 1639   3.710   0.278   0.581
    1TCM    cl2 1640   3.596   0.422   0.356
    1TCM     h1 1641   3.502   0.396   0.574
    1TCM    cl3 1642   3.669   0.566   0.597
    1TCM     c1 1643   0.647   1.356   1.995
    1TCM    cl1 1644   0.549   1.417   1.860
    1TCM    cl2 1645   0.722   1.493   2.080
    1TCM     h1 1646   0.583   1.300   2.065
    1TCM    cl3 1647   0.775   1.248   1.933
    1TCM     c1 1648   2.757   3.804   1.325
    1TCM    cl1 1649   2.652   3.946   1.298
    1TCM    cl2 1650   2.812   3.741   1.168
    1TCM     h1 1651   2.845   3.834   1.385
    1TCM    cl3 1652   2.665   3.678   1.411
    1TCM     c1 1653   2.384   2.543   4.398
    1TCM    cl1 1654   2.547   2.537   4.326
    1TCM    cl2 1655   2.391   2.624   4.556
    1TCM     h1 1656   2.316   2.599   4.331
    1TCM    cl3 1657   2.322   2.378   4.419
    1TCM     c1 1658   0.582   2.362   0.915
    1TCM    cl1 1659   0.565   2.190   0.959
    1TCM    cl2 1660   0.552   2.383   0.741
    1TCM     h1 1661   0.509   2.422   0.973
    1TCM    cl3 1662   0.747   2.417   0.954
    1TCM     c1 1663   2.557   0.397   1.615
    1TCM    cl1 1664   2.469   0.362   1.465
    1TCM    cl2 1665   2.444   0.394   1.753
    1TCM     h1 1666   2.636   0.321   1.630
    1TCM    cl3 1667   2.632   0.558   1.604
    1TCM     c1 1668   0.174   3.454   4.963
    1TCM    cl1 1669   0.259   3.358   4.840
    1TCM    cl2 1670   0.238   3.414   5.124
    1TCM     h1 1671   0.189   3.562   4.943
    1TCM    cl3 1672   0.000   3.417   4.958
    1TCM     c1 1673   3.915   1.923   1.724
    1TCM    cl1 1674   3.852   1.962   1.562
    1TCM    cl2 1675   3.964   1.753   1.729
    1TCM     h1 1676   4.002   1.988   1.746
    1TCM    cl3 1677   3.787   1.952   1.845
    1TCM     c1 1678   2.250   2.847   2.614
    1TCM    cl1 1679   2.319   2.933   2.474
    1TCM    cl2 1680   2.333   2.899   2.762
    1TCM     h1 1681   2.142   2.871   2.622
    1TCM    cl3 1682   2.271   2.672   2.592
    1TCM     c1 1683   4.559   2.863   0.687
    1TCM    cl1 1684   4.696   2.752   0.716
    1TCM    cl2 1685   4.596   3.022   0.758
    1TCM     h1 1686   4.543   2.874   0.578
    1TCM    cl3 1687   4.413   2.797   0.764
    1TCM     c1 1688   5.122   4.280   1.774
    1TCM    cl1 1689   5.016   4.137   1.776
    1TCM    cl2 1690   5.127   4.348   1.610
    1TCM     h1 1691   5.082   4.356   1.845
    1TCM    cl3 1692   5.286   4.233   1.824
    1TCM     c1 1693   3.284   1.690   3.826
    1TCM    cl1 1694   3.161   1.674   3.953
    1TCM    cl2 1695   3.445   1.661   3.896
    1TCM     h1 1696   3.264   1.616   3.746
    1TCM    cl3 1697   3.278   1.854   3.758
    1TCM     c1 1698   0.915   3.762   2.390
    1TCM    cl1 1699   0.988   3.924   2.393
    1TCM    cl2 1700   1.016   3.649   2.483
    1TCM     h1 1701   0.814   3.766   2.434
    1TCM    cl3 1702   0.904   3.705   2.221
    1TCM     c1 1703   3.007   4.101   2.282
    1TCM    cl1 1704   3.167   4.069   2.213
    1TCM    cl2 1705   3.025   4.155   2.450
    1TCM     h1 1706   2.955   4.179   2.223
    1TCM    cl3 1707   2.910   3.951   2.278
    1TCM     c1 1708   1.351   3.019   2.366
    1TCM    cl1 1709   1.356   3.192   2.323
    1TCM    cl2 1710   1.239   2.935   2.257
    1TCM     h1 1711   1.452   2.976   2.355
    1TCM    cl3 1712   1.296   3.001   2.534
    1TCM     c1 1713   4.600   0.164   5.171
    1TCM    cl1 1714   4.727   0.093   5.069
    1TCM    cl2 1715   4.660   0.179   5.338
    1TCM     h1 1716   4.574   0.265   5.132
    1TCM    cl3 1717   4.456   0.060   5.169
    1TCM     c1 1718   4.131   4.940   2.374
    1TCM    cl1 1719   4.242   4.858   2.486
    1TCM    cl2 1720   4.149   4.872   2.211
    1TCM     h1 1721   4.027   4.927   2.409
    1TCM    cl3 1722   4.170   5.114   2.370
    1TCM     c1 1723   1.430   5.030   3.077
    1TCM    cl1 1724   1.501   4.914   2.962
    1TCM    cl2 1725   1.505   5.190   3.052
    1TCM     h1 1726   1.321   5.038   3.060
    1TCM    cl3 1727   1.461   4.976   3.243
    1TCM     c1 1728   3.406   4.970   3.728
    1TCM    cl1 1729   3.382   5.132   3.657
    1TCM    cl2 1730   3.250   4.885   3.736
    1TCM     h1 1731   3.476   4.912   3.665
    1TCM    cl3 1732   3.472   4.987   3.892
    1TCM     c1 1733   3.645   2.203   4.864
    1TCM    cl1 1734   3.696   2.047   4.795
    1TCM    cl2 1735   3.693   2.210   5.035
    1TCM     h1 1736   3.694   2.286   4.808
    1TCM    cl3 1737   3.469   2.219   4.851
    1TCM     c1 1738   4.820   4.254   2.529
    1TCM    cl1 1739   4.956   4.234   2.416
    1TCM    cl2 1740   4.883   4.278   2.694
    1TCM     h1 1741   4.759   4.341   2.499
    1TCM    cl3 1742   4.719   4.108   2.526
    1TCM     c1 1743   5.021   3.125   2.479
    1TCM    cl1 1744   5.052   3.299   2.458
    1TCM    cl2 1745   5.143   3.032   2.389
    1TCM     h1 1746   5.026   3.099   2.587
    1TCM    cl3 1747   4.859   3.087   2.416
    1TCM     c1 1748   1.409   2.314   0.929
    1TCM    cl1 1749   1.233   2.328   0.901
    1TCM    cl2 1750   1.441   2.307   1.103
    1TCM     h1 1751   1.446   2.222   0.880
    1TCM    cl3 1752   1.491   2.455   0.859
    1TCM     c1 1753   1.169   1.801   4.674
    1TCM    cl1 1754   1.299   1.820   4.794
    1TCM    cl2 1755   1.240   1.766   4.515
    1TCM     h1 1756   1.103   1.717   4.704
    1TCM    cl3 1757   1.075   1.951   4.664
    1TCM     c1 1758   4.097   3.591   1.349
    1TCM    cl1 1759   4.107   3.753   1.421
    1TCM    cl2 1760   4.161   3.595   1.183
    1TCM     h1 1761   4.156   3.519   1.409
    1TCM    cl3 1762   3.927   3.538   1.345
    1TCM     c1 1763   0.258   5.149   2.130
    1TCM    cl1 1764   0.147   5.257   2.043
    1TCM    cl2 1765   0.186   5.102   2.286
    1TCM     h1 1766   0.277   5.058   2.069
    1TCM    cl3 1767   0.412   5.234   2.159
    1TCM     c1 1768   1.336   2.524   1.752
    1TCM    cl1 1769   1.241   2.570   1.609
    1TCM    cl2 1770   1.226   2.462   1.878
    1TCM     h1 1771   1.409   2.446   1.725
    1TCM    cl3 1772   1.422   2.667   1.814
    1TCM     c1 1773   0.540   2.175   4.047
    1TCM    cl1 1774   0.466   2.306   3.953
    1TCM    cl2 1775   0.440   2.141   4.190
    1TCM     h1 1776   0.547   2.084   3.984
    1TCM    cl3 1777   0.703   2.224   4.099
    1TCM     c1 1778   1.246   0.974   5.175
    1TCM    cl1 1779   1.291   1.020   5.341
    1TCM    cl2 1780   1.246   1.118   5.071
    1TCM     h1 1781   1.320   0.900   5.136
    1TCM    cl3 1782   1.084   0.901   5.175
    1TCM     c1 1783   3.652   2.943   0.999
    1TCM    cl1 1784   3.737   3.018   1.137
    1TCM    cl2 1785   3.655   3.054   0.860
    1TCM     h1 1786   3.702   2.848   0.972
    1TCM    cl3 1787   3.483   2.911   1.045
    1TCM     c1 1788   3.688   4.987   3.010
    1TCM    cl1 1789   3.681   5.164   2.990
    1TCM    cl2 1790   3.534   4.915   2.959
    1TCM     h1 1791   3.770   4.946   2.947
    1TCM    cl3 1792   3.719   4.948   3.181
    1TCM     c1 1793   4.637   3.186   5.162
    1TCM    cl1 1794   4.509   3.216   5.042
    1TCM    cl2 1795   4.602   3.035   5.249
    1TCM     h1 1796   4.735   3.177   5.110
    1TCM    cl3 1797   4.644   3.321   5.278
    1TCM     c1 1798   4.456   2.823   2.959
    1TCM    cl1 1799   4.345   2.722   3.055
    1TCM    cl2 1800   4.619   2.817   3.030
    1TCM     h1 1801   4.460   2.785   2.855
    1TCM    cl3 1802   4.398   2.991   2.958
    1TCM     c1 1803   2.265   4.461   3.565
    1TCM    cl1 1804   2.259   4.385   3.726
    1TCM    cl2 1805   2.117   4.556   3.540
    1TCM     h1 1806   2.353   4.527   3.559
    1TCM    cl3 1807   2.276   4.335   3.440
    1TCM     c1 1808   3.542   2.248   0.957
    1TCM    cl1 1809   3.671   2.277   0.839
    1TCM    cl2 1810   3.462   2.402   0.997
    1TCM     h1 1811   3.467   2.178   0.914
    1TCM    cl3 1812   3.611   2.178   1.105
    1TCM     c1 1813   2.457   2.030   2.588
    1TCM    cl1 1814   2.465   2.204   2.624
    1TCM    cl2 1815   2.446   2.007   2.412
    1TCM     h1 1816   2.549   1.981   2.627
    1TCM    cl3 1817   2.314   1.960   2.667
    1TCM     c1 1818   2.932   2.910   3.474
    1TCM    cl1 1819   3.004   3.015   3.599
    1TCM    cl2 1820   3.060   2.812   3.399
    1TCM     h1 1821   2.857   2.843   3.520
    1TCM    cl3 1822   2.854   3.011   3.351
    1TCM     c1 1823   5.009   1.907   1.650
    1TCM    cl1 1824   5.154   1.963   1.735
    1TCM    cl2 1825   4.864   1.972   1.730
    1TCM     h1 1826   5.012   1.943   1.545
    1TCM    cl3 1827   5.003   1.729   1.652
    1TCM     c1 1828   1.711   1.299   3.688
    1TCM    cl1 1829   1.556   1.241   3.753
    1TCM    cl2 1830   1.691   1.464   3.626
    1TCM     h1 1831   1.787   1.299   3.769
    1TCM    cl3 1832   1.764   1.192   3.557
    1TCM     c1 1833   3.423   4.190   2.232
    1TCM    cl1 1834   3.575   4.252   2.163
    1TCM    cl2 1835   3.424   4.215   2.408
    1TCM     h1 1836   3.338   4.244   2.187
    1TCM    cl3 1837   3.409   4.016   2.198
    1TCM     c1 1838   2.082   3.564   0.482
    1TCM    cl1 1839   2.091   3.704   0.592
    1TCM    cl2 1840   2.125   3.615   0.318
    1TCM     h1 1841   2.153   3.486   0.516
    1TCM    cl3 1842   1.917   3.499   0.483
    1TCM     c1 1843   4.634   2.154   3.225
    1TCM    cl1 1844   4.625   2.045   3.365
    1TCM    cl2 1845   4.762   2.274   3.253
    1TCM     h1 1846   4.657   2.096   3.134
    1TCM    cl3 1847   4.478   2.238   3.205
    1TCM     c1 1848   2.463   3.904   1.543
    1TCM    cl1 1849   2.414   4.023   1.420
    1TCM    cl2 1850   2.333   3.785   1.564
    1TCM     h1 1851   2.556   3.853   1.510
    1TCM    cl3 1852   2.493   3.988   1.697
    1TCM     c1 1853   1.069   4.906   4.757
    1TCM    cl1 1854   1.207   5.017   4.752
    1TCM    cl2 1855   0.942   4.965   4.648
    1TCM     h1 1856   1.102   4.805   4.723
    1TCM    cl3 1857   1.006   4.896   4.923
    1TCM     c1 1858   3.646   3.208   3.714
    1TCM    cl1 1859   3.608   3.129   3.560
    1TCM    cl2 1860   3.497   3.271   3.787
    1TCM     h1 1861   3.693   3.135   3.783
    1TCM    cl3 1862   3.759   3.342   3.686
    1TCM     c1 1863   3.768   3.839   1.231
    1TCM    cl1 1864   3.684   3.741   1.355
    1TCM    cl2 1865   3.713   3.789   1.070
    1TCM     h1 1866   3.745   3.946   1.247
    1TCM    cl3 1867   3.944   3.813   1.244
    1TCM     c1 1868   2.464   1.273   3.973
    1TCM    cl1 1869   2.552   1.417   3.915
    1TCM    cl2 1870   2.504   1.246   4.145
    1TCM     h1 1871   2.355   1.289   3.963
    1TCM    cl3 1872   2.513   1.131   3.878
    1TCM     c1 1873   2.078   3.627   4.868
    1TCM    cl1 1874   1.953   3.680   4.983
    1TCM    cl2 1875   2.072   3.730   4.723
    1TCM     h1 1876   2.178   3.636   4.916
    1TCM    cl3 1877   2.048   3.458   4.822
    1TCM     c1 1878   4.353   3.841   3.162
    1TCM    cl1 1879   4.435   3.896   3.310
    1TCM    cl2 1880   4.437   3.698   3.098
    1TCM     h1 1881   4.248   3.816   3.185
    1TCM    cl3 1882   4.358   3.971   3.040
    1TCM     c1 1883   3.080   1.571   5.005
    1TCM    cl1 1884   3.251   1.557   4.957
    1TCM    cl2 1885   2.977   1.502   4.878
    1TCM     h1 1886   3.064   1.516   5.100
    1TCM    cl3 1887   3.039   1.743   5.028
    1TCM     c1 1888   0.576   0.707   4.038
    1TCM    cl1 1889   0.683   0.847   4.008
    1TCM    cl2 1890   0.615   0.637   4.196
    1TCM     h1 1891   0.471   0.741   4.037
    1TCM    cl3 1892   0.601   0.585   3.911
    1TCM     c1 1893   3.561   0.923   2.001
    1TCM    cl1 1894   3.685   0.807   2.052
    1TCM    cl2 1895   3.457   0.849   1.878
    1TCM     h1 1896   3.499   0.953   2.089
    1TCM    cl3 1897   3.639   1.068   1.933
    1TCM     c1 1898   2.690   4.524   2.469
    1TCM    cl1 1899   2.622   4.687   2.450
    1TCM    cl2 1900   2.837   4.532   2.569
    1TCM     h1 1901   2.615   4.458   2.518
    1TCM    cl3 1902   2.732   4.458   2.309
    1TCM     c1 1903   0.871   1.046   2.191
    1TCM    cl1 1904   0.840   0.886   2.121
    1TCM    cl2 1905   0.940   1.028   2.353
    1TCM     h1 1906   0.942   1.101   2.126
    1TCM    cl3 1907   0.718   1.137   2.201
    1TCM     c1 1908   2.428   4.367   3.169
    1TCM    cl1 1909   2.400   4.299   3.008
    1TCM    cl2 1910   2.488   4.534   3.153
    1TCM     h1 1911   2.332   4.368   3.226
    1TCM    cl3 1912   2.547   4.269   3.256
    1TCM     c1 1913   4.230   1.856   4.782
    1TCM    cl1 1914   4.199   1.910   4.615
    1TCM    cl2 1915   4.300   1.991   4.874
    1TCM     h1 1916   4.134   1.825   4.829
    1TCM    cl3 1917   4.343   1.719   4.780
    1TCM     c1 1918   0.294   0.517   0.272
    1TCM    cl1 1919   0.414   0.387   0.285
    1TCM    cl2 1920   0.341   0.651   0.379
    1TCM     h1 1921   0.290   0.553   0.167
    1TCM    cl3 1922   0.134   0.456   0.320
    1TCM     c1 1923   3.959   3.890   5.155
    1TCM    cl1 1924   3.807   3.920   5.068
    1TCM    cl2 1925   3.925   3.862   5.327
    1TCM     h1 1926   4.009   3.801   5.112
    1TCM    cl3 1927   4.065   4.032   5.139
    1TCM     c1 1928   2.011   2.378   2.718
    1TCM    cl1 1929   2.171   2.359   2.641
    1TCM    cl2 1930   1.887   2.398   2.592
    1TCM     h1 1931   1.988   2.287   2.778
    1TCM    cl3 1932   2.012   2.520   2.824
    1TCM     c1 1933   2.116   4.137   1.546
    1TCM    cl1 1934   2.092   3.965   1.508
    1TCM    cl2 1935   2.189   4.153   1.707
    1TCM     h1 1936   2.184   4.182   1.470
    1TCM    cl3 1937   1.960   4.221   1.543
    1TCM     c1 1938   4.094   3.606   1.899
    1TCM    cl1 1939   4.174   3.571   2.054
    1TCM    cl2 1940   4.133   3.477   1.783
    1TCM     h1 1941   3.984   3.611   1.914
    1TCM    cl3 1942   4.152   3.762   1.837
    1TCM     c1 1943   2.559   4.654   0.617
    1TCM    cl1 1944   2.434   4.647   0.744
    1TCM    cl2 1945   2.543   4.806   0.527
    1TCM     h1 1946   2.659   4.649   0.664
    1TCM    cl3 1947   2.539   4.517   0.506
    1TCM     c1 1948   2.779   2.377   4.682
    1TCM    cl1 1949   2.899   2.248   4.703
    1TCM    cl2 1950   2.700   2.411   4.838
    1TCM     h1 1951   2.829   2.469   4.646
    1TCM    cl3 1952   2.656   2.325   4.564
    1TCM     c1 1953   1.560   3.349   2.679
    1TCM    cl1 1954   1.512   3.213   2.576
    1TCM    cl2 1955   1.585   3.293   2.846
    1TCM     h1 1956   1.655   3.393   2.640
    1TCM    cl3 1957   1.433   3.474   2.676
    1TCM     c1 1958   0.653   4.196   4.913
    1TCM    cl1 1959   0.646   4.171   5.089
    1TCM    cl2 1960   0.535   4.090   4.833
    1TCM     h1 1961   0.629   4.302   4.890
    1TCM    cl3 1962   0.817   4.158   4.854
    1TCM     c1 1963   0.261   2.386   1.750
    1TCM    cl1 1964   0.312   2.556   1.736
    1TCM    cl2 1965   0.182   2.361   1.907
    1TCM     h1 1966   0.191   2.362   1.668
    1TCM    cl3 1967   0.404   2.280   1.738
    1TCM     c1 1968   4.523   0.907   4.276
    1TCM    cl1 1969   4.631   0.767   4.302
    1TCM    cl2 1970   4.548   0.970   4.112
    1TCM     h1 1971   4.418   0.874   4.288
    1TCM    cl3 1972   4.561   1.033   4.395
    1TCM     c1 1973   3.968   1.139   0.471
    1TCM    cl1 1974   3.964   1.280   0.363
    1TCM    cl2 1975   4.001   0.993   0.376
    1TCM     h1 1976   4.049   1.153   0.547
    1TCM    cl3 1977   3.812   1.123   0.553
    1TCM     c1 1978   1.899   1.924   3.994
    1TCM    cl1 1979   1.730   1.889   3.951
    1TCM    cl2 1980   1.915   2.097   4.036
    1TCM     h1 1981   1.929   1.862   4.081
    1TCM    cl3 1982   2.005   1.887   3.856
    1TCM     c1 1983   0.348   1.822   2.072
    1TCM    cl1 1984   0.218   1.908   1.987
    1TCM    cl2 1985   0.315   1.823   2.247
    1TCM     h1 1986   0.353   1.718   2.036
    1TCM    cl3 1987   0.503   1.903   2.040
    1TCM     c1 1988   1.644   0.549   3.555
    1TCM    cl1 1989   1.622   0.403   3.457
    1TCM    cl2 1990   1.695   0.503   3.719
    1TCM     h1 1991   1.721   0.614   3.509
    1TCM    cl3 1992   1.490   0.638   3.564
    1TCM     c1 1993   2.239   4.217   1.182
    1TCM    cl1 1994   2.274   4.345   1.300
    1TCM    cl2 1995   2.219   4.290   1.021
    1TCM     h1 1996   2.323   4.145   1.180
    1TCM    cl3 1997   2.090   4.133   1.228
    1TCM     c1 1998   3.470   1.744   4.308
    1TCM    cl1 1999   3.569   1.793   4.168
    1TCM    cl2 2000   3.500   1.856   4.443
    1TCM     h1 2001   3.363   1.747   4.281
    1TCM    cl3 2002   3.515   1.579   4.357
    1TCM     c1 2003   2.269   3.749   4.221
    1TCM    cl1 2004   2.238   3.856   4.082
    1TCM    cl2 2005   2.407   3.812   4.314
    1TCM     h1 2006   2.179   3.745   4.286
    1TCM    cl3 2007   2.307   3.585   4.162
    1TCM     c1 2008   3.154   0.980   4.949
    1TCM    cl1 2009   3.213   1.134   4.881
    1TCM    cl2 2010   3.190   0.974   5.123
    1TCM     h1 2011   3.044   0.973   4.934
    1TCM    cl3 2012   3.234   0.844   4.866
    1TCM     c1 2013   3.180   2.818   2.412
    1TCM    cl1 2014   3.277   2.843   2.266
    1TCM    cl2 2015   3.287   2.806   2.554
    1TCM     h1 2016   3.110   2.903   2.426
    1TCM    cl3 2017   3.086   2.668   2.396
    1TCM     c1 2018   4.715   4.244   0.901
    1TCM    cl1 2019   4.763   4.219   0.732
    1TCM    cl2 2020   4.861   4.267   1.001
    1TCM     h1 2021   4.651   4.335   0.908
    1TCM    cl3 2022   4.625   4.103   0.959
    1TCM     c1 2023   2.169   2.878   4.437
    1TCM    cl1 2024   2.153   2.814   4.603
    1TCM    cl2 2025   2.143   2.746   4.320
    1TCM     h1 2026   2.093   2.957   4.421
    1TCM    cl3 2027   2.331   2.946   4.415
    1TCM     c1 2028   2.765   4.135   4.404
    1TCM    cl1 2029   2.617   4.191   4.484
    1TCM    cl2 2030   2.839   4.004   4.499
    1TCM     h1 2031   2.741   4.097   4.302
    1TCM    cl3 2032   2.880   4.270   4.390
    1TCM     c1 2033   4.447   5.161   2.680
    1TCM    cl1 2034   4.499   5.091   2.835
    1TCM    cl2 2035   4.299   5.256   2.705
    1TCM     h1 2036   4.527   5.226   2.641
    1TCM    cl3 2037   4.414   5.030   2.565
    1TCM     c1 2038   1.799   3.609   2.129
    1TCM    cl1 2039   1.871   3.762   2.186
    1TCM    cl2 2040   1.855   3.576   1.964
    1TCM     h1 2041   1.831   3.527   2.196
    1TCM    cl3 2042   1.622   3.623   2.131
    1TCM     c1 2043   3.479   0.808   1.055
    1TCM    cl1 2044   3.502   0.841   0.882
    1TCM    cl2 2045   3.490   0.632   1.083
    1TCM     h1 2046   3.558   0.859   1.114
    1TCM    cl3 2047   3.319   0.866   1.106
    1TCM     c1 2048   0.349   3.731   3.051
    1TCM    cl1 2049   0.419   3.829   2.920
    1TCM    cl2 2050   0.182   3.786   3.081
    1TCM     h1 2051   0.348   3.625   3.021
    1TCM    cl3 2052   0.445   3.752   3.198
    1TCM     c1 2053   2.948   2.701   4.889
    1TCM    cl1 2054   2.970   2.718   5.065
    1TCM    cl2 2055   2.888   2.538   4.852
    1TCM     h1 2056   2.874   2.776   4.854
    1TCM    cl3 2057   3.104   2.727   4.807
    1TCM     c1 2058   2.262   0.674   0.696
    1TCM    cl1 2059   2.394   0.781   0.645
    1TCM    cl2 2060   2.321   0.563   0.822
    1TCM     h1 2061   2.178   0.735   0.737
    1TCM    cl3 2062   2.204   0.580   0.557
    1TCM     c1 2063   2.926   0.261   2.279
    1TCM    cl1 2064   3.090   0.263   2.210
    1TCM    cl2 2065   2.869   0.428   2.300
    1TCM     h1 2066   2.858   0.207   2.210
    1TCM    cl3 2067   2.928   0.179   2.436
    1TCM     c1 2068   1.705   3.602   4.725
    1TCM    cl1 2069   1.715   3.767   4.791
    1TCM    cl2 2070   1.710   3.484   4.858
    1TCM     h1 2071   1.610   3.590   4.669
    1TCM    cl3 2072   1.842   3.573   4.615
    1TCM     c1 2073   0.835   2.853   0.754
    1TCM    cl1 2074   0.972   2.777   0.838
    1TCM    cl2 2075   0.688   2.833   0.852
    1TCM     h1 2076   0.855   2.961   0.740
    1TCM    cl3 2077   0.812   2.775   0.596
    1TCM     c1 2078   2.988   0.211   3.451
    1TCM    cl1 2079   3.153   0.200   3.518
    1TCM    cl2 2080   2.977   0.111   3.305
    1TCM     h1 2081   2.915   0.175   3.527
    1TCM    cl3 2082   2.952   0.381   3.411
    1TCM     c1 2083   2.055   3.029   1.164
    1TCM    cl1 2084   1.962   2.932   1.048
    1TCM    cl2 2085   2.113   3.177   1.084
    1TCM     h1 2086   1.991   3.056   1.250
    1TCM    cl3 2087   2.195   2.935   1.222
    1TCM     c1 2088   3.109   5.149   4.007
    1TCM    cl1 2089   2.982   5.029   3.975
    1TCM    cl2 2090   3.135   5.162   4.182
    1TCM     h1 2091   3.203   5.118   3.957
    1TCM    cl3 2092   3.058   5.307   3.943
    1TCM     c1 2093   0.090   0.310   4.061
    1TCM    cl1 2094   0.001   0.438   4.147
    1TCM    cl2 2095   0.263   0.324   4.098
    1TCM     h1 2096   0.053   0.211   4.094
    1TCM    cl3 2097   0.064   0.327   3.886
    1TCM     c1 2098   2.474   2.632   4.037
    1TCM    cl1 2099   2.330   2.688   4.126
    1TCM    cl2 2100   2.448   2.656   3.862
    1TCM     h1 2101   2.563   2.689   4.069
    1TCM    cl3 2102   2.499   2.459   4.069
    1TCM     c1 2103   0.780   1.479   0.278
    1TCM    cl1 2104   0.907   1.535   0.167
    1TCM    cl2 2105   0.751   1.306   0.253
    1TCM     h1 2106   0.812   1.497   0.383
    1TCM    cl3 2107   0.630   1.569   0.247
    1TCM     c1 2108   4.655   2.979   1.942
    1TCM    cl1 2109   4.604   3.136   2.007
    1TCM    cl2 2110   4.805   2.927   2.023
    1TCM     h1 2111   4.576   2.904   1.960
    1TCM    cl3 2112   4.684   2.994   1.767
    1TCM     c1 2113   3.131   3.240   0.590
    1TCM    cl1 2114   3.069   3.132   0.717
    1TCM    cl2 2115   3.184   3.393   0.663
    1TCM     h1 2116   3.216   3.191   0.539
    1TCM    cl3 2117   3.001   3.272   0.472
    1TCM     c1 2118   2.578   4.891   1.596
    1TCM    cl1 2119   2.517   4.758   1.493
    1TCM    cl2 2120   2.456   4.930   1.719
    1TCM     h1 2121   2.672   4.859   1.646
    1TCM    cl3 2122   2.609   5.034   1.495
    1TCM     c1 2123   2.695   4.002   4.928
    1TCM    cl1 2124   2.797   4.143   4.891
    1TCM    cl2 2125   2.761   3.858   4.848
    1TCM     h1 2126   2.693   3.986   5.038
    1TCM    cl3 2127   2.530   4.032   4.869
    1TCM     c1 2128   3.945   3.998   2.750
    1TCM    cl1 2129   4.024   3.865   2.839
    1TCM    cl2 2130   3.907   3.945   2.585
    1TCM     h1 2131   3.852   4.027   2.803
    1TCM    cl3 2132   4.055   4.138   2.744
    1TCM     c1 2133   2.330   1.579   2.496
    1TCM    cl1 2134   2.193   1.692   2.484
    1TCM    cl2 2135   2.481   1.665   2.457
    1TCM     h1 2136   2.335   1.538   2.599
    1TCM    cl3 2137   2.307   1.446   2.380
    1TCM     c1 2138   4.906   2.333   0.674
    1TCM    cl1 2139   4.788   2.388   0.552
    1TCM    cl2 2140   4.841   2.364   0.836
    1TCM     h1 2141   4.924   2.224   0.661
    1TCM    cl3 2142   5.059   2.421   0.652
    1TCM     c1 2143   4.193   0.574   3.219
    1TCM    cl1 2144   4.343   0.591   3.315
    1TCM    cl2 2145   4.210   0.437   3.107
    1TCM     h1 2146   4.108   0.555   3.287
    1TCM    cl3 2147   4.165   0.723   3.126
    1TCM     c1 2148   4.853   2.351   0.153
    1TCM    cl1 2149   4.931   2.473   0.257
    1TCM    cl2 2150   4.736   2.257   0.250
    1TCM     h1 2151   4.799   2.402   0.070
    1TCM    cl3 2152   4.976   2.242   0.087
    1TCM     c1 2153   3.410   1.222   1.051
    1TCM    cl1 2154   3.273   1.204   1.162
    1TCM    cl2 2155   3.381   1.125   0.904
    1TCM     h1 2156   3.422   1.328   1.023
    1TCM    cl3 2157   3.559   1.164   1.131
    1TCM     c1 2158   2.738   4.423   4.769
    1TCM    cl1 2159   2.759   4.482   4.603
    1TCM    cl2 2160   2.571   4.366   4.791
    1TCM     h1 2161   2.809   4.339   4.788
    1TCM    cl3 2162   2.771   4.554   4.884
    1TCM     c1 2163   1.546   5.237   0.600
    1TCM    cl1 2164   1.571   5.332   0.748
    1TCM    cl2 2165   1.582   5.338   0.458
    1TCM     h1 2166   1.612   5.148   0.601
    1TCM    cl3 2167   1.376   5.184   0.592
    1TCM     c1 2168   1.407   3.306   4.468
    1TCM    cl1 2169   1.505   3.449   4.429
    1TCM    cl2 2170   1.468   3.165   4.377
    1TCM     h1 2171   1.414   3.285   4.577
    1TCM    cl3 2172   1.238   3.336   4.423
    1TCM     c1 2173   1.209   2.279   2.410
    1TCM    cl1 2174   1.370   2.332   2.464
    1TCM    cl2 2175   1.179   2.340   2.246
    1TCM     h1 2176   1.205   2.168   2.410
    1TCM    cl3 2177   1.085   2.343   2.521
    1TCM     c1 2178   1.410   1.362   0.615
    1TCM    cl1 2179   1.273   1.382   0.503
    1TCM    cl2 2180   1.557   1.328   0.521
    1TCM     h1 2181   1.424   1.455   0.673
    1TCM    cl3 2182   1.377   1.227   0.726
    1TCM     c1 2183   0.394   5.180   3.238
    1TCM    cl1 2184   0.236   5.100   3.227
    1TCM    cl2 2185   0.385   5.340   3.160
    1TCM     h1 2186   0.422   5.193   3.345
    1TCM    cl3 2187   0.516   5.081   3.156
    1TCM     c1 2188   2.792   3.958   0.333
    1TCM    cl1 2189   2.834   3.869   0.481
    1TCM    cl2 2190   2.741   3.842   0.207
    1TCM     h1 2191   2.709   4.029   0.354
    1TCM    cl3 2192   2.934   4.048   0.275
    1TCM     c1 2193   5.168   1.812   0.821
    1TCM    cl1 2194   5.290   1.864   0.702
    1TCM    cl2 2195   5.081   1.670   0.758
    1TCM     h1 2196   5.219   1.785   0.916
    1TCM    cl3 2197   5.054   1.944   0.850
    1TCM     c1 2198   3.246   4.788   4.112
    1TCM    cl1 2199   3.292   4.650   4.214
    1TCM    cl2 2200   3.219   4.731   3.945
    1TCM     h1 2201   3.152   4.833   4.151
    1TCM    cl3 2202   3.376   4.908   4.113
    1TCM     c1 2203   0.359   3.222   3.461
    1TCM    cl1 2204   0.368   3.357   3.576
    1TCM    cl2 2205   0.275   3.085   3.538
    1TCM     h1 2206   0.303   3.253   3.371
    1TCM    cl3 2207   0.523   3.172   3.415
    1TCM     c1 2208   2.890   0.537   1.978
    1TCM    cl1 2209   2.767   0.490   2.098
    1TCM    cl2 2210   2.830   0.501   1.815
    1TCM     h1 2211   2.910   0.646   1.987
    1TCM    cl3 2212   3.039   0.445   2.008
    1TCM     c1 2213   4.850   5.005   4.336
    1TCM    cl1 2214   4.873   4.904   4.481
    1TCM    cl2 2215   4.807   5.170   4.386
    1TCM     h1 2216   4.944   5.007   4.278
    1TCM    cl3 2217   4.719   4.937   4.236
    1TCM     c1 2218   4.049   1.003   2.044
    1TCM    cl1 2219   4.149   0.865   1.991
    1TCM    cl2 2220   3.986   0.971   2.207
    1TCM     h1 2221   4.111   1.094   2.045
    1TCM    cl3 2222   3.914   1.025   1.930
    1TCM     c1 2223   2.329   4.774   2.449
    1TCM    cl1 2224   2.270   4.643   2.344
    1TCM    cl2 2225   2.418   4.705   2.586
    1TCM     h1 2226   2.396   4.840   2.390
    1TCM    cl3 2227   2.191   4.868   2.510
    1TCM     c1 2228   2.243   2.613   0.932
    1TCM    cl1 2229   2.405   2.576   0.993
    1TCM    cl2 2230   2.244   2.607   0.754
    1TCM     h1 2231   2.171   2.538   0.970
    1TCM    cl3 2232   2.194   2.776   0.985
    1TCM     c1 2233   2.185   4.736   0.428
    1TCM    cl1 2234   2.325   4.644   0.489
    1TCM    cl2 2235   2.121   4.656   0.282
    1TCM     h1 2236   2.106   4.740   0.505
    1TCM    cl3 2237   2.237   4.901   0.387
    1TCM     c1 2238   3.684   1.186   2.336
    1TCM    cl1 2239   3.832   1.088   2.335
    1TCM    cl2 2240   3.544   1.082   2.303
    1TCM     h1 2241   3.672   1.235   2.435
    1TCM    cl3 2242   3.695   1.311   2.210
    1TCM     c1 2243   3.708   4.010   0.796
    1TCM    cl1 2244   3.878   4.028   0.847
    1TCM    cl2 2245   3.614   4.148   0.855
    1TCM     h1 2246   3.703   4.006   0.685
    1TCM    cl3 2247   3.642   3.859   0.864
    1TCM     c1 2248   1.693   4.331   2.144
    1TCM    cl1 2249   1.640   4.235   2.004
    1TCM    cl2 2250   1.815   4.239   2.236
    1TCM     h1 2251   1.738   4.426   2.109
    1TCM    cl3 2252   1.554   4.365   2.249
    1TCM     c1 2253   4.966   2.755   2.998
    1TCM    cl1 2254   5.118   2.848   3.000
    1TCM    cl2 2255   4.856   2.825   2.877
    1TCM     h1 2256   4.988   2.650   2.971
    1TCM    cl3 2257   4.890   2.763   3.158
    1TCM     c1 2258   1.546   1.310   2.167
    1TCM    cl1 2259   1.475   1.149   2.142
    1TCM    cl2 2260   1.598   1.327   2.336
    1TCM     h1 2261   1.634   1.322   2.100
    1TCM    cl3 2262   1.425   1.435   2.129
    1TCM     c1 2263   1.061   4.279   0.224
    1TCM    cl1 2264   1.190   4.200   0.320
    1TCM    cl2 2265   0.914   4.179   0.231
    1TCM     h1 2266   1.040   4.379   0.266
    1TCM    cl3 2267   1.115   4.295   0.056
    1TCM     c1 2268   3.109   2.646   0.935
    1TCM    cl1 2269   3.015   2.528   1.030
    1TCM    cl2 2270   3.270   2.666   1.008
    1TCM     h1 2271   3.120   2.609   0.831
    1TCM    cl3 2272   3.024   2.802   0.934
    1TCM     c1 2273   0.586   1.987   2.552
    1TCM    cl1 2274   0.553   2.033   2.383
    1TCM    cl2 2275   0.720   2.086   2.615
    1TCM     h1 2276   0.495   2.004   2.613
    1TCM    cl3 2277   0.631   1.815   2.558
    1TCM     c1 2278   2.624   0.765   4.984
    1TCM    cl1 2279   2.719   0.902   4.924
    1TCM    cl2 2280   2.453   0.812   4.997
    1TCM     h1 2281   2.634   0.679   4.913
    1TCM    cl3 2282   2.685   0.716   5.144
    1TCM     c1 2283   0.413   4.343   4.230
    1TCM    cl1 2284   0.475   4.319   4.394
    1TCM    cl2 2285   0.469   4.211   4.125
    1TCM     h1 2286   0.302   4.344   4.232
    1TCM    cl3 2287   0.472   4.498   4.166
    1TCM     c1 2288   4.995   4.032   1.537
    1TCM    cl1 2289   4.992   3.872   1.614
    1TCM    cl2 2290   4.992   4.012   1.361
    1TCM     h1 2291   4.907   4.090   1.570
    1TCM    cl3 2292   5.143   4.117   1.585
    1TCM     c1 2293   2.630   2.311   0.453
    1TCM    cl1 2294   2.600   2.444   0.339
    1TCM    cl2 2295   2.648   2.377   0.617
    1TCM     h1 2296   2.545   2.241   0.450
    1TCM    cl3 2297   2.779   2.226   0.406
    1TCM     c1 2298   3.356   2.471   2.156
    1TCM    cl1 2299   3.445   2.625   2.150
    1TCM    cl2 2300   3.188   2.502   2.206
    1TCM     h1 2301   3.357   2.423   2.056
    1TCM    cl3 2302   3.433   2.362   2.274
    1TCM     c1 2303   4.065   1.265   5.229
    1TCM    cl1 2304   4.032   1.128   5.121
    1TCM    cl2 2305   4.207   1.230   5.330
    1TCM     h1 2306   4.084   1.356   5.168
    1TCM    cl3 2307   3.924   1.293   5.334
    1TCM     c1 2308   1.104   2.092   4.436
    1TCM    cl1 2309   1.221   2.126   4.566
    1TCM    cl2 2310   0.948   2.044   4.507
    1TCM     h1 2311   1.090   2.183   4.374
    1TCM    cl3 2312   1.166   1.960   4.334
    1TCM     c1 2313   0.423   0.366   2.166
    1TCM    cl1 2314   0.459   0.540   2.158
    1TCM    cl2 2315   0.402   0.302   2.001
    1TCM     h1 2316   0.507   0.314   2.216
    1TCM    cl3 2317   0.273   0.341   2.259
    1TCM     c1 2318   3.810   0.442   1.107
    1TCM    cl1 2319   3.709   0.297   1.085
    1TCM    cl2 2320   3.823   0.529   0.952
    1TCM     h1 2321   3.763   0.508   1.183
    1TCM    cl3 2322   3.972   0.394   1.161
    1TCM     c1 2323   3.150   2.303   3.625
    1TCM    cl1 2324   3.319   2.248   3.633
    1TCM    cl2 2325   3.050   2.177   3.549
    1TCM     h1 2326   3.113   2.322   3.728
    1TCM    cl3 2327   3.141   2.452   3.529
    1TCM     c1 2328   3.761   2.875   3.552
    1TCM    cl1 2329   3.829   2.711   3.543
    1TCM    cl2 2330   3.845   2.980   3.435
    1TCM     h1 2331   3.653   2.872   3.529
    1TCM    cl3 2332   3.785   2.940   3.717
    1TCM     c1 2333   3.230   4.463   1.831
    1TCM    cl1 2334   3.124   4.374   1.942
    1TCM    cl2 2335   3.255   4.367   1.683
    1TCM     h1 2336   3.184   4.560   1.805
    1TCM    cl3 2337   3.387   4.491   1.910
    1TCM     c1 2338   0.213   0.999   4.170
    1TCM    cl1 2339   0.076   1.104   4.216
    1TCM    cl2 2340   0.271   0.911   4.314
    1TCM     h1 2341   0.180   0.927   4.093
    1TCM    cl3 2342   0.345   1.099   4.105
    1TCM     c1 2343   0.373   1.848   1.609
    1TCM    cl1 2344   0.396   1.783   1.773
    1TCM    cl2 2345   0.531   1.869   1.530
    1TCM     h1 2346   0.311   1.778   1.549
    1TCM    cl3 2347   0.291   2.006   1.619
    1TCM     c1 2348   0.087   2.905   1.391
    1TCM    cl1 2349   0.111   3.074   1.441
    1TCM    cl2 2350   0.241   2.817   1.407
    1TCM     h1 2351   0.011   2.858   1.457
    1TCM    cl3 2352   0.033   2.899   1.222
    1TCM     c1 2353   0.892   3.672   0.084
    1TCM    cl1 2354   0.908   3.517  -0.001
    1TCM    cl2 2355   0.838   3.643   0.251
    1TCM     h1 2356   0.990   3.724   0.085
    1TCM    cl3 2357   0.772   3.773   0.000
    1TCM     c1 2358   3.664   1.350   1.493
    1TCM    cl1 2359   3.569   1.210   1.547
    1TCM    cl2 2360   3.712   1.328   1.323
    1TCM     h1 2361   3.603   1.443   1.503
    1TCM    cl3 2362   3.810   1.365   1.594
    1TCM     c1 2363   3.479   1.723   4.810
    1TCM    cl1 2364   3.434   1.705   4.981
    1TCM    cl2 2365   3.650   1.771   4.797
    1TCM     h1 2366   3.464   1.626   4.757
    1TCM    cl3 2367   3.377   1.848   4.734
    1TCM     c1 2368   0.748   4.012   4.244
    1TCM    cl1 2369   0.658   3.875   4.175
    1TCM    cl2 2370   0.855   3.953   4.374
    1TCM     h1 2371   0.809   4.060   4.165
    1TCM    cl3 2372   0.634   4.131   4.311
    1TCM     c1 2373   3.599   3.219   5.183
    1TCM    cl1 2374   3.611   3.250   5.008
    1TCM    cl2 2375   3.706   3.332   5.270
    1TCM     h1 2376   3.495   3.234   5.216
    1TCM    cl3 2377   3.649   3.052   5.217
    1TCM     c1 2378   0.970   2.672   1.532
    1TCM    cl1 2379   0.797   2.680   1.491
    1TCM    cl2 2380   1.055   2.576   1.409
    1TCM     h1 2381   1.011   2.775   1.534
    1TCM    cl3 2382   0.990   2.596   1.691
    1TCM     c1 2383   4.402   5.086   5.217
    1TCM    cl1 2384   4.306   4.936   5.216
    1TCM    cl2 2385   4.319   5.210   5.121
    1TCM     h1 2386   4.413   5.122   5.322
    1TCM    cl3 2387   4.562   5.055   5.148
    1TCM     c1 2388   4.429   1.120   0.297
    1TCM    cl1 2389   4.311   1.107   0.165
    1TCM    cl2 2390   4.489   0.959   0.340
    1TCM     h1 2391   4.514   1.184   0.264
    1TCM    cl3 2392   4.351   1.194   0.439
    1TCM     c1 2393   3.124   0.847   3.532
    1TCM    cl1 2394   2.980   0.907   3.446
    1TCM    cl2 2395   3.237   0.776   3.414
    1TCM     h1 2396   3.173   0.930   3.585
    1TCM    cl3 2397   3.075   0.722   3.649
    1TCM     c1 2398   4.371   1.370   4.897
    1TCM    cl1 2399   4.375   1.404   5.071
    1TCM    cl2 2400   4.298   1.210   4.869
    1TCM     h1 2401   4.311   1.447   4.845
    1TCM    cl3 2402   4.537   1.371   4.832
    1TCM     c1 2403   4.762   2.169   3.814
    1TCM    cl1 2404   4.885   2.055   3.873
    1TCM    cl2 2405   4.626   2.078   3.744
    1TCM     h1 2406   4.726   2.231   3.898
    1TCM    cl3 2407   4.833   2.274   3.689
    1TCM     c1 2408   0.089   4.883   3.794
    1TCM    cl1 2409   0.220   4.904   3.913
    1TCM    cl2 2410   0.157   4.827   3.640
    1TCM     h1 2411   0.016   4.808   3.832
    1TCM    cl3 2412   0.006   5.038   3.770
    1TCM     c1 2413   3.371   0.733   3.795
    1TCM    cl1 2414   3.393   0.658   3.954
    1TCM    cl2 2415   3.516   0.827   3.753
    1TCM     h1 2416   3.355   0.654   3.719
    1TCM    cl3 2417   3.230   0.841   3.799
    1TCM     c1 2418   3.870   3.753   1.591
    1TCM    cl1 2419   3.705   3.818   1.608
    1TCM    cl2 2420   3.883   3.600   1.682
    1TCM     h1 2421   3.892   3.735   1.484
    1TCM    cl3 2422   3.986   3.871   1.657
    1TCM     c1 2423   0.554   0.173   1.369
    1TCM    cl1 2424   0.416   0.280   1.405
    1TCM    cl2 2425   0.526   0.090   1.214
    1TCM     h1 2426   0.647   0.234   1.362
    1TCM    cl3 2427   0.571   0.052   1.498
    1TCM     c1 2428   2.163   3.964   3.680
    1TCM    cl1 2429   2.141   4.137   3.718
    1TCM    cl2 2430   2.187   3.874   3.832
    1TCM     h1 2431   2.073   3.926   3.628
    1TCM    cl3 2432   2.305   3.944   3.576
    1TCM     c1 2433   4.515   3.948   1.353
    1TCM    cl1 2434   4.648   3.942   1.471
    1TCM    cl2 2435   4.581   3.926   1.189
    1TCM     h1 2436   4.442   3.868   1.375
    1TCM    cl3 2437   4.434   4.106   1.363
    1TCM     c1 2438   3.168   4.353   4.576
    1TCM    cl1 2439   2.992   4.327   4.589
    1TCM    cl2 2440   3.250   4.266   4.707
    1TCM     h1 2441   3.204   4.316   4.478
    1TCM    cl3 2442   3.203   4.527   4.590
    1TCM     c1 2443   2.070   1.872   4.795
    1TCM    cl1 2444   2.117   1.814   4.634
    1TCM    cl2 2445   2.113   1.749   4.917
    1TCM     h1 2446   2.124   1.966   4.818
    1TCM    cl3 2447   1.895   1.901   4.800
    1TCM     c1 2448   1.497   3.515   1.904
    1TCM    cl1 2449   1.582   3.671   1.911
    1TCM    cl2 2450   1.358   3.518   2.016
    1TCM     h1 2451   1.460   3.498   1.801
    1TCM    cl3 2452   1.608   3.385   1.951
    1TCM     c1 2453   1.831   0.152   1.543
    1TCM    cl1 2454   1.796   0.010   1.643
    1TCM    cl2 2455   1.773   0.124   1.377
    1TCM     h1 2456   1.781   0.241   1.585
    1TCM    cl3 2457   2.007   0.180   1.539
    1TCM     c1 2458   4.207   4.402   3.760
    1TCM    cl1 2459   4.265   4.433   3.594
    1TCM    cl2 2460   4.319   4.477   3.876
    1TCM     h1 2461   4.106   4.446   3.772
    1TCM    cl3 2462   4.201   4.227   3.788
    1TCM     c1 2463   0.730   1.009   3.666
    1TCM    cl1 2464   0.877   0.969   3.575
    1TCM    cl2 2465   0.775   1.087   3.820
    1TCM     h1 2466   0.667   1.079   3.606
    1TCM    cl3 2467   0.638   0.861   3.699
    1TCM     c1 2468   1.705   4.448   0.717
    1TCM    cl1 2469   1.700   4.601   0.808
    1TCM    cl2 2470   1.711   4.483   0.543
    1TCM     h1 2471   1.796   4.391   0.746
    1TCM    cl3 2472   1.560   4.352   0.753
    1TCM     c1 2473   3.256   0.384   0.135
    1TCM    cl1 2474   3.266   0.515   0.014
    1TCM    cl2 2475   3.116   0.281   0.099
    1TCM     h1 2476   3.349   0.323   0.130
    1TCM    cl3 2477   3.239   0.454   0.297
    1TCM     c1 2478   3.788   0.946   3.292
    1TCM    cl1 2479   3.616   0.908   3.266
    1TCM    cl2 2480   3.846   1.049   3.158
    1TCM     h1 2481   3.799   1.000   3.388
    1TCM    cl3 2482   3.882   0.796   3.296
    1TCM     c1 2483   0.146   4.589   3.992
    1TCM    cl1 2484   0.054   4.550   3.845
    1TCM    cl2 2485   0.309   4.645   3.947
    1TCM     h1 2486   0.094   4.669   4.048
    1TCM    cl3 2487   0.160   4.444   4.094
    1TCM     c1 2488   4.391   1.719   5.174
    1TCM    cl1 2489   4.316   1.838   5.065
    1TCM    cl2 2490   4.402   1.787   5.338
    1TCM     h1 2491   4.329   1.627   5.177
    1TCM    cl3 2492   4.554   1.679   5.116
    1TCM     c1 2493   0.405   0.679   2.782
    1TCM    cl1 2494   0.427   0.827   2.878
    1TCM    cl2 2495   0.337   0.551   2.886
    1TCM     h1 2496   0.336   0.699   2.698
    1TCM    cl3 2497   0.562   0.625   2.718
    1TCM     c1 2498   0.381   2.214   2.134
    1TCM    cl1 2499   0.404   2.358   2.236
    1TCM    cl2 2500   0.424   2.253   1.966
    1TCM     h1 2501   0.446   2.132   2.171
    1TCM    cl3 2502   0.211   2.162   2.141
    1TCM     c1 2503   3.663   2.197   1.676
    1TCM    cl1 2504   3.624   2.174   1.505
    1TCM    cl2 2505   3.616   2.361   1.726
    1TCM     h1 2506   3.608   2.123   1.737
    1TCM    cl3 2507   3.838   2.176   1.701
    1TCM     c1 2508   2.664   0.940   4.406
    1TCM    cl1 2509   2.792   0.964   4.285
    1TCM    cl2 2510   2.729   0.970   4.569
    1TCM     h1 2511   2.581   1.011   4.386
    1TCM    cl3 2512   2.603   0.774   4.396
    1TCM     c1 2513   4.671   2.546   4.936
    1TCM    cl1 2514   4.521   2.638   4.965
    1TCM    cl2 2515   4.648   2.437   4.798
    1TCM     h1 2516   4.753   2.617   4.915
    1TCM    cl3 2517   4.711   2.451   5.081
    1TCM     c1 2518   3.840   0.775   2.854
    1TCM    cl1 2519   3.755   0.661   2.960
    1TCM    cl2 2520   3.801   0.942   2.902
    1TCM     h1 2521   3.950   0.759   2.862
    1TCM    cl3 2522   3.789   0.749   2.685
    1TCM     c1 2523   3.309   2.094   3.317
    1TCM    cl1 2524   3.438   2.011   3.407
    1TCM    cl2 2525   3.310   2.040   3.147
    1TCM     h1 2526   3.210   2.069   3.362
    1TCM    cl3 2527   3.335   2.269   3.323
    1TCM     c1 2528   3.785   1.669   1.505
    1TCM    cl1 2529   3.781   1.555   1.369
    1TCM    cl2 2530   3.737   1.585   1.655
    1TCM     h1 2531   3.888   1.710   1.517
    1TCM    cl3 2532   3.672   1.803   1.474
    1TCM     c1 2533   0.466   3.442   1.589
    1TCM    cl1 2534   0.299   3.463   1.533
    1TCM    cl2 2535   0.511   3.271   1.579
    1TCM     h1 2536   0.534   3.503   1.526
    1TCM    cl3 2537   0.479   3.497   1.758
    1TCM     c1 2538   2.459   3.782   4.606
    1TCM    cl1 2539   2.334   3.657   4.627
    1TCM    cl2 2540   2.383   3.931   4.546
    1TCM     h1 2541   2.509   3.802   4.703
    1TCM    cl3 2542   2.579   3.725   4.488
    1TCM     c1 2543   1.904   1.612   1.969
    1TCM    cl1 2544   1.777   1.703   1.884
    1TCM    cl2 2545   1.986   1.504   1.854
    1TCM     h1 2546   1.977   1.683   2.013
    1TCM    cl3 2547   1.831   1.515   2.099
    1TCM     c1 2548   4.544   2.596   0.291
    1TCM    cl1 2549   4.462   2.754   0.306
    1TCM    cl2 2550   4.427   2.474   0.238
    1TCM     h1 2551   4.626   2.604   0.216
    1TCM    cl3 2552   4.613   2.550   0.448
    1TCM     c1 2553   3.061   4.599   3.582
    1TCM    cl1 2554   3.227   4.538   3.566
    1TCM    cl2 2555   2.962   4.539   3.447
    1TCM     h1 2556   3.018   4.564   3.678
    1TCM    cl3 2557   3.063   4.777   3.579
    1TCM     c1 2558   4.982   3.888   5.158
    1TCM    cl1 2559   5.025   3.753   5.051
    1TCM    cl2 2560   5.044   3.857   5.321
    1TCM     h1 2561   5.026   3.982   5.118
    1TCM    cl3 2562   4.805   3.905   5.164
    1TCM     c1 2563   1.114   2.638   3.269
    1TCM    cl1 2564   1.204   2.729   3.146
    1TCM    cl2 2565   1.005   2.747   3.356
    1TCM     h1 2566   1.055   2.558   3.219
    1TCM    cl3 2567   1.228   2.564   3.383
    1TCM     c1 2568   2.568   2.782   1.334
    1TCM    cl1 2569   2.653   2.917   1.254
    1TCM    cl2 2570   2.678   2.701   1.448
    1TCM     h1 2571   2.480   2.822   1.389
    1TCM    cl3 2572   2.514   2.666   1.211
    1TCM     c1 2573   0.148   3.560   3.562
    1TCM    cl1 2574   0.204   3.487   3.714
    1TCM    cl2 2575   0.110   3.732   3.589
    1TCM     h1 2576   0.227   3.551   3.485
    1TCM    cl3 2577   0.002   3.475   3.506
    1TCM     c1 2578   2.504   4.837   3.309
    1TCM    cl1 2579   2.450   4.996   3.368
    1TCM    cl2 2580   2.513   4.840   3.132
    1TCM     h1 2581   2.604   4.814   3.351
    1TCM    cl3 2582   2.388   4.713   3.361
    1TCM     c1 2583   4.997   2.720   4.197
    1TCM    cl1 2584   4.876   2.850   4.196
    1TCM    cl2 2585   5.024   2.665   4.364
    1TCM     h1 2586   4.961   2.635   4.136
    1TCM    cl3 2587   5.150   2.781   4.129
    1TCM     c1 2588   2.803   2.152   3.597
    1TCM    cl1 2589   2.635   2.134   3.652
    1TCM    cl2 2590   2.806   2.178   3.421
    1TCM     h1 2591   2.850   2.239   3.648
    1TCM    cl3 2592   2.894   2.004   3.636
    1TCM     c1 2593   1.976   0.920   4.101
    1TCM    cl1 2594   1.966   0.753   4.042
    1TCM    cl2 2595   1.885   0.935   4.253
    1TCM     h1 2596   2.082   0.947   4.119
    1TCM    cl3 2597   1.907   1.030   3.979
    1TCM     c1 2598   0.933   0.356   0.891
    1TCM    cl1 2599   0.943   0.534   0.889
    1TCM    cl2 2600   0.765   0.307   0.860
    1TCM     h1 2601   0.999   0.314   0.813
    1TCM    cl3 2602   0.984   0.296   1.051
    1TCM     c1 2603   4.151   1.431   3.664
    1TCM    cl1 2604   4.181   1.574   3.563
    1TCM    cl2 2605   4.118   1.481   3.831
    1TCM     h1 2606   4.064   1.375   3.624
    1TCM    cl3 2607   4.294   1.325   3.660
    1TCM     c1 2608   3.220   4.934   3.369
    1TCM    cl1 2609   3.305   5.068   3.289
    1TCM    cl2 2610   3.109   5.000   3.491
    1TCM     h1 2611   3.163   4.876   3.294
    1TCM    cl3 2612   3.339   4.828   3.449
    1TCM     c1 2613   2.113   2.592   3.071
    1TCM    cl1 2614   2.175   2.717   2.960
    1TCM    cl2 2615   2.128   2.650   3.239
    1TCM     h1 2616   2.006   2.572   3.048
    1TCM    cl3 2617   2.207   2.443   3.051
    1TCM     c1 2618   1.514   0.730   5.240
    1TCM    cl1 2619   1.428   0.848   5.342
    1TCM    cl2 2620   1.519   0.788   5.072
    1TCM     h1 2621   1.617   0.717   5.278
    1TCM    cl3 2622   1.429   0.574   5.246
    1TCM     c1 2623   2.230   4.425   4.378
    1TCM    cl1 2624   2.395   4.375   4.336
    1TCM    cl2 2625   2.210   4.420   4.555
    1TCM     h1 2626   2.213   4.529   4.342
    1TCM    cl3 2627   2.113   4.315   4.302
    1TCM     c1 2628   0.769   3.784   5.120
    1TCM    cl1 2629   0.633   3.673   5.091
    1TCM    cl2 2630   0.916   3.719   5.043
    1TCM     h1 2631   0.746   3.883   5.076
    1TCM    cl3 2632   0.796   3.800   5.295
    1TCM     c1 2633   5.095   3.053   1.865
    1TCM    cl1 2634   5.170   2.935   1.975
    1TCM    cl2 2635   5.221   3.151   1.788
    1TCM     h1 2636   5.037   2.999   1.787
    1TCM    cl3 2637   4.985   3.158   1.957
    1TCM     c1 2638   3.350   1.215   3.580
    1TCM    cl1 2639   3.232   1.232   3.449
    1TCM    cl2 2640   3.270   1.147   3.724
    1TCM     h1 2641   3.432   1.148   3.548
    1TCM    cl3 2642   3.417   1.375   3.621
    1TCM     c1 2643   1.532   0.125   1.266
    1TCM    cl1 2644   1.369   0.094   1.202
    1TCM    cl2 2645   1.648   0.014   1.189
    1TCM     h1 2646   1.561   0.229   1.244
    1TCM    cl3 2647   1.532   0.098   1.442
    1TCM     c1 2648   2.764   2.943   3.885
    1TCM    cl1 2649   2.725   2.772   3.857
    1TCM    cl2 2650   2.927   2.955   3.956
    1TCM     h1 2651   2.761   2.998   3.789
    1TCM    cl3 2652   2.645   3.014   3.997
    1TCM     c1 2653   5.075   3.358   1.252
    1TCM    cl1 2654   5.163   3.457   1.134
    1TCM    cl2 2655   5.006   3.463   1.378
    1TCM     h1 2656   4.993   3.304   1.201
    1TCM    cl3 2657   5.186   3.241   1.327
    1TCM     c1 2658   1.884   0.267   0.187
    1TCM    cl1 2659   1.845   0.426   0.116
    1TCM    cl2 2660   1.866   0.275   0.364
    1TCM     h1 2661   1.815   0.190   0.146
    1TCM    cl3 2662   2.052   0.224   0.146
    1TCM     c1 2663   1.106   1.915   2.992
    1TCM    cl1 2664   0.993   1.967   2.865
    1TCM    cl2 2665   1.021   1.810   3.108
    1TCM     h1 2666   1.190   1.859   2.946
    1TCM    cl3 2667   1.170   2.057   3.077
    1TCM     c1 2668   2.719   3.877   2.468
    1TCM    cl1 2669   2.573   3.897   2.569
    1TCM    cl2 2670   2.688   3.946   2.306
    1TCM     h1 2671   2.804   3.931   2.515
    1TCM    cl3 2672   2.758   3.705   2.452
    1TCM     c1 2673   1.529   0.520   2.935
    1TCM    cl1 2674   1.479   0.690   2.946
    1TCM    cl2 2675   1.394   0.422   2.873
    1TCM     h1 2676   1.616   0.511   2.866
    1TCM    cl3 2677   1.576   0.461   3.096
    1TCM     c1 2678   5.105   5.009   2.764
    1TCM    cl1 2679   4.960   5.011   2.661
    1TCM    cl2 2680   5.217   4.883   2.706
    1TCM     h1 2681   5.155   5.108   2.759
    1TCM    cl3 2682   5.059   4.975   2.932
    1TCM     c1 2683   2.595   3.878   3.191
    1TCM    cl1 2684   2.552   3.928   3.026
    1TCM    cl2 2685   2.566   3.704   3.210
    1TCM     h1 2686   2.702   3.900   3.210
    1TCM    cl3 2687   2.495   3.968   3.308
    1TCM     c1 2688   5.029   5.008   0.232
    1TCM    cl1 2689   5.037   4.868   0.341
    1TCM    cl2 2690   4.959   4.957   0.076
    1TCM     h1 2691   4.964   5.086   0.277
    1TCM    cl3 2692   5.192   5.073   0.206
    1TCM     c1 2693   1.527   4.057   5.179
    1TCM    cl1 2694   1.397   3.977   5.269
    1TCM    cl2 2695   1.651   4.115   5.292
    1TCM     h1 2696   1.572   3.986   5.107
    1TCM    cl3 2697   1.459   4.196   5.090
    1TCM     c1 2698   0.471   1.954   3.499
    1TCM    cl1 2699   0.449   1.812   3.394
    1TCM    cl2 2700   0.644   1.973   3.537
    1TCM     h1 2701   0.435   2.044   3.447
    1TCM    cl3 2702   0.380   1.930   3.650
    1TCM     c1 2703   4.618   0.419   4.834
    1TCM    cl1 2704   4.586   0.590   4.868
    1TCM    cl2 2705   4.464   0.334   4.807
    1TCM     h1 2706   4.681   0.410   4.743
    1TCM    cl3 2707   4.702   0.346   4.973
    1TCM     c1 2708   4.283   2.424   2.497
    1TCM    cl1 2709   4.338   2.369   2.657
    1TCM    cl2 2710   4.424   2.472   2.399
    1TCM     h1 2711   4.229   2.342   2.446
    1TCM    cl3 2712   4.174   2.564   2.516
    1TCM     c1 2713   3.504   4.671   1.640
    1TCM    cl1 2714   3.364   4.726   1.735
    1TCM    cl2 2715   3.519   4.771   1.494
    1TCM     h1 2716   3.596   4.681   1.702
    1TCM    cl3 2717   3.481   4.501   1.594
    1TCM     c1 2718   5.217   5.227   0.741
    1TCM    cl1 2719   5.066   5.176   0.662
    1TCM    cl2 2720   5.327   5.295   0.619
    1TCM     h1 2721   5.195   5.304   0.818
    1TCM    cl3 2722   5.294   5.086   0.817
    1TCM     c1 2723   3.985   5.141   0.259
    1TCM    cl1 2724   3.846   5.150   0.147
    1TCM    cl2 2725   3.927   5.155   0.426
    1TCM     h1 2726   4.036   5.043   0.246
    1TCM    cl3 2727   4.098   5.273   0.224
    1TCM     c1 2728   0.636   5.084   2.476
    1TCM    cl1 2729   0.487   5.037   2.562
    1TCM    cl2 2730   0.593   5.157   2.320
    1TCM     h1 2731   0.692   5.157   2.537
    1TCM    cl3 2732   0.735   4.939   2.448
    1TCM     c1 2733   2.854   5.156   4.390
    1TCM    cl1 2734   2.880   5.097   4.555
    1TCM    cl2 2735   2.911   5.035   4.273
    1TCM     h1 2736   2.745   5.174   4.374
    1TCM    cl3 2737   2.943   5.308   4.366
    1TCM     c1 2738   4.393   4.204   1.830
    1TCM    cl1 2739   4.536   4.289   1.766
    1TCM    cl2 2740   4.376   4.239   2.003
    1TCM     h1 2741   4.302   4.239   1.776
    1TCM    cl3 2742   4.412   4.029   1.806
    1TCM     c1 2743   3.253   3.689   4.810
    1TCM    cl1 2744   3.295   3.604   4.659
    1TCM    cl2 2745   3.349   3.621   4.943
    1TCM     h1 2746   3.277   3.797   4.799
    1TCM    cl3 2747   3.080   3.669   4.844
    1TCM     c1 2748   2.759   0.524   4.347
    1TCM    cl1 2749   2.851   0.595   4.482
    1TCM    cl2 2750   2.797   0.613   4.198
    1TCM     h1 2751   2.787   0.418   4.335
    1TCM    cl3 2752   2.585   0.536   4.381
    1TCM     c1 2753   3.366   3.340   1.812
    1TCM    cl1 2754   3.227   3.233   1.780
    1TCM    cl2 2755   3.408   3.331   1.984
    1TCM     h1 2756   3.453   3.308   1.751
    1TCM    cl3 2757   3.323   3.507   1.770
    1TCM     c1 2758   1.501   3.859   3.112
    1TCM    cl1 2759   1.438   3.819   2.950
    1TCM    cl2 2760   1.678   3.842   3.113
    1TCM     h1 2761   1.474   3.964   3.137
    1TCM    cl3 2762   1.430   3.749   3.232
    1TCM     c1 2763   2.883   4.236   1.794
    1TCM    cl1 2764   2.918   4.063   1.777
    1TCM    cl2 2765   2.707   4.259   1.810
    1TCM     h1 2766   2.934   4.276   1.884
    1TCM    cl3 2767   2.941   4.323   1.650
    1TCM     c1 2768   5.149   1.668   2.945
    1TCM    cl1 2769   5.284   1.601   2.850
    1TCM    cl2 2770   5.203   1.694   3.113
    1TCM     h1 2771   5.117   1.764   2.901
    1TCM    cl3 2772   5.013   1.553   2.943
    1TCM     c1 2773   4.338   3.455   3.010
    1TCM    cl1 2774   4.297   3.294   2.947
    1TCM    cl2 2775   4.511   3.485   2.985
    1TCM     h1 2776   4.279   3.532   2.956
    1TCM    cl3 2777   4.300   3.463   3.183
    1TCM     c1 2778   2.709   4.917   2.660
    1TCM    cl1 2779   2.751   5.055   2.556
    1TCM    cl2 2780   2.693   4.972   2.829
    1TCM     h1 2781   2.612   4.874   2.627
    1TCM    cl3 2782   2.836   4.793   2.650
    1TCM     c1 2783   2.841   3.173   2.322
    1TCM    cl1 2784   2.913   3.125   2.166
    1TCM    cl2 2785   2.665   3.145   2.316
    1TCM     h1 2786   2.885   3.112   2.403
    1TCM    cl3 2787   2.873   3.345   2.352
    1TCM     c1 2788   1.899   3.503   3.993
    1TCM    cl1 2789   1.741   3.432   3.953
    1TCM    cl2 2790   1.954   3.606   3.859
    1TCM     h1 2791   1.890   3.564   4.085
    1TCM    cl3 2792   2.017   3.372   4.020
    1TCM     c1 2793   4.829   1.875   0.648
    1TCM    cl1 2794   4.797   2.036   0.580
    1TCM    cl2 2795   4.958   1.796   0.555
    1TCM     h1 2796   4.861   1.885   0.754
    1TCM    cl3 2797   4.681   1.777   0.641
    1TCM     c1 2798   2.116   3.070   2.093
    1TCM    cl1 2799   2.220   3.161   2.205
    1TCM    cl2 2800   2.153   3.118   1.926
    1TCM     h1 2801   2.135   2.961   2.105
    1TCM    cl3 2802   1.945   3.104   2.129
    1TCM     c1 2803   1.984   0.953   4.966
    1TCM    cl1 2804   1.975   1.087   4.850
    1TCM    cl2 2805   2.151   0.936   5.025
    1TCM     h1 2806   1.917   0.973   5.052
    1TCM    cl3 2807   1.935   0.802   4.886
    1TCM     c1 2808   0.292   5.120   4.062
    1TCM    cl1 2809   0.121   5.090   4.103
    1TCM    cl2 2810   0.302   5.202   3.905
    1TCM     h1 2811   0.338   5.184   4.140
    1TCM    cl3 2812   0.379   4.965   4.054
    1TCM     c1 2813   1.656   4.484   1.710
    1TCM    cl1 2814   1.739   4.582   1.587
    1TCM    cl2 2815   1.636   4.580   1.859
    1TCM     h1 2816   1.556   4.454   1.672
    1TCM    cl3 2817   1.752   4.338   1.745
    1TCM     c1 2818   4.876   1.014   4.141
    1TCM    cl1 2819   5.014   1.123   4.112
    1TCM    cl2 2820   4.738   1.066   4.042
    1TCM     h1 2821   4.904   0.910   4.114
    1TCM    cl3 2822   4.831   1.021   4.313
    1TCM     c1 2823   2.347   3.283   0.274
    1TCM    cl1 2824   2.435   3.173   0.166
    1TCM    cl2 2825   2.323   3.439   0.193
    1TCM     h1 2826   2.249   3.239   0.300
    1TCM    cl3 2827   2.441   3.307   0.423
    1TCM     c1 2828   2.651   4.326   1.351
    1TCM    cl1 2829   2.809   4.351   1.273
    1TCM    cl2 2830   2.557   4.206   1.260
    1TCM     h1 2831   2.666   4.290   1.455
    1TCM    cl3 2832   2.562   4.480   1.355
    1TCM     c1 2833   1.592   0.919   3.904
    1TCM    cl1 2834   1.474   0.809   3.830
    1TCM    cl2 2835   1.697   0.987   3.778
    1TCM     h1 2836   1.539   1.001   3.957
    1TCM    cl3 2837   1.691   0.828   4.021
    1TCM     c1 2838   1.559   1.101   2.835
    1TCM    cl1 2839   1.547   0.957   2.938
    1TCM    cl2 2840   1.516   1.058   2.668
    1TCM     h1 2841   1.489   1.179   2.872
    1TCM    cl3 2842   1.725   1.164   2.840
    1TCM     c1 2843   1.940   3.270   3.158
    1TCM    cl1 2844   2.080   3.333   3.070
    1TCM    cl2 2845   1.990   3.221   3.322
    1TCM     h1 2846   1.862   3.348   3.165
    1TCM    cl3 2847   1.874   3.129   3.072
    1TCM     c1 2848   3.802   4.301   3.050
    1TCM    cl1 2849   3.956   4.386   3.026
    1TCM    cl2 2850   3.828   4.160   3.155
    1TCM     h1 2851   3.729   4.369   3.097
    1TCM    cl3 2852   3.739   4.247   2.892
    1TCM     c1 2853   2.730   5.140   0.488
    1TCM    cl1 2854   2.864   5.230   0.564
    1TCM    cl2 2855   2.579   5.231   0.508
    1TCM     h1 2856   2.752   5.127   0.380
    1TCM    cl3 2857   2.714   4.981   0.565
    1TCM     c1 2858   1.666   3.818   4.102
    1TCM    cl1 2859   1.678   3.901   4.259
    1TCM    cl2 2860   1.597   3.928   3.981
    1TCM     h1 2861   1.767   3.785   4.070
    1TCM    cl3 2862   1.560   3.675   4.119
    1TCM     c1 2863   2.359   2.235   1.329
    1TCM    cl1 2864   2.416   2.364   1.222
    1TCM    cl2 2865   2.247   2.303   1.449
    1TCM     h1 2866   2.306   2.158   1.268
    1TCM    cl3 2867   2.497   2.160   1.411
    1TCM     c1 2868   2.122   1.246   2.106
    1TCM    cl1 2869   2.270   1.342   2.092
    1TCM    cl2 2870   2.028   1.260   1.955
    1TCM     h1 2871   2.148   1.139   2.123
    1TCM    cl3 2872   2.024   1.306   2.242
    1TCM     c1 2873   2.305   2.847   0.439
    1TCM    cl1 2874   2.342   3.020   0.452
    1TCM    cl2 2875   2.425   2.753   0.531
    1TCM     h1 2876   2.204   2.827   0.480
    1TCM    cl3 2877   2.310   2.798   0.268
    1TCM     c1 2878   3.594   2.536   4.340
    1TCM    cl1 2879   3.448   2.505   4.242
    1TCM    cl2 2880   3.597   2.423   4.478
    1TCM     h1 2881   3.684   2.520   4.277
    1TCM    cl3 2882   3.591   2.703   4.400
    1TCM     c1 2883   0.709   0.360   1.984
    1TCM    cl1 2884   0.722   0.487   2.108
    1TCM    cl2 2885   0.734   0.201   2.059
    1TCM     h1 2886   0.608   0.364   1.939
    1TCM    cl3 2887   0.831   0.387   1.858
    1TCM     c1 2888   4.293   4.855   0.793
    1TCM    cl1 2889   4.325   4.854   0.968
    1TCM    cl2 2890   4.331   5.015   0.726
    1TCM     h1 2891   4.357   4.778   0.744
    1TCM    cl3 2892   4.122   4.818   0.763
    1TCM     c1 2893   0.296   4.302   1.101
    1TCM    cl1 2894   0.221   4.141   1.106
    1TCM    cl2 2895   0.180   4.420   1.036
    1TCM     h1 2896   0.326   4.332   1.204
    1TCM    cl3 2897   0.440   4.297   0.997
    1TCM     c1 2898   2.311   2.305   3.974
    1TCM    cl1 2899   2.403   2.207   3.858
    1TCM    cl2 2900   2.378   2.282   4.137
    1TCM     h1 2901   2.318   2.412   3.945
    1TCM    cl3 2902   2.140   2.256   3.972
    1TCM     c1 2903   0.581   4.089   1.292
    1TCM    cl1 2904   0.474   4.118   1.153
    1TCM    cl2 2905   0.518   4.174   1.434
    1TCM     h1 2906   0.585   3.980   1.313
    1TCM    cl3 2907   0.745   4.148   1.255
    1TCM     c1 2908   1.375   3.909   0.461
    1TCM    cl1 2909   1.346   3.752   0.539
    1TCM    cl2 2910   1.483   3.886   0.322
    1TCM     h1 2911   1.279   3.952   0.427
    1TCM    cl3 2912   1.452   4.019   0.578
    1TCM     c1 2913   3.183   2.111   2.552
    1TCM    cl1 2914   3.336   2.023   2.532
    1TCM    cl2 2915   3.168   2.234   2.424
    1TCM     h1 2916   3.098   2.040   2.546
    1TCM    cl3 2917   3.181   2.191   2.711
    1TCM     c1 2918   1.894   2.724   2.529
    1TCM    cl1 2919   1.902   2.678   2.701
    1TCM    cl2 2920   1.728   2.701   2.470
    1TCM     h1 2921   1.923   2.830   2.518
    1TCM    cl3 2922   2.005   2.622   2.435
    1TCM     c1 2923   3.413   5.122   2.095
    1TCM    cl1 2924   3.348   5.240   1.979
    1TCM    cl2 2925   3.279   5.037   2.175
    1TCM     h1 2926   3.477   5.049   2.042
    1TCM    cl3 2927   3.510   5.207   2.217
    1TCM     c1 2928   1.152   2.748   4.699
    1TCM    cl1 2929   1.162   2.915   4.757
    1TCM    cl2 2930   1.225   2.737   4.537
    1TCM     h1 2931   1.207   2.681   4.768
    1TCM    cl3 2932   0.982   2.698   4.690
    1TCM     c1 2933   4.625   3.896   4.932
    1TCM    cl1 2934   4.686   3.755   5.021
    1TCM    cl2 2935   4.719   3.917   4.782
    1TCM     h1 2936   4.518   3.881   4.906
    1TCM    cl3 2937   4.641   4.042   5.032
    1TCM     c1 2938   4.919   1.864   4.171
    1TCM    cl1 2939   5.087   1.814   4.202
    1TCM    cl2 2940   4.878   1.831   4.001
    1TCM     h1 2941   4.851   1.808   4.238
    1TCM    cl3 2942   4.903   2.039   4.203
    1TCM     c1 2943   4.131   2.299   2.840
    1TCM    cl1 2944   3.973   2.283   2.919
    1TCM    cl2 2945   4.122   2.234   2.674
    1TCM     h1 2946   4.160   2.406   2.836
    1TCM    cl3 2947   4.253   2.209   2.932
    1TCM     c1 2948   1.467   2.826   5.169
    1TCM    cl1 2949   1.450   2.996   5.221
    1TCM    cl2 2950   1.311   2.743   5.185
    1TCM     h1 2951   1.500   2.824   5.063
    1TCM    cl3 2952   1.588   2.745   5.271
    1TCM     c1 2953   3.697   2.105   3.124
    1TCM    cl1 2954   3.522   2.084   3.101
    1TCM    cl2 2955   3.730   2.138   3.296
    1TCM     h1 2956   3.750   2.013   3.093
    1TCM    cl3 2957   3.754   2.242   3.026
    1TCM     c1 2958   2.776   4.837   0.985
    1TCM    cl1 2959   2.767   5.014   0.987
    1TCM    cl2 2960   2.636   4.772   0.897
    1TCM     h1 2961   2.869   4.805   0.935
    1TCM    cl3 2962   2.774   4.776   1.152
    1TCM     c1 2963   1.658   3.842   0.888
    1TCM    cl1 2964   1.821   3.788   0.934
    1TCM    cl2 2965   1.619   3.781   0.726
    1TCM     h1 2966   1.584   3.803   0.962
    1TCM    cl3 2967   1.653   4.019   0.888
    1TCM     c1 2968   5.070   3.217   5.125
    1TCM    cl1 2969   5.003   3.340   5.234
    1TCM    cl2 2970   4.955   3.083   5.108
    1TCM     h1 2971   5.089   3.263   5.025
    1TCM    cl3 2972   5.223   3.156   5.191
    1TCM     c1 2973   2.972   5.028   3.122
    1TCM    cl1 2974   3.089   5.145   3.188
    1TCM    cl2 2975   2.989   5.022   2.945
    1TCM     h1 2976   2.992   4.928   3.164
    1TCM    cl3 2977   2.807   5.079   3.164
    1TCM     c1 2978   4.819   3.861   3.652
    1TCM    cl1 2979   4.834   3.789   3.814
    1TCM    cl2 2980   4.681   3.789   3.567
    1TCM     h1 2981   4.804   3.971   3.662
    1TCM    cl3 2982   4.968   3.831   3.559
    1TCM     c1 2983   1.782   0.933   3.070
    1TCM    cl1 2984   1.957   0.919   3.098
    1TCM    cl2 2985   1.703   0.990   3.218
    1TCM     h1 2986   1.763   1.005   2.987
    1TCM    cl3 2987   1.716   0.774   3.025
    1TCM     c1 2988   3.323   2.683   4.617
    1TCM    cl1 2989   3.169   2.769   4.598
    1TCM    cl2 2990   3.368   2.607   4.463
    1TCM     h1 2991   3.402   2.755   4.648
    1TCM    cl3 2992   3.307   2.557   4.742
    1TCM     c1 2993   2.401   4.285   0.640
    1TCM    cl1 2994   2.313   4.170   0.536
    1TCM    cl2 2995   2.439   4.208   0.796
    1TCM     h1 2996   2.496   4.315   0.590
    1TCM    cl3 2997   2.300   4.429   0.668
    1TCM     c1 2998   3.239   1.591   0.296
    1TCM    cl1 2999   3.355   1.685   0.199
    1TCM    cl2 3000   3.156   1.473   0.192
    1TCM     h1 3001   3.294   1.537   0.377
    1TCM    cl3 3002   3.120   1.700   0.369
    1TCM     c1 3003   2.364   1.707   4.096
    1TCM    cl1 3004   2.394   1.862   4.179
    1TCM    cl2 3005   2.192   1.697   4.051
    1TCM     h1 3006   2.427   1.701   4.005
    1TCM    cl3 3007   2.405   1.573   4.206
    1TCM     c1 3008   1.142   1.084   2.782
    1TCM    cl1 3009   1.064   0.928   2.814
    1TCM    cl2 3010   1.094   1.143   2.621
    1TCM     h1 3011   1.111   1.158   2.859
    1TCM    cl3 3012   1.319   1.064   2.788
    1TCM     c1 3013   2.823   4.345   5.141
    1TCM    cl1 3014   2.791   4.269   5.299
    1TCM    cl2 3015   2.670   4.368   5.054
    1TCM     h1 3016   2.872   4.443   5.156
    1TCM    cl3 3017   2.930   4.239   5.045
    1TCM     c1 3018   2.354   4.546   1.617
    1TCM    cl1 3019   2.305   4.393   1.693
    1TCM    cl2 3020   2.309   4.543   1.445
    1TCM     h1 3021   2.304   4.630   1.667
    1TCM    cl3 3022   2.531   4.565   1.631
    1TCM     c1 3023   0.978   2.543   5.123
    1TCM    cl1 3024   0.826   2.504   5.207
    1TCM    cl2 3025   0.996   2.439   4.980
    1TCM     h1 3026   0.978   2.649   5.092
    1TCM    cl3 3027   1.115   2.514   5.234
    1TCM     c1 3028   1.694   1.170   1.815
    1TCM    cl1 3029   1.663   1.327   1.739
    1TCM    cl2 3030   1.541   1.097   1.866
    1TCM     h1 3031   1.745   1.103   1.742
    1TCM    cl3 3032   1.799   1.192   1.957
    1TCM     c1 3033   0.520   3.613   3.659
    1TCM    cl1 3034   0.366   3.702   3.652
    1TCM    cl2 3035   0.585   3.595   3.495
    1TCM     h1 3036   0.592   3.670   3.721
    1TCM    cl3 3037   0.493   3.453   3.730
    1TCM     c1 3038   0.307   0.175   3.771
    1TCM    cl1 3039   0.301   0.352   3.786
    1TCM    cl2 3040   0.429   0.129   3.650
    1TCM     h1 3041   0.334   0.131   3.869
    1TCM    cl3 3042   0.147   0.115   3.720
    1TCM     c1 3043   4.261   5.194   3.310
    1TCM    cl1 3044   4.406   5.218   3.410
    1TCM    cl2 3045   4.286   5.055   3.202
    1TCM     h1 3046   4.174   5.174   3.376
    1TCM    cl3 3047   4.231   5.340   3.213
    1TCM     c1 3048   3.258   4.038   1.530
    1TCM    cl1 3049   3.370   4.172   1.564
    1TCM    cl2 3050   3.327   3.886   1.593
    1TCM     h1 3051   3.161   4.057   1.579
    1TCM    cl3 3052   3.235   4.023   1.354
    1TCM     c1 3053   4.627   4.299   3.892
    1TCM    cl1 3054   4.724   4.439   3.841
    1TCM    cl2 3055   4.726   4.191   3.992
    1TCM     h1 3056   4.539   4.334   3.950
    1TCM    cl3 3057   4.570   4.211   3.748
    1TCM     c1 3058   0.949   3.810   0.426
    1TCM    cl1 3059   1.063   3.701   0.342
    1TCM    cl2 3060   0.829   3.871   0.309
    1TCM     h1 3061   0.897   3.754   0.506
    1TCM    cl3 3062   1.038   3.946   0.496
    1TCM     c1 3063   5.107   2.332   5.088
    1TCM    cl1 3064   5.058   2.273   5.248
    1TCM    cl2 3065   5.274   2.394   5.095
    1TCM     h1 3066   5.102   2.249   5.014
    1TCM    cl3 3067   4.998   2.463   5.037
    1TCM     c1 3068   1.040   5.181   2.440
    1TCM    cl1 3069   1.159   5.182   2.572
    1TCM    cl2 3070   1.123   5.202   2.284
    1TCM     h1 3071   0.986   5.084   2.440
    1TCM    cl3 3072   0.924   5.313   2.463
    1TCM     c1 3073   0.718   1.151   4.127
    1TCM    cl1 3074   0.711   1.054   4.276
    1TCM    cl2 3075   0.640   1.062   3.994
    1TCM     h1 3076   0.666   1.247   4.143
    1TCM    cl3 3077   0.888   1.182   4.085
    1TCM     c1 3078   3.904   2.696   4.215
    1TCM    cl1 3079   3.775   2.632   4.110
    1TCM    cl2 3080   3.887   2.628   4.378
    1TCM     h1 3081   4.002   2.669   4.173
    1TCM    cl3 3082   3.890   2.873   4.223
    1TCM     c1 3083   2.356   3.516   5.272
    1TCM    cl1 3084   2.404   3.359   5.340
    1TCM    cl2 3085   2.272   3.490   5.117
    1TCM     h1 3086   2.288   3.568   5.343
    1TCM    cl3 3087   2.500   3.616   5.245
    1TCM     c1 3088   1.284   0.574   1.000
    1TCM    cl1 3089   1.287   0.528   0.829
    1TCM    cl2 3090   1.263   0.750   1.014
    1TCM     h1 3091   1.199   0.522   1.051
    1TCM    cl3 3092   1.437   0.526   1.078
    1TCM     c1 3093   0.406   3.662   0.564
    1TCM    cl1 3094   0.458   3.638   0.396
    1TCM    cl2 3095   0.398   3.504   0.646
    1TCM     h1 3096   0.479   3.727   0.617
    1TCM    cl3 3097   0.246   3.738   0.567
    1TCM     c1 3098   3.182   1.646   3.411
    1TCM    cl1 3099   3.247   1.769   3.299
    1TCM    cl2 3100   3.036   1.574   3.340
    1TCM     h1 3101   3.258   1.567   3.428
    1TCM    cl3 3102   3.141   1.723   3.566
    1TCM     c1 3103   2.802   4.753   0.261
    1TCM    cl1 3104   2.649   4.843   0.253
    1TCM    cl2 3105   2.861   4.723   0.096
    1TCM     h1 3106   2.877   4.812   0.317
    1TCM    cl3 3107   2.776   4.597   0.343
    1TCM     c1 3108   3.714   3.500   3.401
    1TCM    cl1 3109   3.834   3.369   3.397
    1TCM    cl2 3110   3.772   3.637   3.304
    1TCM     h1 3111   3.618   3.463   3.360
    1TCM    cl3 3112   3.689   3.553   3.569
    1TCM     c1 3113   2.964   3.936   0.957
    1TCM    cl1 3114   2.860   4.079   0.976
    1TCM    cl2 3115   2.863   3.793   0.929
    1TCM     h1 3116   3.032   3.951   0.871
    1TCM    cl3 3117   3.060   3.913   1.105
    1TCM     c1 3118   4.481   4.331   1.171
    1TCM    cl1 3119   4.458   4.448   1.039
    1TCM    cl2 3120   4.630   4.238   1.142
    1TCM     h1 3121   4.490   4.385   1.267
    1TCM    cl3 3122   4.342   4.220   1.177
    1TCM     c1 3123   4.561   3.066   0.307
    1TCM    cl1 3124   4.388   3.095   0.331
    1TCM    cl2 3125   4.645   3.076   0.464
    1TCM     h1 3126   4.576   2.965   0.264
    1TCM    cl3 3127   4.628   3.188   0.197
    1TCM     c1 3128   2.908   1.015   2.216
    1TCM    cl1 3129   2.786   0.899   2.273
    1TCM    cl2 3130   2.831   1.129   2.103
    1TCM     h1 3131   2.949   1.071   2.302
    1TCM    cl3 3132   3.039   0.929   2.133
    1TCM     c1 3133   3.448   4.598   2.995
    1TCM    cl1 3134   3.374   4.708   2.876
    1TCM    cl2 3135   3.345   4.590   3.140
    1TCM     h1 3136   3.458   4.497   2.951
    1TCM    cl3 3137   3.609   4.660   3.040
    1TCM     c1 3138   3.732   3.504   3.941
    1TCM    cl1 3139   3.818   3.602   4.063
    1TCM    cl2 3140   3.774   3.333   3.964
    1TCM     h1 3141   3.623   3.518   3.954
    1TCM    cl3 3142   3.780   3.556   3.779
    1TCM     c1 3143   4.169   0.314   0.213
    1TCM    cl1 3144   4.318   0.303   0.310
    1TCM    cl2 3145   4.199   0.247   0.051
    1TCM     h1 3146   4.088   0.256   0.262
    1TCM    cl3 3147   4.120   0.484   0.199
    1TCM     c1 3148   3.224   3.179   3.477
    1TCM    cl1 3149   3.294   3.070   3.598
    1TCM    cl2 3150   3.318   3.168   3.326
    1TCM     h1 3151   3.119   3.149   3.457
    1TCM    cl3 3152   3.228   3.346   3.537
    1TCM     c1 3153   0.612   2.685   1.854
    1TCM    cl1 3154   0.739   2.787   1.784
    1TCM    cl2 3155   0.608   2.529   1.769
    1TCM     h1 3156   0.632   2.668   1.962
    1TCM    cl3 3157   0.454   2.766   1.835
    1TCM     c1 3158   5.191   4.292   3.021
    1TCM    cl1 3159   5.201   4.451   2.943
    1TCM    cl2 3160   5.243   4.307   3.191
    1TCM     h1 3161   5.087   4.255   3.017
    1TCM    cl3 3162   5.298   4.178   2.937
    1TCM     c1 3163   2.379   3.528   1.514
    1TCM    cl1 3164   2.425   3.371   1.444
    1TCM    cl2 3165   2.430   3.534   1.684
    1TCM     h1 3166   2.429   3.610   1.458
    1TCM    cl3 3167   2.203   3.549   1.504
    1TCM     c1 3168   5.079   1.396   2.448
    1TCM    cl1 3169   5.155   1.516   2.341
    1TCM    cl2 3170   5.201   1.276   2.498
    1TCM     h1 3171   5.038   1.447   2.537
    1TCM    cl3 3172   4.948   1.313   2.361
    1TCM     c1 3173   4.191   3.117   3.999
    1TCM    cl1 3174   4.034   3.059   4.058
    1TCM    cl2 3175   4.314   2.990   4.019
    1TCM     h1 3176   4.182   3.143   3.891
    1TCM    cl3 3177   4.239   3.261   4.091
    1TCM     c1 3178   1.509   3.499   3.421
    1TCM    cl1 3179   1.402   3.424   3.300
    1TCM    cl2 3180   1.497   3.409   3.574
    1TCM     h1 3181   1.614   3.495   3.384
    1TCM    cl3 3182   1.461   3.668   3.447
    1TCM     c1 3183   2.476   3.372   2.597
    1TCM    cl1 3184   2.483   3.540   2.540
    1TCM    cl2 3185   2.611   3.342   2.710
    1TCM     h1 3186   2.380   3.354   2.649
    1TCM    cl3 3187   2.489   3.262   2.458
    1TCM     c1 3188   1.928   2.884   0.173
    1TCM    cl1 3189   1.824   2.778   0.272
    1TCM    cl2 3190   1.892   2.857   0.001
    1TCM     h1 3191   1.908   2.990   0.199
    1TCM    cl3 3192   2.099   2.846   0.205
    1TCM     c1 3193   4.820   0.835   2.890
    1TCM    cl1 3194   4.774   0.670   2.938
    1TCM    cl2 3195   4.721   0.887   2.752
    1TCM     h1 3196   4.804   0.904   2.976
    1TCM    cl3 3197   4.992   0.838   2.843
    1TCM     c1 3198   4.886   2.046   1.275
    1TCM    cl1 3199   4.759   2.016   1.154
    1TCM    cl2 3200   4.842   2.188   1.373
    1TCM     h1 3201   4.896   1.957   1.341
    1TCM    cl3 3202   5.041   2.077   1.193
    1TCM     c1 3203   3.226   4.036   0.383
    1TCM    cl1 3204   3.334   4.096   0.510
    1TCM    cl2 3205   3.213   4.158   0.254
    1TCM     h1 3206   3.267   3.942   0.341
    1TCM    cl3 3207   3.065   4.006   0.451
    1TCM     c1 3208   2.732   4.067   3.672
    1TCM    cl1 3209   2.766   4.069   3.847
    1TCM    cl2 3210   2.884   4.046   3.582
    1TCM     h1 3211   2.664   3.983   3.648
    1TCM    cl3 3212   2.656   4.220   3.625
    1TCM     c1 3213   2.101   4.502   2.194
    1TCM    cl1 3214   2.228   4.397   2.259
    1TCM    cl2 3215   1.997   4.560   2.327
    1TCM     h1 3216   2.147   4.589   2.142
    1TCM    cl3 3217   2.002   4.410   2.078
    1TCM     c1 3218   1.571   1.796   0.692
    1TCM    cl1 3219   1.490   1.790   0.850
    1TCM    cl2 3220   1.747   1.814   0.717
    1TCM     h1 3221   1.552   1.702   0.636
    1TCM    cl3 3222   1.510   1.934   0.598
    1TCM     c1 3223   0.245   2.853   4.396
    1TCM    cl1 3224   0.305   2.975   4.280
    1TCM    cl2 3225   0.303   2.693   4.347
    1TCM     h1 3226   0.283   2.877   4.497
    1TCM    cl3 3227   0.067   2.855   4.397
    1TCM     c1 3228   0.481   1.598   4.789
    1TCM    cl1 3229   0.558   1.686   4.655
    1TCM    cl2 3230   0.531   1.427   4.784
    1TCM     h1 3231   0.513   1.643   4.885
    1TCM    cl3 3232   0.305   1.608   4.774
    1TCM     c1 3233   4.934   2.877   0.650
    1TCM    cl1 3234   4.853   2.884   0.808
    1TCM    cl2 3235   4.999   2.713   0.624
    1TCM     h1 3236   4.862   2.901   0.570
    1TCM    cl3 3237   5.068   2.994   0.647
    1TCM     c1 3238   2.201   4.211   4.856
    1TCM    cl1 3239   2.338   4.323   4.849
    1TCM    cl2 3240   2.067   4.287   4.945
    1TCM     h1 3241   2.167   4.187   4.753
    1TCM    cl3 3242   2.250   4.062   4.939
    1TCM     c1 3243   3.066   3.474   3.272
    1TCM    cl1 3244   2.899   3.516   3.227
    1TCM    cl2 3245   3.174   3.609   3.232
    1TCM     h1 3246   3.071   3.454   3.381
    1TCM    cl3 3247   3.117   3.329   3.182
    1TCM     c1 3248   3.002   4.377   0.460
    1TCM    cl1 3249   2.982   4.225   0.550
    1TCM    cl2 3250   3.120   4.352   0.329
    1TCM     h1 3251   2.905   4.407   0.416
    1TCM    cl3 3252   3.061   4.503   0.569
    1TCM     c1 3253   3.448   4.476   0.468
    1TCM    cl1 3254   3.542   4.404   0.336
    1TCM    cl2 3255   3.531   4.448   0.622
    1TCM     h1 3256   3.437   4.585   0.451
    1TCM    cl3 3257   3.286   4.402   0.473
    1TCM     c1 3258   2.360   3.754   1.029
    1TCM    cl1 3259   2.528   3.802   1.063
    1TCM    cl2 3260   2.294   3.666   1.168
    1TCM     h1 3261   2.299   3.844   1.009
    1TCM    cl3 3262   2.358   3.648   0.886
    1TCM     c1 3263   4.087   3.937   3.759
    1TCM    cl1 3264   4.191   3.899   3.620
    1TCM    cl2 3265   4.188   3.977   3.899
    1TCM     h1 3266   4.022   4.023   3.734
    1TCM    cl3 3267   3.985   3.796   3.797
    1TCM     c1 3268   5.216   4.778   4.201
    1TCM    cl1 3269   5.062   4.740   4.121
    1TCM    cl2 3270   5.184   4.837   4.366
    1TCM     h1 3271   5.279   4.687   4.206
    1TCM    cl3 3272   5.301   4.904   4.109
    1TCM     c1 3273   4.183   0.375   3.559
    1TCM    cl1 3274   4.244   0.263   3.684
    1TCM    cl2 3275   4.008   0.397   3.580
    1TCM     h1 3276   4.234   0.473   3.569
    1TCM    cl3 3277   4.216   0.307   3.398
    1TCM     c1 3278   2.662   2.536   3.214
    1TCM    cl1 3279   2.521   2.470   3.128
    1TCM    cl2 3280   2.695   2.436   3.358
    1TCM     h1 3281   2.750   2.534   3.147
    1TCM    cl3 3282   2.629   2.703   3.264
    1TCM     c1 3283   5.048   4.601   2.652
    1TCM    cl1 3284   5.128   4.694   2.781
    1TCM    cl2 3285   5.051   4.428   2.693
    1TCM     h1 3286   4.943   4.635   2.642
    1TCM    cl3 3287   5.133   4.627   2.499
    1TCM     c1 3288   2.384   0.839   2.065
    1TCM    cl1 3289   2.291   0.725   1.965
    1TCM    cl2 3290   2.389   0.780   2.233
    1TCM     h1 3291   2.488   0.847   2.025
    1TCM    cl3 3292   2.307   0.999   2.060
    1TCM     c1 3293   0.263   2.370   3.071
    1TCM    cl1 3294   0.137   2.390   2.947
    1TCM    cl2 3295   0.261   2.203   3.132
    1TCM     h1 3296   0.362   2.392   3.027
    1TCM    cl3 3297   0.231   2.483   3.205
    1TCM     c1 3298   1.098   4.053   1.113
    1TCM    cl1 3299   1.101   4.054   0.935
    1TCM    cl2 3300   1.231   3.952   1.174
    1TCM     h1 3301   1.110   4.157   1.150
    1TCM    cl3 3302   0.943   3.987   1.169
    1TCM     c1 3303   2.615   3.058   0.699
    1TCM    cl1 3304   2.752   2.997   0.604
    1TCM    cl2 3305   2.543   3.199   0.618
    1TCM     h1 3306   2.538   2.978   0.709
    1TCM    cl3 3307   2.671   3.105   0.861
    1TCM     c1 3308   0.638   0.664   0.916
    1TCM    cl1 3309   0.719   0.544   0.812
    1TCM    cl2 3310   0.603   0.591   1.074
    1TCM     h1 3311   0.704   0.752   0.929
    1TCM    cl3 3312   0.486   0.714   0.839
    1TCM     c1 3313   5.074   2.136   3.250
    1TCM    cl1 3314   4.924   2.133   3.345
    1TCM    cl2 3315   5.036   2.177   3.081
    1TCM     h1 3316   5.142   2.213   3.292
    1TCM    cl3 3317   5.152   1.977   3.257
    1TCM     c1 3318   2.639   0.980   3.448
    1TCM    cl1 3319   2.803   1.028   3.396
    1TCM    cl2 3320   2.627   0.992   3.625
    1TCM     h1 3321   2.565   1.047   3.401
    1TCM    cl3 3322   2.608   0.812   3.397
    1TCM     c1 3323   5.085   1.019   2.240
    1TCM    cl1 3324   5.176   1.170   2.216
    1TCM    cl2 3325   5.172   0.884   2.164
    1TCM     h1 3326   5.075   0.999   2.349
    1TCM    cl3 3327   4.923   1.035   2.168
    1TCM     c1 3328   3.968   0.503   4.533
    1TCM    cl1 3329   3.824   0.442   4.617
    1TCM    cl2 3330   3.998   0.672   4.581
    1TCM     h1 3331   4.056   0.441   4.560
    1TCM    cl3 3332   3.942   0.496   4.358
    1TCM     c1 3333   5.107   0.884   5.066
    1TCM    cl1 3334   5.202   0.802   4.940
    1TCM    cl2 3335   5.185   0.860   5.224
    1TCM     h1 3336   5.102   0.992   5.043
    1TCM    cl3 3337   4.943   0.816   5.070
    1TCM     c1 3338   2.901   0.580   1.455
    1TCM    cl1 3339   3.045   0.530   1.363
    1TCM    cl2 3340   2.947   0.610   1.625
    1TCM     h1 3341   2.859   0.672   1.411
    1TCM    cl3 3342   2.780   0.450   1.449
    1TCM     c1 3343   2.085   1.400   3.890
    1TCM    cl1 3344   2.122   1.487   4.041
    1TCM    cl2 3345   2.026   1.237   3.929
    1TCM     h1 3346   2.007   1.456   3.834
    1TCM    cl3 3347   2.233   1.388   3.792
    1TCM     c1 3348   3.391   1.390   2.159
    1TCM    cl1 3349   3.384   1.499   2.019
    1TCM    cl2 3350   3.470   1.473   2.295
    1TCM     h1 3351   3.288   1.360   2.189
    1TCM    cl3 3352   3.484   1.245   2.117
    1TCM     c1 3353   3.872   2.154   4.335
    1TCM    cl1 3354   4.023   2.114   4.250
    1TCM    cl2 3355   3.909   2.189   4.506
    1TCM     h1 3356   3.826   2.243   4.288
    1TCM    cl3 3357   3.760   2.016   4.325
    1TCM     c1 3358   1.458   2.335   4.357
    1TCM    cl1 3359   1.314   2.368   4.456
    1TCM    cl2 3360   1.421   2.366   4.186
    1TCM     h1 3361   1.542   2.400   4.390
    1TCM    cl3 3362   1.505   2.164   4.377
    1TCM     c1 3363   1.060   0.428   1.986
    1TCM    cl1 3364   0.942   0.433   2.118
    1TCM    cl2 3365   1.077   0.261   1.927
    1TCM     h1 3366   1.025   0.493   1.903
    1TCM    cl3 3367   1.217   0.487   2.045
   5.54000   5.54000   5.54000
