;
;   File system_openff_hmr.top  was generated
;   By user: tlf3 (59384)
;   On host:bb002.eth.hpc.nist.gov 
;   At date:Wed. June  3 16:30:56 2025 
;
;   This is a standalone topology file
;
;   Created by:
;   ParmEd:       hmr_topology, VERSION4.3.0 
;   Executable:   hmr_topology
;   Library dir:  /home/tlf3/miniforge3/envs/terphenyl/share/gromacs/top
;   Command line:
;     hmr_topology -t system_openff.top -o system_openff_hmr.top --hmr_ratio 3
;

[ defaults ]
; nbfunc        comb-rule       gen-pairs       fudgeLJ fudgeQQ
1               2               yes             0.5          0.833333    

[ atomtypes ]
; name    at.num    mass    charge ptype  sigma      epsilon
em_pop_tetramer_0        6  12.010780  0.00000000  A     0.34806469     0.36350306
em_pop_tetramer_1        8  15.999430  0.00000000  A     0.30398122     0.87950233
em_pop_tetramer_2        6  12.010780  0.00000000  A     0.34806469     0.36350306
em_pop_tetramer_3        6  12.010780  0.00000000  A     0.34806469     0.36350306
em_pop_tetramer_4        6  12.010780  0.00000000  A     0.34806469     0.36350306
em_pop_tetramer_5        6  12.010780  0.00000000  A     0.34806469     0.36350306
em_pop_tetramer_6        6  12.010780  0.00000000  A     0.34806469     0.36350306
em_pop_tetramer_7        6  12.010780  0.00000000  A     0.34806469     0.36350306
em_pop_tetramer_8        6  12.010780  0.00000000  A     0.34806469     0.36350306
em_pop_tetramer_9        6  12.010780  0.00000000  A     0.34806469     0.36350306
em_pop_tetramer_10        8  15.999430  0.00000000  A     0.30251065     0.70485815
em_pop_tetramer_11        6  12.010780  0.00000000  A     0.33996695      0.4577296
em_pop_tetramer_12        6  12.010780  0.00000000  A     0.34806469     0.36350306
em_pop_tetramer_13        6  12.010780  0.00000000  A     0.34806469     0.36350306
em_pop_tetramer_14        6  12.010780  0.00000000  A     0.34806469     0.36350306
em_pop_tetramer_15        6  12.010780  0.00000000  A     0.34806469     0.36350306
em_pop_tetramer_16        6  12.010780  0.00000000  A     0.34806469     0.36350306
em_pop_tetramer_17        6  12.010780  0.00000000  A     0.34806469     0.36350306
em_pop_tetramer_18        6  12.010780  0.00000000  A     0.34806469     0.36350306
em_pop_tetramer_19        6  12.010780  0.00000000  A     0.34806469     0.36350306
em_pop_tetramer_20        6  12.010780  0.00000000  A     0.33996695      0.4577296
em_pop_tetramer_21        7  14.006720  0.00000000  A      0.3206876      0.7016213
em_pop_tetramer_22        6  12.010780  0.00000000  A     0.33996695      0.4577296
em_pop_tetramer_23        6  12.010780  0.00000000  A     0.34806469     0.36350306
em_pop_tetramer_24        6  12.010780  0.00000000  A     0.34806469     0.36350306
em_pop_tetramer_25        1   1.007947  0.00000000  A     0.25725815     0.06531786
em_pop_tetramer_26        1   1.007947  0.00000000  A     0.25725815     0.06531786
em_pop_tetramer_27        1   1.007947  0.00000000  A     0.25725815     0.06531786
em_pop_tetramer_28        1   1.007947  0.00000000  A     0.25832257    0.068656285
em_pop_tetramer_29        1   1.007947  0.00000000  A     0.25832257    0.068656285
em_pop_tetramer_30        1   1.007947  0.00000000  A     0.25832257    0.068656285
em_pop_tetramer_31        1   1.007947  0.00000000  A     0.25725815     0.06531786
em_pop_tetramer_32        1   1.007947  0.00000000  A     0.25725815     0.06531786
em_pop_tetramer_33        1   1.007947  0.00000000  A     0.25725815     0.06531786
em_pop_tetramer_34        1   1.007947  0.00000000  A     0.25725815     0.06531786
em_pop_tetramer_35        1   1.007947  0.00000000  A     0.25725815     0.06531786
em_pop_tetramer_36        1   1.007947  0.00000000  A     0.25725815     0.06531786
em_pop_tetramer_37        1   1.007947  0.00000000  A     0.25832257    0.068656285
em_pop_tetramer_38        1   1.007947  0.00000000  A     0.11034277    0.058955969
em_pop_tetramer_39        1   1.007947  0.00000000  A     0.26445434    0.066021356
em_pop_tetramer_40        1   1.007947  0.00000000  A     0.26445434    0.066021356
em_pop_tetramer_41        1   1.007947  0.00000000  A     0.26445434    0.066021356
em_pop_tetramer_42        1   1.007947  0.00000000  A     0.25725815     0.06531786
em_pop_tetramer_43        1   1.007947  0.00000000  A     0.25725815     0.06531786
em_pop_tetramer_44        6  12.010780  0.00000000  A     0.34806469     0.36350306
em_pop_tetramer_45        8  15.999430  0.00000000  A     0.30398122     0.87950233
em_pop_tetramer_46        6  12.010780  0.00000000  A     0.34806469     0.36350306
em_pop_tetramer_47        6  12.010780  0.00000000  A     0.34806469     0.36350306
em_pop_tetramer_48        6  12.010780  0.00000000  A     0.34806469     0.36350306
em_pop_tetramer_49        6  12.010780  0.00000000  A     0.34806469     0.36350306
em_pop_tetramer_50        6  12.010780  0.00000000  A     0.34806469     0.36350306
em_pop_tetramer_51        6  12.010780  0.00000000  A     0.34806469     0.36350306
em_pop_tetramer_52        6  12.010780  0.00000000  A     0.34806469     0.36350306
em_pop_tetramer_53        6  12.010780  0.00000000  A     0.34806469     0.36350306
em_pop_tetramer_54        8  15.999430  0.00000000  A     0.30251065     0.70485815
em_pop_tetramer_55        6  12.010780  0.00000000  A     0.33996695      0.4577296
em_pop_tetramer_56        6  12.010780  0.00000000  A     0.34806469     0.36350306
em_pop_tetramer_57        6  12.010780  0.00000000  A     0.34806469     0.36350306
em_pop_tetramer_58        6  12.010780  0.00000000  A     0.34806469     0.36350306
em_pop_tetramer_59        6  12.010780  0.00000000  A     0.34806469     0.36350306
em_pop_tetramer_60        6  12.010780  0.00000000  A     0.34806469     0.36350306
em_pop_tetramer_61        6  12.010780  0.00000000  A     0.34806469     0.36350306
em_pop_tetramer_62        6  12.010780  0.00000000  A     0.34806469     0.36350306
em_pop_tetramer_63        6  12.010780  0.00000000  A     0.34806469     0.36350306
em_pop_tetramer_64        6  12.010780  0.00000000  A     0.33996695      0.4577296
em_pop_tetramer_65        7  14.006720  0.00000000  A      0.3206876      0.7016213
em_pop_tetramer_66        6  12.010780  0.00000000  A     0.33996695      0.4577296
em_pop_tetramer_67        6  12.010780  0.00000000  A     0.34806469     0.36350306
em_pop_tetramer_68        6  12.010780  0.00000000  A     0.34806469     0.36350306
em_pop_tetramer_69        1   1.007947  0.00000000  A     0.25725815     0.06531786
em_pop_tetramer_70        1   1.007947  0.00000000  A     0.25725815     0.06531786
em_pop_tetramer_71        1   1.007947  0.00000000  A     0.25725815     0.06531786
em_pop_tetramer_72        1   1.007947  0.00000000  A     0.25832257    0.068656285
em_pop_tetramer_73        1   1.007947  0.00000000  A     0.25832257    0.068656285
em_pop_tetramer_74        1   1.007947  0.00000000  A     0.25832257    0.068656285
em_pop_tetramer_75        1   1.007947  0.00000000  A     0.25725815     0.06531786
em_pop_tetramer_76        1   1.007947  0.00000000  A     0.25725815     0.06531786
em_pop_tetramer_77        1   1.007947  0.00000000  A     0.25725815     0.06531786
em_pop_tetramer_78        1   1.007947  0.00000000  A     0.25725815     0.06531786
em_pop_tetramer_79        1   1.007947  0.00000000  A     0.25725815     0.06531786
em_pop_tetramer_80        1   1.007947  0.00000000  A     0.25725815     0.06531786
em_pop_tetramer_81        1   1.007947  0.00000000  A     0.25832257    0.068656285
em_pop_tetramer_82        1   1.007947  0.00000000  A     0.11034277    0.058955969
em_pop_tetramer_83        1   1.007947  0.00000000  A     0.26445434    0.066021356
em_pop_tetramer_84        1   1.007947  0.00000000  A     0.26445434    0.066021356
em_pop_tetramer_85        1   1.007947  0.00000000  A     0.26445434    0.066021356
em_pop_tetramer_86        1   1.007947  0.00000000  A     0.25725815     0.06531786
em_pop_tetramer_87        1   1.007947  0.00000000  A     0.25725815     0.06531786
em_pop_tetramer_88        6  12.010780  0.00000000  A     0.34806469     0.36350306
em_pop_tetramer_89        8  15.999430  0.00000000  A     0.30398122     0.87950233
em_pop_tetramer_90        6  12.010780  0.00000000  A     0.34806469     0.36350306
em_pop_tetramer_91        6  12.010780  0.00000000  A     0.34806469     0.36350306
em_pop_tetramer_92        6  12.010780  0.00000000  A     0.34806469     0.36350306
em_pop_tetramer_93        6  12.010780  0.00000000  A     0.34806469     0.36350306
em_pop_tetramer_94        6  12.010780  0.00000000  A     0.34806469     0.36350306
em_pop_tetramer_95        6  12.010780  0.00000000  A     0.34806469     0.36350306
em_pop_tetramer_96        6  12.010780  0.00000000  A     0.34806469     0.36350306
em_pop_tetramer_97        6  12.010780  0.00000000  A     0.34806469     0.36350306
em_pop_tetramer_98        8  15.999430  0.00000000  A     0.30251065     0.70485815
em_pop_tetramer_99        6  12.010780  0.00000000  A     0.33996695      0.4577296
em_pop_tetramer_100        6  12.010780  0.00000000  A     0.34806469     0.36350306
em_pop_tetramer_101        6  12.010780  0.00000000  A     0.34806469     0.36350306
em_pop_tetramer_102        6  12.010780  0.00000000  A     0.34806469     0.36350306
em_pop_tetramer_103        6  12.010780  0.00000000  A     0.34806469     0.36350306
em_pop_tetramer_104        6  12.010780  0.00000000  A     0.34806469     0.36350306
em_pop_tetramer_105        6  12.010780  0.00000000  A     0.34806469     0.36350306
em_pop_tetramer_106        6  12.010780  0.00000000  A     0.34806469     0.36350306
em_pop_tetramer_107        6  12.010780  0.00000000  A     0.34806469     0.36350306
em_pop_tetramer_108        6  12.010780  0.00000000  A     0.33996695      0.4577296
em_pop_tetramer_109        7  14.006720  0.00000000  A      0.3206876      0.7016213
em_pop_tetramer_110        6  12.010780  0.00000000  A     0.33996695      0.4577296
em_pop_tetramer_111        6  12.010780  0.00000000  A     0.34806469     0.36350306
em_pop_tetramer_112        6  12.010780  0.00000000  A     0.34806469     0.36350306
em_pop_tetramer_113        1   1.007947  0.00000000  A     0.25725815     0.06531786
em_pop_tetramer_114        1   1.007947  0.00000000  A     0.25725815     0.06531786
em_pop_tetramer_115        1   1.007947  0.00000000  A     0.25725815     0.06531786
em_pop_tetramer_116        1   1.007947  0.00000000  A     0.25832257    0.068656285
em_pop_tetramer_117        1   1.007947  0.00000000  A     0.25832257    0.068656285
em_pop_tetramer_118        1   1.007947  0.00000000  A     0.25832257    0.068656285
em_pop_tetramer_119        1   1.007947  0.00000000  A     0.25725815     0.06531786
em_pop_tetramer_120        1   1.007947  0.00000000  A     0.25725815     0.06531786
em_pop_tetramer_121        1   1.007947  0.00000000  A     0.25725815     0.06531786
em_pop_tetramer_122        1   1.007947  0.00000000  A     0.25725815     0.06531786
em_pop_tetramer_123        1   1.007947  0.00000000  A     0.25725815     0.06531786
em_pop_tetramer_124        1   1.007947  0.00000000  A     0.25725815     0.06531786
em_pop_tetramer_125        1   1.007947  0.00000000  A     0.25832257    0.068656285
em_pop_tetramer_126        1   1.007947  0.00000000  A     0.11034277    0.058955969
em_pop_tetramer_127        1   1.007947  0.00000000  A     0.26445434    0.066021356
em_pop_tetramer_128        1   1.007947  0.00000000  A     0.26445434    0.066021356
em_pop_tetramer_129        1   1.007947  0.00000000  A     0.26445434    0.066021356
em_pop_tetramer_130        1   1.007947  0.00000000  A     0.25725815     0.06531786
em_pop_tetramer_131        1   1.007947  0.00000000  A     0.25725815     0.06531786
em_pop_tetramer_132        6  12.010780  0.00000000  A     0.34806469     0.36350306
em_pop_tetramer_133        8  15.999430  0.00000000  A     0.30398122     0.87950233
em_pop_tetramer_134        6  12.010780  0.00000000  A     0.34806469     0.36350306
em_pop_tetramer_135        6  12.010780  0.00000000  A     0.34806469     0.36350306
em_pop_tetramer_136        6  12.010780  0.00000000  A     0.34806469     0.36350306
em_pop_tetramer_137        6  12.010780  0.00000000  A     0.34806469     0.36350306
em_pop_tetramer_138        6  12.010780  0.00000000  A     0.34806469     0.36350306
em_pop_tetramer_139        6  12.010780  0.00000000  A     0.34806469     0.36350306
em_pop_tetramer_140        6  12.010780  0.00000000  A     0.34806469     0.36350306
em_pop_tetramer_141        6  12.010780  0.00000000  A     0.34806469     0.36350306
em_pop_tetramer_142        8  15.999430  0.00000000  A     0.30251065     0.70485815
em_pop_tetramer_143        6  12.010780  0.00000000  A     0.33996695      0.4577296
em_pop_tetramer_144        6  12.010780  0.00000000  A     0.34806469     0.36350306
em_pop_tetramer_145        6  12.010780  0.00000000  A     0.34806469     0.36350306
em_pop_tetramer_146        6  12.010780  0.00000000  A     0.34806469     0.36350306
em_pop_tetramer_147        6  12.010780  0.00000000  A     0.34806469     0.36350306
em_pop_tetramer_148        6  12.010780  0.00000000  A     0.34806469     0.36350306
em_pop_tetramer_149        6  12.010780  0.00000000  A     0.34806469     0.36350306
em_pop_tetramer_150        6  12.010780  0.00000000  A     0.34806469     0.36350306
em_pop_tetramer_151        6  12.010780  0.00000000  A     0.34806469     0.36350306
em_pop_tetramer_152        6  12.010780  0.00000000  A     0.33996695      0.4577296
em_pop_tetramer_153        7  14.006720  0.00000000  A      0.3206876      0.7016213
em_pop_tetramer_154        6  12.010780  0.00000000  A     0.33996695      0.4577296
em_pop_tetramer_155        6  12.010780  0.00000000  A     0.34806469     0.36350306
em_pop_tetramer_156        6  12.010780  0.00000000  A     0.34806469     0.36350306
em_pop_tetramer_157        1   1.007947  0.00000000  A     0.25725815     0.06531786
em_pop_tetramer_158        1   1.007947  0.00000000  A     0.25725815     0.06531786
em_pop_tetramer_159        1   1.007947  0.00000000  A     0.25725815     0.06531786
em_pop_tetramer_160        1   1.007947  0.00000000  A     0.25832257    0.068656285
em_pop_tetramer_161        1   1.007947  0.00000000  A     0.25832257    0.068656285
em_pop_tetramer_162        1   1.007947  0.00000000  A     0.25832257    0.068656285
em_pop_tetramer_163        1   1.007947  0.00000000  A     0.25725815     0.06531786
em_pop_tetramer_164        1   1.007947  0.00000000  A     0.25725815     0.06531786
em_pop_tetramer_165        1   1.007947  0.00000000  A     0.25725815     0.06531786
em_pop_tetramer_166        1   1.007947  0.00000000  A     0.25725815     0.06531786
em_pop_tetramer_167        1   1.007947  0.00000000  A     0.25725815     0.06531786
em_pop_tetramer_168        1   1.007947  0.00000000  A     0.25725815     0.06531786
em_pop_tetramer_169        1   1.007947  0.00000000  A     0.25832257    0.068656285
em_pop_tetramer_170        1   1.007947  0.00000000  A     0.11034277    0.058955969
em_pop_tetramer_171        1   1.007947  0.00000000  A     0.26445434    0.066021356
em_pop_tetramer_172        1   1.007947  0.00000000  A     0.26445434    0.066021356
em_pop_tetramer_173        1   1.007947  0.00000000  A     0.26445434    0.066021356
em_pop_tetramer_174        1   1.007947  0.00000000  A     0.25725815     0.06531786
em_pop_tetramer_175        1   1.007947  0.00000000  A     0.25725815     0.06531786
em_pop_tetramer_176        6  12.010780  0.00000000  A     0.33996695      0.4577296
em_pop_tetramer_177        8  15.999430  0.00000000  A     0.30251065     0.70485815
em_pop_tetramer_178        1   1.007947  0.00000000  A     0.25832257    0.068656285
em_pop_tetramer_179        1   1.007947  0.00000000  A     0.25832257    0.068656285
em_pop_tetramer_180        1   1.007947  0.00000000  A     0.25832257    0.068656285
em_pop_tetramer_181        6  12.010780  0.00000000  A     0.33996695      0.4577296
em_pop_tetramer_182        6  12.010780  0.00000000  A     0.33996695      0.4577296
em_pop_tetramer_183        6  12.010780  0.00000000  A     0.33996695      0.4577296
em_pop_tetramer_184        6  12.010780  0.00000000  A     0.33996695      0.4577296
em_pop_tetramer_185        8  15.999430  0.00000000  A     0.30251065     0.70485815
em_pop_tetramer_186        6  12.010780  0.00000000  A     0.34806469     0.36350306
em_pop_tetramer_187        8  15.999430  0.00000000  A     0.30398122     0.87950233
em_pop_tetramer_188        1   1.007947  0.00000000  A     0.26445434    0.066021356
em_pop_tetramer_189        1   1.007947  0.00000000  A     0.26445434    0.066021356
em_pop_tetramer_190        1   1.007947  0.00000000  A     0.26445434    0.066021356
em_pop_tetramer_191        1   1.007947  0.00000000  A     0.26445434    0.066021356
em_pop_tetramer_192        1   1.007947  0.00000000  A     0.26445434    0.066021356
em_pop_tetramer_193        1   1.007947  0.00000000  A     0.26445434    0.066021356
em_pop_tetramer_194        1   1.007947  0.00000000  A     0.26445434    0.066021356
em_pop_tetramer_195        1   1.007947  0.00000000  A     0.26445434    0.066021356
em_pop_tetramer_196        1   1.007947  0.00000000  A     0.26445434    0.066021356
TCM_0          6  12.010780  0.00000000  A     0.33996695      0.4577296
TCM_1         17  35.453200  0.00000000  A     0.34709414        1.10876
TCM_2         17  35.453200  0.00000000  A     0.34709414        1.10876
TCM_3          1   1.007947  0.00000000  A     0.21149936      0.0656888
TCM_4         17  35.453200  0.00000000  A     0.34709414        1.10876


[ moleculetype ]
; Name            nrexcl
system1          3

[ atoms ]
;   nr       type  resnr residue  atom   cgnr    charge       mass  typeB    chargeB      massB
; residue    1 POP rtp POP q 0.1
    1 em_pop_tetramer_0      1    POP     C1      1 0.64464998  12.010780   ; qtot 0.644650
    2 em_pop_tetramer_1      1    POP     O2      2 -0.54048002  15.999430   ; qtot 0.104170
    3 em_pop_tetramer_2      1    POP     C3      3 -0.13580000  12.010780   ; qtot -0.031630
    4 em_pop_tetramer_3      1    POP     C4      4 -0.07694000   9.994886   ; qtot -0.108570
    5 em_pop_tetramer_4      1    POP     C5      5 -0.12961000   9.994886   ; qtot -0.238180
    6 em_pop_tetramer_5      1    POP     C6      6 -0.00029000  12.010780   ; qtot -0.238470
    7 em_pop_tetramer_6      1    POP     C7      7 -0.07996000  12.010780   ; qtot -0.318430
    8 em_pop_tetramer_7      1    POP     C8      8 0.00792000  12.010780   ; qtot -0.310510
    9 em_pop_tetramer_8      1    POP     C9      9 -0.14430000   9.994886   ; qtot -0.454810
   10 em_pop_tetramer_9      1    POP    C10     10 0.12913001  12.010780   ; qtot -0.325680
   11 em_pop_tetramer_10      1    POP    O11     11 -0.32560000  15.999430   ; qtot -0.651280
   12 em_pop_tetramer_11      1    POP    C12     12 0.11285000   5.963098   ; qtot -0.538430
   13 em_pop_tetramer_12      1    POP    C13     13 -0.20302001   9.994886   ; qtot -0.741450
   14 em_pop_tetramer_13      1    POP    C14     14 -0.08161000   9.994886   ; qtot -0.823060
   15 em_pop_tetramer_14      1    POP    C15     15 -0.04029000  12.010780   ; qtot -0.863350
   16 em_pop_tetramer_15      1    POP    C16     16 -0.10962000   9.994886   ; qtot -0.972970
   17 em_pop_tetramer_16      1    POP    C17     17 -0.12288000   9.994886   ; qtot -1.095850
   18 em_pop_tetramer_17      1    POP    C18     18 -0.09311000  12.010780   ; qtot -1.188960
   19 em_pop_tetramer_18      1    POP    C19     19 -0.12288000   9.994886   ; qtot -1.311840
   20 em_pop_tetramer_19      1    POP    C20     20 -0.10962000   9.994886   ; qtot -1.421460
   21 em_pop_tetramer_20      1    POP    C21     21 0.15284000   9.994886   ; qtot -1.268620
   22 em_pop_tetramer_21      1    POP    N22     22 -0.57167000  11.990826   ; qtot -1.840290
   23 em_pop_tetramer_22      1    POP    C23     23 -0.11080000   5.963098   ; qtot -1.951090
   24 em_pop_tetramer_23      1    POP    C24     24 -0.12961000   9.994886   ; qtot -2.080700
   25 em_pop_tetramer_24      1    POP    C25     25 -0.07694000   9.994886   ; qtot -2.157640
   26 em_pop_tetramer_25      1    POP    H26     26 0.15305001   3.023841   ; qtot -2.004590
   27 em_pop_tetramer_26      1    POP    H27     27 0.14369000   3.023841   ; qtot -1.860900
   28 em_pop_tetramer_27      1    POP    H28     28 0.15834001   3.023841   ; qtot -1.702560
   29 em_pop_tetramer_28      1    POP    H29     29 0.04628000   3.023841   ; qtot -1.656280
   30 em_pop_tetramer_29      1    POP    H30     30 0.04628000   3.023841   ; qtot -1.610000
   31 em_pop_tetramer_30      1    POP    H31     31 0.04628000   3.023841   ; qtot -1.563720
   32 em_pop_tetramer_31      1    POP    H32     32 0.14080000   3.023841   ; qtot -1.422920
   33 em_pop_tetramer_32      1    POP    H33     33 0.14128999   3.023841   ; qtot -1.281630
   34 em_pop_tetramer_33      1    POP    H34     34 0.13863000   3.023841   ; qtot -1.143000
   35 em_pop_tetramer_34      1    POP    H35     35 0.13542999   3.023841   ; qtot -1.007570
   36 em_pop_tetramer_35      1    POP    H36     36 0.13542999   3.023841   ; qtot -0.872140
   37 em_pop_tetramer_36      1    POP    H37     37 0.13863000   3.023841   ; qtot -0.733510
   38 em_pop_tetramer_37      1    POP    H38     38 0.08306000   3.023841   ; qtot -0.650450
   39 em_pop_tetramer_38      1    POP    H39     39 0.31097001   3.023841   ; qtot -0.339480
   40 em_pop_tetramer_39      1    POP    H40     40 0.04559000   3.023841   ; qtot -0.293890
   41 em_pop_tetramer_40      1    POP    H41     41 0.04559000   3.023841   ; qtot -0.248300
   42 em_pop_tetramer_41      1    POP    H42     42 0.04559000   3.023841   ; qtot -0.202710
   43 em_pop_tetramer_42      1    POP    H43     43 0.14369000   3.023841   ; qtot -0.059020
   44 em_pop_tetramer_43      1    POP    H44     44 0.15305001   3.023841   ; qtot 0.094030
; residue    2 POP rtp POP q -0.0
   45 em_pop_tetramer_44      2    POP    C45     45 0.67606002  12.010780   ; qtot 0.770090
   46 em_pop_tetramer_45      2    POP    O46     46 -0.61010998  15.999430   ; qtot 0.159980
   47 em_pop_tetramer_46      2    POP    C47     47 -0.14202000  12.010780   ; qtot 0.017960
   48 em_pop_tetramer_47      2    POP    C48     48 -0.09194000   9.994886   ; qtot -0.073980
   49 em_pop_tetramer_48      2    POP    C49     49 -0.12605000   9.994886   ; qtot -0.200030
   50 em_pop_tetramer_49      2    POP    C50     50 -0.00945000  12.010780   ; qtot -0.209480
   51 em_pop_tetramer_50      2    POP    C51     51 -0.07684000  12.010780   ; qtot -0.286320
   52 em_pop_tetramer_51      2    POP    C52     52 0.00764000  12.010780   ; qtot -0.278680
   53 em_pop_tetramer_52      2    POP    C53     53 -0.14471000   9.994886   ; qtot -0.423390
   54 em_pop_tetramer_53      2    POP    C54     54 0.12673000  12.010780   ; qtot -0.296660
   55 em_pop_tetramer_54      2    POP    O55     55 -0.32620999  15.999430   ; qtot -0.622870
   56 em_pop_tetramer_55      2    POP    C56     56 0.11316000   5.963098   ; qtot -0.509710
   57 em_pop_tetramer_56      2    POP    C57     57 -0.20277999   9.994886   ; qtot -0.712490
   58 em_pop_tetramer_57      2    POP    C58     58 -0.08327000   9.994886   ; qtot -0.795760
   59 em_pop_tetramer_58      2    POP    C59     59 -0.03948000  12.010780   ; qtot -0.835240
   60 em_pop_tetramer_59      2    POP    C60     60 -0.11159000   9.994886   ; qtot -0.946830
   61 em_pop_tetramer_60      2    POP    C61     61 -0.12095000   9.994886   ; qtot -1.067780
   62 em_pop_tetramer_61      2    POP    C62     62 -0.09151000  12.010780   ; qtot -1.159290
   63 em_pop_tetramer_62      2    POP    C63     63 -0.12095000   9.994886   ; qtot -1.280240
   64 em_pop_tetramer_63      2    POP    C64     64 -0.11159000   9.994886   ; qtot -1.391830
   65 em_pop_tetramer_64      2    POP    C65     65 0.15166999   9.994886   ; qtot -1.240160
   66 em_pop_tetramer_65      2    POP    N66     66 -0.57419002  11.990826   ; qtot -1.814350
   67 em_pop_tetramer_66      2    POP    C67     67 -0.10912000   5.963098   ; qtot -1.923470
   68 em_pop_tetramer_67      2    POP    C68     68 -0.12605000   9.994886   ; qtot -2.049520
   69 em_pop_tetramer_68      2    POP    C69     69 -0.09194000   9.994886   ; qtot -2.141460
   70 em_pop_tetramer_69      2    POP    H70     70 0.14744000   3.023841   ; qtot -1.994020
   71 em_pop_tetramer_70      2    POP    H71     71 0.14139999   3.023841   ; qtot -1.852620
   72 em_pop_tetramer_71      2    POP    H72     72 0.15798000   3.023841   ; qtot -1.694640
   73 em_pop_tetramer_72      2    POP    H73     73 0.04605000   3.023841   ; qtot -1.648590
   74 em_pop_tetramer_73      2    POP    H74     74 0.04605000   3.023841   ; qtot -1.602540
   75 em_pop_tetramer_74      2    POP    H75     75 0.04605000   3.023841   ; qtot -1.556490
   76 em_pop_tetramer_75      2    POP    H76     76 0.14098001   3.023841   ; qtot -1.415510
   77 em_pop_tetramer_76      2    POP    H77     77 0.14038000   3.023841   ; qtot -1.275130
   78 em_pop_tetramer_77      2    POP    H78     78 0.13582000   3.023841   ; qtot -1.139310
   79 em_pop_tetramer_78      2    POP    H79     79 0.13545001   3.023841   ; qtot -1.003860
   80 em_pop_tetramer_79      2    POP    H80     80 0.13545001   3.023841   ; qtot -0.868410
   81 em_pop_tetramer_80      2    POP    H81     81 0.13582000   3.023841   ; qtot -0.732590
   82 em_pop_tetramer_81      2    POP    H82     82 0.08565000   3.023841   ; qtot -0.646940
   83 em_pop_tetramer_82      2    POP    H83     83 0.31055999   3.023841   ; qtot -0.336380
   84 em_pop_tetramer_83      2    POP    H84     84 0.04470000   3.023841   ; qtot -0.291680
   85 em_pop_tetramer_84      2    POP    H85     85 0.04470000   3.023841   ; qtot -0.246980
   86 em_pop_tetramer_85      2    POP    H86     86 0.04470000   3.023841   ; qtot -0.202280
   87 em_pop_tetramer_86      2    POP    H87     87 0.14139999   3.023841   ; qtot -0.060880
   88 em_pop_tetramer_87      2    POP    H88     88 0.14744000   3.023841   ; qtot 0.086560
; residue    3 POP rtp POP q -0.0
   89 em_pop_tetramer_88      3    POP    C89     89 0.67776000  12.010780   ; qtot 0.764320
   90 em_pop_tetramer_89      3    POP    O90     90 -0.60736001  15.999430   ; qtot 0.156960
   91 em_pop_tetramer_90      3    POP    C91     91 -0.14297000  12.010780   ; qtot 0.013990
   92 em_pop_tetramer_91      3    POP    C92     92 -0.08998000   9.994886   ; qtot -0.075990
   93 em_pop_tetramer_92      3    POP    C93     93 -0.12336000   9.994886   ; qtot -0.199350
   94 em_pop_tetramer_93      3    POP    C94     94 -0.01193000  12.010780   ; qtot -0.211280
   95 em_pop_tetramer_94      3    POP    C95     95 -0.07193000  12.010780   ; qtot -0.283210
   96 em_pop_tetramer_95      3    POP    C96     96 0.01260000  12.010780   ; qtot -0.270610
   97 em_pop_tetramer_96      3    POP    C97     97 -0.14669000   9.994886   ; qtot -0.417300
   98 em_pop_tetramer_97      3    POP    C98     98 0.12335000  12.010780   ; qtot -0.293950
   99 em_pop_tetramer_98      3    POP    O99     99 -0.32589000  15.999430   ; qtot -0.619840
  100 em_pop_tetramer_99      3    POP   C100    100 0.11304000   5.963098   ; qtot -0.506800
  101 em_pop_tetramer_100      3    POP   C101    101 -0.20599000   9.994886   ; qtot -0.712790
  102 em_pop_tetramer_101      3    POP   C102    102 -0.08582000   9.994886   ; qtot -0.798610
  103 em_pop_tetramer_102      3    POP   C103    103 -0.04503000  12.010780   ; qtot -0.843640
  104 em_pop_tetramer_103      3    POP   C104    104 -0.11307000   9.994886   ; qtot -0.956710
  105 em_pop_tetramer_104      3    POP   C105    105 -0.11337000   9.994886   ; qtot -1.070080
  106 em_pop_tetramer_105      3    POP   C106    106 -0.10293000  12.010780   ; qtot -1.173010
  107 em_pop_tetramer_106      3    POP   C107    107 -0.11337000   9.994886   ; qtot -1.286380
  108 em_pop_tetramer_107      3    POP   C108    108 -0.11307000   9.994886   ; qtot -1.399450
  109 em_pop_tetramer_108      3    POP   C109    109 0.14957000   9.994886   ; qtot -1.249880
  110 em_pop_tetramer_109      3    POP   N110    110 -0.56558001  11.990826   ; qtot -1.815460
  111 em_pop_tetramer_110      3    POP   C111    111 -0.10274000   5.963098   ; qtot -1.918200
  112 em_pop_tetramer_111      3    POP   C112    112 -0.12336000   9.994886   ; qtot -2.041560
  113 em_pop_tetramer_112      3    POP   C113    113 -0.08998000   9.994886   ; qtot -2.131540
  114 em_pop_tetramer_113      3    POP   H114    114 0.14835000   3.023841   ; qtot -1.983190
  115 em_pop_tetramer_114      3    POP   H115    115 0.14099000   3.023841   ; qtot -1.842200
  116 em_pop_tetramer_115      3    POP   H116    116 0.15697999   3.023841   ; qtot -1.685220
  117 em_pop_tetramer_116      3    POP   H117    117 0.04489000   3.023841   ; qtot -1.640330
  118 em_pop_tetramer_117      3    POP   H118    118 0.04489000   3.023841   ; qtot -1.595440
  119 em_pop_tetramer_118      3    POP   H119    119 0.04489000   3.023841   ; qtot -1.550550
  120 em_pop_tetramer_119      3    POP   H120    120 0.13813999   3.023841   ; qtot -1.412410
  121 em_pop_tetramer_120      3    POP   H121    121 0.13809000   3.023841   ; qtot -1.274320
  122 em_pop_tetramer_121      3    POP   H122    122 0.13335000   3.023841   ; qtot -1.140970
  123 em_pop_tetramer_122      3    POP   H123    123 0.13877000   3.023841   ; qtot -1.002200
  124 em_pop_tetramer_123      3    POP   H124    124 0.13877000   3.023841   ; qtot -0.863430
  125 em_pop_tetramer_124      3    POP   H125    125 0.13335000   3.023841   ; qtot -0.730080
  126 em_pop_tetramer_125      3    POP   H126    126 0.08477000   3.023841   ; qtot -0.645310
  127 em_pop_tetramer_126      3    POP   H127    127 0.30858999   3.023841   ; qtot -0.336720
  128 em_pop_tetramer_127      3    POP   H128    128 0.04390000   3.023841   ; qtot -0.292820
  129 em_pop_tetramer_128      3    POP   H129    129 0.04390000   3.023841   ; qtot -0.248920
  130 em_pop_tetramer_129      3    POP   H130    130 0.04390000   3.023841   ; qtot -0.205020
  131 em_pop_tetramer_130      3    POP   H131    131 0.14099000   3.023841   ; qtot -0.064030
  132 em_pop_tetramer_131      3    POP   H132    132 0.14835000   3.023841   ; qtot 0.084320
; residue    4 POP rtp POP q 0.1
  133 em_pop_tetramer_132      4    POP   C133    133 0.67817998  12.010780   ; qtot 0.762500
  134 em_pop_tetramer_133      4    POP   O134    134 -0.60563999  15.999430   ; qtot 0.156860
  135 em_pop_tetramer_134      4    POP   C135    135 -0.14083000  12.010780   ; qtot 0.016030
  136 em_pop_tetramer_135      4    POP   C136    136 -0.08577000   9.994886   ; qtot -0.069740
  137 em_pop_tetramer_136      4    POP   C137    137 -0.12469000   9.994886   ; qtot -0.194430
  138 em_pop_tetramer_137      4    POP   C138    138 -0.01568000  12.010780   ; qtot -0.210110
  139 em_pop_tetramer_138      4    POP   C139    139 -0.06879000  12.010780   ; qtot -0.278900
  140 em_pop_tetramer_139      4    POP   C140    140 0.01004000  12.010780   ; qtot -0.268860
  141 em_pop_tetramer_140      4    POP   C141    141 -0.14603999   9.994886   ; qtot -0.414900
  142 em_pop_tetramer_141      4    POP   C142    142 0.12504999  12.010780   ; qtot -0.289850
  143 em_pop_tetramer_142      4    POP   O143    143 -0.32655999  15.999430   ; qtot -0.616410
  144 em_pop_tetramer_143      4    POP   C144    144 0.11369000   5.963098   ; qtot -0.502720
  145 em_pop_tetramer_144      4    POP   C145    145 -0.20827000   9.994886   ; qtot -0.710990
  146 em_pop_tetramer_145      4    POP   C146    146 -0.08722000   9.994886   ; qtot -0.798210
  147 em_pop_tetramer_146      4    POP   C147    147 -0.03800000  12.010780   ; qtot -0.836210
  148 em_pop_tetramer_147      4    POP   C148    148 -0.11244000   9.994886   ; qtot -0.948650
  149 em_pop_tetramer_148      4    POP   C149    149 -0.11413000   9.994886   ; qtot -1.062780
  150 em_pop_tetramer_149      4    POP   C150    150 -0.10967000  12.010780   ; qtot -1.172450
  151 em_pop_tetramer_150      4    POP   C151    151 -0.11413000   9.994886   ; qtot -1.286580
  152 em_pop_tetramer_151      4    POP   C152    152 -0.11244000   9.994886   ; qtot -1.399020
  153 em_pop_tetramer_152      4    POP   C153    153 0.15575001   9.994886   ; qtot -1.243270
  154 em_pop_tetramer_153      4    POP   N154    154 -0.54655999  11.990826   ; qtot -1.789830
  155 em_pop_tetramer_154      4    POP   C155    155 -0.09925000   5.963098   ; qtot -1.889080
  156 em_pop_tetramer_155      4    POP   C156    156 -0.12469000   9.994886   ; qtot -2.013770
  157 em_pop_tetramer_156      4    POP   C157    157 -0.08577000   9.994886   ; qtot -2.099540
  158 em_pop_tetramer_157      4    POP   H158    158 0.14975999   3.023841   ; qtot -1.949780
  159 em_pop_tetramer_158      4    POP   H159    159 0.13989000   3.023841   ; qtot -1.809890
  160 em_pop_tetramer_159      4    POP   H160    160 0.15538000   3.023841   ; qtot -1.654510
  161 em_pop_tetramer_160      4    POP   H161    161 0.04514000   3.023841   ; qtot -1.609370
  162 em_pop_tetramer_161      4    POP   H162    162 0.04514000   3.023841   ; qtot -1.564230
  163 em_pop_tetramer_162      4    POP   H163    163 0.04514000   3.023841   ; qtot -1.519090
  164 em_pop_tetramer_163      4    POP   H164    164 0.13609999   3.023841   ; qtot -1.382990
  165 em_pop_tetramer_164      4    POP   H165    165 0.14255001   3.023841   ; qtot -1.240440
  166 em_pop_tetramer_165      4    POP   H166    166 0.13612001   3.023841   ; qtot -1.104320
  167 em_pop_tetramer_166      4    POP   H167    167 0.13542999   3.023841   ; qtot -0.968890
  168 em_pop_tetramer_167      4    POP   H168    168 0.13542999   3.023841   ; qtot -0.833460
  169 em_pop_tetramer_168      4    POP   H169    169 0.13612001   3.023841   ; qtot -0.697340
  170 em_pop_tetramer_169      4    POP   H170    170 0.08589000   3.023841   ; qtot -0.611450
  171 em_pop_tetramer_170      4    POP   H171    171 0.32045999   3.023841   ; qtot -0.290990
  172 em_pop_tetramer_171      4    POP   H172    172 0.04563000   3.023841   ; qtot -0.245360
  173 em_pop_tetramer_172      4    POP   H173    173 0.04563000   3.023841   ; qtot -0.199730
  174 em_pop_tetramer_173      4    POP   H174    174 0.04563000   3.023841   ; qtot -0.154100
  175 em_pop_tetramer_174      4    POP   H175    175 0.13989000   3.023841   ; qtot -0.014210
  176 em_pop_tetramer_175      4    POP   H176    176 0.14975999   3.023841   ; qtot 0.135550
; residue    5 CAP rtp CAP q -0.2
  177 em_pop_tetramer_176      5    CAP   C177    177 0.12353000   5.963098   ; qtot 0.259080
  178 em_pop_tetramer_177      5    CAP   O178    178 -0.42890999  15.999430   ; qtot -0.169830
  179 em_pop_tetramer_178      5    CAP   H179    179 0.05108000   3.023841   ; qtot -0.118750
  180 em_pop_tetramer_179      5    CAP   H180    180 0.05108000   3.023841   ; qtot -0.067670
  181 em_pop_tetramer_180      5    CAP   H181    181 0.05108000   3.023841   ; qtot -0.016590
; residue    6 CAP rtp CAP q 0.0
  182 em_pop_tetramer_181      6    CAP   C182    182 -0.11513000   5.963098   ; qtot -0.131720
  183 em_pop_tetramer_182      6    CAP   C183    183 0.18897000  12.010780   ; qtot 0.057250
  184 em_pop_tetramer_183      6    CAP   C184    184 -0.11513000   5.963098   ; qtot -0.057880
  185 em_pop_tetramer_184      6    CAP   C185    185 -0.11513000   5.963098   ; qtot -0.173010
  186 em_pop_tetramer_185      6    CAP   O186    186 -0.44670001  15.999430   ; qtot -0.619710
  187 em_pop_tetramer_186      6    CAP   C187    187 0.75093001  12.010780   ; qtot 0.131220
  188 em_pop_tetramer_187      6    CAP   O188    188 -0.60030001  15.999430   ; qtot -0.469080
  189 em_pop_tetramer_188      6    CAP   H189    189 0.05212000   3.023841   ; qtot -0.416960
  190 em_pop_tetramer_189      6    CAP   H190    190 0.05212000   3.023841   ; qtot -0.364840
  191 em_pop_tetramer_190      6    CAP   H191    191 0.05212000   3.023841   ; qtot -0.312720
  192 em_pop_tetramer_191      6    CAP   H192    192 0.05212000   3.023841   ; qtot -0.260600
  193 em_pop_tetramer_192      6    CAP   H193    193 0.05212000   3.023841   ; qtot -0.208480
  194 em_pop_tetramer_193      6    CAP   H194    194 0.05212000   3.023841   ; qtot -0.156360
  195 em_pop_tetramer_194      6    CAP   H195    195 0.05212000   3.023841   ; qtot -0.104240
  196 em_pop_tetramer_195      6    CAP   H196    196 0.05212000   3.023841   ; qtot -0.052120
  197 em_pop_tetramer_196      6    CAP   H197    197 0.05212000   3.023841   ; qtot -0.000000

[ bonds ]
;    ai     aj funct         c0         c1         c2         c3
      1      2     1   0.12252 487602.327766
      1      3     1   0.14546 233580.248618
      1    178     1   0.13457 252005.673257
      3      4     1   0.13872 301905.092579
      3     25     1   0.13872 301905.092579
      4      5     1   0.13872 301905.092579
      4     26     1   0.10854 332422.631675
      5      6     1   0.13872 301905.092579
      5     27     1   0.10854 332422.631675
      6      7     1   0.14546 233580.248618
      6     24     1   0.13872 301905.092579
      7      8     1   0.13872 301905.092579
      7     14     1   0.13872 301905.092579
      8      9     1   0.13872 301905.092579
      8     15     1   0.14546 233580.248618
      9     10     1   0.13872 301905.092579
      9     28     1   0.10854 332422.631675
     10     11     1   0.13629 356218.264001
     10     13     1   0.13872 301905.092579
     11     12     1   0.14259 306888.771877
     12     29     1   0.10929 317186.185379
     12     30     1   0.10929 317186.185379
     12     31     1   0.10929 317186.185379
     13     14     1   0.13872 301905.092579
     13     32     1   0.10854 332422.631675
     14     33     1   0.10854 332422.631675
     15     16     1   0.13872 301905.092579
     15     20     1   0.13872 301905.092579
     16     17     1   0.13872 301905.092579
     16     34     1   0.10854 332422.631675
     17     18     1   0.13872 301905.092579
     17     35     1   0.10854 332422.631675
     18     19     1   0.13872 301905.092579
     18     21     1   0.14986 242452.869388
     19     20     1   0.13872 301905.092579
     19     36     1   0.10854 332422.631675
     20     37     1   0.10854 332422.631675
     21     22     1   0.14501 294600.927776
     21     23     1   0.15219 221435.259290
     21     38     1   0.10929 317186.185379
     22     39     1   0.10195 422704.914414
     22     45     1   0.13819 412347.817359
     23     40     1   0.10929 317186.185379
     23     41     1   0.10929 317186.185379
     23     42     1   0.10929 317186.185379
     24     25     1   0.13872 301905.092579
     24     43     1   0.10854 332422.631675
     25     44     1   0.10854 332422.631675
     45     46     1   0.12252 487602.327766
     45     47     1   0.14546 233580.248618
     47     48     1   0.13872 301905.092579
     47     69     1   0.13872 301905.092579
     48     49     1   0.13872 301905.092579
     48     70     1   0.10854 332422.631675
     49     50     1   0.13872 301905.092579
     49     71     1   0.10854 332422.631675
     50     51     1   0.14546 233580.248618
     50     68     1   0.13872 301905.092579
     51     52     1   0.13872 301905.092579
     51     58     1   0.13872 301905.092579
     52     53     1   0.13872 301905.092579
     52     59     1   0.14546 233580.248618
     53     54     1   0.13872 301905.092579
     53     72     1   0.10854 332422.631675
     54     55     1   0.13629 356218.264001
     54     57     1   0.13872 301905.092579
     55     56     1   0.14259 306888.771877
     56     73     1   0.10929 317186.185379
     56     74     1   0.10929 317186.185379
     56     75     1   0.10929 317186.185379
     57     58     1   0.13872 301905.092579
     57     76     1   0.10854 332422.631675
     58     77     1   0.10854 332422.631675
     59     60     1   0.13872 301905.092579
     59     64     1   0.13872 301905.092579
     60     61     1   0.13872 301905.092579
     60     78     1   0.10854 332422.631675
     61     62     1   0.13872 301905.092579
     61     79     1   0.10854 332422.631675
     62     63     1   0.13872 301905.092579
     62     65     1   0.14986 242452.869388
     63     64     1   0.13872 301905.092579
     63     80     1   0.10854 332422.631675
     64     81     1   0.10854 332422.631675
     65     66     1   0.14501 294600.927776
     65     67     1   0.15219 221435.259290
     65     82     1   0.10929 317186.185379
     66     83     1   0.10195 422704.914414
     66     89     1   0.13819 412347.817359
     67     84     1   0.10929 317186.185379
     67     85     1   0.10929 317186.185379
     67     86     1   0.10929 317186.185379
     68     69     1   0.13872 301905.092579
     68     87     1   0.10854 332422.631675
     69     88     1   0.10854 332422.631675
     89     90     1   0.12252 487602.327766
     89     91     1   0.14546 233580.248618
     91     92     1   0.13872 301905.092579
     91    113     1   0.13872 301905.092579
     92     93     1   0.13872 301905.092579
     92    114     1   0.10854 332422.631675
     93     94     1   0.13872 301905.092579
     93    115     1   0.10854 332422.631675
     94     95     1   0.14546 233580.248618
     94    112     1   0.13872 301905.092579
     95     96     1   0.13872 301905.092579
     95    102     1   0.13872 301905.092579
     96     97     1   0.13872 301905.092579
     96    103     1   0.14546 233580.248618
     97     98     1   0.13872 301905.092579
     97    116     1   0.10854 332422.631675
     98     99     1   0.13629 356218.264001
     98    101     1   0.13872 301905.092579
     99    100     1   0.14259 306888.771877
    100    117     1   0.10929 317186.185379
    100    118     1   0.10929 317186.185379
    100    119     1   0.10929 317186.185379
    101    102     1   0.13872 301905.092579
    101    120     1   0.10854 332422.631675
    102    121     1   0.10854 332422.631675
    103    104     1   0.13872 301905.092579
    103    108     1   0.13872 301905.092579
    104    105     1   0.13872 301905.092579
    104    122     1   0.10854 332422.631675
    105    106     1   0.13872 301905.092579
    105    123     1   0.10854 332422.631675
    106    107     1   0.13872 301905.092579
    106    109     1   0.14986 242452.869388
    107    108     1   0.13872 301905.092579
    107    124     1   0.10854 332422.631675
    108    125     1   0.10854 332422.631675
    109    110     1   0.14501 294600.927776
    109    111     1   0.15219 221435.259290
    109    126     1   0.10929 317186.185379
    110    127     1   0.10195 422704.914414
    110    133     1   0.13819 412347.817359
    111    128     1   0.10929 317186.185379
    111    129     1   0.10929 317186.185379
    111    130     1   0.10929 317186.185379
    112    113     1   0.13872 301905.092579
    112    131     1   0.10854 332422.631675
    113    132     1   0.10854 332422.631675
    133    134     1   0.12252 487602.327766
    133    135     1   0.14546 233580.248618
    135    136     1   0.13872 301905.092579
    135    157     1   0.13872 301905.092579
    136    137     1   0.13872 301905.092579
    136    158     1   0.10854 332422.631675
    137    138     1   0.13872 301905.092579
    137    159     1   0.10854 332422.631675
    138    139     1   0.14546 233580.248618
    138    156     1   0.13872 301905.092579
    139    140     1   0.13872 301905.092579
    139    146     1   0.13872 301905.092579
    140    141     1   0.13872 301905.092579
    140    147     1   0.14546 233580.248618
    141    142     1   0.13872 301905.092579
    141    160     1   0.10854 332422.631675
    142    143     1   0.13629 356218.264001
    142    145     1   0.13872 301905.092579
    143    144     1   0.14259 306888.771877
    144    161     1   0.10929 317186.185379
    144    162     1   0.10929 317186.185379
    144    163     1   0.10929 317186.185379
    145    146     1   0.13872 301905.092579
    145    164     1   0.10854 332422.631675
    146    165     1   0.10854 332422.631675
    147    148     1   0.13872 301905.092579
    147    152     1   0.13872 301905.092579
    148    149     1   0.13872 301905.092579
    148    166     1   0.10854 332422.631675
    149    150     1   0.13872 301905.092579
    149    167     1   0.10854 332422.631675
    150    151     1   0.13872 301905.092579
    150    153     1   0.14986 242452.869388
    151    152     1   0.13872 301905.092579
    151    168     1   0.10854 332422.631675
    152    169     1   0.10854 332422.631675
    153    154     1   0.14501 294600.927776
    153    155     1   0.15219 221435.259290
    153    170     1   0.10929 317186.185379
    154    171     1   0.10195 422704.914414
    154    187     1   0.13819 412347.817359
    155    172     1   0.10929 317186.185379
    155    173     1   0.10929 317186.185379
    155    174     1   0.10929 317186.185379
    156    157     1   0.13872 301905.092579
    156    175     1   0.10854 332422.631675
    157    176     1   0.10854 332422.631675
    177    178     1   0.14259 306888.771877
    177    179     1   0.10929 317186.185379
    177    180     1   0.10929 317186.185379
    177    181     1   0.10929 317186.185379
    182    183     1   0.15219 221435.259290
    182    189     1   0.10929 317186.185379
    182    190     1   0.10929 317186.185379
    182    191     1   0.10929 317186.185379
    183    184     1   0.15219 221435.259290
    183    185     1   0.15219 221435.259290
    183    186     1   0.14259 306888.771877
    184    192     1   0.10929 317186.185379
    184    193     1   0.10929 317186.185379
    184    194     1   0.10929 317186.185379
    185    195     1   0.10929 317186.185379
    185    196     1   0.10929 317186.185379
    185    197     1   0.10929 317186.185379
    186    187     1   0.13457 252005.673257
    187    188     1   0.12252 487602.327766

[ pairs ]
;    ai     aj funct         c0         c1         c2         c3
    141    146     1
      9     16     1
     58     59     1
    186    194     1
    153    186     1
    127    134     1
     52     68     1
    142    147     1
     95    113     1
     91    115     1
    184    195     1
    183    188     1
    139    142     1
     47     87     1
      3    177     1
     18     39     1
     98    121     1
     46     69     1
     11     28     1
     43     44     1
    106    130     1
    166    167     1
    140    145     1
      4      7     1
     36     37     1
    107    111     1
    184    191     1
     65     90     1
     15     18     1
     49     52     1
     59     62     1
      8     37     1
    104    125     1
    126    129     1
    136    176     1
    138    158     1
    105    110     1
    122    123     1
     51     72     1
     52     55     1
     91     94     1
     95     98     1
      5      8     1
     50     59     1
    126    128     1
    137    146     1
     54     74     1
     11     14     1
     83     91     1
     92    112     1
    126    127     1
    157    158     1
     94    132     1
    137    157     1
     93    113     1
     53     60     1
    182    194     1
      7     16     1
    114    115     1
     17     36     1
     87     88     1
     38     40     1
     50     88     1
     62     89     1
     39     47     1
     93    102     1
     97    104     1
    139    164     1
    186    197     1
     48     88     1
    185    189     1
    137    175     1
     62     84     1
     16     19     1
     61     66     1
    106    133     1
      4    178     1
     17     22     1
     62     78     1
     11     32     1
     49     87     1
    105    108     1
     67     83     1
    171    188     1
     63     67     1
    146    147     1
     34     35     1
     54     75     1
    155    171     1
    170    171     1
     89    132     1
    182    195     1
    186    196     1
    140    151     1
     94    103     1
    143    164     1
    154    173     1
     80     81     1
     96    101     1
    142    163     1
     58     68     1
     19     38     1
     62     85     1
     51     60     1
     53     56     1
     76     77     1
     92    132     1
     18     37     1
     91    131     1
     51     71     1
     65     91     1
     94    114     1
     61     64     1
      8     19     1
     96    125     1
     70     71     1
     52     57     1
    111    133     1
     38     45     1
     97    102     1
     95    120     1
     21     47     1
    105    126     1
    139    148     1
     20     21     1
    135    159     1
    153    188     1
    110    130     1
     64     65     1
     51     87     1
     52     81     1
     60     63     1
    186    189     1
     82     89     1
    124    125     1
     13     28     1
     52     77     1
    170    173     1
     95    108     1
     14     24     1
     96    112     1
    139    152     1
      9     20     1
     82     84     1
    104    107     1
     83     90     1
     18     40     1
     23     39     1
     38     42     1
    120    121     1
     12     13     1
     63     66     1
     95    116     1
     96     99     1
    141    152     1
      1      5     1
     90    113     1
    154    172     1
     90     92     1
     48     68     1
    133    156     1
    103    123     1
    147    150     1
     82     85     1
    184    190     1
     10     29     1
    133    158     1
    107    110     1
    152    166     1
      1    179     1
    110    157     1
     97    100     1
    150    171     1
    148    169     1
     10     30     1
     65     79     1
     96    122     1
     55     58     1
     15     36     1
     61     67     1
     19     22     1
     50     53     1
      3     43     1
    127    135     1
    133    137     1
     92     95     1
     63     79     1
      3     27     1
     18     45     1
    140    156     1
    147    160     1
    139    159     1
     66     84     1
     68     71     1
    131    132     1
    147    168     1
      3      6     1
      9     14     1
    106    129     1
    186    192     1
    139    175     1
     47     50     1
    100    101     1
     55     72     1
    140    143     1
      7     20     1
     66     85     1
    158    159     1
      8     34     1
    139    160     1
     18     42     1
      7     25     1
    106    128     1
    150    173     1
     96    107     1
     94    121     1
      7     28     1
      9     32     1
    106    127     1
     60     65     1
    150    187     1
     53     76     1
    143    160     1
    134    157     1
    186    191     1
      4     24     1
    185    193     1
    184    196     1
     51     54     1
    175    176     1
    149    155     1
     19     35     1
     97    108     1
     78     79     1
    107    126     1
    141    164     1
     98    117     1
     15     35     1
    154    174     1
     16     21     1
      5     25     1
     95    115     1
    150    166     1
     59     80     1
     50     57     1
     49     69     1
      2     25     1
    111    127     1
    109    135     1
     22     48     1
    103    124     1
     32     33     1
    185    187     1
     51     76     1
     17     20     1
     98    118     1
     25    178     1
     45     88     1
     17     23     1
    146    156     1
    144    145     1
     50     77     1
    150    172     1
     52     63     1
     62     83     1
    184    189     1
     22     40     1
    110    136     1
     48     51     1
     99    102     1
     18     34     1
    153    167     1
     39     46     1
    103    106     1
      7     32     1
    138    176     1
      8     17     1
    186    193     1
      9     12     1
    141    148     1
     38     39     1
    149    168     1
    170    174     1
      8     24     1
    142    161     1
    136    156     1
      5     14     1
      6      9     1
    135    175     1
     38     41     1
    142    162     1
    182    197     1
     51     69     1
    149    170     1
    185    192     1
    145    160     1
      2      4     1
    147    167     1
     53     64     1
     10     15     1
     24     27     1
    155    187     1
    170    187     1
    171    186     1
     54     77     1
    182    196     1
    102    112     1
     50     70     1
     23     45     1
     63     82     1
      6     15     1
     57     72     1
    138    165     1
    148    151     1
    110    128     1
    153    168     1
    109    123     1
     89     93     1
    185    191     1
      1     24     1
    150    169     1
     47     71     1
     96    121     1
     51     64     1
     45     68     1
     46     48     1
     95    131     1
     16     37     1
      6     26     1
    136    139     1
     22     42     1
    139    157     1
     45     70     1
    182    193     1
    170    172     1
      7     43     1
    138    147     1
    140    166     1
     52     61     1
    143    146     1
      4     44     1
      7     27     1
      7     10     1
    101    116     1
    186    190     1
    126    130     1
     19     23     1
     18     41     1
    105    124     1
    186    195     1
    138    145     1
    150    174     1
     62     86     1
    108    122     1
     26     27     1
    182    187     1
      1     26     1
    184    197     1
    141    144     1
     15     28     1
    107    123     1
     97    120     1
    102    103     1
     99    120     1
     59     79     1
     65     80     1
    168    169     1
     67     89     1
      2    177     1
      5     43     1
    148    153     1
     89    112     1
     98    103     1
    151    155     1
    149    152     1
     62     81     1
     54     73     1
     20     34     1
    151    167     1
     93    131     1
     64     78     1
    133    176     1
    164    165     1
     99    116     1
    108    109     1
     61     82     1
     93     96     1
      8     11     1
    105    111     1
     56     57     1
     55     76     1
    182    192     1
      1    180     1
     59     72     1
    126    133     1
    109    134     1
     21     36     1
    138    141     1
      6     44     1
     96    105     1
     82     86     1
     22     69     1
    106    125     1
     54     59     1
    109    124     1
    140    169     1
     66    113     1
    151    154     1
     66     92     1
    149    154     1
     69     70     1
     10     31     1
      8     33     1
    185    194     1
     10     33     1
    156    159     1
     25     26     1
    184    187     1
      1     44     1
      8     13     1
    151    170     1
     98    119     1
    185    190     1
      6     33     1
    113    114     1
    152    153     1
    110    129     1
    112    115     1
    104    109     1
     49     58     1
      6     13     1
     95    104     1
     89    114     1
     94    101     1
    140    165     1
     52     78     1
    142    165     1
    103    116     1
    137    140     1
     53     58     1
     66     86     1
     21     46     1
    140    149     1
      1    181     1
     61     80     1
    154    183     1
     60     81     1
     82     83     1
    106    122     1
     14     15     1
     21     35     1
     45     49     1
     94     97     1
    134    136     1
    135    138     1
     22     41     1
     17     38     1

[ angles ]
;    ai     aj     ak funct         c0         c1         c2         c3
      1      3      4     1   126.8062420 484.492885
      1      3     25     1   126.8062420 484.492885
      1    178    177     1   110.3538806 544.678275
      2      1      3     1   126.8062420 484.492885
      2      1    178     1   127.4691416 1685.413543
      3      1    178     1   126.8062420 484.492885
      3      4      5     1   126.8062420 484.492885
      3      4     26     1   129.1835930 285.070775
      3     25     24     1   126.8062420 484.492885
      3     25     44     1   129.1835930 285.070775
      4      3     25     1   126.8062420 484.492885
      4      5      6     1   126.8062420 484.492885
      4      5     27     1   129.1835930 285.070775
      5      4     26     1   129.1835930 285.070775
      5      6      7     1   126.8062420 484.492885
      5      6     24     1   126.8062420 484.492885
      6      5     27     1   129.1835930 285.070775
      6      7      8     1   126.8062420 484.492885
      6      7     14     1   126.8062420 484.492885
      6     24     25     1   126.8062420 484.492885
      6     24     43     1   129.1835930 285.070775
      7      6     24     1   126.8062420 484.492885
      7      8      9     1   126.8062420 484.492885
      7      8     15     1   126.8062420 484.492885
      7     14     13     1   126.8062420 484.492885
      7     14     33     1   129.1835930 285.070775
      8      7     14     1   126.8062420 484.492885
      8      9     10     1   126.8062420 484.492885
      8      9     28     1   129.1835930 285.070775
      8     15     16     1   126.8062420 484.492885
      8     15     20     1   126.8062420 484.492885
      9      8     15     1   126.8062420 484.492885
      9     10     11     1   126.8062420 484.492885
      9     10     13     1   126.8062420 484.492885
     10      9     28     1   129.1835930 285.070775
     10     11     12     1   110.3538806 544.678275
     10     13     14     1   126.8062420 484.492885
     10     13     32     1   129.1835930 285.070775
     11     10     13     1   126.8062420 484.492885
     11     12     29     1   107.6607822 425.669015
     11     12     30     1   107.6607822 425.669015
     11     12     31     1   107.6607822 425.669015
     13     14     33     1   129.1835930 285.070775
     14     13     32     1   129.1835930 285.070775
     15     16     17     1   126.8062420 484.492885
     15     16     34     1   129.1835930 285.070775
     15     20     19     1   126.8062420 484.492885
     15     20     37     1   129.1835930 285.070775
     16     15     20     1   126.8062420 484.492885
     16     17     18     1   126.8062420 484.492885
     16     17     35     1   129.1835930 285.070775
     17     16     34     1   129.1835930 285.070775
     17     18     19     1   126.8062420 484.492885
     17     18     21     1   126.8062420 484.492885
     18     17     35     1   129.1835930 285.070775
     18     19     20     1   126.8062420 484.492885
     18     19     36     1   129.1835930 285.070775
     18     21     22     1   107.6607822 425.669015
     18     21     23     1   107.6607822 425.669015
     18     21     38     1   107.6607822 425.669015
     19     18     21     1   126.8062420 484.492885
     19     20     37     1   129.1835930 285.070775
     20     19     36     1   129.1835930 285.070775
     21     22     39     1   115.5071328 530.901283
     21     22     45     1   117.3465571 463.769802
     21     23     40     1   107.6607822 425.669015
     21     23     41     1   107.6607822 425.669015
     21     23     42     1   107.6607822 425.669015
     22     21     23     1   107.6607822 425.669015
     22     21     38     1   107.6607822 425.669015
     22     45     46     1   126.8062420 484.492885
     22     45     47     1   126.8062420 484.492885
     23     21     38     1   107.6607822 425.669015
     24     25     44     1   129.1835930 285.070775
     25     24     43     1   129.1835930 285.070775
     29     12     30     1   115.6031000 408.161690
     29     12     31     1   115.6031000 408.161690
     30     12     31     1   115.6031000 408.161690
     39     22     45     1   115.5071328 530.901283
     40     23     41     1   115.6031000 408.161690
     40     23     42     1   115.6031000 408.161690
     41     23     42     1   115.6031000 408.161690
     45     47     48     1   126.8062420 484.492885
     45     47     69     1   126.8062420 484.492885
     46     45     47     1   126.8062420 484.492885
     47     48     49     1   126.8062420 484.492885
     47     48     70     1   129.1835930 285.070775
     47     69     68     1   126.8062420 484.492885
     47     69     88     1   129.1835930 285.070775
     48     47     69     1   126.8062420 484.492885
     48     49     50     1   126.8062420 484.492885
     48     49     71     1   129.1835930 285.070775
     49     48     70     1   129.1835930 285.070775
     49     50     51     1   126.8062420 484.492885
     49     50     68     1   126.8062420 484.492885
     50     49     71     1   129.1835930 285.070775
     50     51     52     1   126.8062420 484.492885
     50     51     58     1   126.8062420 484.492885
     50     68     69     1   126.8062420 484.492885
     50     68     87     1   129.1835930 285.070775
     51     50     68     1   126.8062420 484.492885
     51     52     53     1   126.8062420 484.492885
     51     52     59     1   126.8062420 484.492885
     51     58     57     1   126.8062420 484.492885
     51     58     77     1   129.1835930 285.070775
     52     51     58     1   126.8062420 484.492885
     52     53     54     1   126.8062420 484.492885
     52     53     72     1   129.1835930 285.070775
     52     59     60     1   126.8062420 484.492885
     52     59     64     1   126.8062420 484.492885
     53     52     59     1   126.8062420 484.492885
     53     54     55     1   126.8062420 484.492885
     53     54     57     1   126.8062420 484.492885
     54     53     72     1   129.1835930 285.070775
     54     55     56     1   110.3538806 544.678275
     54     57     58     1   126.8062420 484.492885
     54     57     76     1   129.1835930 285.070775
     55     54     57     1   126.8062420 484.492885
     55     56     73     1   107.6607822 425.669015
     55     56     74     1   107.6607822 425.669015
     55     56     75     1   107.6607822 425.669015
     57     58     77     1   129.1835930 285.070775
     58     57     76     1   129.1835930 285.070775
     59     60     61     1   126.8062420 484.492885
     59     60     78     1   129.1835930 285.070775
     59     64     63     1   126.8062420 484.492885
     59     64     81     1   129.1835930 285.070775
     60     59     64     1   126.8062420 484.492885
     60     61     62     1   126.8062420 484.492885
     60     61     79     1   129.1835930 285.070775
     61     60     78     1   129.1835930 285.070775
     61     62     63     1   126.8062420 484.492885
     61     62     65     1   126.8062420 484.492885
     62     61     79     1   129.1835930 285.070775
     62     63     64     1   126.8062420 484.492885
     62     63     80     1   129.1835930 285.070775
     62     65     66     1   107.6607822 425.669015
     62     65     67     1   107.6607822 425.669015
     62     65     82     1   107.6607822 425.669015
     63     62     65     1   126.8062420 484.492885
     63     64     81     1   129.1835930 285.070775
     64     63     80     1   129.1835930 285.070775
     65     66     83     1   115.5071328 530.901283
     65     66     89     1   117.3465571 463.769802
     65     67     84     1   107.6607822 425.669015
     65     67     85     1   107.6607822 425.669015
     65     67     86     1   107.6607822 425.669015
     66     65     67     1   107.6607822 425.669015
     66     65     82     1   107.6607822 425.669015
     66     89     90     1   126.8062420 484.492885
     66     89     91     1   126.8062420 484.492885
     67     65     82     1   107.6607822 425.669015
     68     69     88     1   129.1835930 285.070775
     69     68     87     1   129.1835930 285.070775
     73     56     74     1   115.6031000 408.161690
     73     56     75     1   115.6031000 408.161690
     74     56     75     1   115.6031000 408.161690
     83     66     89     1   115.5071328 530.901283
     84     67     85     1   115.6031000 408.161690
     84     67     86     1   115.6031000 408.161690
     85     67     86     1   115.6031000 408.161690
     89     91     92     1   126.8062420 484.492885
     89     91    113     1   126.8062420 484.492885
     90     89     91     1   126.8062420 484.492885
     91     92     93     1   126.8062420 484.492885
     91     92    114     1   129.1835930 285.070775
     91    113    112     1   126.8062420 484.492885
     91    113    132     1   129.1835930 285.070775
     92     91    113     1   126.8062420 484.492885
     92     93     94     1   126.8062420 484.492885
     92     93    115     1   129.1835930 285.070775
     93     92    114     1   129.1835930 285.070775
     93     94     95     1   126.8062420 484.492885
     93     94    112     1   126.8062420 484.492885
     94     93    115     1   129.1835930 285.070775
     94     95     96     1   126.8062420 484.492885
     94     95    102     1   126.8062420 484.492885
     94    112    113     1   126.8062420 484.492885
     94    112    131     1   129.1835930 285.070775
     95     94    112     1   126.8062420 484.492885
     95     96     97     1   126.8062420 484.492885
     95     96    103     1   126.8062420 484.492885
     95    102    101     1   126.8062420 484.492885
     95    102    121     1   129.1835930 285.070775
     96     95    102     1   126.8062420 484.492885
     96     97     98     1   126.8062420 484.492885
     96     97    116     1   129.1835930 285.070775
     96    103    104     1   126.8062420 484.492885
     96    103    108     1   126.8062420 484.492885
     97     96    103     1   126.8062420 484.492885
     97     98     99     1   126.8062420 484.492885
     97     98    101     1   126.8062420 484.492885
     98     97    116     1   129.1835930 285.070775
     98     99    100     1   110.3538806 544.678275
     98    101    102     1   126.8062420 484.492885
     98    101    120     1   129.1835930 285.070775
     99     98    101     1   126.8062420 484.492885
     99    100    117     1   107.6607822 425.669015
     99    100    118     1   107.6607822 425.669015
     99    100    119     1   107.6607822 425.669015
    101    102    121     1   129.1835930 285.070775
    102    101    120     1   129.1835930 285.070775
    103    104    105     1   126.8062420 484.492885
    103    104    122     1   129.1835930 285.070775
    103    108    107     1   126.8062420 484.492885
    103    108    125     1   129.1835930 285.070775
    104    103    108     1   126.8062420 484.492885
    104    105    106     1   126.8062420 484.492885
    104    105    123     1   129.1835930 285.070775
    105    104    122     1   129.1835930 285.070775
    105    106    107     1   126.8062420 484.492885
    105    106    109     1   126.8062420 484.492885
    106    105    123     1   129.1835930 285.070775
    106    107    108     1   126.8062420 484.492885
    106    107    124     1   129.1835930 285.070775
    106    109    110     1   107.6607822 425.669015
    106    109    111     1   107.6607822 425.669015
    106    109    126     1   107.6607822 425.669015
    107    106    109     1   126.8062420 484.492885
    107    108    125     1   129.1835930 285.070775
    108    107    124     1   129.1835930 285.070775
    109    110    127     1   115.5071328 530.901283
    109    110    133     1   117.3465571 463.769802
    109    111    128     1   107.6607822 425.669015
    109    111    129     1   107.6607822 425.669015
    109    111    130     1   107.6607822 425.669015
    110    109    111     1   107.6607822 425.669015
    110    109    126     1   107.6607822 425.669015
    110    133    134     1   126.8062420 484.492885
    110    133    135     1   126.8062420 484.492885
    111    109    126     1   107.6607822 425.669015
    112    113    132     1   129.1835930 285.070775
    113    112    131     1   129.1835930 285.070775
    117    100    118     1   115.6031000 408.161690
    117    100    119     1   115.6031000 408.161690
    118    100    119     1   115.6031000 408.161690
    127    110    133     1   115.5071328 530.901283
    128    111    129     1   115.6031000 408.161690
    128    111    130     1   115.6031000 408.161690
    129    111    130     1   115.6031000 408.161690
    133    135    136     1   126.8062420 484.492885
    133    135    157     1   126.8062420 484.492885
    134    133    135     1   126.8062420 484.492885
    135    136    137     1   126.8062420 484.492885
    135    136    158     1   129.1835930 285.070775
    135    157    156     1   126.8062420 484.492885
    135    157    176     1   129.1835930 285.070775
    136    135    157     1   126.8062420 484.492885
    136    137    138     1   126.8062420 484.492885
    136    137    159     1   129.1835930 285.070775
    137    136    158     1   129.1835930 285.070775
    137    138    139     1   126.8062420 484.492885
    137    138    156     1   126.8062420 484.492885
    138    137    159     1   129.1835930 285.070775
    138    139    140     1   126.8062420 484.492885
    138    139    146     1   126.8062420 484.492885
    138    156    157     1   126.8062420 484.492885
    138    156    175     1   129.1835930 285.070775
    139    138    156     1   126.8062420 484.492885
    139    140    141     1   126.8062420 484.492885
    139    140    147     1   126.8062420 484.492885
    139    146    145     1   126.8062420 484.492885
    139    146    165     1   129.1835930 285.070775
    140    139    146     1   126.8062420 484.492885
    140    141    142     1   126.8062420 484.492885
    140    141    160     1   129.1835930 285.070775
    140    147    148     1   126.8062420 484.492885
    140    147    152     1   126.8062420 484.492885
    141    140    147     1   126.8062420 484.492885
    141    142    143     1   126.8062420 484.492885
    141    142    145     1   126.8062420 484.492885
    142    141    160     1   129.1835930 285.070775
    142    143    144     1   110.3538806 544.678275
    142    145    146     1   126.8062420 484.492885
    142    145    164     1   129.1835930 285.070775
    143    142    145     1   126.8062420 484.492885
    143    144    161     1   107.6607822 425.669015
    143    144    162     1   107.6607822 425.669015
    143    144    163     1   107.6607822 425.669015
    145    146    165     1   129.1835930 285.070775
    146    145    164     1   129.1835930 285.070775
    147    148    149     1   126.8062420 484.492885
    147    148    166     1   129.1835930 285.070775
    147    152    151     1   126.8062420 484.492885
    147    152    169     1   129.1835930 285.070775
    148    147    152     1   126.8062420 484.492885
    148    149    150     1   126.8062420 484.492885
    148    149    167     1   129.1835930 285.070775
    149    148    166     1   129.1835930 285.070775
    149    150    151     1   126.8062420 484.492885
    149    150    153     1   126.8062420 484.492885
    150    149    167     1   129.1835930 285.070775
    150    151    152     1   126.8062420 484.492885
    150    151    168     1   129.1835930 285.070775
    150    153    154     1   107.6607822 425.669015
    150    153    155     1   107.6607822 425.669015
    150    153    170     1   107.6607822 425.669015
    151    150    153     1   126.8062420 484.492885
    151    152    169     1   129.1835930 285.070775
    152    151    168     1   129.1835930 285.070775
    153    154    171     1   115.5071328 530.901283
    153    154    187     1   117.3465571 463.769802
    153    155    172     1   107.6607822 425.669015
    153    155    173     1   107.6607822 425.669015
    153    155    174     1   107.6607822 425.669015
    154    153    155     1   107.6607822 425.669015
    154    153    170     1   107.6607822 425.669015
    154    187    186     1   126.8062420 484.492885
    154    187    188     1   126.8062420 484.492885
    155    153    170     1   107.6607822 425.669015
    156    157    176     1   129.1835930 285.070775
    157    156    175     1   129.1835930 285.070775
    161    144    162     1   115.6031000 408.161690
    161    144    163     1   115.6031000 408.161690
    162    144    163     1   115.6031000 408.161690
    171    154    187     1   115.5071328 530.901283
    172    155    173     1   115.6031000 408.161690
    172    155    174     1   115.6031000 408.161690
    173    155    174     1   115.6031000 408.161690
    178    177    179     1   107.6607822 425.669015
    178    177    180     1   107.6607822 425.669015
    178    177    181     1   107.6607822 425.669015
    179    177    180     1   115.6031000 408.161690
    179    177    181     1   115.6031000 408.161690
    180    177    181     1   115.6031000 408.161690
    182    183    184     1   107.6607822 425.669015
    182    183    185     1   107.6607822 425.669015
    182    183    186     1   107.6607822 425.669015
    183    182    189     1   107.6607822 425.669015
    183    182    190     1   107.6607822 425.669015
    183    182    191     1   107.6607822 425.669015
    183    184    192     1   107.6607822 425.669015
    183    184    193     1   107.6607822 425.669015
    183    184    194     1   107.6607822 425.669015
    183    185    195     1   107.6607822 425.669015
    183    185    196     1   107.6607822 425.669015
    183    185    197     1   107.6607822 425.669015
    183    186    187     1   110.3538806 544.678275
    184    183    185     1   107.6607822 425.669015
    184    183    186     1   107.6607822 425.669015
    185    183    186     1   107.6607822 425.669015
    186    187    188     1   127.4691416 1685.413543
    189    182    190     1   115.6031000 408.161690
    189    182    191     1   115.6031000 408.161690
    190    182    191     1   115.6031000 408.161690
    192    184    193     1   115.6031000 408.161690
    192    184    194     1   115.6031000 408.161690
    193    184    194     1   115.6031000 408.161690
    195    185    196     1   115.6031000 408.161690
    195    185    197     1   115.6031000 408.161690
    196    185    197     1   115.6031000 408.161690

[ dihedrals ]
;    ai     aj     ak     al funct         c0         c1         c2         c3         c4         c5
      1      3      4      5     1  180.0000000  15.3215155  2
      1      3      4     26     1  180.0000000  15.3215155  2
      1      3     25     24     1  180.0000000  15.3215155  2
      1      3     25     44     1  180.0000000  15.3215155  2
      1    178    177    179     1  0.0000000  0.1982205  3
      1    178    177    180     1  0.0000000  0.1982205  3
      1    178    177    181     1  0.0000000  0.1982205  3
      2      1      3      4     1  180.0000000  4.1731909  2
      2      1      3     25     1  180.0000000  4.1731909  2
      2      1    178    177     1  180.0000000  4.8693776  2
      2      1    178    177     1  180.0000000  0.7025718  1
      3      1    178    177     1  180.0000000  11.6309081  2
      3      4      5      6     1  180.0000000  15.3215155  2
      3      4      5     27     1  180.0000000  15.3215155  2
      3     25     24      6     1  180.0000000  15.3215155  2
      3     25     24     43     1  180.0000000  15.3215155  2
      4      3      1    178     1  180.0000000  4.1731909  2
      4      3     25     24     1  180.0000000  15.3215155  2
      4      3     25     44     1  180.0000000  15.3215155  2
      4      5      6      7     1  180.0000000  15.3215155  2
      4      5      6     24     1  180.0000000  15.3215155  2
      5      4      3     25     1  180.0000000  15.3215155  2
      5      6      7      8     1  180.0000000  4.8669776  2
      5      6      7     14     1  180.0000000  4.8669776  2
      5      6     24     25     1  180.0000000  15.3215155  2
      5      6     24     43     1  180.0000000  15.3215155  2
      6      5      4     26     1  180.0000000  15.3215155  2
      6      7      8      9     1  180.0000000  15.3215155  2
      6      7      8     15     1  180.0000000  15.3215155  2
      6      7     14     13     1  180.0000000  15.3215155  2
      6      7     14     33     1  180.0000000  15.3215155  2
      6     24     25     44     1  180.0000000  15.3215155  2
      7      6      5     27     1  180.0000000  15.3215155  2
      7      6     24     25     1  180.0000000  15.3215155  2
      7      6     24     43     1  180.0000000  15.3215155  2
      7      8      9     10     1  180.0000000  15.3215155  2
      7      8      9     28     1  180.0000000  15.3215155  2
      7      8     15     16     1  180.0000000  4.8669776  2
      7      8     15     20     1  180.0000000  4.8669776  2
      7     14     13     10     1  180.0000000  15.3215155  2
      7     14     13     32     1  180.0000000  15.3215155  2
      8      7      6     24     1  180.0000000  4.8669776  2
      8      7     14     13     1  180.0000000  15.3215155  2
      8      7     14     33     1  180.0000000  15.3215155  2
      8      9     10     11     1  180.0000000  15.3215155  2
      8      9     10     13     1  180.0000000  15.3215155  2
      8     15     16     17     1  180.0000000  15.3215155  2
      8     15     16     34     1  180.0000000  15.3215155  2
      8     15     20     19     1  180.0000000  15.3215155  2
      8     15     20     37     1  180.0000000  15.3215155  2
      9      8      7     14     1  180.0000000  15.3215155  2
      9      8     15     16     1  180.0000000  4.8669776  2
      9      8     15     20     1  180.0000000  4.8669776  2
      9     10     11     12     1  180.0000000  6.4108617  2
      9     10     13     14     1  180.0000000  15.3215155  2
      9     10     13     32     1  180.0000000  15.3215155  2
     10      9      8     15     1  180.0000000  15.3215155  2
     10     11     12     29     1  0.0000000  0.1982205  3
     10     11     12     30     1  0.0000000  0.1982205  3
     10     11     12     31     1  0.0000000  0.1982205  3
     10     13     14     33     1  180.0000000  15.3215155  2
     11     10      9     28     1  180.0000000  15.3215155  2
     11     10     13     14     1  180.0000000  15.3215155  2
     11     10     13     32     1  180.0000000  15.3215155  2
     12     11     10     13     1  180.0000000  6.4108617  2
     13     10      9     28     1  180.0000000  15.3215155  2
     14      7      6     24     1  180.0000000  4.8669776  2
     14      7      8     15     1  180.0000000  15.3215155  2
     15      8      9     28     1  180.0000000  15.3215155  2
     15     16     17     18     1  180.0000000  15.3215155  2
     15     16     17     35     1  180.0000000  15.3215155  2
     15     20     19     18     1  180.0000000  15.3215155  2
     15     20     19     36     1  180.0000000  15.3215155  2
     16     15     20     19     1  180.0000000  15.3215155  2
     16     15     20     37     1  180.0000000  15.3215155  2
     16     17     18     19     1  180.0000000  15.3215155  2
     16     17     18     21     1  180.0000000  15.3215155  2
     17     16     15     20     1  180.0000000  15.3215155  2
     17     18     19     20     1  180.0000000  15.3215155  2
     17     18     19     36     1  180.0000000  15.3215155  2
     17     18     21     22     1  0.0000000  0.1115010  3
     17     18     21     23     1  0.0000000  0.1115010  3
     17     18     21     38     1  0.0000000  0.1115010  3
     18     17     16     34     1  180.0000000  15.3215155  2
     18     19     20     37     1  180.0000000  15.3215155  2
     18     21     22     39     1  0.0000000  0.7624859  2
     18     21     22     39     1  0.0000000  0.1243628  3
     18     21     22     45     1  180.0000000  -2.8834993  2
     18     21     22     45     1  0.0000000  1.1413309  1
     18     21     23     40     1  0.0000000  0.4834079  3
     18     21     23     41     1  0.0000000  0.4834079  3
     18     21     23     42     1  0.0000000  0.4834079  3
     19     18     17     35     1  180.0000000  15.3215155  2
     19     18     21     22     1  0.0000000  0.1115010  3
     19     18     21     23     1  0.0000000  0.1115010  3
     19     18     21     38     1  0.0000000  0.1115010  3
     20     15     16     34     1  180.0000000  15.3215155  2
     20     19     18     21     1  180.0000000  15.3215155  2
     21     18     17     35     1  180.0000000  15.3215155  2
     21     18     19     36     1  180.0000000  15.3215155  2
     21     22     45     46     1  180.0000000  12.9785537  2
     21     22     45     46     1  0.0000000  -1.7791009  1
     21     22     45     47     1  180.0000000  7.5690543  2
     21     22     45     47     1  0.0000000  -0.2015131  1
     22     21     23     40     1  0.0000000  0.4834079  3
     22     21     23     41     1  0.0000000  0.4834079  3
     22     21     23     42     1  0.0000000  0.4834079  3
     22     45     47     48     1  180.0000000  4.1731909  2
     22     45     47     69     1  180.0000000  4.1731909  2
     23     21     22     39     1  0.0000000  0.7624859  2
     23     21     22     39     1  0.0000000  0.1243628  3
     23     21     22     45     1  180.0000000  -0.6228629  4
     23     21     22     45     1  180.0000000  -0.5147696  3
     23     21     22     45     1  0.0000000  1.2298012  2
     23     21     22     45     1  0.0000000  -1.2652947  1
     24      6      5     27     1  180.0000000  15.3215155  2
     25      3      1    178     1  180.0000000  4.1731909  2
     25      3      4     26     1  180.0000000  15.3215155  2
     26      4      5     27     1  180.0000000  15.3215155  2
     32     13     14     33     1  180.0000000  15.3215155  2
     34     16     17     35     1  180.0000000  15.3215155  2
     36     19     20     37     1  180.0000000  15.3215155  2
     38     21     22     39     1  0.0000000  0.7624859  2
     38     21     22     39     1  0.0000000  0.1243628  3
     38     21     22     45     1  0.0000000  0.7624859  2
     38     21     22     45     1  0.0000000  0.1243628  3
     38     21     23     40     1  0.0000000  0.7999501  3
     38     21     23     41     1  0.0000000  0.7999501  3
     38     21     23     42     1  0.0000000  0.7999501  3
     39     22     45     46     1  180.0000000  9.8256037  2
     39     22     45     46     1  0.0000000  5.2557574  1
     39     22     45     47     1  180.0000000  7.5690543  2
     39     22     45     47     1  0.0000000  -0.2015131  1
     43     24     25     44     1  180.0000000  15.3215155  2
     45     47     48     49     1  180.0000000  15.3215155  2
     45     47     48     70     1  180.0000000  15.3215155  2
     45     47     69     68     1  180.0000000  15.3215155  2
     45     47     69     88     1  180.0000000  15.3215155  2
     46     45     47     48     1  180.0000000  4.1731909  2
     46     45     47     69     1  180.0000000  4.1731909  2
     47     48     49     50     1  180.0000000  15.3215155  2
     47     48     49     71     1  180.0000000  15.3215155  2
     47     69     68     50     1  180.0000000  15.3215155  2
     47     69     68     87     1  180.0000000  15.3215155  2
     48     47     69     68     1  180.0000000  15.3215155  2
     48     47     69     88     1  180.0000000  15.3215155  2
     48     49     50     51     1  180.0000000  15.3215155  2
     48     49     50     68     1  180.0000000  15.3215155  2
     49     48     47     69     1  180.0000000  15.3215155  2
     49     50     51     52     1  180.0000000  4.8669776  2
     49     50     51     58     1  180.0000000  4.8669776  2
     49     50     68     69     1  180.0000000  15.3215155  2
     49     50     68     87     1  180.0000000  15.3215155  2
     50     49     48     70     1  180.0000000  15.3215155  2
     50     51     52     53     1  180.0000000  15.3215155  2
     50     51     52     59     1  180.0000000  15.3215155  2
     50     51     58     57     1  180.0000000  15.3215155  2
     50     51     58     77     1  180.0000000  15.3215155  2
     50     68     69     88     1  180.0000000  15.3215155  2
     51     50     49     71     1  180.0000000  15.3215155  2
     51     50     68     69     1  180.0000000  15.3215155  2
     51     50     68     87     1  180.0000000  15.3215155  2
     51     52     53     54     1  180.0000000  15.3215155  2
     51     52     53     72     1  180.0000000  15.3215155  2
     51     52     59     60     1  180.0000000  4.8669776  2
     51     52     59     64     1  180.0000000  4.8669776  2
     51     58     57     54     1  180.0000000  15.3215155  2
     51     58     57     76     1  180.0000000  15.3215155  2
     52     51     50     68     1  180.0000000  4.8669776  2
     52     51     58     57     1  180.0000000  15.3215155  2
     52     51     58     77     1  180.0000000  15.3215155  2
     52     53     54     55     1  180.0000000  15.3215155  2
     52     53     54     57     1  180.0000000  15.3215155  2
     52     59     60     61     1  180.0000000  15.3215155  2
     52     59     60     78     1  180.0000000  15.3215155  2
     52     59     64     63     1  180.0000000  15.3215155  2
     52     59     64     81     1  180.0000000  15.3215155  2
     53     52     51     58     1  180.0000000  15.3215155  2
     53     52     59     60     1  180.0000000  4.8669776  2
     53     52     59     64     1  180.0000000  4.8669776  2
     53     54     55     56     1  180.0000000  6.4108617  2
     53     54     57     58     1  180.0000000  15.3215155  2
     53     54     57     76     1  180.0000000  15.3215155  2
     54     53     52     59     1  180.0000000  15.3215155  2
     54     55     56     73     1  0.0000000  0.1982205  3
     54     55     56     74     1  0.0000000  0.1982205  3
     54     55     56     75     1  0.0000000  0.1982205  3
     54     57     58     77     1  180.0000000  15.3215155  2
     55     54     53     72     1  180.0000000  15.3215155  2
     55     54     57     58     1  180.0000000  15.3215155  2
     55     54     57     76     1  180.0000000  15.3215155  2
     56     55     54     57     1  180.0000000  6.4108617  2
     57     54     53     72     1  180.0000000  15.3215155  2
     58     51     50     68     1  180.0000000  4.8669776  2
     58     51     52     59     1  180.0000000  15.3215155  2
     59     52     53     72     1  180.0000000  15.3215155  2
     59     60     61     62     1  180.0000000  15.3215155  2
     59     60     61     79     1  180.0000000  15.3215155  2
     59     64     63     62     1  180.0000000  15.3215155  2
     59     64     63     80     1  180.0000000  15.3215155  2
     60     59     64     63     1  180.0000000  15.3215155  2
     60     59     64     81     1  180.0000000  15.3215155  2
     60     61     62     63     1  180.0000000  15.3215155  2
     60     61     62     65     1  180.0000000  15.3215155  2
     61     60     59     64     1  180.0000000  15.3215155  2
     61     62     63     64     1  180.0000000  15.3215155  2
     61     62     63     80     1  180.0000000  15.3215155  2
     61     62     65     66     1  0.0000000  0.1115010  3
     61     62     65     67     1  0.0000000  0.1115010  3
     61     62     65     82     1  0.0000000  0.1115010  3
     62     61     60     78     1  180.0000000  15.3215155  2
     62     63     64     81     1  180.0000000  15.3215155  2
     62     65     66     83     1  0.0000000  0.7624859  2
     62     65     66     83     1  0.0000000  0.1243628  3
     62     65     66     89     1  180.0000000  -2.8834993  2
     62     65     66     89     1  0.0000000  1.1413309  1
     62     65     67     84     1  0.0000000  0.4834079  3
     62     65     67     85     1  0.0000000  0.4834079  3
     62     65     67     86     1  0.0000000  0.4834079  3
     63     62     61     79     1  180.0000000  15.3215155  2
     63     62     65     66     1  0.0000000  0.1115010  3
     63     62     65     67     1  0.0000000  0.1115010  3
     63     62     65     82     1  0.0000000  0.1115010  3
     64     59     60     78     1  180.0000000  15.3215155  2
     64     63     62     65     1  180.0000000  15.3215155  2
     65     62     61     79     1  180.0000000  15.3215155  2
     65     62     63     80     1  180.0000000  15.3215155  2
     65     66     89     90     1  180.0000000  12.9785537  2
     65     66     89     90     1  0.0000000  -1.7791009  1
     65     66     89     91     1  180.0000000  7.5690543  2
     65     66     89     91     1  0.0000000  -0.2015131  1
     66     65     67     84     1  0.0000000  0.4834079  3
     66     65     67     85     1  0.0000000  0.4834079  3
     66     65     67     86     1  0.0000000  0.4834079  3
     66     89     91     92     1  180.0000000  4.1731909  2
     66     89     91    113     1  180.0000000  4.1731909  2
     67     65     66     83     1  0.0000000  0.7624859  2
     67     65     66     83     1  0.0000000  0.1243628  3
     67     65     66     89     1  180.0000000  -0.6228629  4
     67     65     66     89     1  180.0000000  -0.5147696  3
     67     65     66     89     1  0.0000000  1.2298012  2
     67     65     66     89     1  0.0000000  -1.2652947  1
     68     50     49     71     1  180.0000000  15.3215155  2
     69     47     48     70     1  180.0000000  15.3215155  2
     70     48     49     71     1  180.0000000  15.3215155  2
     76     57     58     77     1  180.0000000  15.3215155  2
     78     60     61     79     1  180.0000000  15.3215155  2
     80     63     64     81     1  180.0000000  15.3215155  2
     82     65     66     83     1  0.0000000  0.7624859  2
     82     65     66     83     1  0.0000000  0.1243628  3
     82     65     66     89     1  0.0000000  0.7624859  2
     82     65     66     89     1  0.0000000  0.1243628  3
     82     65     67     84     1  0.0000000  0.7999501  3
     82     65     67     85     1  0.0000000  0.7999501  3
     82     65     67     86     1  0.0000000  0.7999501  3
     83     66     89     90     1  180.0000000  9.8256037  2
     83     66     89     90     1  0.0000000  5.2557574  1
     83     66     89     91     1  180.0000000  7.5690543  2
     83     66     89     91     1  0.0000000  -0.2015131  1
     87     68     69     88     1  180.0000000  15.3215155  2
     89     91     92     93     1  180.0000000  15.3215155  2
     89     91     92    114     1  180.0000000  15.3215155  2
     89     91    113    112     1  180.0000000  15.3215155  2
     89     91    113    132     1  180.0000000  15.3215155  2
     90     89     91     92     1  180.0000000  4.1731909  2
     90     89     91    113     1  180.0000000  4.1731909  2
     91     92     93     94     1  180.0000000  15.3215155  2
     91     92     93    115     1  180.0000000  15.3215155  2
     91    113    112     94     1  180.0000000  15.3215155  2
     91    113    112    131     1  180.0000000  15.3215155  2
     92     91    113    112     1  180.0000000  15.3215155  2
     92     91    113    132     1  180.0000000  15.3215155  2
     92     93     94     95     1  180.0000000  15.3215155  2
     92     93     94    112     1  180.0000000  15.3215155  2
     93     92     91    113     1  180.0000000  15.3215155  2
     93     94     95     96     1  180.0000000  4.8669776  2
     93     94     95    102     1  180.0000000  4.8669776  2
     93     94    112    113     1  180.0000000  15.3215155  2
     93     94    112    131     1  180.0000000  15.3215155  2
     94     93     92    114     1  180.0000000  15.3215155  2
     94     95     96     97     1  180.0000000  15.3215155  2
     94     95     96    103     1  180.0000000  15.3215155  2
     94     95    102    101     1  180.0000000  15.3215155  2
     94     95    102    121     1  180.0000000  15.3215155  2
     94    112    113    132     1  180.0000000  15.3215155  2
     95     94     93    115     1  180.0000000  15.3215155  2
     95     94    112    113     1  180.0000000  15.3215155  2
     95     94    112    131     1  180.0000000  15.3215155  2
     95     96     97     98     1  180.0000000  15.3215155  2
     95     96     97    116     1  180.0000000  15.3215155  2
     95     96    103    104     1  180.0000000  4.8669776  2
     95     96    103    108     1  180.0000000  4.8669776  2
     95    102    101     98     1  180.0000000  15.3215155  2
     95    102    101    120     1  180.0000000  15.3215155  2
     96     95     94    112     1  180.0000000  4.8669776  2
     96     95    102    101     1  180.0000000  15.3215155  2
     96     95    102    121     1  180.0000000  15.3215155  2
     96     97     98     99     1  180.0000000  15.3215155  2
     96     97     98    101     1  180.0000000  15.3215155  2
     96    103    104    105     1  180.0000000  15.3215155  2
     96    103    104    122     1  180.0000000  15.3215155  2
     96    103    108    107     1  180.0000000  15.3215155  2
     96    103    108    125     1  180.0000000  15.3215155  2
     97     96     95    102     1  180.0000000  15.3215155  2
     97     96    103    104     1  180.0000000  4.8669776  2
     97     96    103    108     1  180.0000000  4.8669776  2
     97     98     99    100     1  180.0000000  6.4108617  2
     97     98    101    102     1  180.0000000  15.3215155  2
     97     98    101    120     1  180.0000000  15.3215155  2
     98     97     96    103     1  180.0000000  15.3215155  2
     98     99    100    117     1  0.0000000  0.1982205  3
     98     99    100    118     1  0.0000000  0.1982205  3
     98     99    100    119     1  0.0000000  0.1982205  3
     98    101    102    121     1  180.0000000  15.3215155  2
     99     98     97    116     1  180.0000000  15.3215155  2
     99     98    101    102     1  180.0000000  15.3215155  2
     99     98    101    120     1  180.0000000  15.3215155  2
    100     99     98    101     1  180.0000000  6.4108617  2
    101     98     97    116     1  180.0000000  15.3215155  2
    102     95     94    112     1  180.0000000  4.8669776  2
    102     95     96    103     1  180.0000000  15.3215155  2
    103     96     97    116     1  180.0000000  15.3215155  2
    103    104    105    106     1  180.0000000  15.3215155  2
    103    104    105    123     1  180.0000000  15.3215155  2
    103    108    107    106     1  180.0000000  15.3215155  2
    103    108    107    124     1  180.0000000  15.3215155  2
    104    103    108    107     1  180.0000000  15.3215155  2
    104    103    108    125     1  180.0000000  15.3215155  2
    104    105    106    107     1  180.0000000  15.3215155  2
    104    105    106    109     1  180.0000000  15.3215155  2
    105    104    103    108     1  180.0000000  15.3215155  2
    105    106    107    108     1  180.0000000  15.3215155  2
    105    106    107    124     1  180.0000000  15.3215155  2
    105    106    109    110     1  0.0000000  0.1115010  3
    105    106    109    111     1  0.0000000  0.1115010  3
    105    106    109    126     1  0.0000000  0.1115010  3
    106    105    104    122     1  180.0000000  15.3215155  2
    106    107    108    125     1  180.0000000  15.3215155  2
    106    109    110    127     1  0.0000000  0.7624859  2
    106    109    110    127     1  0.0000000  0.1243628  3
    106    109    110    133     1  180.0000000  -2.8834993  2
    106    109    110    133     1  0.0000000  1.1413309  1
    106    109    111    128     1  0.0000000  0.4834079  3
    106    109    111    129     1  0.0000000  0.4834079  3
    106    109    111    130     1  0.0000000  0.4834079  3
    107    106    105    123     1  180.0000000  15.3215155  2
    107    106    109    110     1  0.0000000  0.1115010  3
    107    106    109    111     1  0.0000000  0.1115010  3
    107    106    109    126     1  0.0000000  0.1115010  3
    108    103    104    122     1  180.0000000  15.3215155  2
    108    107    106    109     1  180.0000000  15.3215155  2
    109    106    105    123     1  180.0000000  15.3215155  2
    109    106    107    124     1  180.0000000  15.3215155  2
    109    110    133    134     1  180.0000000  12.9785537  2
    109    110    133    134     1  0.0000000  -1.7791009  1
    109    110    133    135     1  180.0000000  7.5690543  2
    109    110    133    135     1  0.0000000  -0.2015131  1
    110    109    111    128     1  0.0000000  0.4834079  3
    110    109    111    129     1  0.0000000  0.4834079  3
    110    109    111    130     1  0.0000000  0.4834079  3
    110    133    135    136     1  180.0000000  4.1731909  2
    110    133    135    157     1  180.0000000  4.1731909  2
    111    109    110    127     1  0.0000000  0.7624859  2
    111    109    110    127     1  0.0000000  0.1243628  3
    111    109    110    133     1  180.0000000  -0.6228629  4
    111    109    110    133     1  180.0000000  -0.5147696  3
    111    109    110    133     1  0.0000000  1.2298012  2
    111    109    110    133     1  0.0000000  -1.2652947  1
    112     94     93    115     1  180.0000000  15.3215155  2
    113     91     92    114     1  180.0000000  15.3215155  2
    114     92     93    115     1  180.0000000  15.3215155  2
    120    101    102    121     1  180.0000000  15.3215155  2
    122    104    105    123     1  180.0000000  15.3215155  2
    124    107    108    125     1  180.0000000  15.3215155  2
    126    109    110    127     1  0.0000000  0.7624859  2
    126    109    110    127     1  0.0000000  0.1243628  3
    126    109    110    133     1  0.0000000  0.7624859  2
    126    109    110    133     1  0.0000000  0.1243628  3
    126    109    111    128     1  0.0000000  0.7999501  3
    126    109    111    129     1  0.0000000  0.7999501  3
    126    109    111    130     1  0.0000000  0.7999501  3
    127    110    133    134     1  180.0000000  9.8256037  2
    127    110    133    134     1  0.0000000  5.2557574  1
    127    110    133    135     1  180.0000000  7.5690543  2
    127    110    133    135     1  0.0000000  -0.2015131  1
    131    112    113    132     1  180.0000000  15.3215155  2
    133    135    136    137     1  180.0000000  15.3215155  2
    133    135    136    158     1  180.0000000  15.3215155  2
    133    135    157    156     1  180.0000000  15.3215155  2
    133    135    157    176     1  180.0000000  15.3215155  2
    134    133    135    136     1  180.0000000  4.1731909  2
    134    133    135    157     1  180.0000000  4.1731909  2
    135    136    137    138     1  180.0000000  15.3215155  2
    135    136    137    159     1  180.0000000  15.3215155  2
    135    157    156    138     1  180.0000000  15.3215155  2
    135    157    156    175     1  180.0000000  15.3215155  2
    136    135    157    156     1  180.0000000  15.3215155  2
    136    135    157    176     1  180.0000000  15.3215155  2
    136    137    138    139     1  180.0000000  15.3215155  2
    136    137    138    156     1  180.0000000  15.3215155  2
    137    136    135    157     1  180.0000000  15.3215155  2
    137    138    139    140     1  180.0000000  4.8669776  2
    137    138    139    146     1  180.0000000  4.8669776  2
    137    138    156    157     1  180.0000000  15.3215155  2
    137    138    156    175     1  180.0000000  15.3215155  2
    138    137    136    158     1  180.0000000  15.3215155  2
    138    139    140    141     1  180.0000000  15.3215155  2
    138    139    140    147     1  180.0000000  15.3215155  2
    138    139    146    145     1  180.0000000  15.3215155  2
    138    139    146    165     1  180.0000000  15.3215155  2
    138    156    157    176     1  180.0000000  15.3215155  2
    139    138    137    159     1  180.0000000  15.3215155  2
    139    138    156    157     1  180.0000000  15.3215155  2
    139    138    156    175     1  180.0000000  15.3215155  2
    139    140    141    142     1  180.0000000  15.3215155  2
    139    140    141    160     1  180.0000000  15.3215155  2
    139    140    147    148     1  180.0000000  4.8669776  2
    139    140    147    152     1  180.0000000  4.8669776  2
    139    146    145    142     1  180.0000000  15.3215155  2
    139    146    145    164     1  180.0000000  15.3215155  2
    140    139    138    156     1  180.0000000  4.8669776  2
    140    139    146    145     1  180.0000000  15.3215155  2
    140    139    146    165     1  180.0000000  15.3215155  2
    140    141    142    143     1  180.0000000  15.3215155  2
    140    141    142    145     1  180.0000000  15.3215155  2
    140    147    148    149     1  180.0000000  15.3215155  2
    140    147    148    166     1  180.0000000  15.3215155  2
    140    147    152    151     1  180.0000000  15.3215155  2
    140    147    152    169     1  180.0000000  15.3215155  2
    141    140    139    146     1  180.0000000  15.3215155  2
    141    140    147    148     1  180.0000000  4.8669776  2
    141    140    147    152     1  180.0000000  4.8669776  2
    141    142    143    144     1  180.0000000  6.4108617  2
    141    142    145    146     1  180.0000000  15.3215155  2
    141    142    145    164     1  180.0000000  15.3215155  2
    142    141    140    147     1  180.0000000  15.3215155  2
    142    143    144    161     1  0.0000000  0.1982205  3
    142    143    144    162     1  0.0000000  0.1982205  3
    142    143    144    163     1  0.0000000  0.1982205  3
    142    145    146    165     1  180.0000000  15.3215155  2
    143    142    141    160     1  180.0000000  15.3215155  2
    143    142    145    146     1  180.0000000  15.3215155  2
    143    142    145    164     1  180.0000000  15.3215155  2
    144    143    142    145     1  180.0000000  6.4108617  2
    145    142    141    160     1  180.0000000  15.3215155  2
    146    139    138    156     1  180.0000000  4.8669776  2
    146    139    140    147     1  180.0000000  15.3215155  2
    147    140    141    160     1  180.0000000  15.3215155  2
    147    148    149    150     1  180.0000000  15.3215155  2
    147    148    149    167     1  180.0000000  15.3215155  2
    147    152    151    150     1  180.0000000  15.3215155  2
    147    152    151    168     1  180.0000000  15.3215155  2
    148    147    152    151     1  180.0000000  15.3215155  2
    148    147    152    169     1  180.0000000  15.3215155  2
    148    149    150    151     1  180.0000000  15.3215155  2
    148    149    150    153     1  180.0000000  15.3215155  2
    149    148    147    152     1  180.0000000  15.3215155  2
    149    150    151    152     1  180.0000000  15.3215155  2
    149    150    151    168     1  180.0000000  15.3215155  2
    149    150    153    154     1  0.0000000  0.1115010  3
    149    150    153    155     1  0.0000000  0.1115010  3
    149    150    153    170     1  0.0000000  0.1115010  3
    150    149    148    166     1  180.0000000  15.3215155  2
    150    151    152    169     1  180.0000000  15.3215155  2
    150    153    154    171     1  0.0000000  0.7624859  2
    150    153    154    171     1  0.0000000  0.1243628  3
    150    153    154    187     1  180.0000000  -2.8834993  2
    150    153    154    187     1  0.0000000  1.1413309  1
    150    153    155    172     1  0.0000000  0.4834079  3
    150    153    155    173     1  0.0000000  0.4834079  3
    150    153    155    174     1  0.0000000  0.4834079  3
    151    150    149    167     1  180.0000000  15.3215155  2
    151    150    153    154     1  0.0000000  0.1115010  3
    151    150    153    155     1  0.0000000  0.1115010  3
    151    150    153    170     1  0.0000000  0.1115010  3
    152    147    148    166     1  180.0000000  15.3215155  2
    152    151    150    153     1  180.0000000  15.3215155  2
    153    150    149    167     1  180.0000000  15.3215155  2
    153    150    151    168     1  180.0000000  15.3215155  2
    153    154    187    186     1  180.0000000  7.5690543  2
    153    154    187    186     1  0.0000000  -0.2015131  1
    153    154    187    188     1  180.0000000  7.5690543  2
    153    154    187    188     1  0.0000000  -0.2015131  1
    154    153    155    172     1  0.0000000  0.4834079  3
    154    153    155    173     1  0.0000000  0.4834079  3
    154    153    155    174     1  0.0000000  0.4834079  3
    154    187    186    183     1  180.0000000  11.6309081  2
    155    153    154    171     1  0.0000000  0.7624859  2
    155    153    154    171     1  0.0000000  0.1243628  3
    155    153    154    187     1  180.0000000  -0.6228629  4
    155    153    154    187     1  180.0000000  -0.5147696  3
    155    153    154    187     1  0.0000000  1.2298012  2
    155    153    154    187     1  0.0000000  -1.2652947  1
    156    138    137    159     1  180.0000000  15.3215155  2
    157    135    136    158     1  180.0000000  15.3215155  2
    158    136    137    159     1  180.0000000  15.3215155  2
    164    145    146    165     1  180.0000000  15.3215155  2
    166    148    149    167     1  180.0000000  15.3215155  2
    168    151    152    169     1  180.0000000  15.3215155  2
    170    153    154    171     1  0.0000000  0.7624859  2
    170    153    154    171     1  0.0000000  0.1243628  3
    170    153    154    187     1  0.0000000  0.7624859  2
    170    153    154    187     1  0.0000000  0.1243628  3
    170    153    155    172     1  0.0000000  0.7999501  3
    170    153    155    173     1  0.0000000  0.7999501  3
    170    153    155    174     1  0.0000000  0.7999501  3
    171    154    187    186     1  180.0000000  7.5690543  2
    171    154    187    186     1  0.0000000  -0.2015131  1
    171    154    187    188     1  180.0000000  2.0338395  2
    171    154    187    188     1  0.0000000  3.7308670  1
    175    156    157    176     1  180.0000000  15.3215155  2
    182    183    184    192     1  0.0000000  0.4354138  3
    182    183    184    193     1  0.0000000  0.4354138  3
    182    183    184    194     1  0.0000000  0.4354138  3
    182    183    185    195     1  0.0000000  0.4354138  3
    182    183    185    196     1  0.0000000  0.4354138  3
    182    183    185    197     1  0.0000000  0.4354138  3
    182    183    186    187     1  0.0000000  0.8026052  3
    182    183    186    187     1  180.0000000  3.8501921  1
    183    186    187    188     1  180.0000000  4.8693776  2
    183    186    187    188     1  180.0000000  0.7025718  1
    184    183    182    189     1  0.0000000  0.4354138  3
    184    183    182    190     1  0.0000000  0.4354138  3
    184    183    182    191     1  0.0000000  0.4354138  3
    184    183    185    195     1  0.0000000  0.4354138  3
    184    183    185    196     1  0.0000000  0.4354138  3
    184    183    185    197     1  0.0000000  0.4354138  3
    184    183    186    187     1  0.0000000  0.8026052  3
    184    183    186    187     1  180.0000000  3.8501921  1
    185    183    182    189     1  0.0000000  0.4354138  3
    185    183    182    190     1  0.0000000  0.4354138  3
    185    183    182    191     1  0.0000000  0.4354138  3
    185    183    184    192     1  0.0000000  0.4354138  3
    185    183    184    193     1  0.0000000  0.4354138  3
    185    183    184    194     1  0.0000000  0.4354138  3
    185    183    186    187     1  0.0000000  0.8026052  3
    185    183    186    187     1  180.0000000  3.8501921  1
    186    183    182    189     1  0.0000000  0.4667359  3
    186    183    182    189     1  0.0000000  1.4361539  1
    186    183    182    190     1  0.0000000  0.4667359  3
    186    183    182    190     1  0.0000000  1.4361539  1
    186    183    182    191     1  0.0000000  0.4667359  3
    186    183    182    191     1  0.0000000  1.4361539  1
    186    183    184    192     1  0.0000000  0.4667359  3
    186    183    184    192     1  0.0000000  1.4361539  1
    186    183    184    193     1  0.0000000  0.4667359  3
    186    183    184    193     1  0.0000000  1.4361539  1
    186    183    184    194     1  0.0000000  0.4667359  3
    186    183    184    194     1  0.0000000  1.4361539  1
    186    183    185    195     1  0.0000000  0.4667359  3
    186    183    185    195     1  0.0000000  1.4361539  1
    186    183    185    196     1  0.0000000  0.4667359  3
    186    183    185    196     1  0.0000000  1.4361539  1
    186    183    185    197     1  0.0000000  0.4667359  3
    186    183    185    197     1  0.0000000  1.4361539  1
     58     57     77     51     4  180.0000000  1.5341333  2
    108    103    107    125     4  180.0000000  1.5341333  2
     62     63     65     61     4  180.0000000  1.5341333  2
     15      8     16     20     4  180.0000000  1.5341333  2
     24      6     25     43     4  180.0000000  1.5341333  2
    140    141    147    139     4  180.0000000  1.5341333  2
    139    140    146    138     4  180.0000000  1.5341333  2
    145    146    164    142     4  180.0000000  1.5341333  2
      4     26      3      5     4  180.0000000  1.5341333  2
     15     20      8     16     4  180.0000000  1.5341333  2
    139    138    140    146     4  180.0000000  1.5341333  2
    147    152    140    148     4  180.0000000  1.5341333  2
    106    105    107    109     4  180.0000000  1.5341333  2
    137    136    138    159     4  180.0000000  1.5341333  2
     47     69     45     48     4  180.0000000  1.5341333  2
     54     57     53     55     4  180.0000000  1.5341333  2
     57     76     54     58     4  180.0000000  1.5341333  2
    187    154    186    188     4  180.0000000  14.6440000  2
     25     44      3     24     4  180.0000000  1.5341333  2
     13     10     14     32     4  180.0000000  1.5341333  2
     60     78     59     61     4  180.0000000  1.5341333  2
     89     90     91     66     4  180.0000000  1.5341333  2
    142    145    141    143     4  180.0000000  1.5341333  2
    148    166    147    149     4  180.0000000  1.5341333  2
    137    159    136    138     4  180.0000000  1.5341333  2
    104    122    103    105     4  180.0000000  1.5341333  2
      7      8     14      6     4  180.0000000  1.5341333  2
    135    133    136    157     4  180.0000000  1.5341333  2
    152    147    151    169     4  180.0000000  1.5341333  2
     92     91     93    114     4  180.0000000  1.5341333  2
     98     99    101     97     4  180.0000000  1.5341333  2
     51     52     58     50     4  180.0000000  1.5341333  2
     66     65     83     89     4  180.0000000  1.3946667  2
     14     33      7     13     4  180.0000000  1.5341333  2
    147    140    148    152     4  180.0000000  1.5341333  2
      5      4      6     27     4  180.0000000  1.5341333  2
     54     53     55     57     4  180.0000000  1.5341333  2
      6      5      7     24     4  180.0000000  1.5341333  2
     96     97    103     95     4  180.0000000  1.5341333  2
     18     21     17     19     4  180.0000000  1.5341333  2
     50     49     51     68     4  180.0000000  1.5341333  2
     96     95     97    103     4  180.0000000  1.5341333  2
     52     59     51     53     4  180.0000000  1.5341333  2
    105    104    106    123     4  180.0000000  1.5341333  2
    108    125    103    107     4  180.0000000  1.5341333  2
     53     54     72     52     4  180.0000000  1.5341333  2
    108    107    125    103     4  180.0000000  1.5341333  2
     59     52     60     64     4  180.0000000  1.5341333  2
    146    139    145    165     4  180.0000000  1.5341333  2
     63     62     64     80     4  180.0000000  1.5341333  2
     50     51     68     49     4  180.0000000  1.5341333  2
    112    113    131     94     4  180.0000000  1.5341333  2
     97     98    116     96     4  180.0000000  1.5341333  2
    133    134    135    110     4  180.0000000  1.5341333  2
    151    152    168    150     4  180.0000000  1.5341333  2
     48     49     70     47     4  180.0000000  1.5341333  2
    148    147    149    166     4  180.0000000  1.5341333  2
      9     28      8     10     4  180.0000000  1.5341333  2
      5     27      4      6     4  180.0000000  1.5341333  2
    106    107    109    105     4  180.0000000  1.5341333  2
    138    156    137    139     4  180.0000000  1.5341333  2
     14      7     13     33     4  180.0000000  1.5341333  2
    152    151    169    147     4  180.0000000  1.5341333  2
     49     50     71     48     4  180.0000000  1.5341333  2
    145    142    146    164     4  180.0000000  1.5341333  2
    110    127    133    109     4  180.0000000  1.3946667  2
     93     94    115     92     4  180.0000000  1.5341333  2
     17     16     18     35     4  180.0000000  1.5341333  2
     51     58     50     52     4  180.0000000  1.5341333  2
     16     17     34     15     4  180.0000000  1.5341333  2
    157    156    176    135     4  180.0000000  1.5341333  2
     49     48     50     71     4  180.0000000  1.5341333  2
    138    139    156    137     4  180.0000000  1.5341333  2
     98    101     97     99     4  180.0000000  1.5341333  2
    140    147    139    141     4  180.0000000  1.5341333  2
    149    148    150    167     4  180.0000000  1.5341333  2
     19     20     36     18     4  180.0000000  1.5341333  2
    157    135    156    176     4  180.0000000  1.5341333  2
    107    106    108    124     4  180.0000000  1.5341333  2
    110    133    109    127     4  180.0000000  1.3946667  2
     61     60     62     79     4  180.0000000  1.5341333  2
      9     10     28      8     4  180.0000000  1.5341333  2
     93    115     92     94     4  180.0000000  1.5341333  2
     50     68     49     51     4  180.0000000  1.5341333  2
    135    157    133    136     4  180.0000000  1.5341333  2
     52     53     59     51     4  180.0000000  1.5341333  2
    149    150    167    148     4  180.0000000  1.5341333  2
     45     22     46     47     4  180.0000000  1.5341333  2
    151    168    150    152     4  180.0000000  1.5341333  2
    156    175    138    157     4  180.0000000  1.5341333  2
     53     72     52     54     4  180.0000000  1.5341333  2
     45     47     22     46     4  180.0000000  1.5341333  2
     18     19     21     17     4  180.0000000  1.5341333  2
     94    112     93     95     4  180.0000000  1.5341333  2
     13     14     32     10     4  180.0000000  1.5341333  2
     68     87     50     69     4  180.0000000  1.5341333  2
    135    136    157    133     4  180.0000000  1.5341333  2
     48     47     49     70     4  180.0000000  1.5341333  2
     92    114     91     93     4  180.0000000  1.5341333  2
      1      2      3    178     4  180.0000000  14.6440000  2
    136    135    137    158     4  180.0000000  1.5341333  2
     22     21     39     45     4  180.0000000  1.3946667  2
    140    139    141    147     4  180.0000000  1.5341333  2
     89     66     90     91     4  180.0000000  1.5341333  2
     51     50     52     58     4  180.0000000  1.5341333  2
     68     69     87     50     4  180.0000000  1.5341333  2
     91     89     92    113     4  180.0000000  1.5341333  2
    133    135    110    134     4  180.0000000  1.5341333  2
     45     46     47     22     4  180.0000000  1.5341333  2
     97     96     98    116     4  180.0000000  1.5341333  2
     61     62     79     60     4  180.0000000  1.5341333  2
      1      3    178      2     4  180.0000000  14.6440000  2
     54     55     57     53     4  180.0000000  1.5341333  2
    113    132     91    112     4  180.0000000  1.5341333  2
      3     25      1      4     4  180.0000000  1.5341333  2
      8     15      7      9     4  180.0000000  1.5341333  2
    136    158    135    137     4  180.0000000  1.5341333  2
     10     11     13      9     4  180.0000000  1.5341333  2
    150    153    149    151     4  180.0000000  1.5341333  2
    103    108     96    104     4  180.0000000  1.5341333  2
     10     13      9     11     4  180.0000000  1.5341333  2
    101     98    102    120     4  180.0000000  1.5341333  2
     18     17     19     21     4  180.0000000  1.5341333  2
    104    103    105    122     4  180.0000000  1.5341333  2
    141    140    142    160     4  180.0000000  1.5341333  2
     63     80     62     64     4  180.0000000  1.5341333  2
    156    157    175    138     4  180.0000000  1.5341333  2
    147    148    152    140     4  180.0000000  1.5341333  2
    106    109    105    107     4  180.0000000  1.5341333  2
     17     35     16     18     4  180.0000000  1.5341333  2
      7      6      8     14     4  180.0000000  1.5341333  2
    113     91    112    132     4  180.0000000  1.5341333  2
     64     81     59     63     4  180.0000000  1.5341333  2
    112     94    113    131     4  180.0000000  1.5341333  2
    105    106    123    104     4  180.0000000  1.5341333  2
    139    146    138    140     4  180.0000000  1.5341333  2
      4      3      5     26     4  180.0000000  1.5341333  2
     89     91     66     90     4  180.0000000  1.5341333  2
     69     88     47     68     4  180.0000000  1.5341333  2
    150    151    153    149     4  180.0000000  1.5341333  2
     25      3     24     44     4  180.0000000  1.5341333  2
     47     45     48     69     4  180.0000000  1.5341333  2
    110    109    127    133     4  180.0000000  1.3946667  2
     53     52     54     72     4  180.0000000  1.5341333  2
    104    105    122    103     4  180.0000000  1.5341333  2
     91     92    113     89     4  180.0000000  1.5341333  2
    133    110    134    135     4  180.0000000  1.5341333  2
    187    186    188    154     4  180.0000000  14.6440000  2
      8      9     15      7     4  180.0000000  1.5341333  2
    142    141    143    145     4  180.0000000  1.5341333  2
    101    102    120     98     4  180.0000000  1.5341333  2
     15     16     20      8     4  180.0000000  1.5341333  2
     64     59     63     81     4  180.0000000  1.5341333  2
     97    116     96     98     4  180.0000000  1.5341333  2
     57     54     58     76     4  180.0000000  1.5341333  2
     25     24     44      3     4  180.0000000  1.5341333  2
     52     51     53     59     4  180.0000000  1.5341333  2
     20     19     37     15     4  180.0000000  1.5341333  2
     57     58     76     54     4  180.0000000  1.5341333  2
    141    160    140    142     4  180.0000000  1.5341333  2
    138    137    139    156     4  180.0000000  1.5341333  2
      1    178      2      3     4  180.0000000  14.6440000  2
     59     64     52     60     4  180.0000000  1.5341333  2
    154    187    153    171     4  180.0000000  1.3946667  2
    112    131     94    113     4  180.0000000  1.5341333  2
      3      4     25      1     4  180.0000000  1.5341333  2
     61     79     60     62     4  180.0000000  1.5341333  2
    146    145    165    139     4  180.0000000  1.5341333  2
    154    153    171    187     4  180.0000000  1.3946667  2
     66     89     65     83     4  180.0000000  1.3946667  2
     24     25     43      6     4  180.0000000  1.5341333  2
    142    143    145    141     4  180.0000000  1.5341333  2
      3      1      4     25     4  180.0000000  1.5341333  2
    150    149    151    153     4  180.0000000  1.5341333  2
    113    112    132     91     4  180.0000000  1.5341333  2
      5      6     27      4     4  180.0000000  1.5341333  2
     13     32     10     14     4  180.0000000  1.5341333  2
     94     93     95    112     4  180.0000000  1.5341333  2
     63     64     80     62     4  180.0000000  1.5341333  2
    149    167    148    150     4  180.0000000  1.5341333  2
    103     96    104    108     4  180.0000000  1.5341333  2
     20     15     19     37     4  180.0000000  1.5341333  2
    101    120     98    102     4  180.0000000  1.5341333  2
     19     18     20     36     4  180.0000000  1.5341333  2
    146    165    139    145     4  180.0000000  1.5341333  2
      6     24      5      7     4  180.0000000  1.5341333  2
     58     77     51     57     4  180.0000000  1.5341333  2
     95     94     96    102     4  180.0000000  1.5341333  2
    137    138    159    136     4  180.0000000  1.5341333  2
      6      7     24      5     4  180.0000000  1.5341333  2
     68     50     69     87     4  180.0000000  1.5341333  2
     49     71     48     50     4  180.0000000  1.5341333  2
     98     97     99    101     4  180.0000000  1.5341333  2
     69     68     88     47     4  180.0000000  1.5341333  2
    157    176    135    156     4  180.0000000  1.5341333  2
      9      8     10     28     4  180.0000000  1.5341333  2
     47     48     69     45     4  180.0000000  1.5341333  2
     59     60     64     52     4  180.0000000  1.5341333  2
    148    149    166    147     4  180.0000000  1.5341333  2
    103    104    108     96     4  180.0000000  1.5341333  2
     95     96    102     94     4  180.0000000  1.5341333  2
     96    103     95     97     4  180.0000000  1.5341333  2
    141    142    160    140     4  180.0000000  1.5341333  2
     14     13     33      7     4  180.0000000  1.5341333  2
     60     59     61     78     4  180.0000000  1.5341333  2
     48     70     47     49     4  180.0000000  1.5341333  2
     24     43      6     25     4  180.0000000  1.5341333  2
    136    137    158    135     4  180.0000000  1.5341333  2
     64     63     81     59     4  180.0000000  1.5341333  2
    187    188    154    186     4  180.0000000  14.6440000  2
     20     37     15     19     4  180.0000000  1.5341333  2
     58     51     57     77     4  180.0000000  1.5341333  2
    156    138    157    175     4  180.0000000  1.5341333  2
    152    169    147    151     4  180.0000000  1.5341333  2
     22     45     21     39     4  180.0000000  1.3946667  2
    154    171    187    153     4  180.0000000  1.3946667  2
    105    123    104    106     4  180.0000000  1.5341333  2
     16     15     17     34     4  180.0000000  1.5341333  2
     92     93    114     91     4  180.0000000  1.5341333  2
     62     61     63     65     4  180.0000000  1.5341333  2
    107    124    106    108     4  180.0000000  1.5341333  2
     94     95    112     93     4  180.0000000  1.5341333  2
     62     65     61     63     4  180.0000000  1.5341333  2
    151    150    152    168     4  180.0000000  1.5341333  2
     69     47     68     88     4  180.0000000  1.5341333  2
     22     39     45     21     4  180.0000000  1.3946667  2
     10      9     11     13     4  180.0000000  1.5341333  2
     93     92     94    115     4  180.0000000  1.5341333  2
    107    108    124    106     4  180.0000000  1.5341333  2
     66     83     89     65     4  180.0000000  1.3946667  2
    102    101    121     95     4  180.0000000  1.5341333  2
      7     14      6      8     4  180.0000000  1.5341333  2
     91    113     89     92     4  180.0000000  1.5341333  2
    145    164    142    146     4  180.0000000  1.5341333  2
     95    102     94     96     4  180.0000000  1.5341333  2
     19     36     18     20     4  180.0000000  1.5341333  2
    102    121     95    101     4  180.0000000  1.5341333  2
      8      7      9     15     4  180.0000000  1.5341333  2
    102     95    101    121     4  180.0000000  1.5341333  2
     60     61     78     59     4  180.0000000  1.5341333  2
     16     34     15     17     4  180.0000000  1.5341333  2
     17     18     35     16     4  180.0000000  1.5341333  2
      4      5     26      3     4  180.0000000  1.5341333  2


[ moleculetype ]
; Name            nrexcl
TCM          3

[ atoms ]
;   nr       type  resnr residue  atom   cgnr    charge       mass  typeB    chargeB      massB
; residue    1 TCM rtp TCM q 0.0
    1      TCM_0      1    TCM     c1      1 0.22438000   9.994886   ; qtot 0.224380
    2      TCM_1      1    TCM    cl1      2 -0.11463000  35.453200   ; qtot 0.109750
    3      TCM_2      1    TCM    cl2      3 -0.11463000  35.453200   ; qtot -0.004880
    4      TCM_3      1    TCM     h1      4 0.11951000   3.023841   ; qtot 0.114630
    5      TCM_4      1    TCM    cl3      5 -0.11463000  35.453200   ; qtot 0.000000

[ bonds ]
;    ai     aj funct         c0         c1         c2         c3
      1      2     1   0.17948 173885.040698
      1      3     1   0.17948 173885.040698
      1      4     1   0.10929 317186.185379
      1      5     1   0.17948 173885.040698

[ angles ]
;    ai     aj     ak funct         c0         c1         c2         c3
      2      1      3     1   107.6607822 425.669015
      2      1      4     1   107.6607822 425.669015
      2      1      5     1   107.6607822 425.669015
      3      1      4     1   107.6607822 425.669015
      3      1      5     1   107.6607822 425.669015
      4      1      5     1   107.6607822 425.669015

[ system ]
; Name
FOO

[ molecules ]
; Compound       #mols
system1              1
TCM                634
