Gravel Rubs Often Many Awfully Cauterized Sores
 3367
    1POP     C1    1   2.856   1.815   1.007
    1POP     O2    2   2.923   1.815   1.108
    1POP     C3    3   2.708   1.795   1.005
    1POP     C4    4   2.639   1.780   0.884
    1POP     C5    5   2.504   1.747   0.884
    1POP     C6    6   2.435   1.733   1.005
    1POP     C7    7   2.293   1.696   1.002
    1POP     C8    8   2.239   1.586   1.074
    1POP     C9    9   2.101   1.566   1.066
    1POP    C10   10   2.023   1.633   0.973
    1POP    O11   11   1.896   1.586   0.958
    1POP    C12   12   1.826   1.635   0.844
    1POP    C13   13   2.077   1.739   0.902
    1POP    C14   14   2.209   1.774   0.920
    1POP    C15   15   2.324   1.487   1.144
    1POP    C16   16   2.315   1.468   1.281
    1POP    C17   17   2.403   1.380   1.346
    1POP    C18   18   2.495   1.302   1.273
    1POP    C19   19   2.503   1.320   1.135
    1POP    C20   20   2.419   1.411   1.071
    1POP    C21   21   2.586   1.201   1.342
    1POP    N22   22   2.514   1.096   1.415
    1POP    C23   23   2.681   1.273   1.438
    1POP    C24   24   2.504   1.751   1.126
    1POP    C25   25   2.640   1.782   1.126
    1POP    H26   26   2.689   1.789   0.788
    1POP    H27   27   2.454   1.732   0.789
    1POP    H28   28   2.055   1.491   1.129
    1POP    H29   29   1.736   1.575   0.833
    1POP    H30   30   1.885   1.625   0.754
    1POP    H31   31   1.793   1.739   0.858
    1POP    H32   32   2.017   1.799   0.833
    1POP    H33   33   2.247   1.860   0.867
    1POP    H34   34   2.242   1.521   1.340
    1POP    H35   35   2.397   1.370   1.454
    1POP    H36   36   2.574   1.265   1.076
    1POP    H37   37   2.428   1.425   0.964
    1POP    H38   38   2.646   1.150   1.265
    1POP    H39   39   2.585   1.037   1.456
    1POP    H40   40   2.740   1.350   1.385
    1POP    H41   41   2.628   1.322   1.520
    1POP    H42   42   2.752   1.202   1.482
    1POP    H43   43   2.453   1.740   1.221
    1POP    H44   44   2.693   1.791   1.221
    2POP    C45   45   2.435   1.009   1.340
    2POP    O46   46   2.486   0.908   1.292
    2POP    C47   47   2.290   1.036   1.333
    2POP    C48   48   2.230   1.129   1.418
    2POP    C49   49   2.096   1.162   1.402
    2POP    C50   50   2.016   1.094   1.309
    2POP    C51   51   1.874   1.130   1.296
    2POP    C52   52   1.810   1.151   1.172
    2POP    C53   53   1.674   1.184   1.174
    2POP    C54   54   1.611   1.219   1.293
    2POP    O55   55   1.485   1.273   1.280
    2POP    C56   56   1.425   1.327   1.398
    2POP    C57   57   1.672   1.199   1.414
    2POP    C58   58   1.801   1.150   1.415
    2POP    C59   59   1.884   1.155   1.044
    2POP    C60   60   1.854   1.075   0.933
    2POP    C61   61   1.932   1.081   0.818
    2POP    C62   62   2.035   1.176   0.802
    2POP    C63   63   2.066   1.255   0.912
    2POP    C64   64   1.994   1.242   1.030
    2POP    C65   65   2.113   1.193   0.673
    2POP    N66   66   2.029   1.213   0.554
    2POP    C67   67   2.205   1.072   0.652
    2POP    C68   68   2.075   0.993   1.231
    2POP    C69   69   2.212   0.967   1.241
    2POP    H70   70   2.287   1.179   1.496
    2POP    H71   71   2.055   1.243   1.462
    2POP    H72   72   1.619   1.191   1.081
    2POP    H73   73   1.337   1.382   1.367
    2POP    H74   74   1.493   1.395   1.450
    2POP    H75   75   1.391   1.249   1.465
    2POP    H76   76   1.624   1.218   1.509
    2POP    H77   77   1.847   1.131   1.513
    2POP    H78   78   1.771   1.005   0.937
    2POP    H79   79   1.911   1.012   0.736
    2POP    H80   80   2.149   1.326   0.906
    2POP    H81   81   2.025   1.300   1.116
    2POP    H82   82   2.177   1.282   0.680
    2POP    H83   83   2.093   1.219   0.477
    2POP    H84   84   2.272   1.058   0.738
    2POP    H85   85   2.148   0.979   0.639
    2POP    H86   86   2.267   1.084   0.563
    2POP    H87   87   2.015   0.937   1.160
    2POP    H88   88   2.257   0.891   1.176
    3POP    C89   89   1.957   1.332   0.547
    3POP    O90   90   2.011   1.434   0.505
    3POP    C91   91   1.813   1.330   0.584
    3POP    C92   92   1.743   1.212   0.609
    3POP    C93   93   1.613   1.216   0.661
    3POP    C94   94   1.546   1.337   0.677
    3POP    C95   95   1.406   1.345   0.723
    3POP    C96   96   1.361   1.430   0.828
    3POP    C97   97   1.222   1.438   0.850
    3POP    C98   98   1.129   1.363   0.779
    3POP    O99   99   1.000   1.375   0.823
    3POP   C100  100   0.901   1.294   0.760
    3POP   C101  101   1.173   1.283   0.675
    3POP   C102  102   1.309   1.273   0.649
    3POP   C103  103   1.450   1.511   0.915
    3POP   C104  104   1.437   1.649   0.926
    3POP   C105  105   1.524   1.726   1.006
    3POP   C106  106   1.621   1.668   1.088
    3POP   C107  107   1.632   1.528   1.082
    3POP   C108  108   1.552   1.452   0.993
    3POP   C109  109   1.712   1.750   1.180
    3POP   N110  110   1.642   1.819   1.289
    3POP   C111  111   1.791   1.860   1.108
    3POP   C112  112   1.612   1.454   0.637
    3POP   C113  113   1.744   1.451   0.592
    3POP   H114  114   1.790   1.116   0.593
    3POP   H115  115   1.564   1.122   0.687
    3POP   H116  116   1.184   1.505   0.927
    3POP   H117  117   0.811   1.296   0.824
    3POP   H118  118   0.932   1.191   0.750
    3POP   H119  119   0.874   1.335   0.662
    3POP   H120  120   1.104   1.224   0.615
    3POP   H121  121   1.341   1.208   0.567
    3POP   H122  122   1.359   1.699   0.870
    3POP   H123  123   1.513   1.835   1.003
    3POP   H124  124   1.708   1.477   1.138
    3POP   H125  125   1.571   1.348   0.981
    3POP   H126  126   1.784   1.682   1.227
    3POP   H127  127   1.715   1.864   1.344
    3POP   H128  128   1.862   1.822   1.036
    3POP   H129  129   1.726   1.930   1.054
    3POP   H130  130   1.851   1.919   1.179
    3POP   H131  131   1.561   1.550   0.645
    3POP   H132  132   1.793   1.544   0.566
    4POP   C133  133   1.574   1.743   1.381
    4POP   O134  134   1.630   1.701   1.481
    4POP   C135  135   1.428   1.728   1.359
    4POP   C136  136   1.359   1.794   1.258
    4POP   C137  137   1.227   1.760   1.228
    4POP   C138  138   1.157   1.668   1.307
    4POP   C139  139   1.014   1.637   1.282
    4POP   C140  140   0.960   1.505   1.272
    4POP   C141  141   0.820   1.496   1.256
    4POP   C142  142   0.735   1.607   1.247
    4POP   O143  143   0.602   1.579   1.232
    4POP   C144  144   0.514   1.690   1.226
    4POP   C145  145   0.791   1.735   1.255
    4POP   C146  146   0.928   1.748   1.271
    4POP   C147  147   1.041   1.379   1.275
    4POP   C148  148   1.018   1.276   1.366
    4POP   C149  149   1.096   1.157   1.366
    4POP   C150  150   1.197   1.136   1.273
    4POP   C151  151   1.215   1.237   1.176
    4POP   C152  152   1.141   1.357   1.181
    4POP   C153  153   1.286   1.010   1.272
    4POP   N154  154   1.207   0.889   1.258
    4POP   C155  155   1.372   0.988   1.397
    4POP   C156  156   1.223   1.613   1.418
    4POP   C157  157   1.357   1.642   1.442
    4POP   H158  158   1.409   1.869   1.197
    4POP   H159  159   1.178   1.808   1.142
    4POP   H160  160   0.775   1.397   1.247
    4POP   H161  161   0.412   1.652   1.215
    4POP   H162  162   0.535   1.753   1.138
    4POP   H163  163   0.517   1.750   1.317
    4POP   H164  164   0.730   1.824   1.247
    4POP   H165  165   0.968   1.850   1.278
    4POP   H166  166   0.939   1.286   1.440
    4POP   H167  167   1.073   1.080   1.440
    4POP   H168  168   1.292   1.227   1.099
    4POP   H169  169   1.165   1.434   1.110
    4POP   H170  170   1.354   1.015   1.185
    4POP   H171  171   1.225   0.810   1.318
    4POP   H172  172   1.449   1.063   1.408
    4POP   H173  173   1.313   0.986   1.488
    4POP   H174  174   1.427   0.893   1.388
    4POP   H175  175   1.171   1.543   1.483
    4POP   H176  176   1.408   1.594   1.525
    5CAP   C177  177   2.990   1.710   0.852
    5CAP   O178  178   2.901   1.819   0.880
    5CAP   H179  179   3.065   1.697   0.932
    5CAP   H180  180   3.042   1.732   0.758
    5CAP   H181  181   2.932   1.618   0.840
    6CAP   C182  182   1.198   1.006   0.828
    6CAP   C183  183   1.104   0.931   0.921
    6CAP   C184  184   0.973   1.006   0.941
    6CAP   C185  185   1.083   0.791   0.862
    6CAP   O186  186   1.175   0.932   1.045
    6CAP   C187  187   1.138   0.855   1.147
    6CAP   O188  188   1.058   0.763   1.146
    6CAP   H189  189   1.155   1.018   0.728
    6CAP   H190  190   1.223   1.104   0.871
    6CAP   H191  191   1.294   0.955   0.818
    6CAP   H192  192   0.992   1.110   0.971
    6CAP   H193  193   0.915   0.962   1.023
    6CAP   H194  194   0.912   1.004   0.852
    6CAP   H195  195   1.178   0.735   0.862
    6CAP   H196  196   1.010   0.734   0.919
    6CAP   H197  197   1.046   0.798   0.759
    1TCM     c1  198   4.340   0.335   2.672
    1TCM    cl1  199   4.465   0.360   2.548
    1TCM    cl2  200   4.244   0.484   2.690
    1TCM     h1  201   4.274   0.252   2.642
    1TCM    cl3  202   4.418   0.296   2.828
    1TCM     c1  203   1.828   2.741   4.514
    1TCM    cl1  204   1.856   2.566   4.519
    1TCM    cl2  205   1.902   2.818   4.657
    1TCM     h1  206   1.873   2.783   4.422
    1TCM    cl3  207   1.653   2.773   4.515
    1TCM     c1  208   1.774   2.394   1.021
    1TCM    cl1  209   1.657   2.293   0.933
    1TCM    cl2  210   1.924   2.407   0.926
    1TCM     h1  211   1.731   2.495   1.036
    1TCM    cl3  212   1.810   2.320   1.179
    1TCM     c1  213   2.706   0.608   3.776
    1TCM    cl1  214   2.780   0.745   3.690
    1TCM    cl2  215   2.832   0.520   3.867
    1TCM     h1  216   2.629   0.646   3.847
    1TCM    cl3  217   2.631   0.498   3.659
    1TCM     c1  218   2.294   1.759   2.848
    1TCM    cl1  219   2.411   1.808   2.724
    1TCM    cl2  220   2.332   1.842   3.001
    1TCM     h1  221   2.191   1.787   2.816
    1TCM    cl3  222   2.302   1.583   2.872
    1TCM     c1  223   5.040   1.290   0.555
    1TCM    cl1  224   5.177   1.235   0.456
    1TCM    cl2  225   5.087   1.291   0.727
    1TCM     h1  226   5.011   1.393   0.524
    1TCM    cl3  227   4.901   1.181   0.532
    1TCM     c1  228   2.908   0.815   2.628
    1TCM    cl1  229   2.804   0.935   2.548
    1TCM    cl2  230   2.862   0.651   2.575
    1TCM     h1  231   3.014   0.834   2.601
    1TCM    cl3  232   2.889   0.827   2.804
    1TCM     c1  233   3.731   4.037   4.701
    1TCM    cl1  234   3.745   3.946   4.549
    1TCM    cl2  235   3.574   4.119   4.707
    1TCM     h1  236   3.740   3.968   4.787
    1TCM    cl3  237   3.861   4.159   4.709
    1TCM     c1  238   0.758   4.174   3.455
    1TCM    cl1  239   0.841   4.029   3.395
    1TCM    cl2  240   0.805   4.314   3.355
    1TCM     h1  241   0.648   4.160   3.448
    1TCM    cl3  242   0.804   4.205   3.624
    1TCM     c1  243   3.889   1.314   2.572
    1TCM    cl1  244   3.867   1.377   2.737
    1TCM    cl2  245   4.063   1.308   2.533
    1TCM     h1  246   3.847   1.212   2.565
    1TCM    cl3  247   3.807   1.421   2.456
    1TCM     c1  248   4.917   3.093   4.465
    1TCM    cl1  249   4.740   3.076   4.467
    1TCM    cl2  250   4.990   2.939   4.415
    1TCM     h1  251   4.945   3.173   4.393
    1TCM    cl3  252   4.975   3.137   4.627
    1TCM     c1  253   0.550   2.840   1.442
    1TCM    cl1  254   0.536   3.014   1.474
    1TCM    cl2  255   0.388   2.766   1.442
    1TCM     h1  256   0.597   2.825   1.342
    1TCM    cl3  257   0.650   2.764   1.567
    1TCM     c1  258   1.505   1.948   2.394
    1TCM    cl1  259   1.369   2.058   2.363
    1TCM    cl2  260   1.573   1.894   2.239
    1TCM     h1  261   1.583   2.000   2.452
    1TCM    cl3  262   1.447   1.807   2.485
    1TCM     c1  263   4.285   4.439   0.716
    1TCM    cl1  264   4.455   4.427   0.769
    1TCM    cl2  265   4.247   4.302   0.610
    1TCM     h1  266   4.219   4.437   0.805
    1TCM    cl3  267   4.261   4.591   0.627
    1TCM     c1  268   2.575   5.246   3.766
    1TCM    cl1  269   2.613   5.242   3.940
    1TCM    cl2  270   2.708   5.326   3.678
    1TCM     h1  271   2.563   5.143   3.728
    1TCM    cl3  272   2.425   5.338   3.740
    1TCM     c1  273   2.840   1.888   3.017
    1TCM    cl1  274   3.007   1.835   2.989
    1TCM    cl2  275   2.763   1.778   3.134
    1TCM     h1  276   2.841   1.991   3.058
    1TCM    cl3  277   2.750   1.885   2.864
    1TCM     c1  278   0.684   3.116   5.018
    1TCM    cl1  279   0.814   3.201   4.932
    1TCM    cl2  280   0.695   2.942   4.984
    1TCM     h1  281   0.694   3.134   5.127
    1TCM    cl3  282   0.526   3.178   4.962
    1TCM     c1  283   4.601   3.539   2.146
    1TCM    cl1  284   4.543   3.651   2.020
    1TCM    cl2  285   4.461   3.458   2.220
    1TCM     h1  286   4.667   3.464   2.100
    1TCM    cl3  287   4.690   3.630   2.270
    1TCM     c1  288   5.253   3.638   4.903
    1TCM    cl1  289   5.079   3.673   4.896
    1TCM    cl2  290   5.337   3.772   4.984
    1TCM     h1  291   5.270   3.544   4.960
    1TCM    cl3  292   5.317   3.619   4.738
    1TCM     c1  293   2.192   1.174   3.483
    1TCM    cl1  294   2.299   1.304   3.539
    1TCM    cl2  295   2.233   1.130   3.315
    1TCM     h1  296   2.204   1.085   3.548
    1TCM    cl3  297   2.023   1.229   3.490
    1TCM     c1  298   1.362   1.926   2.753
    1TCM    cl1  299   1.520   1.955   2.679
    1TCM    cl2  300   1.244   1.883   2.627
    1TCM     h1  301   1.369   1.843   2.827
    1TCM    cl3  302   1.308   2.074   2.837
    1TCM     c1  303   3.124   4.717   4.818
    1TCM    cl1  304   3.184   4.825   4.690
    1TCM    cl2  305   3.200   4.557   4.802
    1TCM     h1  306   3.149   4.760   4.918
    1TCM    cl3  307   2.947   4.700   4.804
    1TCM     c1  308   2.679   2.491   2.081
    1TCM    cl1  309   2.744   2.326   2.061
    1TCM    cl2  310   2.505   2.491   2.043
    1TCM     h1  311   2.694   2.524   2.186
    1TCM    cl3  312   2.763   2.602   1.971
    1TCM     c1  313   2.732   2.027   5.069
    1TCM    cl1  314   2.834   1.934   5.181
    1TCM    cl2  315   2.829   2.077   4.929
    1TCM     h1  316   2.648   1.964   5.035
    1TCM    cl3  317   2.669   2.171   5.152
    1TCM     c1  318   5.036   0.255   1.343
    1TCM    cl1  319   4.905   0.139   1.311
    1TCM    cl2  320   4.976   0.384   1.451
    1TCM     h1  321   5.121   0.203   1.391
    1TCM    cl3  322   5.090   0.328   1.190
    1TCM     c1  323   3.030   0.850   1.253
    1TCM    cl1  324   3.094   0.685   1.241
    1TCM    cl2  325   2.861   0.853   1.196
    1TCM     h1  326   3.034   0.884   1.358
    1TCM    cl3  327   3.127   0.959   1.151
    1TCM     c1  328   3.958   3.234   1.868
    1TCM    cl1  329   3.945   3.057   1.862
    1TCM    cl2  330   3.951   3.288   2.038
    1TCM     h1  331   4.054   3.266   1.823
    1TCM    cl3  332   3.823   3.306   1.778
    1TCM     c1  333   1.100   0.927   3.671
    1TCM    cl1  334   0.989   0.800   3.616
    1TCM    cl2  335   1.028   1.016   3.807
    1TCM     h1  336   1.196   0.881   3.704
    1TCM    cl3  337   1.132   1.040   3.537
    1TCM     c1  338   2.844   3.657   3.462
    1TCM    cl1  339   2.965   3.734   3.356
    1TCM    cl2  340   2.857   3.726   3.626
    1TCM     h1  341   2.743   3.676   3.422
    1TCM    cl3  342   2.875   3.482   3.469
    1TCM     c1  343   0.318   0.911   2.461
    1TCM    cl1  344   0.457   0.840   2.546
    1TCM    cl2  345   0.348   0.909   2.286
    1TCM     h1  346   0.227   0.852   2.484
    1TCM    cl3  347   0.295   1.079   2.516
    1TCM     c1  348   4.963   2.029   2.117
    1TCM    cl1  349   4.795   2.054   2.169
    1TCM    cl2  350   4.976   1.873   2.032
    1TCM     h1  351   4.994   2.110   2.049
    1TCM    cl3  352   5.069   2.027   2.260
    1TCM     c1  353   1.238   3.538   2.267
    1TCM    cl1  354   1.289   3.556   2.437
    1TCM    cl2  355   1.177   3.694   2.207
    1TCM     h1  356   1.324   3.506   2.206
    1TCM    cl3  357   1.108   3.417   2.257
    1TCM     c1  358   3.878   1.456   2.048
    1TCM    cl1  359   3.889   1.288   1.991
    1TCM    cl2  360   3.735   1.534   1.978
    1TCM     h1  361   3.870   1.457   2.159
    1TCM    cl3  362   4.024   1.545   2.000
    1TCM     c1  363   0.861   2.258   2.090
    1TCM    cl1  364   0.726   2.309   1.986
    1TCM    cl2  365   0.869   2.364   2.233
    1TCM     h1  366   0.844   2.153   2.123
    1TCM    cl3  367   1.014   2.268   2.000
    1TCM     c1  368   2.239   3.781   1.765
    1TCM    cl1  369   2.239   3.928   1.865
    1TCM    cl2  370   2.123   3.801   1.632
    1TCM     h1  371   2.340   3.764   1.723
    1TCM    cl3  372   2.192   3.641   1.864
    1TCM     c1  373   1.033   4.556   1.175
    1TCM    cl1  374   1.206   4.521   1.154
    1TCM    cl2  375   0.956   4.574   1.016
    1TCM     h1  376   0.985   4.472   1.230
    1TCM    cl3  377   1.014   4.706   1.268
    1TCM     c1  378   0.239   1.276   4.797
    1TCM    cl1  379   0.112   1.213   4.690
    1TCM    cl2  380   0.317   1.140   4.881
    1TCM     h1  381   0.315   1.330   4.736
    1TCM    cl3  382   0.168   1.386   4.916
    1TCM     c1  383   1.335   3.885   4.786
    1TCM    cl1  384   1.173   3.955   4.800
    1TCM    cl2  385   1.457   4.011   4.811
    1TCM     h1  386   1.348   3.805   4.862
    1TCM    cl3  387   1.356   3.814   4.624
    1TCM     c1  388   0.312   0.754   4.846
    1TCM    cl1  389   0.450   0.866   4.854
    1TCM    cl2  390   0.333   0.625   4.967
    1TCM     h1  391   0.218   0.809   4.867
    1TCM    cl3  392   0.304   0.682   4.684
    1TCM     c1  393   1.097   4.300   2.229
    1TCM    cl1  394   1.089   4.260   2.402
    1TCM    cl2  395   1.115   4.150   2.134
    1TCM     h1  396   1.005   4.352   2.199
    1TCM    cl3  397   1.237   4.405   2.200
    1TCM     c1  398   3.702   4.122   0.176
    1TCM    cl1  399   3.601   4.089   0.318
    1TCM    cl2  400   3.662   4.283   0.112
    1TCM     h1  401   3.809   4.119   0.205
    1TCM    cl3  402   3.671   3.999   0.051
    1TCM     c1  403   1.895   1.489   1.637
    1TCM    cl1  404   2.045   1.520   1.727
    1TCM    cl2  405   1.933   1.402   1.487
    1TCM     h1  406   1.827   1.428   1.699
    1TCM    cl3  407   1.816   1.644   1.597
    1TCM     c1  408   3.476   0.639   2.332
    1TCM    cl1  409   3.578   0.745   2.433
    1TCM    cl2  410   3.534   0.643   2.164
    1TCM     h1  411   3.481   0.535   2.371
    1TCM    cl3  412   3.308   0.696   2.338
    1TCM     c1  413   0.165   0.642   2.082
    1TCM    cl1  414   0.183   0.499   1.978
    1TCM    cl2  415   0.282   0.633   2.216
    1TCM     h1  416   0.185   0.734   2.022
    1TCM    cl3  417   0.000   0.649   2.147
    1TCM     c1  418   3.885   2.604   1.119
    1TCM    cl1  419   3.742   2.625   1.223
    1TCM    cl2  420   3.968   2.760   1.100
    1TCM     h1  421   3.953   2.530   1.165
    1TCM    cl3  422   3.833   2.546   0.959
    1TCM     c1  423   4.946   1.742   3.395
    1TCM    cl1  424   4.970   1.607   3.509
    1TCM    cl2  425   5.026   1.704   3.241
    1TCM     h1  426   4.837   1.756   3.378
    1TCM    cl3  427   5.015   1.890   3.463
    1TCM     c1  428   1.993   3.599   2.423
    1TCM    cl1  429   1.857   3.533   2.328
    1TCM    cl2  430   2.020   3.768   2.378
    1TCM     h1  431   1.969   3.593   2.531
    1TCM    cl3  432   2.139   3.504   2.390
    1TCM     c1  433   0.580   0.242   4.872
    1TCM    cl1  434   0.468   0.325   4.761
    1TCM    cl2  435   0.493   0.197   5.021
    1TCM     h1  436   0.619   0.151   4.824
    1TCM    cl3  437   0.714   0.351   4.913
    1TCM     c1  438   4.490   0.569   4.492
    1TCM    cl1  439   4.499   0.418   4.586
    1TCM    cl2  440   4.452   0.530   4.323
    1TCM     h1  441   4.410   0.634   4.534
    1TCM    cl3  442   4.646   0.653   4.501
    1TCM     c1  443   3.820   4.689   1.615
    1TCM    cl1  444   3.745   4.660   1.774
    1TCM    cl2  445   3.796   4.547   1.511
    1TCM     h1  446   3.773   4.778   1.568
    1TCM    cl3  447   3.994   4.719   1.636
    1TCM     c1  448   4.493   4.584   4.901
    1TCM    cl1  449   4.624   4.510   4.806
    1TCM    cl2  450   4.536   4.580   5.074
    1TCM     h1  451   4.479   4.689   4.868
    1TCM    cl3  452   4.343   4.493   4.875
    1TCM     c1  453   4.032   4.348   1.782
    1TCM    cl1  454   4.049   4.497   1.876
    1TCM    cl2  455   4.084   4.377   1.615
    1TCM     h1  456   4.095   4.268   1.827
    1TCM    cl3  457   3.862   4.295   1.783
    1TCM     c1  458   3.836   4.057   3.398
    1TCM    cl1  459   3.681   4.075   3.486
    1TCM    cl2  460   3.940   3.943   3.486
    1TCM     h1  461   3.816   4.019   3.296
    1TCM    cl3  462   3.916   4.215   3.388
    1TCM     c1  463   0.380   0.918   3.401
    1TCM    cl1  464   0.270   0.833   3.291
    1TCM    cl2  465   0.511   0.808   3.452
    1TCM     h1  466   0.424   1.006   3.349
    1TCM    cl3  467   0.290   0.974   3.544
    1TCM     c1  468   3.051   2.658   2.845
    1TCM    cl1  469   2.933   2.525   2.842
    1TCM    cl2  470   3.132   2.661   3.004
    1TCM     h1  471   3.127   2.643   2.766
    1TCM    cl3  472   2.967   2.812   2.819
    1TCM     c1  473   3.693   2.366   2.422
    1TCM    cl1  474   3.560   2.484   2.415
    1TCM    cl2  475   3.707   2.302   2.587
    1TCM     h1  476   3.672   2.283   2.352
    1TCM    cl3  477   3.845   2.446   2.376
    1TCM     c1  478   4.991   0.695   2.439
    1TCM    cl1  479   5.090   0.685   2.586
    1TCM    cl2  480   4.829   0.756   2.481
    1TCM     h1  481   5.039   0.763   2.366
    1TCM    cl3  482   4.975   0.533   2.366
    1TCM     c1  483   0.348   0.157   3.094
    1TCM    cl1  484   0.511   0.221   3.061
    1TCM    cl2  485   0.234   0.292   3.115
    1TCM     h1  486   0.315   0.094   3.008
    1TCM    cl3  487   0.352   0.059   3.242
    1TCM     c1  488   5.116   3.670   1.320
    1TCM    cl1  489   5.072   3.725   1.483
    1TCM    cl2  490   5.159   3.810   1.219
    1TCM     h1  491   5.203   3.601   1.327
    1TCM    cl3  492   4.978   3.584   1.247
    1TCM     c1  493   1.535   3.300   0.917
    1TCM    cl1  494   1.655   3.220   0.813
    1TCM    cl2  495   1.371   3.260   0.860
    1TCM     h1  496   1.547   3.266   1.021
    1TCM    cl3  497   1.559   3.477   0.910
    1TCM     c1  498   2.831   4.439   4.176
    1TCM    cl1  499   2.663   4.384   4.197
    1TCM    cl2  500   2.883   4.528   4.321
    1TCM     h1  501   2.897   4.352   4.160
    1TCM    cl3  502   2.840   4.547   4.034
    1TCM     c1  503   4.637   1.673   0.303
    1TCM    cl1  504   4.547   1.824   0.328
    1TCM    cl2  505   4.727   1.681   0.149
    1TCM     h1  506   4.708   1.658   0.387
    1TCM    cl3  507   4.523   1.536   0.297
    1TCM     c1  508   2.940   4.784   4.482
    1TCM    cl1  509   2.898   4.857   4.639
    1TCM    cl2  510   2.803   4.802   4.370
    1TCM     h1  511   3.029   4.835   4.439
    1TCM    cl3  512   2.976   4.611   4.503
    1TCM     c1  513   3.824   4.105   2.087
    1TCM    cl1  514   3.740   4.208   2.205
    1TCM    cl2  515   3.931   4.205   1.987
    1TCM     h1  516   3.885   4.029   2.141
    1TCM    cl3  517   3.705   4.024   1.983
    1TCM     c1  518   0.881   0.195   3.430
    1TCM    cl1  519   0.979   0.091   3.324
    1TCM    cl2  520   0.713   0.197   3.373
    1TCM     h1  521   0.885   0.155   3.534
    1TCM    cl3  522   0.947   0.360   3.429
    1TCM     c1  523   0.932   1.359   2.667
    1TCM    cl1  524   0.888   1.472   2.537
    1TCM    cl2  525   0.803   1.358   2.790
    1TCM     h1  526   0.944   1.257   2.625
    1TCM    cl3  527   1.084   1.411   2.742
    1TCM     c1  528   1.192   0.767   2.410
    1TCM    cl1  529   1.164   0.662   2.551
    1TCM    cl2  530   1.040   0.788   2.320
    1TCM     h1  531   1.229   0.866   2.444
    1TCM    cl3  532   1.314   0.692   2.304
    1TCM     c1  533   2.930   1.229   3.870
    1TCM    cl1  534   2.992   1.372   3.784
    1TCM    cl2  535   3.028   1.200   4.015
    1TCM     h1  536   2.824   1.247   3.899
    1TCM    cl3  537   2.938   1.088   3.763
    1TCM     c1  538   4.623   5.120   1.281
    1TCM    cl1  539   4.550   5.141   1.120
    1TCM    cl2  540   4.657   5.280   1.351
    1TCM     h1  541   4.553   5.065   1.347
    1TCM    cl3  542   4.775   5.029   1.265
    1TCM     c1  543   0.536   4.436   0.329
    1TCM    cl1  544   0.397   4.447   0.439
    1TCM    cl2  545   0.480   4.456   0.161
    1TCM     h1  546   0.609   4.516   0.354
    1TCM    cl3  547   0.613   4.277   0.347
    1TCM     c1  548   2.380   3.427   2.219
    1TCM    cl1  549   2.495   3.563   2.214
    1TCM    cl2  550   2.350   3.380   2.388
    1TCM     h1  551   2.284   3.457   2.171
    1TCM    cl3  552   2.448   3.289   2.130
    1TCM     c1  553   0.405   3.180   1.110
    1TCM    cl1  554   0.285   3.308   1.137
    1TCM    cl2  555   0.417   3.146   0.935
    1TCM     h1  556   0.504   3.213   1.148
    1TCM    cl3  557   0.355   3.032   1.195
    1TCM     c1  558   3.366   3.639   1.039
    1TCM    cl1  559   3.480   3.760   0.974
    1TCM    cl2  560   3.392   3.622   1.214
    1TCM     h1  561   3.262   3.673   1.020
    1TCM    cl3  562   3.393   3.483   0.959
    1TCM     c1  563   3.203   3.025   4.931
    1TCM    cl1  564   3.328   3.148   4.899
    1TCM    cl2  565   3.094   3.084   5.058
    1TCM     h1  566   3.145   3.006   4.838
    1TCM    cl3  567   3.281   2.875   4.985
    1TCM     c1  568   1.104   1.532   1.980
    1TCM    cl1  569   1.079   1.607   2.140
    1TCM    cl2  570   1.186   1.647   1.873
    1TCM     h1  571   1.167   1.441   1.992
    1TCM    cl3  572   0.947   1.487   1.911
    1TCM     c1  573   1.982   2.565   4.800
    1TCM    cl1  574   1.995   2.398   4.739
    1TCM    cl2  575   2.033   2.570   4.970
    1TCM     h1  576   2.048   2.631   4.740
    1TCM    cl3  577   1.814   2.620   4.786
    1TCM     c1  578   2.162   4.142   4.130
    1TCM    cl1  579   2.033   4.077   4.027
    1TCM    cl2  580   2.128   4.103   4.300
    1TCM     h1  581   2.259   4.098   4.101
    1TCM    cl3  582   2.169   4.319   4.111
    1TCM     c1  583   0.919   0.401   0.224
    1TCM    cl1  584   0.921   0.444   0.052
    1TCM    cl2  585   1.082   0.422   0.293
    1TCM     h1  586   0.848   0.467   0.278
    1TCM    cl3  587   0.868   0.232   0.243
    1TCM     c1  588   1.131   0.618   2.965
    1TCM    cl1  589   1.173   0.681   2.804
    1TCM    cl2  590   1.233   0.698   3.087
    1TCM     h1  591   1.025   0.639   2.986
    1TCM    cl3  592   1.160   0.443   2.969
    1TCM     c1  593   4.496   3.253   3.321
    1TCM    cl1  594   4.626   3.366   3.276
    1TCM    cl2  595   4.521   3.198   3.488
    1TCM     h1  596   4.398   3.305   3.313
    1TCM    cl3  597   4.499   3.114   3.211
    1TCM     c1  598   3.241   4.832   5.237
    1TCM    cl1  599   3.363   4.753   5.340
    1TCM    cl2  600   3.158   4.958   5.331
    1TCM     h1  601   3.291   4.878   5.149
    1TCM    cl3  602   3.123   4.711   5.182
    1TCM     c1  603   1.762   0.099   3.621
    1TCM    cl1  604   1.697   0.179   3.476
    1TCM    cl2  605   1.766   0.214   3.756
    1TCM     h1  606   1.698   0.013   3.647
    1TCM    cl3  607   1.927   0.041   3.588
    1TCM     c1  608   0.973   0.836   4.034
    1TCM    cl1  609   0.930   0.721   4.163
    1TCM    cl2  610   0.881   0.987   4.057
    1TCM     h1  611   1.082   0.858   4.039
    1TCM    cl3  612   0.933   0.766   3.876
    1TCM     c1  613   2.057   5.141   2.409
    1TCM    cl1  614   1.964   5.064   2.278
    1TCM    cl2  615   1.945   5.203   2.532
    1TCM     h1  616   2.125   5.067   2.455
    1TCM    cl3  617   2.152   5.276   2.342
    1TCM     c1  618   1.219   1.276   2.334
    1TCM    cl1  619   1.362   1.177   2.374
    1TCM    cl2  620   1.227   1.430   2.424
    1TCM     h1  621   1.218   1.297   2.226
    1TCM    cl3  622   1.071   1.188   2.380
    1TCM     c1  623   1.359   1.703   0.084
    1TCM    cl1  624   1.189   1.658   0.057
    1TCM    cl2  625   1.393   1.857   0.001
    1TCM     h1  626   1.378   1.715   0.192
    1TCM    cl3  627   1.465   1.576   0.019
    1TCM     c1  628   4.235   3.110   2.489
    1TCM    cl1  629   4.292   2.976   2.388
    1TCM    cl2  630   4.075   3.164   2.431
    1TCM     h1  631   4.227   3.076   2.594
    1TCM    cl3  632   4.350   3.246   2.479
    1TCM     c1  633   2.922   4.781   1.453
    1TCM    cl1  634   2.778   4.758   1.351
    1TCM    cl2  635   3.055   4.843   1.353
    1TCM     h1  636   2.899   4.854   1.533
    1TCM    cl3  637   2.969   4.625   1.525
    1TCM     c1  638   4.323   2.469   3.327
    1TCM    cl1  639   4.496   2.510   3.320
    1TCM    cl2  640   4.252   2.536   3.476
    1TCM     h1  641   4.271   2.512   3.239
    1TCM    cl3  642   4.304   2.292   3.326
    1TCM     c1  643   4.325   0.803   3.689
    1TCM    cl1  644   4.176   0.900   3.699
    1TCM    cl2  645   4.306   0.677   3.565
    1TCM     h1  646   4.410   0.869   3.662
    1TCM    cl3  647   4.357   0.727   3.846
    1TCM     c1  648   4.256   1.017   3.316
    1TCM    cl1  649   4.432   0.992   3.322
    1TCM    cl2  650   4.181   0.955   3.465
    1TCM     h1  651   4.234   1.125   3.306
    1TCM    cl3  652   4.189   0.930   3.175
    1TCM     c1  653   2.138   0.297   3.297
    1TCM    cl1  654   2.070   0.244   3.452
    1TCM    cl2  655   2.076   0.193   3.167
    1TCM     h1  656   2.107   0.402   3.277
    1TCM    cl3  657   2.315   0.287   3.302
    1TCM     c1  658   0.535   4.476   3.665
    1TCM    cl1  659   0.424   4.539   3.542
    1TCM    cl2  660   0.442   4.393   3.792
    1TCM     h1  661   0.606   4.404   3.619
    1TCM    cl3  662   0.626   4.611   3.737
    1TCM     c1  663   0.273   1.934   4.811
    1TCM    cl1  664   0.245   2.108   4.832
    1TCM    cl2  665   0.385   1.908   4.676
    1TCM     h1  666   0.316   1.891   4.904
    1TCM    cl3  667   0.118   1.853   4.776
    1TCM     c1  668   1.068   5.174   5.224
    1TCM    cl1  669   1.198   5.237   5.328
    1TCM    cl2  670   0.941   5.102   5.325
    1TCM     h1  671   1.025   5.258   5.165
    1TCM    cl3  672   1.134   5.051   5.114
    1TCM     c1  673   0.846   2.181   1.161
    1TCM    cl1  674   0.784   2.315   1.259
    1TCM    cl2  675   0.769   2.183   1.001
    1TCM     h1  676   0.956   2.191   1.148
    1TCM    cl3  677   0.811   2.026   1.241
    1TCM     c1  678   4.831   1.654   2.368
    1TCM    cl1  679   4.969   1.608   2.470
    1TCM    cl2  680   4.859   1.600   2.201
    1TCM     h1  681   4.738   1.607   2.407
    1TCM    cl3  682   4.812   1.831   2.371
    1TCM     c1  683   2.941   1.347   2.591
    1TCM    cl1  684   2.865   1.194   2.542
    1TCM    cl2  685   3.038   1.321   2.738
    1TCM     h1  686   3.007   1.383   2.509
    1TCM    cl3  687   2.816   1.468   2.624
    1TCM     c1  688   3.184   0.537   2.624
    1TCM    cl1  689   3.235   0.707   2.613
    1TCM    cl2  690   3.226   0.472   2.784
    1TCM     h1  691   3.074   0.530   2.609
    1TCM    cl3  692   3.266   0.442   2.498
    1TCM     c1  693   2.410   4.728   1.125
    1TCM    cl1  694   2.292   4.685   1.251
    1TCM    cl2  695   2.342   4.690   0.965
    1TCM     h1  696   2.433   4.836   1.131
    1TCM    cl3  697   2.559   4.634   1.149
    1TCM     c1  698   0.570   3.439   4.084
    1TCM    cl1  699   0.444   3.443   4.209
    1TCM    cl2  700   0.571   3.594   3.997
    1TCM     h1  701   0.668   3.423   4.131
    1TCM    cl3  702   0.536   3.307   3.970
    1TCM     c1  703   2.537   0.074   1.724
    1TCM    cl1  704   2.528   0.238   1.792
    1TCM    cl2  705   2.675   0.064   1.612
    1TCM     h1  706   2.550   0.000   1.805
    1TCM    cl3  707   2.387   0.038   1.635
    1TCM     c1  708   2.662   4.929   3.670
    1TCM    cl1  709   2.531   4.888   3.783
    1TCM    cl2  710   2.593   5.001   3.523
    1TCM     h1  711   2.731   5.001   3.718
    1TCM    cl3  712   2.752   4.781   3.627
    1TCM     c1  713   3.651   3.600   4.857
    1TCM    cl1  714   3.645   3.624   5.034
    1TCM    cl2  715   3.639   3.427   4.820
    1TCM     h1  716   3.566   3.654   4.810
    1TCM    cl3  717   3.804   3.664   4.794
    1TCM     c1  718   1.776   0.306   4.674
    1TCM    cl1  719   1.803   0.166   4.780
    1TCM    cl2  720   1.608   0.305   4.616
    1TCM     h1  721   1.794   0.400   4.732
    1TCM    cl3  722   1.887   0.299   4.536
    1TCM     c1  723   3.431   3.779   1.901
    1TCM    cl1  724   3.313   3.906   1.941
    1TCM    cl2  725   3.533   3.834   1.766
    1TCM     h1  726   3.495   3.759   1.989
    1TCM    cl3  727   3.345   3.631   1.854
    1TCM     c1  728   0.201   2.798   2.232
    1TCM    cl1  729   0.058   2.709   2.290
    1TCM    cl2  730   0.249   2.734   2.073
    1TCM     h1  731   0.176   2.905   2.223
    1TCM    cl3  732   0.335   2.777   2.347
    1TCM     c1  733   1.816   0.937   3.561
    1TCM    cl1  734   1.890   0.821   3.673
    1TCM    cl2  735   1.817   1.099   3.634
    1TCM     h1  736   1.872   0.938   3.466
    1TCM    cl3  737   1.648   0.888   3.529
    1TCM     c1  738   1.445   4.582   3.681
    1TCM    cl1  739   1.404   4.430   3.765
    1TCM    cl2  740   1.370   4.582   3.520
    1TCM     h1  741   1.407   4.668   3.740
    1TCM    cl3  742   1.621   4.594   3.664
    1TCM     c1  743   1.330   3.232   3.552
    1TCM    cl1  744   1.255   3.170   3.402
    1TCM    cl2  745   1.299   3.118   3.685
    1TCM     h1  746   1.439   3.242   3.537
    1TCM    cl3  747   1.260   3.390   3.592
    1TCM     c1  748   4.874   2.354   2.494
    1TCM    cl1  749   4.732   2.459   2.509
    1TCM    cl2  750   4.909   2.325   2.322
    1TCM     h1  751   4.962   2.404   2.541
    1TCM    cl3  752   4.843   2.199   2.576
    1TCM     c1  753   2.339   1.345   1.827
    1TCM    cl1  754   2.378   1.497   1.911
    1TCM    cl2  755   2.317   1.376   1.654
    1TCM     h1  756   2.422   1.273   1.842
    1TCM    cl3  757   2.189   1.277   1.895
    1TCM     c1  758   1.348   0.180   3.720
    1TCM    cl1  759   1.305   0.289   3.586
    1TCM    cl2  760   1.236   0.204   3.855
    1TCM     h1  761   1.342   0.075   3.685
    1TCM    cl3  762   1.514   0.215   3.773
    1TCM     c1  763   4.315   3.778   2.742
    1TCM    cl1  764   4.331   3.651   2.866
    1TCM    cl2  765   4.339   3.938   2.817
    1TCM     h1  766   4.392   3.763   2.663
    1TCM    cl3  767   4.153   3.771   2.669
    1TCM     c1  768   4.475   1.309   4.010
    1TCM    cl1  769   4.313   1.237   3.990
    1TCM    cl2  770   4.586   1.241   3.889
    1TCM     h1  771   4.468   1.419   3.996
    1TCM    cl3  772   4.535   1.273   4.173
    1TCM     c1  773   3.865   1.997   2.603
    1TCM    cl1  774   3.978   1.977   2.467
    1TCM    cl2  775   3.948   2.077   2.738
    1TCM     h1  776   3.779   2.058   2.571
    1TCM    cl3  777   3.808   1.837   2.656
    1TCM     c1  778   4.968   4.086   3.352
    1TCM    cl1  779   5.141   4.112   3.320
    1TCM    cl2  780   4.909   4.210   3.464
    1TCM     h1  781   4.912   4.093   3.256
    1TCM    cl3  782   4.944   3.925   3.423
    1TCM     c1  783   0.252   2.026   0.617
    1TCM    cl1  784   0.301   1.930   0.475
    1TCM    cl2  785   0.116   1.946   0.699
    1TCM     h1  786   0.338   2.034   0.687
    1TCM    cl3  787   0.203   2.188   0.565
    1TCM     c1  788   3.676   1.798   3.650
    1TCM    cl1  789   3.614   1.853   3.808
    1TCM    cl2  790   3.580   1.871   3.520
    1TCM     h1  791   3.782   1.829   3.640
    1TCM    cl3  792   3.665   1.621   3.641
    1TCM     c1  793   1.459   2.420   2.974
    1TCM    cl1  794   1.395   2.316   3.103
    1TCM    cl2  795   1.402   2.587   2.999
    1TCM     h1  796   1.570   2.418   2.976
    1TCM    cl3  797   1.401   2.361   2.816
    1TCM     c1  798   0.319   3.065   0.196
    1TCM    cl1  799   0.179   2.983   0.269
    1TCM    cl2  800   0.280   3.115   0.030
    1TCM     h1  801   0.345   3.154   0.257
    1TCM    cl3  802   0.458   2.953   0.193
    1TCM     c1  803   0.822   4.639   5.034
    1TCM    cl1  804   0.758   4.627   4.869
    1TCM    cl2  805   0.778   4.493   5.126
    1TCM     h1  806   0.932   4.649   5.031
    1TCM    cl3  807   0.753   4.782   5.115
    1TCM     c1  808   4.680   4.868   0.160
    1TCM    cl1  809   4.701   5.013   0.060
    1TCM    cl2  810   4.689   4.912   0.332
    1TCM     h1  811   4.581   4.823   0.139
    1TCM    cl3  812   4.808   4.751   0.122
    1TCM     c1  813   0.859   1.599   0.639
    1TCM    cl1  814   1.002   1.598   0.746
    1TCM    cl2  815   0.910   1.564   0.472
    1TCM     h1  816   0.788   1.521   0.673
    1TCM    cl3  817   0.781   1.758   0.646
    1TCM     c1  818   2.396   0.405   3.558
    1TCM    cl1  819   2.418   0.576   3.601
    1TCM    cl2  820   2.381   0.307   3.706
    1TCM     h1  821   2.304   0.394   3.497
    1TCM    cl3  822   2.536   0.349   3.464
    1TCM     c1  823   0.563   1.435   3.382
    1TCM    cl1  824   0.716   1.433   3.474
    1TCM    cl2  825   0.557   1.582   3.282
    1TCM     h1  826   0.558   1.345   3.316
    1TCM    cl3  827   0.426   1.434   3.495
    1TCM     c1  828   0.303   4.493   5.054
    1TCM    cl1  829   0.402   4.598   5.157
    1TCM    cl2  830   0.404   4.428   4.923
    1TCM     h1  831   0.263   4.409   5.114
    1TCM    cl3  832   0.169   4.587   4.985
    1TCM     c1  833   4.306   1.419   2.213
    1TCM    cl1  834   4.396   1.550   2.293
    1TCM    cl2  835   4.343   1.419   2.039
    1TCM     h1  836   4.335   1.321   2.257
    1TCM    cl3  837   4.132   1.445   2.236
    1TCM     c1  838   1.681   0.754   1.853
    1TCM    cl1  839   1.719   0.581   1.837
    1TCM    cl2  840   1.681   0.798   2.025
    1TCM     h1  841   1.758   0.813   1.800
    1TCM    cl3  842   1.521   0.786   1.783
    1TCM     c1  843   0.160   5.118   3.496
    1TCM    cl1  844   0.272   5.232   3.573
    1TCM    cl2  845   0.017   5.096   3.601
    1TCM     h1  846   0.128   5.158   3.398
    1TCM    cl3  847   0.241   4.961   3.473
    1TCM     c1  848   2.007   1.771   3.510
    1TCM    cl1  849   1.856   1.681   3.482
    1TCM    cl2  850   2.054   1.856   3.361
    1TCM     h1  851   1.991   1.845   3.592
    1TCM    cl3  852   2.136   1.658   3.558
    1TCM     c1  853   2.655   3.594   3.832
    1TCM    cl1  854   2.483   3.572   3.874
    1TCM    cl2  855   2.751   3.466   3.909
    1TCM     h1  856   2.667   3.589   3.722
    1TCM    cl3  857   2.710   3.753   3.892
    1TCM     c1  858   0.848   1.378   3.717
    1TCM    cl1  859   1.024   1.388   3.694
    1TCM    cl2  860   0.812   1.363   3.891
    1TCM     h1  861   0.801   1.471   3.678
    1TCM    cl3  862   0.784   1.237   3.631
    1TCM     c1  863   0.797   4.425   1.936
    1TCM    cl1  864   0.778   4.347   1.777
    1TCM    cl2  865   0.669   4.366   2.045
    1TCM     h1  866   0.896   4.399   1.978
    1TCM    cl3  867   0.783   4.601   1.918
    1TCM     c1  868   3.741   4.167   2.610
    1TCM    cl1  869   3.601   4.188   2.502
    1TCM    cl2  870   3.685   4.137   2.776
    1TCM     h1  871   3.802   4.081   2.575
    1TCM    cl3  872   3.840   4.315   2.607
    1TCM     c1  873   0.633   2.548   3.553
    1TCM    cl1  874   0.739   2.530   3.412
    1TCM    cl2  875   0.558   2.392   3.591
    1TCM     h1  876   0.693   2.583   3.640
    1TCM    cl3  877   0.506   2.668   3.517
    1TCM     c1  878   1.711   3.953   1.807
    1TCM    cl1  879   1.851   3.914   1.704
    1TCM    cl2  880   1.766   3.970   1.976
    1TCM     h1  881   1.666   4.048   1.773
    1TCM    cl3  882   1.591   3.823   1.797
    1TCM     c1  883   1.615   1.489   2.619
    1TCM    cl1  884   1.645   1.318   2.581
    1TCM    cl2  885   1.759   1.559   2.696
    1TCM     h1  886   1.592   1.544   2.526
    1TCM    cl3  887   1.476   1.501   2.730
    1TCM     c1  888   3.954   0.132   4.040
    1TCM    cl1  889   3.880   0.024   4.160
    1TCM    cl2  890   3.903   0.083   3.877
    1TCM     h1  891   3.921   0.236   4.060
    1TCM    cl3  892   4.131   0.122   4.052
    1TCM     c1  893   0.162   4.562   4.577
    1TCM    cl1  894   0.261   4.549   4.430
    1TCM    cl2  895   0.264   4.615   4.713
    1TCM     h1  896   0.081   4.637   4.560
    1TCM    cl3  897   0.089   4.405   4.615
    1TCM     c1  898   1.033   1.820   0.858
    1TCM    cl1  899   1.101   1.984   0.867
    1TCM    cl2  900   0.893   1.807   0.966
    1TCM     h1  901   1.002   1.799   0.754
    1TCM    cl3  902   1.157   1.702   0.908
    1TCM     c1  903   2.710   2.796   0.418
    1TCM    cl1  904   2.678   2.947   0.330
    1TCM    cl2  905   2.689   2.658   0.308
    1TCM     h1  906   2.814   2.796   0.457
    1TCM    cl3  907   2.596   2.781   0.554
    1TCM     c1  908   3.671   1.387   3.450
    1TCM    cl1  909   3.516   1.439   3.380
    1TCM    cl2  910   3.730   1.242   3.365
    1TCM     h1  911   3.746   1.469   3.440
    1TCM    cl3  912   3.648   1.348   3.622
    1TCM     c1  913   3.504   0.329   1.963
    1TCM    cl1  914   3.366   0.225   1.924
    1TCM    cl2  915   3.581   0.385   1.813
    1TCM     h1  916   3.469   0.417   2.022
    1TCM    cl3  917   3.622   0.237   2.059
    1TCM     c1  918   4.141   2.673   1.522
    1TCM    cl1  919   4.133   2.814   1.631
    1TCM    cl2  920   4.253   2.708   1.388
    1TCM     h1  921   4.177   2.585   1.579
    1TCM    cl3  922   3.979   2.640   1.457
    1TCM     c1  923   2.976   4.253   2.661
    1TCM    cl1  924   2.961   4.324   2.823
    1TCM    cl2  925   2.966   4.076   2.672
    1TCM     h1  926   2.894   4.291   2.596
    1TCM    cl3  927   3.133   4.299   2.591
    1TCM     c1  928   4.464   1.113   2.764
    1TCM    cl1  929   4.353   0.992   2.696
    1TCM    cl2  930   4.497   1.074   2.934
    1TCM     h1  931   4.559   1.112   2.707
    1TCM    cl3  932   4.390   1.274   2.754
    1TCM     c1  933   0.980   2.073   5.105
    1TCM    cl1  934   1.048   2.235   5.131
    1TCM    cl2  935   0.937   2.000   5.261
    1TCM     h1  936   0.889   2.081   5.042
    1TCM    cl3  937   1.100   1.970   5.023
    1TCM     c1  938   2.385   4.605   4.633
    1TCM    cl1  939   2.295   4.759   4.632
    1TCM    cl2  940   2.413   4.555   4.801
    1TCM     h1  941   2.326   4.528   4.581
    1TCM    cl3  942   2.541   4.628   4.551
    1TCM     c1  943   2.380   5.203   5.045
    1TCM    cl1  944   2.529   5.257   4.964
    1TCM    cl2  945   2.422   5.115   5.194
    1TCM     h1  946   2.317   5.292   5.070
    1TCM    cl3  947   2.289   5.096   4.936
    1TCM     c1  948   1.994   1.268   3.033
    1TCM    cl1  949   1.959   1.431   3.096
    1TCM    cl2  950   2.147   1.272   2.942
    1TCM     h1  951   2.003   1.197   3.118
    1TCM    cl3  952   1.862   1.216   2.926
    1TCM     c1  953   1.925   2.223   5.146
    1TCM    cl1  954   2.027   2.273   5.283
    1TCM    cl2  955   1.909   2.046   5.144
    1TCM     h1  956   1.825   2.269   5.155
    1TCM    cl3  957   2.001   2.277   4.994
    1TCM     c1  958   2.179   2.035   1.757
    1TCM    cl1  959   2.297   2.167   1.740
    1TCM    cl2  960   2.264   1.883   1.794
    1TCM     h1  961   2.109   2.059   1.840
    1TCM    cl3  962   2.087   2.017   1.606
    1TCM     c1  963   2.686   2.645   0.862
    1TCM    cl1  964   2.841   2.695   0.933
    1TCM    cl2  965   2.711   2.602   0.691
    1TCM     h1  966   2.647   2.557   0.917
    1TCM    cl3  967   2.570   2.779   0.873
    1TCM     c1  968   3.058   1.870   1.996
    1TCM    cl1  969   3.131   1.757   2.112
    1TCM    cl2  970   3.186   1.964   1.916
    1TCM     h1  971   3.001   1.813   1.919
    1TCM    cl3  972   2.948   1.980   2.081
    1TCM     c1  973   4.642   4.582   2.748
    1TCM    cl1  974   4.542   4.726   2.775
    1TCM    cl2  975   4.695   4.578   2.578
    1TCM     h1  976   4.731   4.586   2.814
    1TCM    cl3  977   4.548   4.436   2.784
    1TCM     c1  978   3.248   0.404   4.837
    1TCM    cl1  979   3.143   0.307   4.943
    1TCM    cl2  980   3.187   0.396   4.670
    1TCM     h1  981   3.247   0.509   4.871
    1TCM    cl3  982   3.413   0.340   4.842
    1TCM     c1  983   3.974   3.986   4.126
    1TCM    cl1  984   4.121   4.018   4.220
    1TCM    cl2  985   3.913   4.138   4.057
    1TCM     h1  986   3.997   3.915   4.044
    1TCM    cl3  987   3.850   3.916   4.232
    1TCM     c1  988   2.024   1.422   2.634
    1TCM    cl1  989   2.156   1.307   2.604
    1TCM    cl2  990   2.091   1.586   2.650
    1TCM     h1  991   1.953   1.419   2.549
    1TCM    cl3  992   1.939   1.378   2.784
    1TCM     c1  993   2.677   0.473   0.140
    1TCM    cl1  994   2.516   0.540   0.108
    1TCM    cl2  995   2.712   0.484   0.314
    1TCM     h1  996   2.680   0.367   0.108
    1TCM    cl3  997   2.799   0.566   0.050
    1TCM     c1  998   2.429   2.929   2.035
    1TCM    cl1  999   2.583   2.844   2.008
    1TCM    cl2 1000   2.420   2.982   2.205
    1TCM     h1 1001   2.423   3.017   1.968
    1TCM    cl3 1002   2.293   2.819   2.001
    1TCM     c1 1003   1.093   4.940   1.607
    1TCM    cl1 1004   0.997   5.048   1.710
    1TCM    cl2 1005   1.089   5.000   1.439
    1TCM     h1 1006   1.198   4.938   1.643
    1TCM    cl3 1007   1.025   4.776   1.613
    1TCM     c1 1008   4.240   2.312   4.423
    1TCM    cl1 1009   4.337   2.448   4.485
    1TCM    cl2 1010   4.347   2.180   4.372
    1TCM     h1 1011   4.172   2.276   4.504
    1TCM    cl3 1012   4.142   2.366   4.285
    1TCM     c1 1013   1.896   5.082   5.188
    1TCM    cl1 1014   1.752   5.166   5.249
    1TCM    cl2 1015   1.847   4.932   5.106
    1TCM     h1 1016   1.950   5.147   5.116
    1TCM    cl3 1017   2.004   5.043   5.324
    1TCM     c1 1018   3.500   3.861   0.548
    1TCM    cl1 1019   3.444   3.890   0.382
    1TCM    cl2 1020   3.493   4.012   0.641
    1TCM     h1 1021   3.435   3.784   0.596
    1TCM    cl3 1022   3.668   3.802   0.545
    1TCM     c1 1023   4.667   0.991   1.072
    1TCM    cl1 1024   4.584   0.861   0.983
    1TCM    cl2 1025   4.749   0.922   1.214
    1TCM     h1 1026   4.741   1.039   1.006
    1TCM    cl3 1027   4.548   1.111   1.125
    1TCM     c1 1028   4.192   1.883   1.990
    1TCM    cl1 1029   4.324   1.835   2.098
    1TCM    cl2 1030   4.162   2.058   2.007
    1TCM     h1 1031   4.219   1.861   1.885
    1TCM    cl3 1032   4.044   1.794   2.033
    1TCM     c1 1033   4.123   1.729   0.148
    1TCM    cl1 1034   4.251   1.759   0.028
    1TCM    cl2 1035   4.076   1.883   0.224
    1TCM     h1 1036   4.035   1.684   0.098
    1TCM    cl3 1037   4.183   1.618   0.273
    1TCM     c1 1038   4.006   3.257   4.815
    1TCM    cl1 1039   4.066   3.097   4.865
    1TCM    cl2 1040   3.829   3.261   4.831
    1TCM     h1 1041   4.051   3.335   4.880
    1TCM    cl3 1042   4.052   3.287   4.646
    1TCM     c1 1043   1.222   0.524   3.848
    1TCM    cl1 1044   1.194   0.654   3.730
    1TCM    cl2 1045   1.210   0.590   4.012
    1TCM     h1 1046   1.145   0.445   3.834
    1TCM    cl3 1047   1.384   0.455   3.823
    1TCM     c1 1048   3.586   0.356   1.428
    1TCM    cl1 1049   3.560   0.189   1.482
    1TCM    cl2 1050   3.691   0.441   1.544
    1TCM     h1 1051   3.635   0.356   1.328
    1TCM    cl3 1052   3.430   0.441   1.417
    1TCM     c1 1053   1.276   0.189   4.245
    1TCM    cl1 1054   1.227   0.248   4.406
    1TCM    cl2 1055   1.233   0.310   4.122
    1TCM     h1 1056   1.385   0.172   4.244
    1TCM    cl3 1057   1.191   0.036   4.210
    1TCM     c1 1058   2.264   1.081   4.191
    1TCM    cl1 1059   2.368   1.222   4.224
    1TCM    cl2 1060   2.159   1.051   4.331
    1TCM     h1 1061   2.202   1.101   4.102
    1TCM    cl3 1062   2.366   0.938   4.162
    1TCM     c1 1063   3.352   0.779   0.415
    1TCM    cl1 1064   3.324   0.846   0.253
    1TCM    cl2 1065   3.219   0.827   0.523
    1TCM     h1 1066   3.357   0.669   0.409
    1TCM    cl3 1067   3.506   0.842   0.479
    1TCM     c1 1068   1.657   2.205   2.763
    1TCM    cl1 1069   1.689   2.072   2.877
    1TCM    cl2 1070   1.491   2.193   2.702
    1TCM     h1 1071   1.670   2.302   2.816
    1TCM    cl3 1072   1.771   2.195   2.627
    1TCM     c1 1073   4.960   4.023   4.666
    1TCM    cl1 1074   5.114   4.104   4.703
    1TCM    cl2 1075   4.964   3.857   4.729
    1TCM     h1 1076   4.877   4.078   4.714
    1TCM    cl3 1077   4.936   4.019   4.490
    1TCM     c1 1078   0.859   0.977   2.808
    1TCM    cl1 1079   0.855   1.109   2.927
    1TCM    cl2 1080   0.971   0.851   2.863
    1TCM     h1 1081   0.757   0.934   2.797
    1TCM    cl3 1082   0.913   1.041   2.651
    1TCM     c1 1083   4.718   0.978   3.664
    1TCM    cl1 1084   4.798   0.860   3.557
    1TCM    cl2 1085   4.623   1.092   3.565
    1TCM     h1 1086   4.650   0.925   3.734
    1TCM    cl3 1087   4.841   1.067   3.756
    1TCM     c1 1088   5.096   4.822   0.646
    1TCM    cl1 1089   4.953   4.923   0.616
    1TCM    cl2 1090   5.075   4.664   0.568
    1TCM     h1 1091   5.186   4.872   0.604
    1TCM    cl3 1092   5.117   4.800   0.821
    1TCM     c1 1093   0.709   3.370   0.353
    1TCM    cl1 1094   0.791   3.425   0.502
    1TCM    cl2 1095   0.771   3.463   0.214
    1TCM     h1 1096   0.729   3.262   0.338
    1TCM    cl3 1097   0.534   3.397   0.368
    1TCM     c1 1098   1.138   2.469   4.730
    1TCM    cl1 1099   1.244   2.378   4.840
    1TCM    cl2 1100   1.105   2.372   4.585
    1TCM     h1 1101   1.042   2.492   4.782
    1TCM    cl3 1102   1.218   2.621   4.683
    1TCM     c1 1103   1.609   4.115   0.106
    1TCM    cl1 1104   1.718   4.226   0.192
    1TCM    cl2 1105   1.449   4.117   0.183
    1TCM     h1 1106   1.600   4.146   0.000
    1TCM    cl3 1107   1.676   3.950   0.113
    1TCM     c1 1108   0.694   3.252   0.714
    1TCM    cl1 1109   0.688   3.111   0.823
    1TCM    cl2 1110   0.686   3.196   0.545
    1TCM     h1 1111   0.609   3.319   0.735
    1TCM    cl3 1112   0.847   3.340   0.739
    1TCM     c1 1113   4.260   1.648   2.609
    1TCM    cl1 1114   4.175   1.555   2.734
    1TCM    cl2 1115   4.205   1.596   2.448
    1TCM     h1 1116   4.239   1.756   2.622
    1TCM    cl3 1117   4.435   1.620   2.624
    1TCM     c1 1118   2.079   0.615   4.417
    1TCM    cl1 1119   2.026   0.766   4.339
    1TCM    cl2 1120   2.020   0.612   4.585
    1TCM     h1 1121   2.037   0.529   4.361
    1TCM    cl3 1122   2.257   0.607   4.416
    1TCM     c1 1123   0.449   0.140   2.564
    1TCM    cl1 1124   0.340   0.148   2.424
    1TCM    cl2 1125   0.354   0.136   2.713
    1TCM     h1 1126   0.512   0.049   2.557
    1TCM    cl3 1127   0.555   0.284   2.565
    1TCM     c1 1128   1.847   4.582   4.429
    1TCM    cl1 1129   1.903   4.434   4.510
    1TCM    cl2 1130   1.983   4.696   4.415
    1TCM     h1 1131   1.809   4.557   4.328
    1TCM    cl3 1132   1.717   4.657   4.525
    1TCM     c1 1133   4.249   4.662   1.500
    1TCM    cl1 1134   4.337   4.815   1.476
    1TCM    cl2 1135   4.201   4.647   1.670
    1TCM     h1 1136   4.158   4.662   1.436
    1TCM    cl3 1137   4.354   4.526   1.455
    1TCM     c1 1138   1.093   2.624   0.557
    1TCM    cl1 1139   0.923   2.581   0.583
    1TCM    cl2 1140   1.158   2.531   0.421
    1TCM     h1 1141   1.101   2.733   0.535
    1TCM    cl3 1142   1.187   2.587   0.704
    1TCM     c1 1143   1.410   1.047   4.289
    1TCM    cl1 1144   1.401   1.163   4.423
    1TCM    cl2 1145   1.411   1.135   4.135
    1TCM     h1 1146   1.503   0.987   4.299
    1TCM    cl3 1147   1.269   0.939   4.295
    1TCM     c1 1148   1.243   1.970   4.758
    1TCM    cl1 1149   1.260   1.874   4.907
    1TCM    cl2 1150   1.267   2.142   4.796
    1TCM     h1 1151   1.320   1.938   4.684
    1TCM    cl3 1152   1.081   1.946   4.689
    1TCM     c1 1153   1.269   4.601   1.445
    1TCM    cl1 1154   1.384   4.682   1.337
    1TCM    cl2 1155   1.271   4.679   1.605
    1TCM     h1 1156   1.167   4.608   1.402
    1TCM    cl3 1157   1.314   4.430   1.462
    1TCM     c1 1158   5.124   2.790   2.623
    1TCM    cl1 1159   4.954   2.765   2.577
    1TCM    cl2 1160   5.216   2.844   2.481
    1TCM     h1 1161   5.130   2.867   2.703
    1TCM    cl3 1162   5.193   2.637   2.683
    1TCM     c1 1163   0.914   2.454   0.223
    1TCM    cl1 1164   1.082   2.396   0.214
    1TCM    cl2 1165   0.846   2.463   0.058
    1TCM     h1 1166   0.854   2.384   0.284
    1TCM    cl3 1167   0.911   2.615   0.297
    1TCM     c1 1168   3.660   4.773   3.349
    1TCM    cl1 1169   3.579   4.816   3.196
    1TCM    cl2 1170   3.660   4.913   3.458
    1TCM     h1 1171   3.606   4.689   3.397
    1TCM    cl3 1172   3.828   4.725   3.315
    1TCM     c1 1173   2.136   1.043   2.458
    1TCM    cl1 1174   2.172   0.950   2.311
    1TCM    cl2 1175   2.154   0.938   2.600
    1TCM     h1 1176   2.207   1.129   2.466
    1TCM    cl3 1177   1.970   1.105   2.450
    1TCM     c1 1178   0.694   4.577   4.492
    1TCM    cl1 1179   0.864   4.615   4.457
    1TCM    cl2 1180   0.596   4.725   4.481
    1TCM     h1 1181   0.657   4.503   4.418
    1TCM    cl3 1182   0.680   4.509   4.655
    1TCM     c1 1183   2.057   4.863   3.924
    1TCM    cl1 1184   2.007   4.816   4.089
    1TCM    cl2 1185   1.929   4.819   3.809
    1TCM     h1 1186   2.074   4.972   3.920
    1TCM    cl3 1187   2.207   4.778   3.882
    1TCM     c1 1188   1.209   0.105   1.426
    1TCM    cl1 1189   1.154   0.250   1.513
    1TCM    cl2 1190   1.290   0.153   1.275
    1TCM     h1 1191   1.281   0.049   1.490
    1TCM    cl3 1192   1.069   0.001   1.389
    1TCM     c1 1193   2.549   3.118   1.095
    1TCM    cl1 1194   2.684   3.005   1.071
    1TCM    cl2 1195   2.503   3.120   1.266
    1TCM     h1 1196   2.580   3.219   1.063
    1TCM    cl3 1197   2.410   3.064   0.997
    1TCM     c1 1198   1.016   3.616   1.106
    1TCM    cl1 1199   0.853   3.664   1.158
    1TCM    cl2 1200   1.136   3.724   1.180
    1TCM     h1 1201   1.035   3.512   1.138
    1TCM    cl3 1202   1.027   3.627   0.929
    1TCM     c1 1203   3.772   2.385   2.047
    1TCM    cl1 1204   3.832   2.456   1.895
    1TCM    cl2 1205   3.682   2.236   2.011
    1TCM     h1 1206   3.858   2.361   2.113
    1TCM    cl3 1207   3.665   2.501   2.128
    1TCM     c1 1208   2.742   2.461   1.260
    1TCM    cl1 1209   2.819   2.611   1.206
    1TCM    cl2 1210   2.866   2.351   1.326
    1TCM     h1 1211   2.668   2.484   1.339
    1TCM    cl3 1212   2.661   2.383   1.123
    1TCM     c1 1213   2.748   3.495   4.294
    1TCM    cl1 1214   2.653   3.490   4.144
    1TCM    cl2 1215   2.756   3.662   4.354
    1TCM     h1 1216   2.700   3.431   4.371
    1TCM    cl3 1217   2.913   3.436   4.263
    1TCM     c1 1218   1.144   2.834   4.159
    1TCM    cl1 1219   1.263   2.956   4.109
    1TCM    cl2 1220   1.225   2.676   4.176
    1TCM     h1 1221   1.099   2.863   4.256
    1TCM    cl3 1222   1.017   2.822   4.035
    1TCM     c1 1223   1.533   2.984   3.474
    1TCM    cl1 1224   1.606   3.030   3.630
    1TCM    cl2 1225   1.365   2.931   3.501
    1TCM     h1 1226   1.534   3.072   3.406
    1TCM    cl3 1227   1.627   2.851   3.401
    1TCM     c1 1228   3.810   4.796   3.976
    1TCM    cl1 1229   3.821   4.643   4.067
    1TCM    cl2 1230   3.750   4.763   3.812
    1TCM     h1 1231   3.740   4.865   4.028
    1TCM    cl3 1232   3.971   4.871   3.966
    1TCM     c1 1233   0.184   3.222   0.511
    1TCM    cl1 1234   0.074   3.116   0.420
    1TCM    cl2 1235   0.188   3.171   0.681
    1TCM     h1 1236   0.286   3.215   0.468
    1TCM    cl3 1237   0.127   3.390   0.500
    1TCM     c1 1238   1.452   2.341   5.144
    1TCM    cl1 1239   1.487   2.252   5.293
    1TCM    cl2 1240   1.404   2.227   5.016
    1TCM     h1 1241   1.369   2.413   5.162
    1TCM    cl3 1242   1.597   2.430   5.092
    1TCM     c1 1243   0.293   1.908   3.055
    1TCM    cl1 1244   0.253   1.805   2.915
    1TCM    cl2 1245   0.268   1.816   3.205
    1TCM     h1 1246   0.399   1.940   3.048
    1TCM    cl3 1247   0.187   2.051   3.055
    1TCM     c1 1248   3.644   0.275   5.043
    1TCM    cl1 1249   3.611   0.169   4.903
    1TCM    cl2 1250   3.681   0.439   4.986
    1TCM     h1 1251   3.554   0.278   5.108
    1TCM    cl3 1252   3.782   0.210   5.134
    1TCM     c1 1253   1.778   2.766   2.145
    1TCM    cl1 1254   1.789   2.920   2.057
    1TCM    cl2 1255   1.607   2.721   2.166
    1TCM     h1 1256   1.830   2.687   2.087
    1TCM    cl3 1257   1.855   2.784   2.305
    1TCM     c1 1258   4.208   0.614   4.288
    1TCM    cl1 1259   4.213   0.709   4.439
    1TCM    cl2 1260   4.334   0.673   4.178
    1TCM     h1 1261   4.226   0.507   4.312
    1TCM    cl3 1262   4.048   0.632   4.212
    1TCM     c1 1263   0.344   3.830   1.611
    1TCM    cl1 1264   0.396   3.755   1.458
    1TCM    cl2 1265   0.219   3.729   1.687
    1TCM     h1 1266   0.431   3.838   1.680
    1TCM    cl3 1267   0.279   3.992   1.579
    1TCM     c1 1268   0.130   1.625   0.909
    1TCM    cl1 1269   0.210   1.742   0.801
    1TCM    cl2 1270   0.004   1.708   1.002
    1TCM     h1 1271   0.084   1.545   0.848
    1TCM    cl3 1272   0.250   1.555   1.020
    1TCM     c1 1273   3.688   2.595   2.889
    1TCM    cl1 1274   3.533   2.569   2.973
    1TCM    cl2 1275   3.796   2.690   2.993
    1TCM     h1 1276   3.735   2.496   2.868
    1TCM    cl3 1277   3.660   2.682   2.737
    1TCM     c1 1278   0.278   4.861   2.875
    1TCM    cl1 1279   0.212   5.025   2.853
    1TCM    cl2 1280   0.164   4.764   2.971
    1TCM     h1 1281   0.292   4.814   2.776
    1TCM    cl3 1282   0.434   4.871   2.960
    1TCM     c1 1283   0.124   4.631   2.460
    1TCM    cl1 1284   0.086   4.538   2.313
    1TCM    cl2 1285   0.034   4.564   2.598
    1TCM     h1 1286   0.233   4.624   2.481
    1TCM    cl3 1287   0.079   4.801   2.436
    1TCM     c1 1288   0.535   2.481   2.317
    1TCM    cl1 1289   0.395   2.416   2.405
    1TCM    cl2 1290   0.508   2.653   2.281
    1TCM     h1 1291   0.626   2.470   2.379
    1TCM    cl3 1292   0.557   2.392   2.165
    1TCM     c1 1293   0.664   4.052   2.904
    1TCM    cl1 1294   0.568   3.926   2.822
    1TCM    cl2 1295   0.791   4.109   2.794
    1TCM     h1 1296   0.598   4.137   2.931
    1TCM    cl3 1297   0.737   3.984   3.051
    1TCM     c1 1298   2.408   0.720   3.978
    1TCM    cl1 1299   2.256   0.700   4.069
    1TCM    cl2 1300   2.390   0.649   3.816
    1TCM     h1 1301   2.431   0.828   3.969
    1TCM    cl3 1302   2.540   0.638   4.065
    1TCM     c1 1303   1.845   2.089   2.174
    1TCM    cl1 1304   1.985   1.992   2.229
    1TCM    cl2 1305   1.766   2.164   2.314
    1TCM     h1 1306   1.881   2.168   2.105
    1TCM    cl3 1307   1.730   1.983   2.090
    1TCM     c1 1308   0.901   3.180   2.425
    1TCM    cl1 1309   0.997   3.206   2.277
    1TCM    cl2 1310   0.733   3.230   2.397
    1TCM     h1 1311   0.903   3.072   2.451
    1TCM    cl3 1312   0.970   3.275   2.558
    1TCM     c1 1313   4.720   3.703   3.112
    1TCM    cl1 1314   4.839   3.652   3.234
    1TCM    cl2 1315   4.743   3.876   3.076
    1TCM     h1 1316   4.735   3.644   3.019
    1TCM    cl3 1317   4.556   3.676   3.174
    1TCM     c1 1318   4.262   1.096   4.522
    1TCM    cl1 1319   4.174   1.177   4.391
    1TCM    cl2 1320   4.250   0.920   4.502
    1TCM     h1 1321   4.369   1.126   4.519
    1TCM    cl3 1322   4.192   1.142   4.679
    1TCM     c1 1323   0.149   3.137   4.659
    1TCM    cl1 1324   0.235   3.187   4.807
    1TCM    cl2 1325   0.254   3.165   4.518
    1TCM     h1 1326   0.124   3.029   4.665
    1TCM    cl3 1327   0.000   3.232   4.642
    1TCM     c1 1328   1.142   1.919   0.369
    1TCM    cl1 1329   1.284   1.894   0.265
    1TCM    cl2 1330   1.196   1.951   0.535
    1TCM     h1 1331   1.083   2.005   0.332
    1TCM    cl3 1332   1.041   1.773   0.367
    1TCM     c1 1333   2.130   2.268   2.022
    1TCM    cl1 1334   2.076   2.146   2.141
    1TCM    cl2 1335   2.000   2.297   1.904
    1TCM     h1 1336   2.154   2.362   2.075
    1TCM    cl3 1337   2.275   2.208   1.938
    1TCM     c1 1338   2.580   4.504   3.886
    1TCM    cl1 1339   2.403   4.488   3.881
    1TCM    cl2 1340   2.630   4.640   3.783
    1TCM     h1 1341   2.613   4.522   3.990
    1TCM    cl3 1342   2.655   4.354   3.826
    1TCM     c1 1343   3.311   0.576   1.751
    1TCM    cl1 1344   3.434   0.667   1.840
    1TCM    cl2 1345   3.338   0.594   1.576
    1TCM     h1 1346   3.318   0.468   1.778
    1TCM    cl3 1347   3.149   0.637   1.793
    1TCM     c1 1348   2.469   4.814   4.902
    1TCM    cl1 1349   2.566   4.943   4.976
    1TCM    cl2 1350   2.502   4.808   4.727
    1TCM     h1 1351   2.495   4.717   4.948
    1TCM    cl3 1352   2.296   4.848   4.928
    1TCM     c1 1353   2.668   1.875   3.434
    1TCM    cl1 1354   2.626   1.731   3.339
    1TCM    cl2 1355   2.814   1.950   3.365
    1TCM     h1 1356   2.585   1.947   3.431
    1TCM    cl3 1357   2.700   1.827   3.602
    1TCM     c1 1358   0.873   1.701   4.910
    1TCM    cl1 1359   1.035   1.670   4.975
    1TCM    cl2 1360   0.757   1.722   5.044
    1TCM     h1 1361   0.875   1.794   4.848
    1TCM    cl3 1362   0.822   1.564   4.808
    1TCM     c1 1363   3.150   1.156   3.115
    1TCM    cl1 1364   3.062   1.074   3.246
    1TCM    cl2 1365   3.323   1.117   3.126
    1TCM     h1 1366   3.110   1.122   3.017
    1TCM    cl3 1367   3.127   1.332   3.130
    1TCM     c1 1368   3.748   0.814   1.709
    1TCM    cl1 1369   3.674   0.684   1.804
    1TCM    cl2 1370   3.758   0.765   1.538
    1TCM     h1 1371   3.687   0.906   1.717
    1TCM    cl3 1372   3.912   0.847   1.771
    1TCM     c1 1373   0.396   0.303   0.689
    1TCM    cl1 1374   0.267   0.194   0.632
    1TCM    cl2 1375   0.442   0.258   0.855
    1TCM     h1 1376   0.484   0.294   0.622
    1TCM    cl3 1377   0.336   0.470   0.687
    1TCM     c1 1378   0.856   3.825   3.746
    1TCM    cl1 1379   1.013   3.855   3.823
    1TCM    cl2 1380   0.725   3.886   3.851
    1TCM     h1 1381   0.852   3.876   3.648
    1TCM    cl3 1382   0.835   3.650   3.722
    1TCM     c1 1383   5.230   4.240   4.443
    1TCM    cl1 1384   5.183   4.397   4.512
    1TCM    cl2 1385   5.340   4.156   4.554
    1TCM     h1 1386   5.139   4.178   4.426
    1TCM    cl3 1387   5.312   4.266   4.287
    1TCM     c1 1388   3.756   1.790   0.940
    1TCM    cl1 1389   3.866   1.846   1.068
    1TCM    cl2 1390   3.834   1.809   0.782
    1TCM     h1 1391   3.732   1.683   0.957
    1TCM    cl3 1392   3.606   1.886   0.945
    1TCM     c1 1393   3.435   4.487   3.773
    1TCM    cl1 1394   3.546   4.559   3.654
    1TCM    cl2 1395   3.526   4.440   3.918
    1TCM     h1 1396   3.357   4.562   3.800
    1TCM    cl3 1397   3.358   4.344   3.702
    1TCM     c1 1398   1.744   4.742   3.264
    1TCM    cl1 1399   1.740   4.599   3.370
    1TCM    cl2 1400   1.693   4.696   3.100
    1TCM     h1 1401   1.675   4.819   3.304
    1TCM    cl3 1402   1.909   4.807   3.258
    1TCM     c1 1403   2.558   0.566   2.623
    1TCM    cl1 1404   2.639   0.477   2.492
    1TCM    cl2 1405   2.546   0.738   2.580
    1TCM     h1 1406   2.456   0.525   2.638
    1TCM    cl3 1407   2.651   0.548   2.773
    1TCM     c1 1408   3.332   2.129   4.221
    1TCM    cl1 1409   3.429   2.215   4.344
    1TCM    cl2 1410   3.249   2.248   4.119
    1TCM     h1 1411   3.399   2.067   4.159
    1TCM    cl3 1412   3.213   2.025   4.302
    1TCM     c1 1413   2.970   2.483   0.587
    1TCM    cl1 1414   2.898   2.356   0.689
    1TCM    cl2 1415   3.066   2.594   0.689
    1TCM     h1 1416   3.036   2.437   0.511
    1TCM    cl3 1417   2.841   2.575   0.507
    1TCM     c1 1418   1.591   0.441   5.040
    1TCM    cl1 1419   1.724   0.521   4.953
    1TCM    cl2 1420   1.657   0.310   5.141
    1TCM     h1 1421   1.539   0.515   5.104
    1TCM    cl3 1422   1.477   0.373   4.923
    1TCM     c1 1423   0.797   1.779   1.569
    1TCM    cl1 1424   0.936   1.727   1.471
    1TCM    cl2 1425   0.853   1.821   1.733
    1TCM     h1 1426   0.750   1.868   1.522
    1TCM    cl3 1427   0.678   1.648   1.579
    1TCM     c1 1428   4.969   3.180   0.279
    1TCM    cl1 1429   4.889   3.210   0.435
    1TCM    cl2 1430   5.000   3.006   0.261
    1TCM     h1 1431   4.903   3.215   0.196
    1TCM    cl3 1432   5.123   3.269   0.273
    1TCM     c1 1433   0.680   1.714   4.023
    1TCM    cl1 1434   0.697   1.572   3.917
    1TCM    cl2 1435   0.511   1.725   4.078
    1TCM     h1 1436   0.747   1.703   4.110
    1TCM    cl3 1437   0.723   1.861   3.933
    1TCM     c1 1438   0.991   0.740   0.257
    1TCM    cl1 1439   1.082   0.892   0.270
    1TCM    cl2 1440   0.845   0.767   0.159
    1TCM     h1 1441   1.054   0.663   0.209
    1TCM    cl3 1442   0.944   0.685   0.420
    1TCM     c1 1443   3.491   4.924   4.868
    1TCM    cl1 1444   3.349   4.983   4.780
    1TCM    cl2 1445   3.455   4.766   4.942
    1TCM     h1 1446   3.577   4.914   4.798
    1TCM    cl3 1447   3.534   5.041   4.996
    1TCM     c1 1448   3.095   3.881   3.602
    1TCM    cl1 1449   3.017   3.846   3.758
    1TCM    cl2 1450   3.183   3.736   3.547
    1TCM     h1 1451   3.018   3.908   3.527
    1TCM    cl3 1452   3.210   4.015   3.622
    1TCM     c1 1453   2.919   4.271   3.261
    1TCM    cl1 1454   2.960   4.115   3.336
    1TCM    cl2 1455   2.971   4.270   3.091
    1TCM     h1 1456   2.809   4.287   3.266
    1TCM    cl3 1457   3.001   4.402   3.348
    1TCM     c1 1458   3.514   1.333   2.679
    1TCM    cl1 1459   3.547   1.501   2.632
    1TCM    cl2 1460   3.430   1.330   2.836
    1TCM     h1 1461   3.451   1.285   2.602
    1TCM    cl3 1462   3.668   1.244   2.692
    1TCM     c1 1463   4.572   2.095   5.139
    1TCM    cl1 1464   4.413   2.173   5.124
    1TCM    cl2 1465   4.584   2.015   5.297
    1TCM     h1 1466   4.583   2.019   5.058
    1TCM    cl3 1467   4.700   2.217   5.124
    1TCM     c1 1468   3.168   2.257   0.790
    1TCM    cl1 1469   3.210   2.284   0.960
    1TCM    cl2 1470   3.000   2.200   0.778
    1TCM     h1 1471   3.180   2.351   0.733
    1TCM    cl3 1472   3.277   2.133   0.722
    1TCM     c1 1473   4.644   4.832   1.534
    1TCM    cl1 1474   4.742   4.826   1.386
    1TCM    cl2 1475   4.739   4.907   1.665
    1TCM     h1 1476   4.553   4.892   1.516
    1TCM    cl3 1477   4.598   4.667   1.582
    1TCM     c1 1478   4.678   0.717   3.260
    1TCM    cl1 1479   4.576   0.635   3.140
    1TCM    cl2 1480   4.585   0.743   3.409
    1TCM     h1 1481   4.767   0.655   3.282
    1TCM    cl3 1482   4.731   0.874   3.195
    1TCM     c1 1483   3.559   2.216   0.446
    1TCM    cl1 1484   3.582   2.044   0.485
    1TCM    cl2 1485   3.505   2.233   0.278
    1TCM     h1 1486   3.482   2.259   0.514
    1TCM    cl3 1487   3.712   2.304   0.468
    1TCM     c1 1488   1.759   0.160   2.738
    1TCM    cl1 1489   1.876   0.293   2.727
    1TCM    cl2 1490   1.840   0.015   2.802
    1TCM     h1 1491   1.676   0.188   2.806
    1TCM    cl3 1492   1.694   0.124   2.576
    1TCM     c1 1493   1.315   4.631   5.112
    1TCM    cl1 1494   1.212   4.736   5.212
    1TCM    cl2 1495   1.484   4.683   5.126
    1TCM     h1 1496   1.305   4.526   5.147
    1TCM    cl3 1497   1.263   4.641   4.942
    1TCM     c1 1498   5.138   0.288   4.508
    1TCM    cl1 1499   5.083   0.154   4.405
    1TCM    cl2 1500   5.133   0.237   4.678
    1TCM     h1 1501   5.242   0.316   4.480
    1TCM    cl3 1502   5.031   0.428   4.484
    1TCM     c1 1503   4.334   4.872   0.273
    1TCM    cl1 1504   4.354   4.830   0.101
    1TCM    cl2 1505   4.337   4.725   0.371
    1TCM     h1 1506   4.417   4.939   0.304
    1TCM    cl3 1507   4.179   4.956   0.295
    1TCM     c1 1508   0.626   2.544   3.914
    1TCM    cl1 1509   0.514   2.631   3.806
    1TCM    cl2 1510   0.559   2.541   4.079
    1TCM     h1 1511   0.639   2.440   3.877
    1TCM    cl3 1512   0.783   2.626   3.915
    1TCM     c1 1513   4.153   1.321   1.670
    1TCM    cl1 1514   4.162   1.480   1.750
    1TCM    cl2 1515   4.177   1.193   1.791
    1TCM     h1 1516   4.053   1.309   1.623
    1TCM    cl3 1517   4.279   1.310   1.546
    1TCM     c1 1518   1.364   4.916   0.340
    1TCM    cl1 1519   1.526   4.844   0.356
    1TCM    cl2 1520   1.339   4.966   0.171
    1TCM     h1 1521   1.287   4.842   0.369
    1TCM    cl3 1522   1.352   5.058   0.446
    1TCM     c1 1523   3.303   1.040   4.024
    1TCM    cl1 1524   3.280   1.204   3.960
    1TCM    cl2 1525   3.269   1.039   4.199
    1TCM     h1 1526   3.233   0.970   3.973
    1TCM    cl3 1527   3.470   0.988   3.996
    1TCM     c1 1528   4.654   3.551   3.716
    1TCM    cl1 1529   4.538   3.645   3.619
    1TCM    cl2 1530   4.775   3.476   3.609
    1TCM     h1 1531   4.705   3.619   3.788
    1TCM    cl3 1532   4.568   3.424   3.806
    1TCM     c1 1533   1.620   0.607   0.691
    1TCM    cl1 1534   1.641   0.608   0.514
    1TCM    cl2 1535   1.774   0.650   0.768
    1TCM     h1 1536   1.543   0.682   0.719
    1TCM    cl3 1537   1.569   0.445   0.743
    1TCM     c1 1538   1.150   2.239   1.158
    1TCM    cl1 1539   1.094   2.209   1.324
    1TCM    cl2 1540   1.112   2.098   1.057
    1TCM     h1 1541   1.099   2.329   1.117
    1TCM    cl3 1542   1.326   2.266   1.158
    1TCM     c1 1543   3.484   3.072   2.391
    1TCM    cl1 1544   3.527   2.922   2.476
    1TCM    cl2 1545   3.498   3.046   2.215
    1TCM     h1 1546   3.380   3.101   2.416
    1TCM    cl3 1547   3.595   3.202   2.440
    1TCM     c1 1548   3.244   3.551   2.837
    1TCM    cl1 1549   3.334   3.673   2.743
    1TCM    cl2 1550   3.090   3.621   2.892
    1TCM     h1 1551   3.224   3.463   2.773
    1TCM    cl3 1552   3.341   3.501   2.978
    1TCM     c1 1553   1.354   1.061   0.123
    1TCM    cl1 1554   1.329   0.912   0.216
    1TCM    cl2 1555   1.226   1.077   0.000
    1TCM     h1 1556   1.350   1.148   0.191
    1TCM    cl3 1557   1.513   1.056   0.043
    1TCM     c1 1558   3.057   0.245   0.887
    1TCM    cl1 1559   3.095   0.096   0.976
    1TCM    cl2 1560   2.921   0.215   0.776
    1TCM     h1 1561   3.030   0.325   0.959
    1TCM    cl3 1562   3.200   0.296   0.793
    1TCM     c1 1563   1.926   3.381   1.064
    1TCM    cl1 1564   2.049   3.492   1.127
    1TCM    cl2 1565   1.880   3.265   1.191
    1TCM     h1 1566   1.836   3.439   1.033
    1TCM    cl3 1567   1.991   3.292   0.925
    1TCM     c1 1568   2.961   3.785   1.995
    1TCM    cl1 1569   2.868   3.932   1.957
    1TCM    cl2 1570   2.999   3.782   2.168
    1TCM     h1 1571   2.900   3.696   1.969
    1TCM    cl3 1572   3.111   3.784   1.900
    1TCM     c1 1573   4.656   0.594   4.120
    1TCM    cl1 1574   4.694   0.638   3.952
    1TCM    cl2 1575   4.692   0.731   4.227
    1TCM     h1 1576   4.548   0.568   4.128
    1TCM    cl3 1577   4.754   0.454   4.168
    1TCM     c1 1578   4.666   3.026   4.776
    1TCM    cl1 1579   4.589   2.892   4.864
    1TCM    cl2 1580   4.840   3.030   4.814
    1TCM     h1 1581   4.652   3.012   4.667
    1TCM    cl3 1582   4.591   3.180   4.825
    1TCM     c1 1583   1.076   4.707   2.396
    1TCM    cl1 1584   1.118   4.573   2.286
    1TCM    cl2 1585   1.103   4.656   2.564
    1TCM     h1 1586   1.140   4.795   2.373
    1TCM    cl3 1587   0.905   4.751   2.374
    1TCM     c1 1588   5.128   0.224   0.368
    1TCM    cl1 1589   5.040   0.332   0.257
    1TCM    cl2 1590   5.258   0.315   0.448
    1TCM     h1 1591   5.058   0.183   0.444
    1TCM    cl3 1592   5.199   0.089   0.275
    1TCM     c1 1593   4.622   0.500   3.681
    1TCM    cl1 1594   4.457   0.465   3.739
    1TCM    cl2 1595   4.616   0.539   3.508
    1TCM     h1 1596   4.663   0.586   3.737
    1TCM    cl3 1597   4.725   0.357   3.706
    1TCM     c1 1598   3.605   5.117   4.456
    1TCM    cl1 1599   3.607   5.005   4.317
    1TCM    cl2 1600   3.670   5.275   4.405
    1TCM     h1 1601   3.501   5.129   4.492
    1TCM    cl3 1602   3.706   5.050   4.586
    1TCM     c1 1603   1.379   2.011   1.644
    1TCM    cl1 1604   1.317   1.865   1.725
    1TCM    cl2 1605   1.378   2.147   1.758
    1TCM     h1 1606   1.483   1.992   1.609
    1TCM    cl3 1607   1.276   2.050   1.504
    1TCM     c1 1608   3.310   1.749   2.813
    1TCM    cl1 1609   3.392   1.762   2.655
    1TCM    cl2 1610   3.135   1.736   2.787
    1TCM     h1 1611   3.346   1.659   2.866
    1TCM    cl3 1612   3.345   1.894   2.910
    1TCM     c1 1613   3.625   0.427   0.533
    1TCM    cl1 1614   3.455   0.421   0.586
    1TCM    cl2 1615   3.631   0.433   0.356
    1TCM     h1 1616   3.674   0.517   0.575
    1TCM    cl3 1617   3.710   0.281   0.590
    1TCM     c1 1618   0.565   1.452   2.013
    1TCM    cl1 1619   0.589   1.609   1.934
    1TCM    cl2 1620   0.518   1.479   2.183
    1TCM     h1 1621   0.484   1.396   1.962
    1TCM    cl3 1622   0.715   1.358   2.007
    1TCM     c1 1623   2.791   3.803   1.359
    1TCM    cl1 1624   2.844   3.667   1.460
    1TCM    cl2 1625   2.616   3.788   1.327
    1TCM     h1 1626   2.810   3.899   1.413
    1TCM    cl3 1627   2.880   3.802   1.206
    1TCM     c1 1628   2.428   2.576   4.368
    1TCM    cl1 1629   2.305   2.532   4.248
    1TCM    cl2 1630   2.384   2.506   4.526
    1TCM     h1 1631   2.526   2.536   4.336
    1TCM    cl3 1632   2.436   2.753   4.382
    1TCM     c1 1633   0.613   2.355   0.913
    1TCM    cl1 1634   0.578   2.265   0.763
    1TCM    cl2 1635   0.544   2.267   1.052
    1TCM     h1 1636   0.723   2.364   0.926
    1TCM    cl3 1637   0.540   2.517   0.903
    1TCM     c1 1638   2.519   0.494   1.604
    1TCM    cl1 1639   2.358   0.483   1.531
    1TCM    cl2 1640   2.508   0.456   1.777
    1TCM     h1 1641   2.587   0.421   1.555
    1TCM    cl3 1642   2.583   0.658   1.583
    1TCM     c1 1643   2.454   3.633   0.156
    1TCM    cl1 1644   2.620   3.601   0.099
    1TCM    cl2 1645   2.350   3.670   0.017
    1TCM     h1 1646   2.416   3.543   0.208
    1TCM    cl3 1647   2.456   3.770   0.268
    1TCM     c1 1648   0.157   3.459   4.967
    1TCM    cl1 1649   0.324   3.459   5.028
    1TCM    cl2 1650   0.064   3.334   5.052
    1TCM     h1 1651   0.111   3.558   4.985
    1TCM    cl3 1652   0.158   3.424   4.793
    1TCM     c1 1653   3.978   1.936   1.652
    1TCM    cl1 1654   4.052   2.083   1.718
    1TCM    cl2 1655   3.820   1.975   1.580
    1TCM     h1 1656   4.044   1.893   1.574
    1TCM    cl3 1657   3.956   1.817   1.782
    1TCM     c1 1658   2.248   2.836   2.749
    1TCM    cl1 1659   2.311   2.670   2.737
    1TCM    cl2 1660   2.229   2.903   2.586
    1TCM     h1 1661   2.150   2.834   2.801
    1TCM    cl3 1662   2.362   2.936   2.842
    1TCM     c1 1663   4.495   2.893   0.772
    1TCM    cl1 1664   4.352   2.841   0.680
    1TCM    cl2 1665   4.579   3.022   0.683
    1TCM     h1 1666   4.463   2.931   0.872
    1TCM    cl3 1667   4.604   2.754   0.794
    1TCM     c1 1668   5.126   4.349   1.803
    1TCM    cl1 1669   4.963   4.416   1.826
    1TCM    cl2 1670   5.157   4.328   1.629
    1TCM     h1 1671   5.201   4.419   1.845
    1TCM    cl3 1672   5.139   4.192   1.885
    1TCM     c1 1673   3.259   1.718   3.791
    1TCM    cl1 1674   3.415   1.690   3.709
    1TCM    cl2 1675   3.289   1.781   3.954
    1TCM     h1 1676   3.200   1.792   3.733
    1TCM    cl3 1677   3.169   1.565   3.801
    1TCM     c1 1678   0.954   3.799   2.434
    1TCM    cl1 1679   0.991   3.634   2.487
    1TCM    cl2 1680   0.933   3.801   2.257
    1TCM     h1 1681   0.860   3.833   2.482
    1TCM    cl3 1682   1.087   3.908   2.479
    1TCM     c1 1683   3.056   4.170   2.280
    1TCM    cl1 1684   3.049   4.030   2.171
    1TCM    cl2 1685   3.070   4.113   2.448
    1TCM     h1 1686   3.144   4.232   2.255
    1TCM    cl3 1687   2.908   4.267   2.263
    1TCM     c1 1688   1.391   3.086   2.273
    1TCM    cl1 1689   1.364   2.945   2.168
    1TCM    cl2 1690   1.422   3.031   2.440
    1TCM     h1 1691   1.478   3.144   2.237
    1TCM    cl3 1692   1.246   3.189   2.272
    1TCM     c1 1693   4.611   0.171   5.173
    1TCM    cl1 1694   4.621   0.145   4.997
    1TCM    cl2 1695   4.753   0.100   5.252
    1TCM     h1 1696   4.608   0.280   5.194
    1TCM    cl3 1697   4.463   0.094   5.236
    1TCM     c1 1698   4.173   4.966   2.374
    1TCM    cl1 1699   4.205   5.125   2.299
    1TCM    cl2 1700   4.099   4.990   2.534
    1TCM     h1 1701   4.104   4.908   2.309
    1TCM    cl3 1702   4.326   4.878   2.393
    1TCM     c1 1703   1.375   5.054   3.077
    1TCM    cl1 1704   1.529   4.984   3.023
    1TCM    cl2 1705   1.399   5.142   3.229
    1TCM     h1 1706   1.336   5.124   3.000
    1TCM    cl3 1707   1.257   4.923   3.102
    1TCM     c1 1708   3.382   5.009   3.768
    1TCM    cl1 1709   3.337   4.846   3.711
    1TCM    cl2 1710   3.414   5.114   3.628
    1TCM     h1 1711   3.298   5.051   3.828
    1TCM    cl3 1712   3.528   4.998   3.869
    1TCM     c1 1713   3.635   2.186   4.871
    1TCM    cl1 1714   3.556   2.322   4.954
    1TCM    cl2 1715   3.793   2.155   4.946
    1TCM     h1 1716   3.571   2.095   4.880
    1TCM    cl3 1717   3.657   2.225   4.699
    1TCM     c1 1718   4.846   4.256   2.537
    1TCM    cl1 1719   4.945   4.367   2.439
    1TCM    cl2 1720   4.868   4.293   2.709
    1TCM     h1 1721   4.739   4.268   2.510
    1TCM    cl3 1722   4.897   4.089   2.505
    1TCM     c1 1723   5.004   3.114   2.455
    1TCM    cl1 1724   5.077   2.976   2.369
    1TCM    cl2 1725   5.053   3.108   2.626
    1TCM     h1 1726   5.039   3.208   2.410
    1TCM    cl3 1727   4.827   3.104   2.444
    1TCM     c1 1728   1.458   2.390   0.896
    1TCM    cl1 1729   1.298   2.448   0.845
    1TCM    cl2 1730   1.441   2.236   0.984
    1TCM     h1 1731   1.521   2.374   0.806
    1TCM    cl3 1732   1.534   2.510   1.002
    1TCM     c1 1733   1.127   1.979   4.047
    1TCM    cl1 1734   1.229   1.885   3.936
    1TCM    cl2 1735   1.194   1.972   4.211
    1TCM     h1 1736   1.123   2.085   4.013
    1TCM    cl3 1737   0.962   1.912   4.047
    1TCM     c1 1738   4.099   3.549   1.355
    1TCM    cl1 1739   4.183   3.402   1.408
    1TCM    cl2 1740   4.060   3.536   1.182
    1TCM     h1 1741   4.006   3.562   1.413
    1TCM    cl3 1742   4.205   3.690   1.380
    1TCM     c1 1743   0.244   5.167   2.131
    1TCM    cl1 1744   0.331   5.012   2.128
    1TCM    cl2 1745   0.338   5.289   2.043
    1TCM     h1 1746   0.145   5.155   2.084
    1TCM    cl3 1747   0.223   5.220   2.300
    1TCM     c1 1748   1.339   2.532   1.752
    1TCM    cl1 1749   1.368   2.707   1.742
    1TCM    cl2 1750   1.211   2.485   1.638
    1TCM     h1 1751   1.433   2.477   1.727
    1TCM    cl3 1752   1.289   2.489   1.917
    1TCM     c1 1753   0.891   2.381   4.137
    1TCM    cl1 1754   0.837   2.285   3.997
    1TCM    cl2 1755   0.908   2.274   4.278
    1TCM     h1 1756   0.989   2.428   4.114
    1TCM    cl3 1757   0.771   2.507   4.172
    1TCM     c1 1758   1.098   0.913   5.179
    1TCM    cl1 1759   1.216   0.893   5.047
    1TCM    cl2 1760   1.184   0.914   5.334
    1TCM     h1 1761   1.044   1.009   5.166
    1TCM    cl3 1762   0.982   0.778   5.175
    1TCM     c1 1763   3.678   2.974   1.028
    1TCM    cl1 1764   3.817   3.071   0.975
    1TCM    cl2 1765   3.725   2.803   1.039
    1TCM     h1 1766   3.643   3.009   1.127
    1TCM    cl3 1767   3.545   2.990   0.910
    1TCM     c1 1768   3.672   5.007   3.004
    1TCM    cl1 1769   3.505   5.049   2.959
    1TCM    cl2 1770   3.690   5.018   3.180
    1TCM     h1 1771   3.694   4.903   2.971
    1TCM    cl3 1772   3.784   5.120   2.926
    1TCM     c1 1773   4.639   3.185   5.173
    1TCM    cl1 1774   4.541   3.266   5.297
    1TCM    cl2 1775   4.712   3.307   5.066
    1TCM     h1 1776   4.720   3.127   5.223
    1TCM    cl3 1777   4.537   3.075   5.078
    1TCM     c1 1778   4.469   2.831   2.980
    1TCM    cl1 1779   4.379   2.980   3.014
    1TCM    cl2 1780   4.536   2.839   2.815
    1TCM     h1 1781   4.552   2.820   3.053
    1TCM    cl3 1782   4.361   2.691   2.993
    1TCM     c1 1783   2.284   4.517   3.626
    1TCM    cl1 1784   2.434   4.599   3.673
    1TCM    cl2 1785   2.165   4.533   3.757
    1TCM     h1 1786   2.243   4.563   3.534
    1TCM    cl3 1787   2.317   4.345   3.597
    1TCM     c1 1788   3.609   2.244   0.925
    1TCM    cl1 1789   3.548   2.265   0.759
    1TCM    cl2 1790   3.499   2.139   1.016
    1TCM     h1 1791   3.710   2.198   0.921
    1TCM    cl3 1792   3.620   2.403   1.005
    1TCM     c1 1793   2.331   2.077   2.616
    1TCM    cl1 1794   2.164   2.115   2.663
    1TCM    cl2 1795   2.428   2.048   2.763
    1TCM     h1 1796   2.332   1.985   2.553
    1TCM    cl3 1797   2.400   2.212   2.525
    1TCM     c1 1798   2.978   2.925   3.461
    1TCM    cl1 1799   3.017   3.023   3.604
    1TCM    cl2 1800   2.995   3.025   3.315
    1TCM     h1 1801   3.048   2.839   3.455
    1TCM    cl3 1802   2.811   2.866   3.473
    1TCM     c1 1803   5.034   1.931   1.667
    1TCM    cl1 1804   4.966   2.060   1.768
    1TCM    cl2 1805   5.053   1.990   1.500
    1TCM     h1 1806   5.134   1.901   1.707
    1TCM    cl3 1807   4.925   1.791   1.668
    1TCM     c1 1808   1.664   1.366   3.589
    1TCM    cl1 1809   1.657   1.542   3.569
    1TCM    cl2 1810   1.510   1.294   3.538
    1TCM     h1 1811   1.747   1.325   3.526
    1TCM    cl3 1812   1.695   1.327   3.760
    1TCM     c1 1813   3.425   4.188   2.227
    1TCM    cl1 1814   3.303   4.220   2.101
    1TCM    cl2 1815   3.379   4.042   2.317
    1TCM     h1 1816   3.524   4.173   2.180
    1TCM    cl3 1817   3.433   4.326   2.339
    1TCM     c1 1818   2.076   3.575   0.465
    1TCM    cl1 1819   1.965   3.474   0.561
    1TCM    cl2 1820   2.239   3.568   0.537
    1TCM     h1 1821   2.080   3.537   0.361
    1TCM    cl3 1822   2.018   3.743   0.465
    1TCM     c1 1823   4.652   2.154   3.245
    1TCM    cl1 1824   4.643   2.087   3.410
    1TCM    cl2 1825   4.522   2.274   3.223
    1TCM     h1 1826   4.751   2.203   3.231
    1TCM    cl3 1827   4.633   2.023   3.127
    1TCM     c1 1828   2.448   3.920   1.493
    1TCM    cl1 1829   2.328   3.830   1.399
    1TCM    cl2 1830   2.555   4.010   1.382
    1TCM     h1 1831   2.397   3.992   1.560
    1TCM    cl3 1832   2.546   3.807   1.589
    1TCM     c1 1833   1.031   4.927   4.698
    1TCM    cl1 1834   1.058   5.099   4.665
    1TCM    cl2 1835   0.925   4.858   4.572
    1TCM     h1 1836   1.128   4.873   4.698
    1TCM    cl3 1837   0.954   4.909   4.857
    1TCM     c1 1838   3.704   3.204   3.759
    1TCM    cl1 1839   3.772   3.056   3.830
    1TCM    cl2 1840   3.681   3.181   3.584
    1TCM     h1 1841   3.606   3.225   3.807
    1TCM    cl3 1842   3.815   3.340   3.788
    1TCM     c1 1843   3.766   3.866   1.254
    1TCM    cl1 1844   3.865   4.007   1.207
    1TCM    cl2 1845   3.682   3.902   1.406
    1TCM     h1 1846   3.692   3.845   1.174
    1TCM    cl3 1847   3.871   3.725   1.277
    1TCM     c1 1848   2.513   1.299   3.949
    1TCM    cl1 1849   2.605   1.434   4.020
    1TCM    cl2 1850   2.524   1.308   3.771
    1TCM     h1 1851   2.555   1.203   3.984
    1TCM    cl3 1852   2.342   1.311   3.998
    1TCM     c1 1853   2.146   3.675   4.871
    1TCM    cl1 1854   2.266   3.757   4.972
    1TCM    cl2 1855   2.038   3.578   4.973
    1TCM     h1 1856   2.086   3.751   4.815
    1TCM    cl3 1857   2.229   3.569   4.755
    1TCM     c1 1858   4.342   3.863   3.243
    1TCM    cl1 1859   4.373   4.036   3.269
    1TCM    cl2 1860   4.398   3.817   3.080
    1TCM     h1 1861   4.396   3.804   3.319
    1TCM    cl3 1862   4.167   3.832   3.257
    1TCM     c1 1863   3.085   1.579   4.980
    1TCM    cl1 1864   3.025   1.467   5.104
    1TCM    cl2 1865   3.261   1.597   4.997
    1TCM     h1 1866   3.062   1.539   4.879
    1TCM    cl3 1867   3.007   1.738   5.000
    1TCM     c1 1868   0.662   0.630   4.111
    1TCM    cl1 1869   0.558   0.667   3.971
    1TCM    cl2 1870   0.578   0.513   4.217
    1TCM     h1 1871   0.757   0.586   4.076
    1TCM    cl3 1872   0.695   0.779   4.202
    1TCM     c1 1873   3.514   0.934   1.964
    1TCM    cl1 1874   3.621   1.076   1.958
    1TCM    cl2 1875   3.354   0.979   1.901
    1TCM     h1 1876   3.557   0.853   1.902
    1TCM    cl3 1877   3.499   0.879   2.132
    1TCM     c1 1878   2.869   0.084   2.593
    1TCM    cl1 1879   2.886   0.019   2.428
    1TCM    cl2 1880   2.733   0.200   2.597
    1TCM     h1 1881   2.849   0.001   2.664
    1TCM    cl3 1882   3.019   0.168   2.640
    1TCM     c1 1883   2.726   4.589   2.459
    1TCM    cl1 1884   2.619   4.583   2.600
    1TCM    cl2 1885   2.666   4.475   2.335
    1TCM     h1 1886   2.728   4.691   2.417
    1TCM    cl3 1887   2.891   4.542   2.507
    1TCM     c1 1888   0.848   0.898   2.441
    1TCM    cl1 1889   0.834   0.729   2.389
    1TCM    cl2 1890   1.016   0.930   2.492
    1TCM     h1 1891   0.822   0.965   2.357
    1TCM    cl3 1892   0.739   0.927   2.578
    1TCM     c1 1893   2.392   4.322   3.089
    1TCM    cl1 1894   2.433   4.495   3.092
    1TCM    cl2 1895   2.367   4.270   2.920
    1TCM     h1 1896   2.476   4.264   3.133
    1TCM    cl3 1897   2.244   4.294   3.182
    1TCM     c1 1898   4.260   1.859   4.787
    1TCM    cl1 1899   4.224   1.854   4.961
    1TCM    cl2 1900   4.123   1.791   4.696
    1TCM     h1 1901   4.277   1.964   4.755
    1TCM    cl3 1902   4.406   1.763   4.754
    1TCM     c1 1903   0.293   0.500   0.222
    1TCM    cl1 1904   0.469   0.521   0.238
    1TCM    cl2 1905   0.258   0.397   0.082
    1TCM     h1 1906   0.253   0.452   0.314
    1TCM    cl3 1907   0.215   0.659   0.201
    1TCM     c1 1908   3.972   3.880   5.220
    1TCM    cl1 1909   3.953   4.048   5.278
    1TCM    cl2 1910   4.143   3.851   5.181
    1TCM     h1 1911   3.940   3.810   5.299
    1TCM    cl3 1912   3.874   3.856   5.074
    1TCM     c1 1913   1.975   2.443   2.781
    1TCM    cl1 1914   1.906   2.299   2.859
    1TCM    cl2 1915   1.893   2.472   2.626
    1TCM     h1 1916   1.961   2.531   2.847
    1TCM    cl3 1917   2.149   2.418   2.753
    1TCM     c1 1918   2.096   4.096   1.582
    1TCM    cl1 1919   1.996   4.233   1.529
    1TCM    cl2 1920   2.244   4.158   1.661
    1TCM     h1 1921   2.039   4.035   1.655
    1TCM    cl3 1922   2.141   3.997   1.442
    1TCM     c1 1923   4.073   3.642   1.877
    1TCM    cl1 1924   4.201   3.673   1.757
    1TCM    cl2 1925   4.147   3.594   2.031
    1TCM     h1 1926   4.013   3.734   1.891
    1TCM    cl3 1927   3.967   3.511   1.818
    1TCM     c1 1928   2.669   4.743   0.679
    1TCM    cl1 1929   2.558   4.756   0.541
    1TCM    cl2 1930   2.789   4.874   0.670
    1TCM     h1 1931   2.612   4.751   0.773
    1TCM    cl3 1932   2.753   4.586   0.673
    1TCM     c1 1933   2.818   2.351   4.709
    1TCM    cl1 1934   2.805   2.385   4.535
    1TCM    cl2 1935   2.941   2.457   4.781
    1TCM     h1 1936   2.720   2.370   4.758
    1TCM    cl3 1937   2.864   2.181   4.734
    1TCM     c1 1938   1.544   3.343   2.673
    1TCM    cl1 1939   1.716   3.364   2.633
    1TCM    cl2 1940   1.469   3.503   2.695
    1TCM     h1 1941   1.493   3.289   2.591
    1TCM    cl3 1942   1.529   3.249   2.823
    1TCM     c1 1943   0.708   4.160   4.856
    1TCM    cl1 1944   0.815   4.043   4.774
    1TCM    cl2 1945   0.775   4.199   5.016
    1TCM     h1 1946   0.700   4.252   4.795
    1TCM    cl3 1947   0.546   4.088   4.876
    1TCM     c1 1948   0.187   2.499   1.814
    1TCM    cl1 1949   0.269   2.473   1.970
    1TCM    cl2 1950   0.250   2.646   1.738
    1TCM     h1 1951   0.205   2.412   1.748
    1TCM    cl3 1952   0.012   2.517   1.842
    1TCM     c1 1953   4.442   0.918   4.258
    1TCM    cl1 1954   4.438   1.092   4.294
    1TCM    cl2 1955   4.537   0.833   4.382
    1TCM     h1 1956   4.338   0.878   4.257
    1TCM    cl3 1957   4.516   0.891   4.098
    1TCM     c1 1958   3.973   1.126   0.457
    1TCM    cl1 1959   4.080   1.132   0.599
    1TCM    cl2 1960   4.046   1.025   0.331
    1TCM     h1 1961   3.875   1.083   0.487
    1TCM    cl3 1962   3.948   1.291   0.394
    1TCM     c1 1963   1.961   1.811   3.934
    1TCM    cl1 1964   1.957   1.855   4.107
    1TCM    cl2 1965   2.092   1.899   3.853
    1TCM     h1 1966   1.978   1.702   3.925
    1TCM    cl3 1967   1.806   1.853   3.859
    1TCM     c1 1968   0.249   2.026   2.210
    1TCM    cl1 1969   0.222   1.850   2.200
    1TCM    cl2 1970   0.175   2.089   2.359
    1TCM     h1 1971   0.358   2.046   2.211
    1TCM    cl3 1972   0.175   2.105   2.069
    1TCM     c1 1973   1.648   0.595   3.459
    1TCM    cl1 1974   1.603   0.472   3.338
    1TCM    cl2 1975   1.760   0.523   3.577
    1TCM     h1 1976   1.697   0.681   3.408
    1TCM    cl3 1977   1.502   0.651   3.543
    1TCM     c1 1978   2.282   4.239   1.178
    1TCM    cl1 1979   2.180   4.103   1.126
    1TCM    cl2 1980   2.263   4.375   1.064
    1TCM     h1 1981   2.252   4.271   1.280
    1TCM    cl3 1982   2.453   4.188   1.180
    1TCM     c1 1983   3.427   1.775   4.330
    1TCM    cl1 1984   3.451   1.939   4.392
    1TCM    cl2 1985   3.268   1.714   4.382
    1TCM     h1 1986   3.431   1.776   4.219
    1TCM    cl3 1987   3.554   1.668   4.392
    1TCM     c1 1988   2.264   3.727   4.211
    1TCM    cl1 1989   2.279   3.820   4.060
    1TCM    cl2 1990   2.189   3.828   4.336
    1TCM     h1 1991   2.201   3.637   4.193
    1TCM    cl3 1992   2.425   3.676   4.265
    1TCM     c1 1993   3.175   0.982   4.962
    1TCM    cl1 1994   3.296   1.039   4.845
    1TCM    cl2 1995   3.118   0.821   4.915
    1TCM     h1 1996   3.221   0.977   5.063
    1TCM    cl3 1997   3.038   1.095   4.966
    1TCM     c1 1998   3.117   2.807   2.427
    1TCM    cl1 1999   2.968   2.828   2.521
    1TCM    cl2 2000   3.099   2.887   2.268
    1TCM     h1 2001   3.202   2.853   2.481
    1TCM    cl3 2002   3.149   2.634   2.402
    1TCM     c1 2003   4.719   4.253   0.898
    1TCM    cl1 2004   4.802   4.104   0.949
    1TCM    cl2 2005   4.749   4.381   1.018
    1TCM     h1 2006   4.759   4.286   0.799
    1TCM    cl3 2007   4.544   4.223   0.886
    1TCM     c1 2008   2.157   2.908   4.519
    1TCM    cl1 2009   2.084   2.785   4.413
    1TCM    cl2 2010   2.152   2.852   4.687
    1TCM     h1 2011   2.263   2.924   4.489
    1TCM    cl3 2012   2.067   3.060   4.504
    1TCM     c1 2013   2.554   4.137   4.487
    1TCM    cl1 2014   2.415   4.070   4.576
    1TCM    cl2 2015   2.510   4.160   4.317
    1TCM     h1 2016   2.583   4.234   4.532
    1TCM    cl3 2017   2.691   4.023   4.498
    1TCM     c1 2018   4.396   5.143   2.669
    1TCM    cl1 2019   4.468   5.067   2.526
    1TCM    cl2 2020   4.505   5.269   2.730
    1TCM     h1 2021   4.298   5.188   2.642
    1TCM    cl3 2022   4.371   5.020   2.796
    1TCM     c1 2023   1.923   3.612   2.038
    1TCM    cl1 2024   1.839   3.714   1.918
    1TCM    cl2 2025   2.011   3.716   2.152
    1TCM     h1 2026   1.849   3.551   2.093
    1TCM    cl3 2027   2.039   3.506   1.954
    1TCM     c1 2028   3.513   0.793   0.951
    1TCM    cl1 2029   3.601   0.643   0.910
    1TCM    cl2 2030   3.593   0.872   1.089
    1TCM     h1 2031   3.514   0.861   0.864
    1TCM    cl3 2032   3.345   0.754   0.994
    1TCM     c1 2033   0.257   3.720   3.005
    1TCM    cl1 2034   0.133   3.817   2.922
    1TCM    cl2 2035   0.270   3.773   3.174
    1TCM     h1 2036   0.229   3.613   3.002
    1TCM    cl3 2037   0.413   3.743   2.923
    1TCM     c1 2038   2.879   2.747   4.921
    1TCM    cl1 2039   2.861   2.743   4.745
    1TCM    cl2 2040   3.051   2.735   4.964
    1TCM     h1 2041   2.837   2.842   4.961
    1TCM    cl3 2042   2.791   2.609   4.993
    1TCM     c1 2043   2.278   0.545   0.655
    1TCM    cl1 2044   2.305   0.408   0.765
    1TCM    cl2 2045   2.243   0.484   0.492
    1TCM     h1 2046   2.192   0.605   0.692
    1TCM    cl3 2047   2.424   0.647   0.650
    1TCM     c1 2048   2.948   0.283   2.222
    1TCM    cl1 2049   2.808   0.284   2.111
    1TCM    cl2 2050   2.891   0.261   2.389
    1TCM     h1 2051   3.016   0.201   2.194
    1TCM    cl3 2052   3.034   0.438   2.209
    1TCM     c1 2053   1.765   3.528   4.665
    1TCM    cl1 2054   1.652   3.567   4.797
    1TCM    cl2 2055   1.703   3.594   4.512
    1TCM     h1 2056   1.865   3.573   4.687
    1TCM    cl3 2057   1.781   3.352   4.651
    1TCM     c1 2058   0.823   2.817   0.743
    1TCM    cl1 2059   0.904   2.937   0.847
    1TCM    cl2 2060   0.883   2.834   0.576
    1TCM     h1 2061   0.846   2.715   0.780
    1TCM    cl3 2062   0.648   2.844   0.746
    1TCM     c1 2063   3.022   0.211   3.335
    1TCM    cl1 2064   3.020   0.200   3.157
    1TCM    cl2 2065   2.947   0.066   3.404
    1TCM     h1 2066   3.127   0.219   3.370
    1TCM    cl3 2067   2.931   0.355   3.386
    1TCM     c1 2068   2.125   3.015   1.138
    1TCM    cl1 2069   2.115   3.075   0.970
    1TCM    cl2 2070   1.965   3.023   1.213
    1TCM     h1 2071   2.161   2.910   1.138
    1TCM    cl3 2072   2.239   3.116   1.230
    1TCM     c1 2073   3.129   5.241   4.034
    1TCM    cl1 2074   3.115   5.194   4.205
    1TCM    cl2 2075   3.050   5.118   3.932
    1TCM     h1 2076   3.081   5.339   4.018
    1TCM    cl3 2077   3.301   5.252   3.990
    1TCM     c1 2078   2.984   3.313   0.107
    1TCM    cl1 2079   3.113   3.388   0.009
    1TCM    cl2 2080   3.057   3.203   0.226
    1TCM     h1 2081   2.926   3.391   0.159
    1TCM    cl3 2082   2.876   3.220   0.000
    1TCM     c1 2083   0.204   0.443   4.235
    1TCM    cl1 2084   0.321   0.337   4.155
    1TCM    cl2 2085   0.285   0.535   4.364
    1TCM     h1 2086   0.161   0.514   4.161
    1TCM    cl3 2087   0.073   0.345   4.306
    1TCM     c1 2088   2.470   2.660   3.941
    1TCM    cl1 2089   2.365   2.791   4.003
    1TCM    cl2 2090   2.464   2.523   4.054
    1TCM     h1 2091   2.434   2.628   3.842
    1TCM    cl3 2092   2.637   2.720   3.928
    1TCM     c1 2093   0.729   1.724   0.157
    1TCM    cl1 2094   0.626   1.864   0.194
    1TCM    cl2 2095   0.756   1.629   0.305
    1TCM     h1 2096   0.680   1.661   0.080
    1TCM    cl3 2097   0.886   1.781   0.095
    1TCM     c1 2098   4.660   2.988   1.949
    1TCM    cl1 2099   4.825   2.977   2.015
    1TCM    cl2 2100   4.649   2.888   1.802
    1TCM     h1 2101   4.587   2.952   2.024
    1TCM    cl3 2102   4.624   3.158   1.908
    1TCM     c1 2103   3.117   3.260   0.629
    1TCM    cl1 2104   2.976   3.246   0.522
    1TCM    cl2 2105   3.254   3.327   0.538
    1TCM     h1 2106   3.092   3.328   0.714
    1TCM    cl3 2107   3.160   3.100   0.692
    1TCM     c1 2108   2.546   4.931   1.577
    1TCM    cl1 2109   2.597   4.776   1.505
    1TCM    cl2 2110   2.595   4.936   1.747
    1TCM     h1 2111   2.594   5.015   1.522
    1TCM    cl3 2112   2.369   4.946   1.565
    1TCM     c1 2113   2.718   4.027   4.880
    1TCM    cl1 2114   2.833   4.095   4.763
    1TCM    cl2 2115   2.777   4.056   5.045
    1TCM     h1 2116   2.619   4.076   4.867
    1TCM    cl3 2117   2.701   3.852   4.853
    1TCM     c1 2118   4.012   3.996   2.747
    1TCM    cl1 2119   3.949   4.160   2.773
    1TCM    cl2 2120   3.997   3.953   2.575
    1TCM     h1 2121   4.119   3.992   2.777
    1TCM    cl3 2122   3.919   3.880   2.845
    1TCM     c1 2123   2.334   1.543   2.463
    1TCM    cl1 2124   2.431   1.691   2.462
    1TCM    cl2 2125   2.423   1.413   2.380
    1TCM     h1 2126   2.314   1.512   2.568
    1TCM    cl3 2127   2.180   1.572   2.380
    1TCM     c1 2128   4.898   2.384   0.651
    1TCM    cl1 2129   4.824   2.523   0.734
    1TCM    cl2 2130   5.035   2.323   0.746
    1TCM     h1 2131   4.822   2.303   0.640
    1TCM    cl3 2132   4.955   2.434   0.490
    1TCM     c1 2133   4.222   0.587   3.227
    1TCM    cl1 2134   4.099   0.616   3.353
    1TCM    cl2 2135   4.381   0.642   3.287
    1TCM     h1 2136   4.227   0.479   3.204
    1TCM    cl3 2137   4.180   0.678   3.080
    1TCM     c1 2138   4.858   2.339   0.171
    1TCM    cl1 2139   4.785   2.218   0.063
    1TCM    cl2 2140   4.822   2.298   0.340
    1TCM     h1 2141   4.968   2.341   0.155
    1TCM    cl3 2142   4.791   2.500   0.133
    1TCM     c1 2143   3.381   1.235   1.142
    1TCM    cl1 2144   3.253   1.328   1.223
    1TCM    cl2 2145   3.384   1.277   0.969
    1TCM     h1 2146   3.479   1.259   1.187
    1TCM    cl3 2147   3.348   1.061   1.160
    1TCM     c1 2148   2.756   4.416   4.661
    1TCM    cl1 2149   2.845   4.314   4.776
    1TCM    cl2 2150   2.581   4.395   4.687
    1TCM     h1 2151   2.783   4.523   4.678
    1TCM    cl3 2152   2.797   4.370   4.495
    1TCM     c1 2153   1.609   5.238   0.677
    1TCM    cl1 2154   1.638   5.103   0.565
    1TCM    cl2 2155   1.478   5.340   0.614
    1TCM     h1 2156   1.580   5.197   0.777
    1TCM    cl3 2157   1.757   5.334   0.694
    1TCM     c1 2158   1.421   3.295   4.493
    1TCM    cl1 2159   1.319   3.371   4.368
    1TCM    cl2 2160   1.359   3.338   4.654
    1TCM     h1 2161   1.420   3.185   4.480
    1TCM    cl3 2162   1.588   3.355   4.476
    1TCM     c1 2163   1.195   2.342   2.395
    1TCM    cl1 2164   1.372   2.342   2.384
    1TCM    cl2 2165   1.138   2.180   2.440
    1TCM     h1 2166   1.163   2.415   2.472
    1TCM    cl3 2167   1.125   2.388   2.238
    1TCM     c1 2168   1.188   1.478   0.473
    1TCM    cl1 2169   1.157   1.595   0.342
    1TCM    cl2 2170   1.327   1.533   0.570
    1TCM     h1 2171   1.098   1.470   0.538
    1TCM    cl3 2172   1.224   1.319   0.403
    1TCM     c1 2173   0.357   5.214   3.202
    1TCM    cl1 2174   0.230   5.340   3.196
    1TCM    cl2 2175   0.291   5.062   3.139
    1TCM     h1 2176   0.443   5.246   3.140
    1TCM    cl3 2177   0.410   5.192   3.370
    1TCM     c1 2178   2.817   3.980   0.340
    1TCM    cl1 2179   2.708   4.112   0.291
    1TCM    cl2 2180   2.928   3.942   0.206
    1TCM     h1 2181   2.875   4.011   0.429
    1TCM    cl3 2182   2.721   3.836   0.380
    1TCM     c1 2183   5.110   1.853   0.923
    1TCM    cl1 2184   5.200   1.929   1.056
    1TCM    cl2 2185   5.168   1.918   0.768
    1TCM     h1 2186   5.126   1.743   0.926
    1TCM    cl3 2187   4.937   1.889   0.941
    1TCM     c1 2188   0.085   2.545   0.774
    1TCM    cl1 2189   0.240   2.503   0.849
    1TCM    cl2 2190   0.033   2.413   0.666
    1TCM     h1 2191   0.009   2.560   0.853
    1TCM    cl3 2192   0.103   2.695   0.680
    1TCM     c1 2193   3.197   4.748   4.125
    1TCM    cl1 2194   3.109   4.888   4.192
    1TCM    cl2 2195   3.288   4.800   3.981
    1TCM     h1 2196   3.267   4.709   4.201
    1TCM    cl3 2197   3.082   4.621   4.079
    1TCM     c1 2198   0.493   3.257   3.496
    1TCM    cl1 2199   0.530   3.109   3.588
    1TCM    cl2 2200   0.473   3.217   3.324
    1TCM     h1 2201   0.399   3.302   3.535
    1TCM    cl3 2202   0.626   3.373   3.515
    1TCM     c1 2203   2.852   0.539   1.967
    1TCM    cl1 2204   2.879   0.391   1.872
    1TCM    cl2 2205   2.689   0.602   1.933
    1TCM     h1 2206   2.860   0.516   2.075
    1TCM    cl3 2207   2.973   0.662   1.923
    1TCM     c1 2208   4.830   5.014   4.347
    1TCM    cl1 2209   4.939   4.989   4.485
    1TCM    cl2 2210   4.837   4.873   4.240
    1TCM     h1 2211   4.727   5.028   4.384
    1TCM    cl3 2212   4.881   5.159   4.258
    1TCM     c1 2213   4.100   0.947   2.057
    1TCM    cl1 2214   4.031   1.071   1.950
    1TCM    cl2 2215   4.059   0.785   1.995
    1TCM     h1 2216   4.211   0.958   2.060
    1TCM    cl3 2217   4.034   0.966   2.221
    1TCM     c1 2218   2.326   4.783   2.401
    1TCM    cl1 2219   2.402   4.672   2.516
    1TCM    cl2 2220   2.383   4.745   2.236
    1TCM     h1 2221   2.216   4.772   2.405
    1TCM    cl3 2222   2.370   4.950   2.442
    1TCM     c1 2223   2.267   2.637   0.891
    1TCM    cl1 2224   2.303   2.770   1.004
    1TCM    cl2 2225   2.178   2.509   0.977
    1TCM     h1 2226   2.207   2.675   0.807
    1TCM    cl3 2227   2.420   2.570   0.829
    1TCM     c1 2228   2.169   4.734   0.397
    1TCM    cl1 2229   2.170   4.696   0.571
    1TCM    cl2 2230   2.113   4.592   0.306
    1TCM     h1 2231   2.100   4.819   0.378
    1TCM    cl3 2232   2.333   4.777   0.345
    1TCM     c1 2233   3.635   1.223   2.336
    1TCM    cl1 2234   3.659   1.104   2.466
    1TCM    cl2 2235   3.595   1.381   2.408
    1TCM     h1 2236   3.727   1.231   2.276
    1TCM    cl3 2237   3.501   1.170   2.232
    1TCM     c1 2238   3.715   4.064   0.860
    1TCM    cl1 2239   3.727   3.916   0.761
    1TCM    cl2 2240   3.688   4.019   1.030
    1TCM     h1 2241   3.809   4.122   0.851
    1TCM    cl3 2242   3.579   4.163   0.802
    1TCM     c1 2243   1.670   4.332   2.117
    1TCM    cl1 2244   1.756   4.251   1.984
    1TCM    cl2 2245   1.784   4.361   2.251
    1TCM     h1 2246   1.629   4.429   2.082
    1TCM    cl3 2247   1.537   4.228   2.174
    1TCM     c1 2248   4.983   2.790   3.034
    1TCM    cl1 2249   5.156   2.823   3.059
    1TCM    cl2 2250   4.941   2.816   2.864
    1TCM     h1 2251   4.961   2.685   3.062
    1TCM    cl3 2252   4.887   2.899   3.136
    1TCM     c1 2253   1.591   1.293   2.270
    1TCM    cl1 2254   1.607   1.143   2.364
    1TCM    cl2 2255   1.500   1.260   2.121
    1TCM     h1 2256   1.538   1.369   2.330
    1TCM    cl3 2257   1.753   1.354   2.227
    1TCM     c1 2258   1.000   4.457   0.297
    1TCM    cl1 2259   1.006   4.498   0.124
    1TCM    cl2 2260   1.071   4.296   0.322
    1TCM     h1 2261   1.057   4.532   0.355
    1TCM    cl3 2262   0.831   4.456   0.352
    1TCM     c1 2263   3.165   2.715   0.941
    1TCM    cl1 2264   3.337   2.718   0.895
    1TCM    cl2 2265   3.142   2.805   1.093
    1TCM     h1 2266   3.105   2.763   0.860
    1TCM    cl3 2267   3.112   2.547   0.962
    1TCM     c1 2268   0.632   2.018   2.543
    1TCM    cl1 2269   0.480   2.019   2.451
    1TCM    cl2 2270   0.626   1.890   2.667
    1TCM     h1 2271   0.717   1.999   2.474
    1TCM    cl3 2272   0.655   2.176   2.622
    1TCM     c1 2273   2.633   0.768   4.985
    1TCM    cl1 2274   2.733   0.886   5.072
    1TCM    cl2 2275   2.522   0.854   4.876
    1TCM     h1 2276   2.699   0.701   4.925
    1TCM    cl3 2277   2.539   0.672   5.101
    1TCM     c1 2278   0.389   4.379   4.228
    1TCM    cl1 2279   0.495   4.255   4.157
    1TCM    cl2 2280   0.440   4.413   4.394
    1TCM     h1 2281   0.395   4.472   4.167
    1TCM    cl3 2282   0.221   4.321   4.228
    1TCM     c1 2283   5.136   4.027   1.555
    1TCM    cl1 2284   5.162   3.906   1.682
    1TCM    cl2 2285   5.102   3.945   1.401
    1TCM     h1 2286   5.051   4.092   1.582
    1TCM    cl3 2287   5.283   4.127   1.538
    1TCM     c1 2288   2.602   2.266   0.461
    1TCM    cl1 2289   2.495   2.387   0.386
    1TCM    cl2 2290   2.561   2.249   0.633
    1TCM     h1 2291   2.588   2.168   0.410
    1TCM    cl3 2292   2.771   2.318   0.444
    1TCM     c1 2293   5.197   5.051   3.605
    1TCM    cl1 2294   5.206   5.103   3.435
    1TCM    cl2 2295   5.322   5.135   3.699
    1TCM     h1 2296   5.097   5.076   3.646
    1TCM    cl3 2297   5.223   4.876   3.614
    1TCM     c1 2298   3.353   2.487   2.170
    1TCM    cl1 2299   3.458   2.620   2.117
    1TCM    cl2 2300   3.192   2.506   2.097
    1TCM     h1 2301   3.397   2.390   2.137
    1TCM    cl3 2302   3.338   2.489   2.347
    1TCM     c1 2303   4.053   1.206   5.176
    1TCM    cl1 2304   4.101   1.360   5.251
    1TCM    cl2 2305   4.168   1.079   5.222
    1TCM     h1 2306   3.951   1.178   5.210
    1TCM    cl3 2307   4.052   1.225   4.999
    1TCM     c1 2308   1.141   2.150   4.402
    1TCM    cl1 2309   1.241   2.111   4.543
    1TCM    cl2 2310   1.023   2.020   4.375
    1TCM     h1 2311   1.087   2.245   4.421
    1TCM    cl3 2312   1.244   2.168   4.259
    1TCM     c1 2313   0.378   0.279   2.145
    1TCM    cl1 2314   0.410   0.218   1.980
    1TCM    cl2 2315   0.508   0.224   2.254
    1TCM     h1 2316   0.375   0.390   2.143
    1TCM    cl3 2317   0.222   0.217   2.202
    1TCM     c1 2318   3.822   0.432   1.085
    1TCM    cl1 2319   3.935   0.556   1.143
    1TCM    cl2 2320   3.656   0.496   1.087
    1TCM     h1 2321   3.849   0.402   0.981
    1TCM    cl3 2322   3.832   0.289   1.191
    1TCM     c1 2323   3.178   2.268   3.645
    1TCM    cl1 2324   3.319   2.353   3.577
    1TCM    cl2 2325   3.168   2.300   3.820
    1TCM     h1 2326   3.086   2.304   3.595
    1TCM    cl3 2327   3.196   2.093   3.618
    1TCM     c1 2328   3.742   2.903   3.543
    1TCM    cl1 2329   3.884   3.004   3.505
    1TCM    cl2 2330   3.795   2.738   3.581
    1TCM     h1 2331   3.688   2.946   3.630
    1TCM    cl3 2332   3.633   2.899   3.402
    1TCM     c1 2333   3.245   4.439   1.767
    1TCM    cl1 2334   3.204   4.610   1.797
    1TCM    cl2 2335   3.240   4.408   1.592
    1TCM     h1 2336   3.347   4.418   1.805
    1TCM    cl3 2337   3.128   4.334   1.849
    1TCM     c1 2338   0.517   1.329   4.229
    1TCM    cl1 2339   0.431   1.174   4.229
    1TCM    cl2 2340   0.512   1.400   4.066
    1TCM     h1 2341   0.469   1.398   4.301
    1TCM    cl3 2342   0.687   1.303   4.277
    1TCM     c1 2343   0.379   1.995   1.507
    1TCM    cl1 2344   0.469   1.879   1.608
    1TCM    cl2 2345   0.206   1.987   1.547
    1TCM     h1 2346   0.417   2.097   1.526
    1TCM    cl3 2347   0.402   1.953   1.335
    1TCM     c1 2348   0.078   2.908   1.379
    1TCM    cl1 2349   0.195   2.858   1.255
    1TCM    cl2 2350   0.000   3.060   1.328
    1TCM     h1 2351   0.000   2.829   1.390
    1TCM    cl3 2352   0.161   2.932   1.534
    1TCM     c1 2353   0.805   3.703   0.066
    1TCM    cl1 2354   0.767   3.541   0.002
    1TCM    cl2 2355   0.688   3.821   0.003
    1TCM     h1 2356   0.799   3.701   0.177
    1TCM    cl3 2357   0.969   3.749   0.016
    1TCM     c1 2358   3.534   1.312   1.479
    1TCM    cl1 2359   3.541   1.164   1.381
    1TCM    cl2 2360   3.677   1.320   1.584
    1TCM     h1 2361   3.533   1.401   1.412
    1TCM    cl3 2362   3.387   1.311   1.578
    1TCM     c1 2363   3.552   1.714   4.771
    1TCM    cl1 2364   3.377   1.679   4.779
    1TCM    cl2 2365   3.629   1.667   4.924
    1TCM     h1 2366   3.597   1.657   4.688
    1TCM    cl3 2367   3.576   1.888   4.744
    1TCM     c1 2368   0.723   3.961   4.300
    1TCM    cl1 2369   0.568   4.048   4.306
    1TCM    cl2 2370   0.849   4.070   4.236
    1TCM     h1 2371   0.751   3.928   4.402
    1TCM    cl3 2372   0.707   3.820   4.194
    1TCM     c1 2373   3.628   3.220   5.182
    1TCM    cl1 2374   3.590   3.132   5.032
    1TCM    cl2 2375   3.516   3.167   5.311
    1TCM     h1 2376   3.732   3.198   5.213
    1TCM    cl3 2377   3.609   3.395   5.155
    1TCM     c1 2378   0.980   2.722   1.513
    1TCM    cl1 2379   0.920   2.572   1.586
    1TCM    cl2 2380   1.156   2.710   1.489
    1TCM     h1 2381   0.930   2.739   1.416
    1TCM    cl3 2382   0.944   2.859   1.622
    1TCM     c1 2383   4.404   5.077   5.200
    1TCM    cl1 2384   4.284   5.098   5.329
    1TCM    cl2 2385   4.565   5.122   5.262
    1TCM     h1 2386   4.405   4.971   5.167
    1TCM    cl3 2387   4.363   5.182   5.063
    1TCM     c1 2388   4.409   1.115   0.302
    1TCM    cl1 2389   4.251   1.129   0.222
    1TCM    cl2 2390   4.386   1.052   0.467
    1TCM     h1 2391   4.473   1.046   0.245
    1TCM    cl3 2392   4.485   1.275   0.310
    1TCM     c1 2393   3.089   0.846   3.486
    1TCM    cl1 2394   3.048   0.828   3.314
    1TCM    cl2 2395   3.198   0.985   3.507
    1TCM     h1 2396   2.996   0.864   3.545
    1TCM    cl3 2397   3.168   0.698   3.545
    1TCM     c1 2398   4.364   1.447   4.885
    1TCM    cl1 2399   4.501   1.539   4.818
    1TCM    cl2 2400   4.353   1.289   4.805
    1TCM     h1 2401   4.379   1.433   4.994
    1TCM    cl3 2402   4.213   1.538   4.858
    1TCM     c1 2403   4.773   2.155   3.824
    1TCM    cl1 2404   4.677   2.006   3.823
    1TCM    cl2 2405   4.690   2.280   3.727
    1TCM     h1 2406   4.784   2.191   3.928
    1TCM    cl3 2407   4.933   2.124   3.754
    1TCM     c1 2408   0.103   4.924   3.841
    1TCM    cl1 2409   0.003   4.894   3.697
    1TCM    cl2 2410   0.254   4.832   3.829
    1TCM     h1 2411   0.126   5.032   3.848
    1TCM    cl3 2412   0.014   4.874   3.987
    1TCM     c1 2413   3.376   0.749   3.827
    1TCM    cl1 2414   3.223   0.687   3.762
    1TCM    cl2 2415   3.509   0.707   3.716
    1TCM     h1 2416   3.370   0.859   3.838
    1TCM    cl3 2417   3.407   0.675   3.986
    1TCM     c1 2418   3.877   3.794   1.603
    1TCM    cl1 2419   3.970   3.866   1.470
    1TCM    cl2 2420   3.911   3.883   1.753
    1TCM     h1 2421   3.769   3.800   1.580
    1TCM    cl3 2422   3.924   3.624   1.624
    1TCM     c1 2423   0.379   0.092   1.447
    1TCM    cl1 2424   0.519   0.008   1.517
    1TCM    cl2 2425   0.319   0.000   1.307
    1TCM     h1 2426   0.299   0.099   1.524
    1TCM    cl3 2427   0.426   0.255   1.395
    1TCM     c1 2428   2.165   3.970   3.691
    1TCM    cl1 2429   2.295   3.943   3.809
    1TCM    cl2 2430   2.211   3.899   3.534
    1TCM     h1 2431   2.072   3.921   3.727
    1TCM    cl3 2432   2.137   4.144   3.672
    1TCM     c1 2433   4.524   3.950   1.340
    1TCM    cl1 2434   4.553   3.929   1.515
    1TCM    cl2 2435   4.654   4.050   1.270
    1TCM     h1 2436   4.523   3.851   1.291
    1TCM    cl3 2437   4.368   4.030   1.316
    1TCM     c1 2438   3.163   4.358   4.617
    1TCM    cl1 2439   3.101   4.332   4.781
    1TCM    cl2 2440   3.175   4.201   4.533
    1TCM     h1 2441   3.094   4.424   4.561
    1TCM    cl3 2442   3.324   4.433   4.624
    1TCM     c1 2443   2.077   1.871   4.792
    1TCM    cl1 2444   1.939   1.977   4.828
    1TCM    cl2 2445   2.049   1.788   4.637
    1TCM     h1 2446   2.170   1.931   4.785
    1TCM    cl3 2447   2.094   1.750   4.921
    1TCM     c1 2448   1.528   3.525   2.022
    1TCM    cl1 2449   1.604   3.572   1.868
    1TCM    cl2 2450   1.516   3.668   2.127
    1TCM     h1 2451   1.426   3.485   2.003
    1TCM    cl3 2452   1.627   3.401   2.101
    1TCM     c1 2453   1.883   0.214   1.585
    1TCM    cl1 2454   1.795   0.067   1.634
    1TCM    cl2 2455   1.959   0.187   1.427
    1TCM     h1 2456   1.811   0.299   1.577
    1TCM    cl3 2457   2.007   0.253   1.706
    1TCM     c1 2458   4.178   4.353   3.798
    1TCM    cl1 2459   4.100   4.420   3.653
    1TCM    cl2 2460   4.094   4.413   3.943
    1TCM     h1 2461   4.173   4.242   3.795
    1TCM    cl3 2462   4.348   4.405   3.803
    1TCM     c1 2463   0.669   1.028   3.740
    1TCM    cl1 2464   0.640   1.027   3.564
    1TCM    cl2 2465   0.593   0.885   3.813
    1TCM     h1 2466   0.778   1.026   3.760
    1TCM    cl3 2467   0.598   1.175   3.811
    1TCM     c1 2468   1.689   4.461   0.702
    1TCM    cl1 2469   1.816   4.583   0.679
    1TCM    cl2 2470   1.577   4.514   0.829
    1TCM     h1 2471   1.633   4.447   0.607
    1TCM    cl3 2472   1.763   4.306   0.749
    1TCM     c1 2473   3.246   0.379   0.150
    1TCM    cl1 2474   3.128   0.299   0.257
    1TCM    cl2 2475   3.283   0.273   0.013
    1TCM     h1 2476   3.203   0.474   0.113
    1TCM    cl3 2477   3.395   0.413   0.241
    1TCM     c1 2478   3.785   0.935   3.280
    1TCM    cl1 2479   3.772   0.960   3.104
    1TCM    cl2 2480   3.957   0.924   3.325
    1TCM     h1 2481   3.738   1.020   3.333
    1TCM    cl3 2482   3.702   0.784   3.325
    1TCM     c1 2483   0.143   4.596   4.007
    1TCM    cl1 2484   0.285   4.520   3.931
    1TCM    cl2 2485   0.197   4.713   4.130
    1TCM     h1 2486   0.083   4.648   3.930
    1TCM    cl3 2487   0.043   4.471   4.085
    1TCM     c1 2488   4.444   1.699   5.238
    1TCM    cl1 2489   4.586   1.698   5.131
    1TCM    cl2 2490   4.296   1.695   5.139
    1TCM     h1 2491   4.447   1.610   5.304
    1TCM    cl3 2492   4.445   1.847   5.336
    1TCM     c1 2493   0.505   0.659   2.778
    1TCM    cl1 2494   0.647   0.619   2.679
    1TCM    cl2 2495   0.362   0.574   2.714
    1TCM     h1 2496   0.523   0.626   2.883
    1TCM    cl3 2497   0.476   0.834   2.774
    1TCM     c1 2498   0.570   1.891   2.206
    1TCM    cl1 2499   0.700   1.807   2.294
    1TCM    cl2 2500   0.585   1.856   2.032
    1TCM     h1 2501   0.472   1.856   2.243
    1TCM    cl3 2502   0.584   2.066   2.233
    1TCM     c1 2503   3.609   2.216   1.637
    1TCM    cl1 2504   3.521   2.217   1.482
    1TCM    cl2 2505   3.578   2.062   1.722
    1TCM     h1 2506   3.717   2.226   1.618
    1TCM    cl3 2507   3.553   2.351   1.738
    1TCM     c1 2508   2.709   0.905   4.415
    1TCM    cl1 2509   2.597   0.970   4.293
    1TCM    cl2 2510   2.622   0.792   4.522
    1TCM     h1 2511   2.792   0.851   4.365
    1TCM    cl3 2512   2.776   1.039   4.512
    1TCM     c1 2513   4.635   2.546   4.915
    1TCM    cl1 2514   4.620   2.676   5.036
    1TCM    cl2 2515   4.527   2.411   4.958
    1TCM     h1 2516   4.606   2.585   4.815
    1TCM    cl3 2517   4.803   2.488   4.910
    1TCM     c1 2518   3.822   0.756   2.846
    1TCM    cl1 2519   3.716   0.761   2.703
    1TCM    cl2 2520   3.890   0.917   2.875
    1TCM     h1 2521   3.763   0.723   2.934
    1TCM    cl3 2522   3.955   0.640   2.817
    1TCM     c1 2523   3.333   2.248   3.300
    1TCM    cl1 2524   3.346   2.074   3.263
    1TCM    cl2 2525   3.316   2.339   3.148
    1TCM     h1 2526   3.244   2.265   3.364
    1TCM    cl3 2527   3.480   2.301   3.385
    1TCM     c1 2528   3.847   1.614   1.541
    1TCM    cl1 2529   3.877   1.757   1.439
    1TCM    cl2 2530   3.813   1.667   1.708
    1TCM     h1 2531   3.760   1.558   1.502
    1TCM    cl3 2532   3.991   1.510   1.540
    1TCM     c1 2533   0.417   3.445   1.596
    1TCM    cl1 2534   0.254   3.413   1.661
    1TCM    cl2 2535   0.448   3.339   1.457
    1TCM     h1 2536   0.424   3.551   1.564
    1TCM    cl3 2537   0.538   3.414   1.723
    1TCM     c1 2538   2.475   3.689   4.600
    1TCM    cl1 2539   2.447   3.638   4.768
    1TCM    cl2 2540   2.364   3.823   4.561
    1TCM     h1 2541   2.579   3.723   4.589
    1TCM    cl3 2542   2.444   3.553   4.491
    1TCM     c1 2543   1.935   1.610   1.977
    1TCM    cl1 2544   2.104   1.556   1.988
    1TCM    cl2 2545   1.876   1.586   1.811
    1TCM     h1 2546   1.873   1.552   2.047
    1TCM    cl3 2547   1.926   1.783   2.019
    1TCM     c1 2548   4.497   2.494   0.314
    1TCM    cl1 2549   4.654   2.575   0.339
    1TCM    cl2 2550   4.501   2.334   0.392
    1TCM     h1 2551   4.416   2.555   0.358
    1TCM    cl3 2552   4.468   2.474   0.140
    1TCM     c1 2553   3.109   4.609   3.595
    1TCM    cl1 2554   2.945   4.577   3.535
    1TCM    cl2 2555   3.216   4.474   3.550
    1TCM     h1 2556   3.148   4.703   3.551
    1TCM    cl3 2557   3.105   4.624   3.773
    1TCM     c1 2558   5.005   3.899   5.243
    1TCM    cl1 2559   4.873   3.792   5.293
    1TCM    cl2 2560   4.971   4.064   5.299
    1TCM     h1 2561   5.101   3.864   5.288
    1TCM    cl3 2562   5.020   3.898   5.066
    1TCM     c1 2563   1.173   2.673   3.335
    1TCM    cl1 2564   1.054   2.577   3.425
    1TCM    cl2 2565   1.147   2.652   3.160
    1TCM     h1 2566   1.162   2.780   3.361
    1TCM    cl3 2567   1.337   2.619   3.377
    1TCM     c1 2568   2.507   2.830   1.323
    1TCM    cl1 2569   2.380   2.883   1.209
    1TCM    cl2 2570   2.526   2.654   1.313
    1TCM     h1 2571   2.603   2.880   1.296
    1TCM    cl3 2572   2.461   2.876   1.488
    1TCM     c1 2573   0.134   3.563   3.581
    1TCM    cl1 2574   0.248   3.563   3.444
    1TCM    cl2 2575   0.000   3.451   3.547
    1TCM     h1 2576   0.187   3.532   3.673
    1TCM    cl3 2577   0.069   3.728   3.603
    1TCM     c1 2578   2.486   4.842   3.311
    1TCM    cl1 2579   2.642   4.828   3.394
    1TCM    cl2 2580   2.355   4.844   3.431
    1TCM     h1 2581   2.483   4.936   3.252
    1TCM    cl3 2582   2.464   4.703   3.202
    1TCM     c1 2583   5.003   2.732   4.194
    1TCM    cl1 2584   5.174   2.782   4.201
    1TCM    cl2 2585   4.899   2.876   4.187
    1TCM     h1 2586   4.987   2.670   4.103
    1TCM    cl3 2587   4.963   2.637   4.339
    1TCM     c1 2588   2.579   2.260   3.559
    1TCM    cl1 2589   2.425   2.176   3.527
    1TCM    cl2 2590   2.645   2.321   3.405
    1TCM     h1 2591   2.561   2.344   3.628
    1TCM    cl3 2592   2.694   2.146   3.632
    1TCM     c1 2593   2.002   0.880   3.959
    1TCM    cl1 2594   2.048   0.824   4.122
    1TCM    cl2 2595   1.969   1.055   3.964
    1TCM     h1 2596   2.085   0.860   3.888
    1TCM    cl3 2597   1.856   0.793   3.905
    1TCM     c1 2598   1.063   0.304   0.567
    1TCM    cl1 2599   1.204   0.222   0.639
    1TCM    cl2 2600   1.033   0.237   0.405
    1TCM     h1 2601   0.974   0.288   0.631
    1TCM    cl3 2602   1.096   0.479   0.553
    1TCM     c1 2603   4.158   1.431   3.659
    1TCM    cl1 2604   4.054   1.575   3.672
    1TCM    cl2 2605   4.192   1.369   3.822
    1TCM     h1 2606   4.107   1.353   3.600
    1TCM    cl3 2607   4.311   1.475   3.580
    1TCM     c1 2608   3.259   4.974   3.369
    1TCM    cl1 2609   3.424   4.989   3.432
    1TCM    cl2 2610   3.151   4.917   3.498
    1TCM     h1 2611   3.224   5.073   3.333
    1TCM    cl3 2612   3.257   4.858   3.234
    1TCM     c1 2613   2.214   2.541   3.110
    1TCM    cl1 2614   2.139   2.459   2.971
    1TCM    cl2 2615   2.117   2.684   3.153
    1TCM     h1 2616   2.218   2.472   3.197
    1TCM    cl3 2617   2.379   2.592   3.067
    1TCM     c1 2618   1.479   0.715   5.257
    1TCM    cl1 2619   1.520   0.878   5.317
    1TCM    cl2 2620   1.457   0.721   5.081
    1TCM     h1 2621   1.560   0.645   5.282
    1TCM    cl3 2622   1.327   0.661   5.333
    1TCM     c1 2623   2.309   4.368   4.347
    1TCM    cl1 2624   2.204   4.496   4.283
    1TCM    cl2 2625   2.258   4.326   4.512
    1TCM     h1 2626   2.302   4.278   4.282
    1TCM    cl3 2627   2.478   4.425   4.350
    1TCM     c1 2628   0.783   3.742   5.077
    1TCM    cl1 2629   0.778   3.884   4.970
    1TCM    cl2 2630   0.617   3.691   5.115
    1TCM     h1 2631   0.836   3.659   5.026
    1TCM    cl3 2632   0.868   3.784   5.227
    1TCM     c1 2633   5.096   3.056   1.872
    1TCM    cl1 2634   5.080   3.198   1.767
    1TCM    cl2 2635   5.089   3.106   2.042
    1TCM     h1 2636   5.013   2.985   1.851
    1TCM    cl3 2637   5.252   2.976   1.839
    1TCM     c1 2638   3.352   1.216   3.620
    1TCM    cl1 2639   3.406   1.359   3.711
    1TCM    cl2 2640   3.392   1.237   3.448
    1TCM     h1 2641   3.402   1.126   3.659
    1TCM    cl3 2642   3.175   1.198   3.637
    1TCM     c1 2643   0.073   1.329   1.827
    1TCM    cl1 2644   0.248   1.300   1.841
    1TCM    cl2 2645   0.000   1.325   1.989
    1TCM     h1 2646   0.056   1.428   1.781
    1TCM    cl3 2647   0.000   1.203   1.726
    1TCM     c1 2648   1.763   0.060   1.353
    1TCM    cl1 2649   1.687   0.001   1.203
    1TCM    cl2 2650   1.930   0.000   1.363
    1TCM     h1 2651   1.763   0.171   1.354
    1TCM    cl3 2652   1.671   0.000   1.493
    1TCM     c1 2653   2.753   2.938   3.900
    1TCM    cl1 2654   2.828   2.812   4.001
    1TCM    cl2 2655   2.875   3.060   3.857
    1TCM     h1 2656   2.713   2.892   3.807
    1TCM    cl3 2657   2.621   3.015   3.990
    1TCM     c1 2658   5.139   3.314   1.249
    1TCM    cl1 2659   5.215   3.447   1.158
    1TCM    cl2 2660   5.038   3.382   1.379
    1TCM     h1 2661   5.076   3.254   1.180
    1TCM    cl3 2662   5.265   3.210   1.319
    1TCM     c1 2663   1.889   0.289   0.187
    1TCM    cl1 2664   1.757   0.170   0.197
    1TCM    cl2 2665   2.015   0.229   0.076
    1TCM     h1 2666   1.849   0.385   0.150
    1TCM    cl3 2667   1.960   0.313   0.349
    1TCM     c1 2668   1.126   1.999   3.014
    1TCM    cl1 2669   1.172   1.852   2.925
    1TCM    cl2 2670   1.253   2.039   3.132
    1TCM     h1 2671   1.114   2.083   2.942
    1TCM    cl3 2672   0.972   1.971   3.099
    1TCM     c1 2673   2.676   3.865   2.491
    1TCM    cl1 2674   2.826   3.826   2.405
    1TCM    cl2 2675   2.706   3.994   2.609
    1TCM     h1 2676   2.599   3.898   2.418
    1TCM    cl3 2677   2.617   3.720   2.577
    1TCM     c1 2678   1.515   0.637   2.918
    1TCM    cl1 2679   1.401   0.762   2.863
    1TCM    cl2 2680   1.506   0.622   3.095
    1TCM     h1 2681   1.489   0.540   2.871
    1TCM    cl3 2682   1.680   0.684   2.871
    1TCM     c1 2683   5.129   5.027   2.855
    1TCM    cl1 2684   5.047   4.873   2.820
    1TCM    cl2 2685   5.171   5.033   3.028
    1TCM     h1 2686   5.222   5.034   2.794
    1TCM    cl3 2687   5.022   5.163   2.815
    1TCM     c1 2688   2.608   3.889   3.218
    1TCM    cl1 2689   2.487   3.963   3.325
    1TCM    cl2 2690   2.627   3.991   3.073
    1TCM     h1 2691   2.705   3.882   3.271
    1TCM    cl3 2692   2.553   3.727   3.169
    1TCM     c1 2693   5.121   4.995   0.212
    1TCM    cl1 2694   4.944   5.010   0.220
    1TCM    cl2 2695   5.170   4.958   0.045
    1TCM     h1 2696   5.167   5.090   0.245
    1TCM    cl3 2697   5.173   4.863   0.319
    1TCM     c1 2698   1.542   4.068   5.168
    1TCM    cl1 2699   1.392   4.054   5.072
    1TCM    cl2 2700   1.631   3.915   5.161
    1TCM     h1 2701   1.604   4.150   5.126
    1TCM    cl3 2702   1.501   4.106   5.336
    1TCM     c1 2703   0.449   2.042   3.476
    1TCM    cl1 2704   0.352   2.133   3.359
    1TCM    cl2 2705   0.383   1.877   3.492
    1TCM     h1 2706   0.554   2.036   3.440
    1TCM    cl3 2707   0.445   2.123   3.634
    1TCM     c1 2708   4.655   0.454   4.864
    1TCM    cl1 2709   4.671   0.439   5.041
    1TCM    cl2 2710   4.664   0.626   4.819
    1TCM     h1 2711   4.737   0.398   4.814
    1TCM    cl3 2712   4.498   0.387   4.813
    1TCM     c1 2713   4.348   2.426   2.467
    1TCM    cl1 2714   4.262   2.289   2.543
    1TCM    cl2 2715   4.481   2.478   2.573
    1TCM     h1 2716   4.390   2.394   2.369
    1TCM    cl3 2717   4.235   2.560   2.442
    1TCM     c1 2718   3.497   4.730   1.650
    1TCM    cl1 2719   3.511   4.565   1.715
    1TCM    cl2 2720   3.572   4.737   1.489
    1TCM     h1 2721   3.390   4.758   1.642
    1TCM    cl3 2722   3.580   4.844   1.759
    1TCM     c1 2723   5.220   5.183   0.756
    1TCM    cl1 2724   5.277   5.333   0.833
    1TCM    cl2 2725   5.044   5.189   0.739
    1TCM     h1 2726   5.267   5.172   0.656
    1TCM    cl3 2727   5.265   5.044   0.858
    1TCM     c1 2728   3.977   5.150   0.254
    1TCM    cl1 2729   4.021   5.090   0.416
    1TCM    cl2 2730   4.124   5.189   0.163
    1TCM     h1 2731   3.919   5.072   0.200
    1TCM    cl3 2732   3.877   5.297   0.270
    1TCM     c1 2733   0.696   5.237   2.415
    1TCM    cl1 2734   0.591   5.335   2.520
    1TCM    cl2 2735   0.658   5.271   2.245
    1TCM     h1 2736   0.802   5.262   2.435
    1TCM    cl3 2737   0.669   5.064   2.449
    1TCM     c1 2738   2.882   5.155   4.397
    1TCM    cl1 2739   2.818   5.253   4.262
    1TCM    cl2 2740   2.980   5.022   4.331
    1TCM     h1 2741   2.945   5.220   4.462
    1TCM    cl3 2742   2.747   5.089   4.492
    1TCM     c1 2743   4.419   4.190   1.834
    1TCM    cl1 2744   4.281   4.169   1.724
    1TCM    cl2 2745   4.361   4.209   2.000
    1TCM     h1 2746   4.485   4.102   1.827
    1TCM    cl3 2747   4.510   4.336   1.786
    1TCM     c1 2748   3.253   3.708   4.875
    1TCM    cl1 2749   3.349   3.684   5.023
    1TCM    cl2 2750   3.335   3.630   4.738
    1TCM     h1 2751   3.153   3.663   4.888
    1TCM    cl3 2752   3.236   3.882   4.842
    1TCM     c1 2753   2.772   0.542   4.347
    1TCM    cl1 2754   2.675   0.539   4.496
    1TCM    cl2 2755   2.712   0.418   4.234
    1TCM     h1 2756   2.764   0.642   4.300
    1TCM    cl3 2757   2.942   0.508   4.387
    1TCM     c1 2758   3.347   3.354   1.812
    1TCM    cl1 2759   3.490   3.438   1.748
    1TCM    cl2 2760   3.331   3.388   1.986
    1TCM     h1 2761   3.257   3.388   1.759
    1TCM    cl3 2762   3.367   3.178   1.789
    1TCM     c1 2763   0.170   3.112   3.452
    1TCM    cl1 2764   0.256   3.079   3.299
    1TCM    cl2 2765   0.284   3.096   3.588
    1TCM     h1 2766   0.129   3.215   3.450
    1TCM    cl3 2767   0.038   2.995   3.472
    1TCM     c1 2768   1.511   3.842   3.102
    1TCM    cl1 2769   1.602   3.871   3.252
    1TCM    cl2 2770   1.516   3.989   3.001
    1TCM     h1 2771   1.557   3.758   3.046
    1TCM    cl3 2772   1.342   3.803   3.141
    1TCM     c1 2773   2.838   4.214   1.754
    1TCM    cl1 2774   2.696   4.108   1.740
    1TCM    cl2 2775   2.891   4.219   1.923
    1TCM     h1 2776   2.920   4.175   1.690
    1TCM    cl3 2777   2.794   4.378   1.700
    1TCM     c1 2778   5.146   1.664   2.951
    1TCM    cl1 2779   5.093   1.657   2.781
    1TCM    cl2 2780   5.322   1.685   2.957
    1TCM     h1 2781   5.096   1.750   3.001
    1TCM    cl3 2782   5.101   1.513   3.033
    1TCM     c1 2783   4.463   3.409   2.918
    1TCM    cl1 2784   4.293   3.430   2.870
    1TCM    cl2 2785   4.471   3.339   3.081
    1TCM     h1 2786   4.513   3.341   2.846
    1TCM    cl3 2787   4.544   3.567   2.917
    1TCM     c1 2788   2.705   4.908   2.646
    1TCM    cl1 2789   2.838   4.790   2.641
    1TCM    cl2 2790   2.717   5.004   2.795
    1TCM     h1 2791   2.712   4.975   2.558
    1TCM    cl3 2792   2.549   4.822   2.643
    1TCM     c1 2793   3.019   3.256   2.500
    1TCM    cl1 2794   3.027   3.094   2.573
    1TCM    cl2 2795   3.158   3.279   2.392
    1TCM     h1 2796   2.925   3.266   2.442
    1TCM    cl3 2797   3.022   3.379   2.628
    1TCM     c1 2798   1.918   3.511   4.154
    1TCM    cl1 2799   1.903   3.656   4.052
    1TCM    cl2 2800   1.943   3.560   4.323
    1TCM     h1 2801   1.825   3.451   4.147
    1TCM    cl3 2802   2.056   3.414   4.100
    1TCM     c1 2803   4.956   1.888   0.573
    1TCM    cl1 2804   4.887   1.817   0.426
    1TCM    cl2 2805   4.871   1.824   0.715
    1TCM     h1 2806   5.064   1.863   0.580
    1TCM    cl3 2807   4.937   2.065   0.568
    1TCM     c1 2808   2.065   3.098   2.074
    1TCM    cl1 2809   2.184   3.174   2.181
    1TCM    cl2 2810   2.150   3.005   1.948
    1TCM     h1 2811   2.001   3.029   2.133
    1TCM    cl3 2812   1.964   3.223   1.998
    1TCM     c1 2813   1.993   0.950   4.969
    1TCM    cl1 2814   2.042   1.118   4.935
    1TCM    cl2 2815   2.113   0.838   4.899
    1TCM     h1 2816   1.988   0.935   5.078
    1TCM    cl3 2817   1.834   0.919   4.896
    1TCM     c1 2818   0.327   5.101   4.008
    1TCM    cl1 2819   0.448   5.169   4.119
    1TCM    cl2 2820   0.355   5.163   3.844
    1TCM     h1 2821   0.336   4.990   4.007
    1TCM    cl3 2822   0.164   5.147   4.062
    1TCM     c1 2823   1.661   4.497   1.725
    1TCM    cl1 2824   1.652   4.632   1.609
    1TCM    cl2 2825   1.828   4.481   1.784
    1TCM     h1 2826   1.593   4.517   1.810
    1TCM    cl3 2827   1.611   4.346   1.644
    1TCM     c1 2828   4.907   1.009   4.251
    1TCM    cl1 2829   4.833   0.882   4.352
    1TCM    cl2 2830   4.848   0.992   4.084
    1TCM     h1 2831   4.878   1.109   4.290
    1TCM    cl3 2832   5.084   0.992   4.254
    1TCM     c1 2833   2.345   3.241   0.240
    1TCM    cl1 2834   2.400   3.329   0.095
    1TCM    cl2 2835   2.295   3.358   0.364
    1TCM     h1 2836   2.258   3.177   0.213
    1TCM    cl3 2837   2.477   3.140   0.302
    1TCM     c1 2838   2.630   4.394   1.403
    1TCM    cl1 2839   2.555   4.548   1.449
    1TCM    cl2 2840   2.602   4.364   1.230
    1TCM     h1 2841   2.739   4.399   1.422
    1TCM    cl3 2842   2.559   4.262   1.498
    1TCM     c1 2843   1.630   0.898   4.011
    1TCM    cl1 2844   1.760   0.818   4.103
    1TCM    cl2 2845   1.671   1.069   3.986
    1TCM     h1 2846   1.617   0.848   3.913
    1TCM    cl3 2847   1.477   0.888   4.103
    1TCM     c1 2848   1.561   1.131   2.826
    1TCM    cl1 2849   1.577   1.074   2.658
    1TCM    cl2 2850   1.525   0.992   2.932
    1TCM     h1 2851   1.656   1.178   2.859
    1TCM    cl3 2852   1.430   1.250   2.837
    1TCM     c1 2853   1.992   3.195   3.478
    1TCM    cl1 2854   1.963   3.174   3.304
    1TCM    cl2 2855   2.035   3.365   3.510
    1TCM     h1 2856   1.900   3.169   3.534
    1TCM    cl3 2857   2.125   3.090   3.530
    1TCM     c1 2858   3.879   4.296   3.002
    1TCM    cl1 2859   3.787   4.388   3.123
    1TCM    cl2 2860   3.885   4.387   2.850
    1TCM     h1 2861   3.982   4.278   3.039
    1TCM    cl3 2862   3.799   4.140   2.974
    1TCM     c1 2863   2.736   5.182   0.549
    1TCM    cl1 2864   2.853   5.261   0.440
    1TCM    cl2 2865   2.579   5.265   0.536
    1TCM     h1 2866   2.724   5.076   0.520
    1TCM    cl3 2867   2.795   5.192   0.716
    1TCM     c1 2868   1.652   3.809   4.111
    1TCM    cl1 2869   1.774   3.938   4.103
    1TCM    cl2 2870   1.699   3.691   4.235
    1TCM     h1 2871   1.554   3.853   4.138
    1TCM    cl3 2872   1.640   3.728   3.954
    1TCM     c1 2873   2.488   2.279   1.222
    1TCM    cl1 2874   2.464   2.422   1.119
    1TCM    cl2 2875   2.362   2.274   1.347
    1TCM     h1 2876   2.481   2.188   1.159
    1TCM    cl3 2877   2.648   2.287   1.298
    1TCM     c1 2878   3.061   0.135   3.801
    1TCM    cl1 2879   3.213   0.070   3.868
    1TCM    cl2 2880   2.977   0.229   3.927
    1TCM     h1 2881   3.084   0.200   3.715
    1TCM    cl3 2882   2.957   0.000   3.749
    1TCM     c1 2883   2.092   1.302   2.149
    1TCM    cl1 2884   2.246   1.352   2.075
    1TCM    cl2 2885   2.009   1.444   2.215
    1TCM     h1 2886   2.028   1.254   2.072
    1TCM    cl3 2887   2.124   1.186   2.280
    1TCM     c1 2888   2.318   2.841   0.276
    1TCM    cl1 2889   2.295   2.828   0.451
    1TCM    cl2 2890   2.281   2.685   0.199
    1TCM     h1 2891   2.250   2.919   0.235
    1TCM    cl3 2892   2.487   2.885   0.241
    1TCM     c1 2893   3.607   2.510   4.372
    1TCM    cl1 2894   3.691   2.663   4.410
    1TCM    cl2 2895   3.726   2.390   4.316
    1TCM     h1 2896   3.556   2.473   4.463
    1TCM    cl3 2897   3.487   2.539   4.243
    1TCM     c1 2898   0.711   0.424   2.206
    1TCM    cl1 2899   0.649   0.297   2.098
    1TCM    cl2 2900   0.762   0.352   2.360
    1TCM     h1 2901   0.797   0.475   2.158
    1TCM    cl3 2902   0.582   0.543   2.237
    1TCM     c1 2903   0.087   2.886   3.899
    1TCM    cl1 2904   0.229   2.993   3.913
    1TCM    cl2 2905   0.028   2.845   4.061
    1TCM     h1 2906   0.007   2.938   3.842
    1TCM    cl3 2907   0.133   2.737   3.814
    1TCM     c1 2908   4.297   4.863   0.793
    1TCM    cl1 2909   4.328   4.862   0.968
    1TCM    cl2 2910   4.335   5.023   0.726
    1TCM     h1 2911   4.361   4.786   0.744
    1TCM    cl3 2912   4.126   4.825   0.763
    1TCM     c1 2913   0.274   4.327   1.080
    1TCM    cl1 2914   0.276   4.152   1.050
    1TCM    cl2 2915   0.118   4.394   1.027
    1TCM     h1 2916   0.287   4.345   1.189
    1TCM    cl3 2917   0.406   4.404   0.990
    1TCM     c1 2918   2.177   2.376   3.782
    1TCM    cl1 2919   2.241   2.449   3.633
    1TCM    cl2 2920   2.302   2.379   3.908
    1TCM     h1 2921   2.088   2.434   3.816
    1TCM    cl3 2922   2.129   2.208   3.750
    1TCM     c1 2923   0.597   4.077   1.314
    1TCM    cl1 2924   0.521   4.130   1.162
    1TCM    cl2 2925   0.563   4.196   1.442
    1TCM     h1 2926   0.555   3.978   1.344
    1TCM    cl3 2927   0.773   4.063   1.291
    1TCM     c1 2928   1.552   3.849   0.431
    1TCM    cl1 2929   1.539   3.697   0.340
    1TCM    cl2 2930   1.717   3.866   0.495
    1TCM     h1 2931   1.530   3.935   0.364
    1TCM    cl3 2932   1.436   3.849   0.566
    1TCM     c1 2933   3.194   2.130   2.532
    1TCM    cl1 2934   3.352   2.061   2.489
    1TCM    cl2 2935   3.160   2.270   2.427
    1TCM     h1 2936   3.115   2.054   2.517
    1TCM    cl3 2937   3.195   2.183   2.701
    1TCM     c1 2938   1.916   2.735   2.537
    1TCM    cl1 2939   1.997   2.704   2.693
    1TCM    cl2 2940   1.742   2.701   2.553
    1TCM     h1 2941   1.931   2.841   2.509
    1TCM    cl3 2942   1.986   2.629   2.413
    1TCM     c1 2943   3.416   5.130   2.095
    1TCM    cl1 2944   3.351   5.248   1.979
    1TCM    cl2 2945   3.282   5.045   2.174
    1TCM     h1 2946   3.480   5.056   2.041
    1TCM    cl3 2947   3.513   5.215   2.217
    1TCM     c1 2948   1.015   2.551   4.427
    1TCM    cl1 2949   1.133   2.668   4.490
    1TCM    cl2 2950   1.099   2.434   4.323
    1TCM     h1 2951   0.967   2.498   4.511
    1TCM    cl3 2952   0.891   2.637   4.332
    1TCM     c1 2953   4.594   3.910   4.944
    1TCM    cl1 2954   4.674   3.777   5.032
    1TCM    cl2 2955   4.652   3.913   4.776
    1TCM     h1 2956   4.484   3.895   4.945
    1TCM    cl3 2957   4.633   4.065   5.023
    1TCM     c1 2958   4.923   1.882   4.163
    1TCM    cl1 2959   5.089   1.823   4.184
    1TCM    cl2 2960   4.873   1.856   3.994
    1TCM     h1 2961   4.855   1.826   4.230
    1TCM    cl3 2962   4.916   2.055   4.201
    1TCM     c1 2963   4.093   2.321   2.899
    1TCM    cl1 2964   4.030   2.158   2.932
    1TCM    cl2 2965   3.957   2.433   2.874
    1TCM     h1 2966   4.154   2.355   2.985
    1TCM    cl3 2967   4.194   2.317   2.753
    1TCM     c1 2968   1.469   2.831   5.168
    1TCM    cl1 2969   1.452   3.000   5.220
    1TCM    cl2 2970   1.312   2.748   5.184
    1TCM     h1 2971   1.501   2.828   5.062
    1TCM    cl3 2972   1.589   2.750   5.270
    1TCM     c1 2973   3.663   2.149   3.130
    1TCM    cl1 2974   3.499   2.216   3.112
    1TCM    cl2 2975   3.723   2.183   3.294
    1TCM     h1 2976   3.660   2.039   3.114
    1TCM    cl3 2977   3.771   2.224   3.010
    1TCM     c1 2978   2.821   4.965   0.974
    1TCM    cl1 2979   2.814   5.142   0.981
    1TCM    cl2 2980   2.656   4.900   0.965
    1TCM     h1 2981   2.878   4.934   0.884
    1TCM    cl3 2982   2.902   4.903   1.119
    1TCM     c1 2983   1.660   3.848   0.888
    1TCM    cl1 2984   1.822   3.794   0.934
    1TCM    cl2 2985   1.620   3.787   0.726
    1TCM     h1 2986   1.586   3.809   0.961
    1TCM    cl3 2987   1.654   4.026   0.888
    1TCM     c1 2988   5.075   3.222   5.124
    1TCM    cl1 2989   5.007   3.345   5.234
    1TCM    cl2 2990   4.960   3.088   5.107
    1TCM     h1 2991   5.094   3.268   5.025
    1TCM    cl3 2992   5.228   3.161   5.191
    1TCM     c1 2993   2.925   5.039   3.108
    1TCM    cl1 2994   3.094   5.086   3.139
    1TCM    cl2 2995   2.903   5.011   2.933
    1TCM     h1 2996   2.902   4.946   3.163
    1TCM    cl3 2997   2.817   5.169   3.161
    1TCM     c1 2998   4.820   3.851   3.639
    1TCM    cl1 2999   4.711   3.843   3.779
    1TCM    cl2 3000   4.725   3.886   3.492
    1TCM     h1 3001   4.895   3.931   3.654
    1TCM    cl3 3002   4.903   3.695   3.619
    1TCM     c1 3003   1.687   0.867   3.146
    1TCM    cl1 3004   1.833   0.826   3.238
    1TCM    cl2 3005   1.682   1.043   3.118
    1TCM     h1 3006   1.689   0.814   3.048
    1TCM    cl3 3007   1.543   0.818   3.237
    1TCM     c1 3008   3.312   2.740   4.567
    1TCM    cl1 3009   3.275   2.912   4.587
    1TCM    cl2 3010   3.307   2.697   4.395
    1TCM     h1 3011   3.414   2.719   4.607
    1TCM    cl3 3012   3.193   2.642   4.656
    1TCM     c1 3013   2.386   4.214   0.584
    1TCM    cl1 3014   2.250   4.172   0.477
    1TCM    cl2 3015   2.344   4.176   0.752
    1TCM     h1 3016   2.476   4.155   0.554
    1TCM    cl3 3017   2.422   4.388   0.569
    1TCM     c1 3018   3.242   1.594   0.296
    1TCM    cl1 3019   3.357   1.688   0.199
    1TCM    cl2 3020   3.159   1.476   0.192
    1TCM     h1 3021   3.297   1.540   0.377
    1TCM    cl3 3022   3.123   1.703   0.369
    1TCM     c1 3023   2.390   1.818   4.119
    1TCM    cl1 3024   2.428   1.780   4.288
    1TCM    cl2 3025   2.218   1.861   4.104
    1TCM     h1 3026   2.453   1.903   4.085
    1TCM    cl3 3027   2.424   1.675   4.017
    1TCM     c1 3028   1.258   0.990   2.720
    1TCM    cl1 3029   1.399   0.926   2.632
    1TCM    cl2 3030   1.179   1.115   2.622
    1TCM     h1 3031   1.187   0.908   2.741
    1TCM    cl3 3032   1.313   1.061   2.874
    1TCM     c1 3033   2.840   4.398   5.138
    1TCM    cl1 3034   2.855   4.285   5.274
    1TCM    cl2 3035   2.682   4.373   5.059
    1TCM     h1 3036   2.846   4.502   5.175
    1TCM    cl3 3037   2.970   4.368   5.021
    1TCM     c1 3038   2.266   4.486   1.640
    1TCM    cl1 3039   2.273   4.625   1.749
    1TCM    cl2 3040   2.278   4.542   1.471
    1TCM     h1 3041   2.351   4.417   1.662
    1TCM    cl3 3042   2.112   4.399   1.663
    1TCM     c1 3043   0.981   2.537   5.119
    1TCM    cl1 3044   0.826   2.503   5.201
    1TCM    cl2 3045   1.003   2.424   4.984
    1TCM     h1 3046   0.979   2.641   5.080
    1TCM    cl3 3047   1.114   2.519   5.235
    1TCM     c1 3048   1.669   1.227   1.857
    1TCM    cl1 3049   1.643   1.388   1.785
    1TCM    cl2 3050   1.521   1.176   1.941
    1TCM     h1 3051   1.694   1.154   1.777
    1TCM    cl3 3052   1.803   1.235   1.973
    1TCM     c1 3053   0.531   3.635   3.665
    1TCM    cl1 3054   0.368   3.705   3.684
    1TCM    cl2 3055   0.574   3.634   3.493
    1TCM     h1 3056   0.604   3.697   3.721
    1TCM    cl3 3057   0.532   3.469   3.728
    1TCM     c1 3058   0.334   0.123   3.763
    1TCM    cl1 3059   0.357   0.296   3.792
    1TCM    cl2 3060   0.444   0.070   3.633
    1TCM     h1 3061   0.357   0.066   3.855
    1TCM    cl3 3062   0.166   0.092   3.714
    1TCM     c1 3063   4.265   5.198   3.310
    1TCM    cl1 3064   4.410   5.232   3.406
    1TCM    cl2 3065   4.294   5.055   3.207
    1TCM     h1 3066   4.180   5.177   3.378
    1TCM    cl3 3067   4.228   5.338   3.207
    1TCM     c1 3068   3.257   4.027   1.560
    1TCM    cl1 3069   3.378   4.156   1.578
    1TCM    cl2 3070   3.301   3.889   1.663
    1TCM     h1 3071   3.157   4.066   1.590
    1TCM    cl3 3072   3.251   3.975   1.390
    1TCM     c1 3073   4.676   4.332   3.839
    1TCM    cl1 3074   4.612   4.477   3.919
    1TCM    cl2 3075   4.774   4.238   3.955
    1TCM     h1 3076   4.592   4.269   3.803
    1TCM    cl3 3077   4.778   4.380   3.701
    1TCM     c1 3078   0.964   3.693   0.390
    1TCM    cl1 3079   1.021   3.594   0.526
    1TCM    cl2 3080   0.987   3.604   0.238
    1TCM     h1 3081   0.856   3.716   0.403
    1TCM    cl3 3082   1.056   3.845   0.384
    1TCM     c1 3083   5.134   2.334   5.097
    1TCM    cl1 3084   5.066   2.266   5.247
    1TCM    cl2 3085   5.310   2.347   5.113
    1TCM     h1 3086   5.108   2.267   5.012
    1TCM    cl3 3087   5.065   2.496   5.069
    1TCM     c1 3088   1.004   5.030   2.498
    1TCM    cl1 3089   0.991   5.132   2.644
    1TCM    cl2 3090   1.032   5.134   2.356
    1TCM     h1 3091   1.089   4.960   2.510
    1TCM    cl3 3092   0.853   4.939   2.475
    1TCM     c1 3093   1.034   1.248   4.219
    1TCM    cl1 3094   0.929   1.333   4.335
    1TCM    cl2 3095   0.992   1.298   4.054
    1TCM     h1 3096   1.140   1.274   4.239
    1TCM    cl3 3097   1.011   1.073   4.235
    1TCM     c1 3098   3.916   2.701   4.212
    1TCM    cl1 3099   3.794   2.629   4.104
    1TCM    cl2 3100   3.911   2.620   4.370
    1TCM     h1 3101   4.017   2.689   4.167
    1TCM    cl3 3102   3.881   2.874   4.233
    1TCM     c1 3103   2.323   3.527   5.205
    1TCM    cl1 3104   2.457   3.425   5.146
    1TCM    cl2 3105   2.172   3.478   5.123
    1TCM     h1 3106   2.311   3.514   5.314
    1TCM    cl3 3107   2.357   3.697   5.168
    1TCM     c1 3108   1.339   0.560   0.869
    1TCM    cl1 3109   1.378   0.389   0.840
    1TCM    cl2 3110   1.208   0.572   0.988
    1TCM     h1 3111   1.429   0.612   0.908
    1TCM    cl3 3112   1.288   0.636   0.716
    1TCM     c1 3113   0.409   3.673   0.564
    1TCM    cl1 3114   0.471   3.668   0.398
    1TCM    cl2 3115   0.406   3.509   0.631
    1TCM     h1 3116   0.474   3.738   0.626
    1TCM    cl3 3117   0.244   3.740   0.563
    1TCM     c1 3118   3.208   1.604   3.498
    1TCM    cl1 3119   3.273   1.763   3.452
    1TCM    cl2 3120   3.199   1.500   3.354
    1TCM     h1 3121   3.275   1.557   3.573
    1TCM    cl3 3122   3.046   1.624   3.568
    1TCM     c1 3123   2.743   4.688   0.290
    1TCM    cl1 3124   2.731   4.861   0.252
    1TCM    cl2 3125   2.820   4.602   0.155
    1TCM     h1 3126   2.804   4.674   0.382
    1TCM    cl3 3127   2.580   4.621   0.317
    1TCM     c1 3128   3.672   3.470   3.349
    1TCM    cl1 3129   3.801   3.350   3.370
    1TCM    cl2 3130   3.742   3.633   3.347
    1TCM     h1 3131   3.620   3.451   3.253
    1TCM    cl3 3132   3.556   3.456   3.483
    1TCM     c1 3133   2.989   3.957   0.917
    1TCM    cl1 3134   2.888   4.086   0.850
    1TCM    cl2 3135   2.885   3.823   0.973
    1TCM     h1 3136   3.058   3.919   0.839
    1TCM    cl3 3137   3.084   4.020   1.054
    1TCM     c1 3138   4.499   4.339   1.181
    1TCM    cl1 3139   4.485   4.465   1.056
    1TCM    cl2 3140   4.640   4.236   1.146
    1TCM     h1 3141   4.512   4.387   1.280
    1TCM    cl3 3142   4.352   4.240   1.182
    1TCM     c1 3143   4.541   3.093   0.262
    1TCM    cl1 3144   4.384   3.140   0.330
    1TCM    cl2 3145   4.639   3.014   0.387
    1TCM     h1 3146   4.525   3.023   0.177
    1TCM    cl3 3147   4.626   3.239   0.204
    1TCM     c1 3148   2.926   1.033   2.214
    1TCM    cl1 3149   2.899   0.858   2.230
    1TCM    cl2 3150   2.799   1.103   2.111
    1TCM     h1 3151   2.923   1.080   2.314
    1TCM    cl3 3152   3.085   1.062   2.141
    1TCM     c1 3153   3.452   4.596   2.978
    1TCM    cl1 3154   3.392   4.731   2.878
    1TCM    cl2 3155   3.404   4.622   3.147
    1TCM     h1 3156   3.408   4.501   2.942
    1TCM    cl3 3157   3.629   4.588   2.967
    1TCM     c1 3158   3.712   3.556   3.965
    1TCM    cl1 3159   3.817   3.633   4.086
    1TCM    cl2 3160   3.720   3.379   3.984
    1TCM     h1 3161   3.608   3.590   3.980
    1TCM    cl3 3162   3.767   3.601   3.802
    1TCM     c1 3163   4.173   0.315   0.213
    1TCM    cl1 3164   4.321   0.303   0.310
    1TCM    cl2 3165   4.202   0.248   0.050
    1TCM     h1 3166   4.092   0.257   0.262
    1TCM    cl3 3167   4.124   0.485   0.199
    1TCM     c1 3168   3.247   3.152   3.465
    1TCM    cl1 3169   3.349   3.208   3.600
    1TCM    cl2 3170   3.326   3.191   3.311
    1TCM     h1 3171   3.232   3.042   3.473
    1TCM    cl3 3172   3.089   3.233   3.473
    1TCM     c1 3173   0.600   2.712   1.872
    1TCM    cl1 3174   0.760   2.667   1.807
    1TCM    cl2 3175   0.495   2.569   1.874
    1TCM     h1 3176   0.612   2.750   1.976
    1TCM    cl3 3177   0.528   2.838   1.770
    1TCM     c1 3178   5.196   4.299   3.021
    1TCM    cl1 3179   5.205   4.458   2.942
    1TCM    cl2 3180   5.247   4.314   3.190
    1TCM     h1 3181   5.091   4.262   3.017
    1TCM    cl3 3182   5.302   4.185   2.936
    1TCM     c1 3183   2.299   3.511   1.522
    1TCM    cl1 3184   2.383   3.416   1.396
    1TCM    cl2 3185   2.371   3.476   1.681
    1TCM     h1 3186   2.310   3.619   1.500
    1TCM    cl3 3187   2.126   3.467   1.523
    1TCM     c1 3188   5.078   1.387   2.444
    1TCM    cl1 3189   5.188   1.494   2.355
    1TCM    cl2 3190   5.136   1.219   2.432
    1TCM     h1 3191   5.074   1.417   2.550
    1TCM    cl3 3192   4.915   1.397   2.372
    1TCM     c1 3193   4.195   3.122   3.998
    1TCM    cl1 3194   4.038   3.063   4.058
    1TCM    cl2 3195   4.317   2.995   4.018
    1TCM     h1 3196   4.186   3.148   3.891
    1TCM    cl3 3197   4.243   3.266   4.090
    1TCM     c1 3198   1.606   3.556   3.467
    1TCM    cl1 3199   1.692   3.649   3.342
    1TCM    cl2 3200   1.618   3.383   3.431
    1TCM     h1 3201   1.651   3.577   3.566
    1TCM    cl3 3202   1.435   3.604   3.469
    1TCM     c1 3203   2.572   3.270   2.636
    1TCM    cl1 3204   2.443   3.207   2.739
    1TCM    cl2 3205   2.730   3.228   2.707
    1TCM     h1 3206   2.564   3.225   2.535
    1TCM    cl3 3207   2.558   3.447   2.624
    1TCM     c1 3208   1.895   2.908   0.189
    1TCM    cl1 3209   1.864   2.771   0.298
    1TCM    cl2 3210   1.917   2.848   0.023
    1TCM     h1 3211   1.809   2.978   0.192
    1TCM    cl3 3212   2.042   2.993   0.241
    1TCM     c1 3213   4.825   0.837   2.890
    1TCM    cl1 3214   4.778   0.672   2.937
    1TCM    cl2 3215   4.725   0.889   2.752
    1TCM     h1 3216   4.808   0.906   2.975
    1TCM    cl3 3217   4.996   0.839   2.843
    1TCM     c1 3218   4.873   2.043   1.252
    1TCM    cl1 3219   4.764   2.068   1.114
    1TCM    cl2 3220   4.843   2.168   1.375
    1TCM     h1 3221   4.856   1.943   1.296
    1TCM    cl3 3222   5.042   2.055   1.197
    1TCM     c1 3223   3.138   4.016   0.470
    1TCM    cl1 3224   3.263   3.921   0.554
    1TCM    cl2 3225   3.212   4.155   0.390
    1TCM     h1 3226   3.087   3.952   0.395
    1TCM    cl3 3227   3.018   4.073   0.589
    1TCM     c1 3228   2.676   4.102   3.649
    1TCM    cl1 3229   2.823   4.142   3.740
    1TCM    cl2 3230   2.718   4.068   3.480
    1TCM     h1 3231   2.627   4.013   3.694
    1TCM    cl3 3232   2.564   4.240   3.655
    1TCM     c1 3233   2.094   4.511   2.270
    1TCM    cl1 3234   2.239   4.448   2.352
    1TCM    cl2 3235   1.960   4.519   2.387
    1TCM     h1 3236   2.115   4.612   2.231
    1TCM    cl3 3237   2.049   4.403   2.136
    1TCM     c1 3238   1.750   1.994   0.212
    1TCM    cl1 3239   1.656   2.109   0.310
    1TCM    cl2 3240   1.677   1.832   0.224
    1TCM     h1 3241   1.749   2.026   0.105
    1TCM    cl3 3242   1.918   1.988   0.271
    1TCM     c1 3243   0.273   2.796   4.365
    1TCM    cl1 3244   0.380   2.864   4.240
    1TCM    cl2 3245   0.256   2.621   4.339
    1TCM     h1 3246   0.316   2.815   4.465
    1TCM    cl3 3247   0.113   2.874   4.354
    1TCM     c1 3248   0.528   1.637   4.715
    1TCM    cl1 3249   0.637   1.773   4.681
    1TCM    cl2 3250   0.587   1.548   4.857
    1TCM     h1 3251   0.426   1.675   4.736
    1TCM    cl3 3252   0.523   1.528   4.575
    1TCM     c1 3253   5.097   2.910   0.672
    1TCM    cl1 3254   5.156   2.809   0.806
    1TCM    cl2 3255   5.112   2.820   0.519
    1TCM     h1 3256   4.991   2.936   0.689
    1TCM    cl3 3257   5.194   3.059   0.663
    1TCM     c1 3258   2.203   4.263   4.834
    1TCM    cl1 3259   2.235   4.113   4.925
    1TCM    cl2 3260   2.195   4.400   4.947
    1TCM     h1 3261   2.284   4.280   4.761
    1TCM    cl3 3262   2.048   4.247   4.748
    1TCM     c1 3263   3.077   3.461   3.254
    1TCM    cl1 3264   2.909   3.445   3.198
    1TCM    cl2 3265   3.141   3.620   3.207
    1TCM     h1 3266   3.080   3.451   3.365
    1TCM    cl3 3267   3.177   3.333   3.181
    1TCM     c1 3268   2.989   4.381   0.367
    1TCM    cl1 3269   3.039   4.375   0.538
    1TCM    cl2 3270   3.067   4.519   0.287
    1TCM     h1 3271   3.019   4.287   0.316
    1TCM    cl3 3272   2.812   4.399   0.358
    1TCM     c1 3273   3.461   4.479   0.473
    1TCM    cl1 3274   3.523   4.371   0.346
    1TCM    cl2 3275   3.533   4.434   0.630
    1TCM     h1 3276   3.488   4.584   0.449
    1TCM    cl3 3277   3.284   4.464   0.483
    1TCM     c1 3278   2.402   3.730   1.031
    1TCM    cl1 3279   2.564   3.787   1.075
    1TCM    cl2 3280   2.357   3.593   1.134
    1TCM     h1 3281   2.329   3.812   1.044
    1TCM    cl3 3282   2.401   3.679   0.860
    1TCM     c1 3283   4.086   3.942   3.750
    1TCM    cl1 3284   4.197   3.911   3.614
    1TCM    cl2 3285   4.180   3.986   3.894
    1TCM     h1 3286   4.018   4.025   3.723
    1TCM    cl3 3287   3.991   3.796   3.783
    1TCM     c1 3288   5.220   4.786   4.201
    1TCM    cl1 3289   5.066   4.747   4.121
    1TCM    cl2 3290   5.189   4.844   4.366
    1TCM     h1 3291   5.283   4.694   4.206
    1TCM    cl3 3292   5.306   4.911   4.109
    1TCM     c1 3293   4.184   0.292   3.515
    1TCM    cl1 3294   4.181   0.262   3.690
    1TCM    cl2 3295   4.037   0.381   3.468
    1TCM     h1 3296   4.273   0.352   3.489
    1TCM    cl3 3297   4.189   0.137   3.428
    1TCM     c1 3298   2.444   2.666   3.449
    1TCM    cl1 3299   2.390   2.801   3.346
    1TCM    cl2 3300   2.388   2.693   3.616
    1TCM     h1 3301   2.401   2.571   3.411
    1TCM    cl3 3302   2.622   2.657   3.447
    1TCM     c1 3303   5.026   4.619   2.601
    1TCM    cl1 3304   5.017   4.780   2.526
    1TCM    cl2 3305   5.004   4.633   2.776
    1TCM     h1 3306   4.947   4.554   2.558
    1TCM    cl3 3307   5.185   4.547   2.567
    1TCM     c1 3308   2.437   0.819   2.047
    1TCM    cl1 3309   2.313   0.714   1.974
    1TCM    cl2 3310   2.443   0.789   2.223
    1TCM     h1 3311   2.536   0.795   2.003
    1TCM    cl3 3312   2.397   0.989   2.017
    1TCM     c1 3313   0.269   2.397   3.029
    1TCM    cl1 3314   0.120   2.472   2.966
    1TCM    cl2 3315   0.308   2.253   2.932
    1TCM     h1 3316   0.353   2.469   3.022
    1TCM    cl3 3317   0.245   2.349   3.198
    1TCM     c1 3318   1.099   4.060   1.113
    1TCM    cl1 3319   1.102   4.060   0.935
    1TCM    cl2 3320   1.232   3.959   1.174
    1TCM     h1 3321   1.111   4.163   1.150
    1TCM    cl3 3322   0.944   3.994   1.169
    1TCM     c1 3323   2.633   3.050   0.686
    1TCM    cl1 3324   2.681   3.113   0.527
    1TCM    cl2 3325   2.568   3.182   0.786
    1TCM     h1 3326   2.555   2.972   0.673
    1TCM    cl3 3327   2.774   2.979   0.767
    1TCM     c1 3328   2.045   2.641   4.037
    1TCM    cl1 3329   1.918   2.549   3.954
    1TCM    cl2 3330   1.981   2.704   4.191
    1TCM     h1 3331   2.132   2.575   4.057
    1TCM    cl3 3332   2.097   2.777   3.935
    1TCM     c1 3333   5.031   2.210   3.266
    1TCM    cl1 3334   4.924   2.342   3.318
    1TCM    cl2 3335   5.089   2.241   3.101
    1TCM     h1 3336   5.118   2.204   3.335
    1TCM    cl3 3337   4.942   2.056   3.270
    1TCM     c1 3338   2.508   1.003   3.504
    1TCM    cl1 3339   2.629   1.051   3.383
    1TCM    cl2 3340   2.548   1.076   3.661
    1TCM     h1 3341   2.408   1.037   3.471
    1TCM    cl3 3342   2.508   0.826   3.520
    1TCM     c1 3343   5.130   1.008   2.240
    1TCM    cl1 3344   5.124   1.181   2.197
    1TCM    cl2 3345   5.263   0.930   2.150
    1TCM     h1 3346   5.148   0.998   2.349
    1TCM    cl3 3347   4.976   0.931   2.197
    1TCM     c1 3348   3.936   0.522   4.502
    1TCM    cl1 3349   3.905   0.441   4.657
    1TCM    cl2 3350   3.956   0.697   4.529
    1TCM     h1 3351   4.029   0.481   4.456
    1TCM    cl3 3352   3.799   0.495   4.392
    1TCM     c1 3353   5.112   0.885   5.065
    1TCM    cl1 3354   5.207   0.803   4.940
    1TCM    cl2 3355   5.190   0.862   5.223
    1TCM     h1 3356   5.106   0.994   5.043
    1TCM    cl3 3357   4.947   0.817   5.070
    1TCM     c1 3358   2.936   0.527   1.493
    1TCM    cl1 3359   3.086   0.552   1.584
    1TCM    cl2 3360   2.800   0.600   1.582
    1TCM     h1 3361   2.944   0.576   1.394
    1TCM    cl3 3362   2.907   0.353   1.472
    1TCM     c1 3363   2.077   1.349   3.835
    1TCM    cl1 3364   2.010   1.438   3.974
    1TCM    cl2 3365   1.945   1.309   3.721
    1TCM     h1 3366   2.152   1.412   3.783
    1TCM    cl3 3367   2.153   1.199   3.892
   5.54000   5.54000   5.54000
