Generated by Interchange
197
    1MOM     C1    1  -0.263   0.546   0.088
    1MOM     O2    2  -0.151   0.466   0.056
    1MOM     C3    3  -0.172   0.330   0.045
    1MOM     C4    4  -0.292   0.265   0.062
    1MOM     C5    5  -0.299   0.125   0.050
    1MOM     C6    6  -0.184   0.049   0.020
    1MOM     C7    7  -0.196  -0.099   0.012
    1MOM     C8    8  -0.286  -0.159  -0.078
    1MOM     C9    9  -0.295  -0.299  -0.087
    1MOM    C10   10  -0.403  -0.356  -0.172
    1MOM    O11   11  -0.481  -0.288  -0.237
    1MOM    C12   12  -0.212  -0.380  -0.008
    1MOM    C13   13  -0.123  -0.322   0.081
    1MOM    C14   14  -0.116  -0.183   0.092
    1MOM    C15   15  -0.060   0.117  -0.001
    1MOM    C16   16   0.064   0.046  -0.039
    1MOM    C17   17   0.180   0.053   0.040
    1MOM    C18   18   0.293  -0.026   0.010
    1MOM    C19   19   0.421  -0.013   0.091
    1MOM    C20   20   0.451  -0.141   0.169
    1MOM    N21   21   0.537   0.034   0.012
    1MOM    C22   22   0.283  -0.118  -0.095
    1MOM    C23   23   0.173  -0.118  -0.180
    1MOM    C24   24   0.065  -0.035  -0.154
    1MOM    C25   25  -0.057   0.257   0.014
    1MOM    H26   26  -0.304   0.520   0.186
    1MOM    H27   27  -0.340   0.541   0.010
    1MOM    H28   28  -0.229   0.650   0.094
    1MOM    H29   29  -0.384   0.318   0.086
    1MOM    H30   30  -0.394   0.076   0.064
    1MOM    H31   31  -0.349  -0.097  -0.141
    1MOM    H32   32  -0.219  -0.489  -0.013
    1MOM    H33   33  -0.058  -0.385   0.142
    1MOM    H34   34  -0.046  -0.139   0.163
    1MOM    H35   35   0.182   0.119   0.126
    1MOM    H36   36   0.406   0.067   0.165
    1MOM    H37   37   0.538  -0.127   0.234
    1MOM    H38   38   0.366  -0.170   0.232
    1MOM    H39   39   0.473  -0.226   0.103
    1MOM    H40   40   0.608   0.060   0.080
    1MOM    H41   41   0.364  -0.187  -0.116
    1MOM    H42   42   0.173  -0.182  -0.268
    1MOM    H43   43  -0.021  -0.038  -0.220
    1MOM    H44   44   0.036   0.310  -0.002
    2MOM    C45   45   0.714  -0.705  -0.769
    2MOM    O46   46   0.735  -0.567  -0.796
    2MOM    C47   47   0.692  -0.478  -0.702
    2MOM    C48   48   0.627  -0.507  -0.582
    2MOM    C49   49   0.587  -0.404  -0.497
    2MOM    C50   50   0.610  -0.268  -0.529
    2MOM    C51   51   0.560  -0.162  -0.437
    2MOM    C52   52   0.602  -0.155  -0.303
    2MOM    C53   53   0.561  -0.050  -0.220
    2MOM    C54   54   0.601  -0.053  -0.076
    2MOM    O55   55   0.690  -0.127  -0.036
    2MOM    C56   56   0.478   0.051  -0.270
    2MOM    C57   57   0.431   0.043  -0.402
    2MOM    C58   58   0.472  -0.063  -0.484
    2MOM    C59   59   0.679  -0.238  -0.650
    2MOM    C60   60   0.714  -0.100  -0.688
    2MOM    C61   61   0.672  -0.043  -0.809
    2MOM    C62   62   0.693   0.093  -0.838
    2MOM    C63   63   0.653   0.152  -0.971
    2MOM    C64   64   0.541   0.256  -0.955
    2MOM    N65   65   0.767   0.204  -1.051
    2MOM    C66   66   0.752   0.172  -0.738
    2MOM    C67   67   0.805   0.115  -0.623
    2MOM    C68   68   0.788  -0.020  -0.599
    2MOM    C69   69   0.717  -0.344  -0.734
    2MOM    H70   70   0.607  -0.728  -0.762
    2MOM    H71   71   0.767  -0.737  -0.679
    2MOM    H72   72   0.754  -0.762  -0.854
    2MOM    H73   73   0.606  -0.610  -0.553
    2MOM    H74   74   0.535  -0.430  -0.405
    2MOM    H75   75   0.668  -0.232  -0.263
    2MOM    H76   76   0.443   0.132  -0.207
    2MOM    H77   77   0.363   0.118  -0.440
    2MOM    H78   78   0.435  -0.066  -0.586
    2MOM    H79   79   0.618  -0.106  -0.881
    2MOM    H80   80   0.612   0.072  -1.033
    2MOM    H81   81   0.507   0.292  -1.052
    2MOM    H82   82   0.456   0.213  -0.902
    2MOM    H83   83   0.575   0.343  -0.898
    2MOM    H84   84   0.731   0.218  -1.145
    2MOM    H85   85   0.762   0.279  -0.751
    2MOM    H86   86   0.860   0.177  -0.552
    2MOM    H87   87   0.828  -0.062  -0.507
    2MOM    H88   88   0.770  -0.323  -0.827
    3MOM    C89   89   1.232   0.996  -0.468
    3MOM    O90   90   1.313   0.910  -0.547
    3MOM    C91   91   1.253   0.799  -0.600
    3MOM    C92   92   1.121   0.761  -0.583
    3MOM    C93   93   1.074   0.643  -0.644
    3MOM    C94   94   1.158   0.561  -0.722
    3MOM    C95   95   1.104   0.436  -0.780
    3MOM    C96   96   0.995   0.437  -0.869
    3MOM    C97   97   0.950   0.318  -0.930
    3MOM    C98   98   0.828   0.323  -1.016
    3MOM    O99   99   0.783   0.430  -1.057
    3MOM   C100  100   1.015   0.197  -0.903
    3MOM   C101  101   1.120   0.194  -0.812
    3MOM   C102  102   1.164   0.312  -0.751
    3MOM   C103  103   1.293   0.603  -0.741
    3MOM   C104  104   1.386   0.527  -0.827
    3MOM   C105  105   1.508   0.477  -0.778
    3MOM   C106  106   1.589   0.392  -0.856
    3MOM   C107  107   1.723   0.343  -0.805
    3MOM   C108  108   1.723   0.191  -0.783
    3MOM   N109  109   1.839   0.389  -0.885
    3MOM   C110  110   1.541   0.354  -0.982
    3MOM   C111  111   1.428   0.412  -1.037
    3MOM   C112  112   1.352   0.500  -0.961
    3MOM   C113  113   1.338   0.721  -0.679
    3MOM   H114  114   1.195   0.944  -0.379
    3MOM   H115  115   1.150   1.038  -0.526
    3MOM   H116  116   1.295   1.079  -0.434
    3MOM   H117  117   1.051   0.819  -0.524
    3MOM   H118  118   0.970   0.614  -0.628
    3MOM   H119  119   0.945   0.530  -0.892
    3MOM   H120  120   0.980   0.104  -0.947
    3MOM   H121  121   1.168   0.099  -0.788
    3MOM   H122  122   1.247   0.306  -0.682
    3MOM   H123  123   1.538   0.501  -0.676
    3MOM   H124  124   1.740   0.389  -0.707
    3MOM   H125  125   1.817   0.159  -0.737
    3MOM   H126  126   1.641   0.161  -0.718
    3MOM   H127  127   1.713   0.137  -0.878
    3MOM   H128  128   1.921   0.370  -0.830
    3MOM   H129  129   1.596   0.282  -1.042
    3MOM   H130  130   1.399   0.390  -1.139
    3MOM   H131  131   1.262   0.542  -1.004
    3MOM   H132  132   1.440   0.754  -0.694
    4MOM   C133  133   1.706  -0.001  -1.895
    4MOM   O134  134   1.762   0.128  -1.875
    4MOM   C135  135   1.757   0.182  -1.750
    4MOM   C136  136   1.700   0.123  -1.637
    4MOM   C137  137   1.701   0.191  -1.514
    4MOM   C138  138   1.759   0.318  -1.501
    4MOM   C139  139   1.753   0.388  -1.369
    4MOM   C140  140   1.810   0.331  -1.254
    4MOM   C141  141   1.811   0.401  -1.131
    4MOM   C142  142   1.864   0.333  -1.009
    4MOM   O143  143   1.931   0.231  -1.018
    4MOM   C144  144   1.756   0.530  -1.125
    4MOM   C145  145   1.696   0.585  -1.237
    4MOM   C146  146   1.694   0.514  -1.358
    4MOM   C147  147   1.820   0.378  -1.615
    4MOM   C148  148   1.890   0.508  -1.610
    4MOM   C149  149   1.854   0.617  -1.692
    4MOM   C150  150   1.917   0.742  -1.680
    4MOM   C151  151   1.878   0.860  -1.769
    4MOM   C152  152   1.791   0.962  -1.694
    4MOM   N153  153   1.995   0.920  -1.835
    4MOM   C154  154   2.016   0.756  -1.582
    4MOM   C155  155   2.057   0.649  -1.503
    4MOM   C156  156   1.996   0.525  -1.518
    4MOM   C157  157   1.816   0.308  -1.738
    4MOM   H158  158   1.599  -0.002  -1.873
    4MOM   H159  159   1.759  -0.076  -1.836
    4MOM   H160  160   1.719  -0.027  -2.001
    4MOM   H161  161   1.654   0.024  -1.641
    4MOM   H162  162   1.655   0.143  -1.428
    4MOM   H163  163   1.854   0.232  -1.258
    4MOM   H164  164   1.754   0.585  -1.031
    4MOM   H165  165   1.649   0.683  -1.231
    4MOM   H166  166   1.647   0.561  -1.445
    4MOM   H167  167   1.774   0.603  -1.765
    4MOM   H168  168   1.818   0.820  -1.852
    4MOM   H169  169   1.762   1.044  -1.761
    4MOM   H170  170   1.700   0.915  -1.655
    4MOM   H171  171   1.842   1.005  -1.608
    4MOM   H172  172   1.997   0.927  -1.935
    4MOM   H173  173   2.065   0.851  -1.564
    4MOM   H174  174   2.135   0.663  -1.429
    4MOM   H175  175   2.028   0.443  -1.454
    4MOM   H176  176   1.862   0.351  -1.826
    5CAP   C177  177  -0.542  -0.543  -0.166
    5CAP   O178  178  -0.410  -0.490  -0.153
    5CAP   H179  179  -0.596  -0.521  -0.074
    5CAP   H180  180  -0.535  -0.652  -0.176
    5CAP   H181  181  -0.596  -0.503  -0.253
    6CAP   C182  182   2.445   1.037  -1.817
    6CAP   C183  183   2.313   1.062  -1.742
    6CAP   C184  184   2.328   1.003  -1.601
    6CAP   C185  185   2.289   1.214  -1.736
    6CAP   O186  186   2.207   0.998  -1.821
    6CAP   C187  187   2.082   1.002  -1.770
    6CAP   O188  188   2.052   1.064  -1.668
    6CAP   H189  189   2.529   1.087  -1.766
    6CAP   H190  190   2.467   0.930  -1.822
    6CAP   H191  191   2.440   1.074  -1.920
    6CAP   H192  192   2.340   0.894  -1.605
    6CAP   H193  193   2.241   1.022  -1.537
    6CAP   H194  194   2.414   1.046  -1.549
    6CAP   H195  195   2.268   1.254  -1.836
    6CAP   H196  196   2.203   1.240  -1.673
    6CAP   H197  197   2.375   1.266  -1.694
  5.0000000  5.0000000  5.0000000
