Generated by Interchange
197
    1MOM     C1    1  -0.262   0.547   0.090
    1MOM     O2    2  -0.150   0.466   0.060
    1MOM     C3    3  -0.171   0.331   0.048
    1MOM     C4    4  -0.292   0.265   0.062
    1MOM     C5    5  -0.298   0.125   0.048
    1MOM     C6    6  -0.184   0.048   0.019
    1MOM     C7    7  -0.196  -0.100   0.011
    1MOM     C8    8  -0.285  -0.162  -0.078
    1MOM     C9    9  -0.294  -0.302  -0.088
    1MOM    C10   10  -0.397  -0.359  -0.178
    1MOM    O11   11  -0.476  -0.291  -0.242
    1MOM    C12   12  -0.213  -0.382  -0.007
    1MOM    C13   13  -0.124  -0.323   0.083
    1MOM    C14   14  -0.117  -0.184   0.092
    1MOM    C15   15  -0.060   0.117   0.001
    1MOM    C16   16   0.064   0.047  -0.037
    1MOM    C17   17   0.181   0.056   0.041
    1MOM    C18   18   0.294  -0.021   0.010
    1MOM    C19   19   0.422  -0.009   0.091
    1MOM    C20   20   0.452  -0.138   0.167
    1MOM    N21   21   0.538   0.037   0.012
    1MOM    C22   22   0.285  -0.111  -0.097
    1MOM    C23   23   0.176  -0.113  -0.182
    1MOM    C24   24   0.065  -0.034  -0.152
    1MOM    C25   25  -0.056   0.257   0.018
    1MOM    H26   26  -0.307   0.520   0.186
    1MOM    H27   27  -0.337   0.543   0.009
    1MOM    H28   28  -0.228   0.651   0.097
    1MOM    H29   29  -0.384   0.318   0.084
    1MOM    H30   30  -0.395   0.076   0.061
    1MOM    H31   31  -0.349  -0.100  -0.142
    1MOM    H32   32  -0.219  -0.491  -0.011
    1MOM    H33   33  -0.061  -0.385   0.146
    1MOM    H34   34  -0.046  -0.140   0.162
    1MOM    H35   35   0.181   0.121   0.128
    1MOM    H36   36   0.408   0.071   0.166
    1MOM    H37   37   0.539  -0.126   0.232
    1MOM    H38   38   0.367  -0.168   0.230
    1MOM    H39   39   0.473  -0.221   0.099
    1MOM    H40   40   0.610   0.064   0.079
    1MOM    H41   41   0.368  -0.177  -0.120
    1MOM    H42   42   0.177  -0.175  -0.271
    1MOM    H43   43  -0.022  -0.040  -0.217
    1MOM    H44   44   0.038   0.310   0.005
    2MOM    C45   45   0.713  -0.707  -0.768
    2MOM    O46   46   0.733  -0.568  -0.794
    2MOM    C47   47   0.690  -0.478  -0.700
    2MOM    C48   48   0.627  -0.507  -0.580
    2MOM    C49   49   0.586  -0.403  -0.495
    2MOM    C50   50   0.609  -0.268  -0.528
    2MOM    C51   51   0.560  -0.161  -0.437
    2MOM    C52   52   0.603  -0.154  -0.303
    2MOM    C53   53   0.562  -0.048  -0.219
    2MOM    C54   54   0.600  -0.052  -0.075
    2MOM    O55   55   0.683  -0.132  -0.033
    2MOM    C56   56   0.477   0.051  -0.270
    2MOM    C57   57   0.430   0.043  -0.400
    2MOM    C58   58   0.472  -0.061  -0.483
    2MOM    C59   59   0.678  -0.238  -0.649
    2MOM    C60   60   0.712  -0.100  -0.688
    2MOM    C61   61   0.669  -0.045  -0.810
    2MOM    C62   62   0.692   0.090  -0.840
    2MOM    C63   63   0.652   0.151  -0.974
    2MOM    C64   64   0.542   0.256  -0.956
    2MOM    N65   65   0.767   0.202  -1.052
    2MOM    C66   66   0.754   0.169  -0.743
    2MOM    C67   67   0.808   0.114  -0.627
    2MOM    C68   68   0.787  -0.020  -0.600
    2MOM    C69   69   0.716  -0.345  -0.733
    2MOM    H70   70   0.607  -0.731  -0.763
    2MOM    H71   71   0.766  -0.738  -0.678
    2MOM    H72   72   0.756  -0.762  -0.852
    2MOM    H73   73   0.606  -0.609  -0.549
    2MOM    H74   74   0.535  -0.428  -0.403
    2MOM    H75   75   0.667  -0.232  -0.263
    2MOM    H76   76   0.439   0.130  -0.205
    2MOM    H77   77   0.359   0.117  -0.437
    2MOM    H78   78   0.436  -0.064  -0.586
    2MOM    H79   79   0.614  -0.107  -0.881
    2MOM    H80   80   0.611   0.070  -1.036
    2MOM    H81   81   0.506   0.291  -1.054
    2MOM    H82   82   0.457   0.216  -0.901
    2MOM    H83   83   0.578   0.344  -0.902
    2MOM    H84   84   0.732   0.217  -1.146
    2MOM    H85   85   0.769   0.275  -0.758
    2MOM    H86   86   0.868   0.176  -0.561
    2MOM    H87   87   0.826  -0.061  -0.507
    2MOM    H88   88   0.768  -0.324  -0.826
    3MOM    C89   89   1.234   0.996  -0.467
    3MOM    O90   90   1.315   0.909  -0.546
    3MOM    C91   91   1.255   0.799  -0.600
    3MOM    C92   92   1.122   0.760  -0.584
    3MOM    C93   93   1.074   0.643  -0.645
    3MOM    C94   94   1.158   0.562  -0.723
    3MOM    C95   95   1.104   0.436  -0.781
    3MOM    C96   96   0.994   0.436  -0.868
    3MOM    C97   97   0.948   0.318  -0.930
    3MOM    C98   98   0.825   0.322  -1.014
    3MOM    O99   99   0.776   0.429  -1.050
    3MOM   C100  100   1.013   0.197  -0.902
    3MOM   C101  101   1.120   0.194  -0.812
    3MOM   C102  102   1.164   0.312  -0.753
    3MOM   C103  103   1.293   0.602  -0.742
    3MOM   C104  104   1.386   0.527  -0.827
    3MOM   C105  105   1.507   0.476  -0.777
    3MOM   C106  106   1.589   0.394  -0.856
    3MOM   C107  107   1.723   0.344  -0.804
    3MOM   C108  108   1.722   0.192  -0.787
    3MOM   N109  109   1.838   0.391  -0.886
    3MOM   C110  110   1.543   0.359  -0.983
    3MOM   C111  111   1.430   0.417  -1.038
    3MOM   C112  112   1.352   0.501  -0.961
    3MOM   C113  113   1.339   0.720  -0.679
    3MOM   H114  114   1.198   0.945  -0.377
    3MOM   H115  115   1.152   1.038  -0.525
    3MOM   H116  116   1.298   1.079  -0.434
    3MOM   H117  117   1.053   0.818  -0.524
    3MOM   H118  118   0.970   0.616  -0.629
    3MOM   H119  119   0.942   0.530  -0.889
    3MOM   H120  120   0.976   0.103  -0.942
    3MOM   H121  121   1.166   0.099  -0.787
    3MOM   H122  122   1.250   0.307  -0.686
    3MOM   H123  123   1.536   0.499  -0.674
    3MOM   H124  124   1.740   0.388  -0.705
    3MOM   H125  125   1.816   0.158  -0.742
    3MOM   H126  126   1.640   0.160  -0.722
    3MOM   H127  127   1.711   0.140  -0.882
    3MOM   H128  128   1.920   0.374  -0.830
    3MOM   H129  129   1.599   0.290  -1.045
    3MOM   H130  130   1.403   0.396  -1.142
    3MOM   H131  131   1.261   0.542  -1.004
    3MOM   H132  132   1.442   0.752  -0.692
    4MOM   C133  133   1.708  -0.003  -1.894
    4MOM   O134  134   1.764   0.126  -1.875
    4MOM   C135  135   1.758   0.180  -1.750
    4MOM   C136  136   1.700   0.122  -1.638
    4MOM   C137  137   1.702   0.190  -1.515
    4MOM   C138  138   1.760   0.318  -1.501
    4MOM   C139  139   1.754   0.387  -1.370
    4MOM   C140  140   1.809   0.330  -1.253
    4MOM   C141  141   1.809   0.400  -1.131
    4MOM   C142  142   1.860   0.331  -1.009
    4MOM   O143  143   1.920   0.224  -1.016
    4MOM   C144  144   1.752   0.528  -1.125
    4MOM   C145  145   1.693   0.583  -1.238
    4MOM   C146  146   1.694   0.514  -1.359
    4MOM   C147  147   1.820   0.375  -1.615
    4MOM   C148  148   1.891   0.507  -1.610
    4MOM   C149  149   1.852   0.616  -1.692
    4MOM   C150  150   1.916   0.741  -1.680
    4MOM   C151  151   1.876   0.859  -1.770
    4MOM   C152  152   1.794   0.964  -1.693
    4MOM   N153  153   1.994   0.914  -1.839
    4MOM   C154  154   2.016   0.756  -1.584
    4MOM   C155  155   2.057   0.650  -1.505
    4MOM   C156  156   1.996   0.526  -1.518
    4MOM   C157  157   1.818   0.307  -1.737
    4MOM   H158  158   1.600  -0.002  -1.875
    4MOM   H159  159   1.758  -0.078  -1.834
    4MOM   H160  160   1.722  -0.030  -1.999
    4MOM   H161  161   1.652   0.024  -1.643
    4MOM   H162  162   1.655   0.142  -1.429
    4MOM   H163  163   1.851   0.229  -1.257
    4MOM   H164  164   1.745   0.581  -1.030
    4MOM   H165  165   1.643   0.680  -1.231
    4MOM   H166  166   1.650   0.561  -1.446
    4MOM   H167  167   1.770   0.602  -1.761
    4MOM   H168  168   1.811   0.820  -1.850
    4MOM   H169  169   1.764   1.045  -1.761
    4MOM   H170  170   1.704   0.921  -1.648
    4MOM   H171  171   1.849   1.009  -1.610
    4MOM   H172  172   1.976   0.949  -1.933
    4MOM   H173  173   2.066   0.851  -1.569
    4MOM   H174  174   2.136   0.665  -1.432
    4MOM   H175  175   2.028   0.445  -1.453
    4MOM   H176  176   1.864   0.351  -1.826
    5CAP   C177  177  -0.536  -0.543  -0.166
    5CAP   O178  178  -0.403  -0.494  -0.163
    5CAP   H179  179  -0.584  -0.514  -0.072
    5CAP   H180  180  -0.534  -0.652  -0.172
    5CAP   H181  181  -0.594  -0.504  -0.251
    6CAP   C182  182   2.444   1.036  -1.814
    6CAP   C183  183   2.312   1.058  -1.740
    6CAP   C184  184   2.330   1.002  -1.597
    6CAP   C185  185   2.285   1.210  -1.735
    6CAP   O186  186   2.210   0.989  -1.818
    6CAP   C187  187   2.082   0.997  -1.772
    6CAP   O188  188   2.051   1.064  -1.675
    6CAP   H189  189   2.528   1.087  -1.764
    6CAP   H190  190   2.469   0.930  -1.822
    6CAP   H191  191   2.438   1.075  -1.916
    6CAP   H192  192   2.342   0.893  -1.598
    6CAP   H193  193   2.244   1.023  -1.532
    6CAP   H194  194   2.417   1.046  -1.547
    6CAP   H195  195   2.264   1.248  -1.835
    6CAP   H196  196   2.198   1.235  -1.673
    6CAP   H197  197   2.370   1.264  -1.692
  5.0000000  5.0000000  5.0000000
