[ defaults ]
; nbfunc	comb-rule	gen-pairs	fudgeLJ	fudgeQQ
     1	     2	yes   	0.500000	0.833333

[ atomtypes ]
;type, bondingtype, atomic_number, mass, charge, ptype, sigma, epsilon
mom_tetramer.pdb_0	     6	12.01078	0.0000000000000000	A    	0.337953176162662	0.4553891161106184
mom_tetramer.pdb_1	     8	15.99943	0.0000000000000000	A    	0.3025106490435313	0.7048581468486769
mom_tetramer.pdb_2	     6	12.01078	0.0000000000000000	A    	0.3480646886945065	0.3635030558377792
mom_tetramer.pdb_3	     6	12.01078	0.0000000000000000	A    	0.3480646886945065	0.3635030558377792
mom_tetramer.pdb_4	     6	12.01078	0.0000000000000000	A    	0.3480646886945065	0.3635030558377792
mom_tetramer.pdb_5	     6	12.01078	0.0000000000000000	A    	0.3480646886945065	0.3635030558377792
mom_tetramer.pdb_6	     6	12.01078	0.0000000000000000	A    	0.3480646886945065	0.3635030558377792
mom_tetramer.pdb_7	     6	12.01078	0.0000000000000000	A    	0.3480646886945065	0.3635030558377792
mom_tetramer.pdb_8	     6	12.01078	0.0000000000000000	A    	0.3480646886945065	0.3635030558377792
mom_tetramer.pdb_9	     6	12.01078	0.0000000000000000	A    	0.3480646886945065	0.3635030558377792
mom_tetramer.pdb_10	     8	15.99943	0.0000000000000000	A    	0.3039812205065809	0.8795023257036865
mom_tetramer.pdb_11	     6	12.01078	0.0000000000000000	A    	0.3480646886945065	0.3635030558377792
mom_tetramer.pdb_12	     6	12.01078	0.0000000000000000	A    	0.3480646886945065	0.3635030558377792
mom_tetramer.pdb_13	     6	12.01078	0.0000000000000000	A    	0.3480646886945065	0.3635030558377792
mom_tetramer.pdb_14	     6	12.01078	0.0000000000000000	A    	0.3480646886945065	0.3635030558377792
mom_tetramer.pdb_15	     6	12.01078	0.0000000000000000	A    	0.3480646886945065	0.3635030558377792
mom_tetramer.pdb_16	     6	12.01078	0.0000000000000000	A    	0.3480646886945065	0.3635030558377792
mom_tetramer.pdb_17	     6	12.01078	0.0000000000000000	A    	0.3480646886945065	0.3635030558377792
mom_tetramer.pdb_18	     6	12.01078	0.0000000000000000	A    	0.337953176162662	0.4553891161106184
mom_tetramer.pdb_19	     6	12.01078	0.0000000000000000	A    	0.337953176162662	0.4553891161106184
mom_tetramer.pdb_20	     7	14.00672	0.0000000000000000	A    	0.3206876023663901	0.7016212989374017
mom_tetramer.pdb_21	     6	12.01078	0.0000000000000000	A    	0.3480646886945065	0.3635030558377792
mom_tetramer.pdb_22	     6	12.01078	0.0000000000000000	A    	0.3480646886945065	0.3635030558377792
mom_tetramer.pdb_23	     6	12.01078	0.0000000000000000	A    	0.3480646886945065	0.3635030558377792
mom_tetramer.pdb_24	     6	12.01078	0.0000000000000000	A    	0.3480646886945065	0.3635030558377792
mom_tetramer.pdb_25	     1	1.007947	0.0000000000000000	A    	0.2583225710839196	0.068656285380106
mom_tetramer.pdb_26	     1	1.007947	0.0000000000000000	A    	0.2583225710839196	0.068656285380106
mom_tetramer.pdb_27	     1	1.007947	0.0000000000000000	A    	0.2583225710839196	0.068656285380106
mom_tetramer.pdb_28	     1	1.007947	0.0000000000000000	A    	0.2572581535063279	0.06531785996356952
mom_tetramer.pdb_29	     1	1.007947	0.0000000000000000	A    	0.2572581535063279	0.06531785996356952
mom_tetramer.pdb_30	     1	1.007947	0.0000000000000000	A    	0.2572581535063279	0.06531785996356952
mom_tetramer.pdb_31	     1	1.007947	0.0000000000000000	A    	0.2572581535063279	0.06531785996356952
mom_tetramer.pdb_32	     1	1.007947	0.0000000000000000	A    	0.2572581535063279	0.06531785996356952
mom_tetramer.pdb_33	     1	1.007947	0.0000000000000000	A    	0.2572581535063279	0.06531785996356952
mom_tetramer.pdb_34	     1	1.007947	0.0000000000000000	A    	0.2572581535063279	0.06531785996356952
mom_tetramer.pdb_35	     1	1.007947	0.0000000000000000	A    	0.2583225710839196	0.068656285380106
mom_tetramer.pdb_36	     1	1.007947	0.0000000000000000	A    	0.2644543413268124	0.06602135607582665
mom_tetramer.pdb_37	     1	1.007947	0.0000000000000000	A    	0.2644543413268124	0.06602135607582665
mom_tetramer.pdb_38	     1	1.007947	0.0000000000000000	A    	0.2644543413268124	0.06602135607582665
mom_tetramer.pdb_39	     1	1.007947	0.0000000000000000	A    	0.1103427677297317	0.05895596890015097
mom_tetramer.pdb_40	     1	1.007947	0.0000000000000000	A    	0.2572581535063279	0.06531785996356952
mom_tetramer.pdb_41	     1	1.007947	0.0000000000000000	A    	0.2572581535063279	0.06531785996356952
mom_tetramer.pdb_42	     1	1.007947	0.0000000000000000	A    	0.2572581535063279	0.06531785996356952
mom_tetramer.pdb_43	     1	1.007947	0.0000000000000000	A    	0.2572581535063279	0.06531785996356952
mom_tetramer.pdb_44	     6	12.01078	0.0000000000000000	A    	0.337953176162662	0.4553891161106184
mom_tetramer.pdb_45	     8	15.99943	0.0000000000000000	A    	0.3025106490435313	0.7048581468486769
mom_tetramer.pdb_46	     6	12.01078	0.0000000000000000	A    	0.3480646886945065	0.3635030558377792
mom_tetramer.pdb_47	     6	12.01078	0.0000000000000000	A    	0.3480646886945065	0.3635030558377792
mom_tetramer.pdb_48	     6	12.01078	0.0000000000000000	A    	0.3480646886945065	0.3635030558377792
mom_tetramer.pdb_49	     6	12.01078	0.0000000000000000	A    	0.3480646886945065	0.3635030558377792
mom_tetramer.pdb_50	     6	12.01078	0.0000000000000000	A    	0.3480646886945065	0.3635030558377792
mom_tetramer.pdb_51	     6	12.01078	0.0000000000000000	A    	0.3480646886945065	0.3635030558377792
mom_tetramer.pdb_52	     6	12.01078	0.0000000000000000	A    	0.3480646886945065	0.3635030558377792
mom_tetramer.pdb_53	     6	12.01078	0.0000000000000000	A    	0.3480646886945065	0.3635030558377792
mom_tetramer.pdb_54	     8	15.99943	0.0000000000000000	A    	0.3039812205065809	0.8795023257036865
mom_tetramer.pdb_55	     6	12.01078	0.0000000000000000	A    	0.3480646886945065	0.3635030558377792
mom_tetramer.pdb_56	     6	12.01078	0.0000000000000000	A    	0.3480646886945065	0.3635030558377792
mom_tetramer.pdb_57	     6	12.01078	0.0000000000000000	A    	0.3480646886945065	0.3635030558377792
mom_tetramer.pdb_58	     6	12.01078	0.0000000000000000	A    	0.3480646886945065	0.3635030558377792
mom_tetramer.pdb_59	     6	12.01078	0.0000000000000000	A    	0.3480646886945065	0.3635030558377792
mom_tetramer.pdb_60	     6	12.01078	0.0000000000000000	A    	0.3480646886945065	0.3635030558377792
mom_tetramer.pdb_61	     6	12.01078	0.0000000000000000	A    	0.3480646886945065	0.3635030558377792
mom_tetramer.pdb_62	     6	12.01078	0.0000000000000000	A    	0.337953176162662	0.4553891161106184
mom_tetramer.pdb_63	     6	12.01078	0.0000000000000000	A    	0.337953176162662	0.4553891161106184
mom_tetramer.pdb_64	     7	14.00672	0.0000000000000000	A    	0.3206876023663901	0.7016212989374017
mom_tetramer.pdb_65	     6	12.01078	0.0000000000000000	A    	0.3480646886945065	0.3635030558377792
mom_tetramer.pdb_66	     6	12.01078	0.0000000000000000	A    	0.3480646886945065	0.3635030558377792
mom_tetramer.pdb_67	     6	12.01078	0.0000000000000000	A    	0.3480646886945065	0.3635030558377792
mom_tetramer.pdb_68	     6	12.01078	0.0000000000000000	A    	0.3480646886945065	0.3635030558377792
mom_tetramer.pdb_69	     1	1.007947	0.0000000000000000	A    	0.2583225710839196	0.068656285380106
mom_tetramer.pdb_70	     1	1.007947	0.0000000000000000	A    	0.2583225710839196	0.068656285380106
mom_tetramer.pdb_71	     1	1.007947	0.0000000000000000	A    	0.2583225710839196	0.068656285380106
mom_tetramer.pdb_72	     1	1.007947	0.0000000000000000	A    	0.2572581535063279	0.06531785996356952
mom_tetramer.pdb_73	     1	1.007947	0.0000000000000000	A    	0.2572581535063279	0.06531785996356952
mom_tetramer.pdb_74	     1	1.007947	0.0000000000000000	A    	0.2572581535063279	0.06531785996356952
mom_tetramer.pdb_75	     1	1.007947	0.0000000000000000	A    	0.2572581535063279	0.06531785996356952
mom_tetramer.pdb_76	     1	1.007947	0.0000000000000000	A    	0.2572581535063279	0.06531785996356952
mom_tetramer.pdb_77	     1	1.007947	0.0000000000000000	A    	0.2572581535063279	0.06531785996356952
mom_tetramer.pdb_78	     1	1.007947	0.0000000000000000	A    	0.2572581535063279	0.06531785996356952
mom_tetramer.pdb_79	     1	1.007947	0.0000000000000000	A    	0.2583225710839196	0.068656285380106
mom_tetramer.pdb_80	     1	1.007947	0.0000000000000000	A    	0.2644543413268124	0.06602135607582665
mom_tetramer.pdb_81	     1	1.007947	0.0000000000000000	A    	0.2644543413268124	0.06602135607582665
mom_tetramer.pdb_82	     1	1.007947	0.0000000000000000	A    	0.2644543413268124	0.06602135607582665
mom_tetramer.pdb_83	     1	1.007947	0.0000000000000000	A    	0.1103427677297317	0.05895596890015097
mom_tetramer.pdb_84	     1	1.007947	0.0000000000000000	A    	0.2572581535063279	0.06531785996356952
mom_tetramer.pdb_85	     1	1.007947	0.0000000000000000	A    	0.2572581535063279	0.06531785996356952
mom_tetramer.pdb_86	     1	1.007947	0.0000000000000000	A    	0.2572581535063279	0.06531785996356952
mom_tetramer.pdb_87	     1	1.007947	0.0000000000000000	A    	0.2572581535063279	0.06531785996356952
mom_tetramer.pdb_88	     6	12.01078	0.0000000000000000	A    	0.337953176162662	0.4553891161106184
mom_tetramer.pdb_89	     8	15.99943	0.0000000000000000	A    	0.3025106490435313	0.7048581468486769
mom_tetramer.pdb_90	     6	12.01078	0.0000000000000000	A    	0.3480646886945065	0.3635030558377792
mom_tetramer.pdb_91	     6	12.01078	0.0000000000000000	A    	0.3480646886945065	0.3635030558377792
mom_tetramer.pdb_92	     6	12.01078	0.0000000000000000	A    	0.3480646886945065	0.3635030558377792
mom_tetramer.pdb_93	     6	12.01078	0.0000000000000000	A    	0.3480646886945065	0.3635030558377792
mom_tetramer.pdb_94	     6	12.01078	0.0000000000000000	A    	0.3480646886945065	0.3635030558377792
mom_tetramer.pdb_95	     6	12.01078	0.0000000000000000	A    	0.3480646886945065	0.3635030558377792
mom_tetramer.pdb_96	     6	12.01078	0.0000000000000000	A    	0.3480646886945065	0.3635030558377792
mom_tetramer.pdb_97	     6	12.01078	0.0000000000000000	A    	0.3480646886945065	0.3635030558377792
mom_tetramer.pdb_98	     8	15.99943	0.0000000000000000	A    	0.3039812205065809	0.8795023257036865
mom_tetramer.pdb_99	     6	12.01078	0.0000000000000000	A    	0.3480646886945065	0.3635030558377792
mom_tetramer.pdb_100	     6	12.01078	0.0000000000000000	A    	0.3480646886945065	0.3635030558377792
mom_tetramer.pdb_101	     6	12.01078	0.0000000000000000	A    	0.3480646886945065	0.3635030558377792
mom_tetramer.pdb_102	     6	12.01078	0.0000000000000000	A    	0.3480646886945065	0.3635030558377792
mom_tetramer.pdb_103	     6	12.01078	0.0000000000000000	A    	0.3480646886945065	0.3635030558377792
mom_tetramer.pdb_104	     6	12.01078	0.0000000000000000	A    	0.3480646886945065	0.3635030558377792
mom_tetramer.pdb_105	     6	12.01078	0.0000000000000000	A    	0.3480646886945065	0.3635030558377792
mom_tetramer.pdb_106	     6	12.01078	0.0000000000000000	A    	0.337953176162662	0.4553891161106184
mom_tetramer.pdb_107	     6	12.01078	0.0000000000000000	A    	0.337953176162662	0.4553891161106184
mom_tetramer.pdb_108	     7	14.00672	0.0000000000000000	A    	0.3206876023663901	0.7016212989374017
mom_tetramer.pdb_109	     6	12.01078	0.0000000000000000	A    	0.3480646886945065	0.3635030558377792
mom_tetramer.pdb_110	     6	12.01078	0.0000000000000000	A    	0.3480646886945065	0.3635030558377792
mom_tetramer.pdb_111	     6	12.01078	0.0000000000000000	A    	0.3480646886945065	0.3635030558377792
mom_tetramer.pdb_112	     6	12.01078	0.0000000000000000	A    	0.3480646886945065	0.3635030558377792
mom_tetramer.pdb_113	     1	1.007947	0.0000000000000000	A    	0.2583225710839196	0.068656285380106
mom_tetramer.pdb_114	     1	1.007947	0.0000000000000000	A    	0.2583225710839196	0.068656285380106
mom_tetramer.pdb_115	     1	1.007947	0.0000000000000000	A    	0.2583225710839196	0.068656285380106
mom_tetramer.pdb_116	     1	1.007947	0.0000000000000000	A    	0.2572581535063279	0.06531785996356952
mom_tetramer.pdb_117	     1	1.007947	0.0000000000000000	A    	0.2572581535063279	0.06531785996356952
mom_tetramer.pdb_118	     1	1.007947	0.0000000000000000	A    	0.2572581535063279	0.06531785996356952
mom_tetramer.pdb_119	     1	1.007947	0.0000000000000000	A    	0.2572581535063279	0.06531785996356952
mom_tetramer.pdb_120	     1	1.007947	0.0000000000000000	A    	0.2572581535063279	0.06531785996356952
mom_tetramer.pdb_121	     1	1.007947	0.0000000000000000	A    	0.2572581535063279	0.06531785996356952
mom_tetramer.pdb_122	     1	1.007947	0.0000000000000000	A    	0.2572581535063279	0.06531785996356952
mom_tetramer.pdb_123	     1	1.007947	0.0000000000000000	A    	0.2583225710839196	0.068656285380106
mom_tetramer.pdb_124	     1	1.007947	0.0000000000000000	A    	0.2644543413268124	0.06602135607582665
mom_tetramer.pdb_125	     1	1.007947	0.0000000000000000	A    	0.2644543413268124	0.06602135607582665
mom_tetramer.pdb_126	     1	1.007947	0.0000000000000000	A    	0.2644543413268124	0.06602135607582665
mom_tetramer.pdb_127	     1	1.007947	0.0000000000000000	A    	0.1103427677297317	0.05895596890015097
mom_tetramer.pdb_128	     1	1.007947	0.0000000000000000	A    	0.2572581535063279	0.06531785996356952
mom_tetramer.pdb_129	     1	1.007947	0.0000000000000000	A    	0.2572581535063279	0.06531785996356952
mom_tetramer.pdb_130	     1	1.007947	0.0000000000000000	A    	0.2572581535063279	0.06531785996356952
mom_tetramer.pdb_131	     1	1.007947	0.0000000000000000	A    	0.2572581535063279	0.06531785996356952
mom_tetramer.pdb_132	     6	12.01078	0.0000000000000000	A    	0.337953176162662	0.4553891161106184
mom_tetramer.pdb_133	     8	15.99943	0.0000000000000000	A    	0.3025106490435313	0.7048581468486769
mom_tetramer.pdb_134	     6	12.01078	0.0000000000000000	A    	0.3480646886945065	0.3635030558377792
mom_tetramer.pdb_135	     6	12.01078	0.0000000000000000	A    	0.3480646886945065	0.3635030558377792
mom_tetramer.pdb_136	     6	12.01078	0.0000000000000000	A    	0.3480646886945065	0.3635030558377792
mom_tetramer.pdb_137	     6	12.01078	0.0000000000000000	A    	0.3480646886945065	0.3635030558377792
mom_tetramer.pdb_138	     6	12.01078	0.0000000000000000	A    	0.3480646886945065	0.3635030558377792
mom_tetramer.pdb_139	     6	12.01078	0.0000000000000000	A    	0.3480646886945065	0.3635030558377792
mom_tetramer.pdb_140	     6	12.01078	0.0000000000000000	A    	0.3480646886945065	0.3635030558377792
mom_tetramer.pdb_141	     6	12.01078	0.0000000000000000	A    	0.3480646886945065	0.3635030558377792
mom_tetramer.pdb_142	     8	15.99943	0.0000000000000000	A    	0.3039812205065809	0.8795023257036865
mom_tetramer.pdb_143	     6	12.01078	0.0000000000000000	A    	0.3480646886945065	0.3635030558377792
mom_tetramer.pdb_144	     6	12.01078	0.0000000000000000	A    	0.3480646886945065	0.3635030558377792
mom_tetramer.pdb_145	     6	12.01078	0.0000000000000000	A    	0.3480646886945065	0.3635030558377792
mom_tetramer.pdb_146	     6	12.01078	0.0000000000000000	A    	0.3480646886945065	0.3635030558377792
mom_tetramer.pdb_147	     6	12.01078	0.0000000000000000	A    	0.3480646886945065	0.3635030558377792
mom_tetramer.pdb_148	     6	12.01078	0.0000000000000000	A    	0.3480646886945065	0.3635030558377792
mom_tetramer.pdb_149	     6	12.01078	0.0000000000000000	A    	0.3480646886945065	0.3635030558377792
mom_tetramer.pdb_150	     6	12.01078	0.0000000000000000	A    	0.337953176162662	0.4553891161106184
mom_tetramer.pdb_151	     6	12.01078	0.0000000000000000	A    	0.337953176162662	0.4553891161106184
mom_tetramer.pdb_152	     7	14.00672	0.0000000000000000	A    	0.3206876023663901	0.7016212989374017
mom_tetramer.pdb_153	     6	12.01078	0.0000000000000000	A    	0.3480646886945065	0.3635030558377792
mom_tetramer.pdb_154	     6	12.01078	0.0000000000000000	A    	0.3480646886945065	0.3635030558377792
mom_tetramer.pdb_155	     6	12.01078	0.0000000000000000	A    	0.3480646886945065	0.3635030558377792
mom_tetramer.pdb_156	     6	12.01078	0.0000000000000000	A    	0.3480646886945065	0.3635030558377792
mom_tetramer.pdb_157	     1	1.007947	0.0000000000000000	A    	0.2583225710839196	0.068656285380106
mom_tetramer.pdb_158	     1	1.007947	0.0000000000000000	A    	0.2583225710839196	0.068656285380106
mom_tetramer.pdb_159	     1	1.007947	0.0000000000000000	A    	0.2583225710839196	0.068656285380106
mom_tetramer.pdb_160	     1	1.007947	0.0000000000000000	A    	0.2572581535063279	0.06531785996356952
mom_tetramer.pdb_161	     1	1.007947	0.0000000000000000	A    	0.2572581535063279	0.06531785996356952
mom_tetramer.pdb_162	     1	1.007947	0.0000000000000000	A    	0.2572581535063279	0.06531785996356952
mom_tetramer.pdb_163	     1	1.007947	0.0000000000000000	A    	0.2572581535063279	0.06531785996356952
mom_tetramer.pdb_164	     1	1.007947	0.0000000000000000	A    	0.2572581535063279	0.06531785996356952
mom_tetramer.pdb_165	     1	1.007947	0.0000000000000000	A    	0.2572581535063279	0.06531785996356952
mom_tetramer.pdb_166	     1	1.007947	0.0000000000000000	A    	0.2572581535063279	0.06531785996356952
mom_tetramer.pdb_167	     1	1.007947	0.0000000000000000	A    	0.2583225710839196	0.068656285380106
mom_tetramer.pdb_168	     1	1.007947	0.0000000000000000	A    	0.2644543413268124	0.06602135607582665
mom_tetramer.pdb_169	     1	1.007947	0.0000000000000000	A    	0.2644543413268124	0.06602135607582665
mom_tetramer.pdb_170	     1	1.007947	0.0000000000000000	A    	0.2644543413268124	0.06602135607582665
mom_tetramer.pdb_171	     1	1.007947	0.0000000000000000	A    	0.1103427677297317	0.05895596890015097
mom_tetramer.pdb_172	     1	1.007947	0.0000000000000000	A    	0.2572581535063279	0.06531785996356952
mom_tetramer.pdb_173	     1	1.007947	0.0000000000000000	A    	0.2572581535063279	0.06531785996356952
mom_tetramer.pdb_174	     1	1.007947	0.0000000000000000	A    	0.2572581535063279	0.06531785996356952
mom_tetramer.pdb_175	     1	1.007947	0.0000000000000000	A    	0.2572581535063279	0.06531785996356952
mom_tetramer.pdb_176	     6	12.01078	0.0000000000000000	A    	0.337953176162662	0.4553891161106184
mom_tetramer.pdb_177	     8	15.99943	0.0000000000000000	A    	0.3025106490435313	0.7048581468486769
mom_tetramer.pdb_178	     1	1.007947	0.0000000000000000	A    	0.2583225710839196	0.068656285380106
mom_tetramer.pdb_179	     1	1.007947	0.0000000000000000	A    	0.2583225710839196	0.068656285380106
mom_tetramer.pdb_180	     1	1.007947	0.0000000000000000	A    	0.2583225710839196	0.068656285380106
mom_tetramer.pdb_181	     6	12.01078	0.0000000000000000	A    	0.337953176162662	0.4553891161106184
mom_tetramer.pdb_182	     6	12.01078	0.0000000000000000	A    	0.337953176162662	0.4553891161106184
mom_tetramer.pdb_183	     6	12.01078	0.0000000000000000	A    	0.337953176162662	0.4553891161106184
mom_tetramer.pdb_184	     6	12.01078	0.0000000000000000	A    	0.337953176162662	0.4553891161106184
mom_tetramer.pdb_185	     8	15.99943	0.0000000000000000	A    	0.3025106490435313	0.7048581468486769
mom_tetramer.pdb_186	     6	12.01078	0.0000000000000000	A    	0.3480646886945065	0.3635030558377792
mom_tetramer.pdb_187	     8	15.99943	0.0000000000000000	A    	0.3039812205065809	0.8795023257036865
mom_tetramer.pdb_188	     1	1.007947	0.0000000000000000	A    	0.2644543413268124	0.06602135607582665
mom_tetramer.pdb_189	     1	1.007947	0.0000000000000000	A    	0.2644543413268124	0.06602135607582665
mom_tetramer.pdb_190	     1	1.007947	0.0000000000000000	A    	0.2644543413268124	0.06602135607582665
mom_tetramer.pdb_191	     1	1.007947	0.0000000000000000	A    	0.2644543413268124	0.06602135607582665
mom_tetramer.pdb_192	     1	1.007947	0.0000000000000000	A    	0.2644543413268124	0.06602135607582665
mom_tetramer.pdb_193	     1	1.007947	0.0000000000000000	A    	0.2644543413268124	0.06602135607582665
mom_tetramer.pdb_194	     1	1.007947	0.0000000000000000	A    	0.2644543413268124	0.06602135607582665
mom_tetramer.pdb_195	     1	1.007947	0.0000000000000000	A    	0.2644543413268124	0.06602135607582665
mom_tetramer.pdb_196	     1	1.007947	0.0000000000000000	A    	0.2644543413268124	0.06602135607582665

[ moleculetype ]
mom_tetramer.pdb	         3

[ atoms ]
;index, atom type, resnum, resname, name, cgnr, charge, mass
     1 mom_tetramer.pdb_0       1 MOM      C1         1      0.107170000863     12.010780000000
     2 mom_tetramer.pdb_1       1 MOM      O2         1     -0.318170010853     15.999430000000
     3 mom_tetramer.pdb_2       1 MOM      C3         1      0.124449998331     12.010780000000
     4 mom_tetramer.pdb_3       1 MOM      C4         1     -0.204249992776     12.010780000000
     5 mom_tetramer.pdb_4       1 MOM      C5         1     -0.087569996524     12.010780000000
     6 mom_tetramer.pdb_5       1 MOM      C6         1     -0.068929999876     12.010780000000
     7 mom_tetramer.pdb_6       1 MOM      C7         1     -0.053330000299     12.010780000000
     8 mom_tetramer.pdb_7       1 MOM      C8         1     -0.050129998284     12.010780000000
     9 mom_tetramer.pdb_8       1 MOM      C9         1     -0.132019996452     12.010780000000
    10 mom_tetramer.pdb_9       1 MOM      C10        1      0.651160001946     12.010780000000
    11 mom_tetramer.pdb_10       1 MOM      O11        1     -0.561200022507     15.999430000000
    12 mom_tetramer.pdb_11       1 MOM      C12        1     -0.071419998813     12.010780000000
    13 mom_tetramer.pdb_12       1 MOM      C13        1     -0.150240003872     12.010780000000
    14 mom_tetramer.pdb_13       1 MOM      C14        1     -0.083570003319     12.010780000000
    15 mom_tetramer.pdb_14       1 MOM      C15        1      0.009069999871     12.010780000000
    16 mom_tetramer.pdb_15       1 MOM      C16        1     -0.047320000636     12.010780000000
    17 mom_tetramer.pdb_16       1 MOM      C17        1     -0.091179996538     12.010780000000
    18 mom_tetramer.pdb_17       1 MOM      C18        1     -0.105870000827     12.010780000000
    19 mom_tetramer.pdb_18       1 MOM      C19        1      0.151510000420     12.010780000000
    20 mom_tetramer.pdb_19       1 MOM      C20        1     -0.104199997890     12.010780000000
    21 mom_tetramer.pdb_20       1 MOM      N21        1     -0.561819970417     14.006720000000
    22 mom_tetramer.pdb_21       1 MOM      C22        1     -0.116719998228     12.010780000000
    23 mom_tetramer.pdb_22       1 MOM      C23        1     -0.134189992952     12.010780000000
    24 mom_tetramer.pdb_23       1 MOM      C24        1     -0.111649997341     12.010780000000
    25 mom_tetramer.pdb_24       1 MOM      C25        1     -0.143179997611     12.010780000000
    26 mom_tetramer.pdb_25       1 MOM      H26        1      0.044339999747      1.007947000000
    27 mom_tetramer.pdb_26       1 MOM      H27        1      0.044339999747      1.007947000000
    28 mom_tetramer.pdb_27       1 MOM      H28        1      0.044339999747      1.007947000000
    29 mom_tetramer.pdb_28       1 MOM      H29        1      0.140420004916      1.007947000000
    30 mom_tetramer.pdb_29       1 MOM      H30        1      0.139019996119      1.007947000000
    31 mom_tetramer.pdb_30       1 MOM      H31        1      0.162340000463      1.007947000000
    32 mom_tetramer.pdb_31       1 MOM      H32        1      0.152879998279      1.007947000000
    33 mom_tetramer.pdb_32       1 MOM      H33        1      0.137989998055      1.007947000000
    34 mom_tetramer.pdb_33       1 MOM      H34        1      0.138479992938      1.007947000000
    35 mom_tetramer.pdb_34       1 MOM      H35        1      0.147369995904      1.007947000000
    36 mom_tetramer.pdb_35       1 MOM      H36        1      0.089129999471      1.007947000000
    37 mom_tetramer.pdb_36       1 MOM      H37        1      0.044890001607      1.007947000000
    38 mom_tetramer.pdb_37       1 MOM      H38        1      0.044890001607      1.007947000000
    39 mom_tetramer.pdb_38       1 MOM      H39        1      0.044890001607      1.007947000000
    40 mom_tetramer.pdb_39       1 MOM      H40        1      0.307249993277      1.007947000000
    41 mom_tetramer.pdb_40       1 MOM      H41        1      0.127320006681      1.007947000000
    42 mom_tetramer.pdb_41       1 MOM      H42        1      0.130459994269      1.007947000000
    43 mom_tetramer.pdb_42       1 MOM      H43        1      0.133210003567      1.007947000000
    44 mom_tetramer.pdb_43       1 MOM      H44        1      0.156849995446      1.007947000000
    45 mom_tetramer.pdb_44       2 MOM      C45        1      0.113449998391     12.010780000000
    46 mom_tetramer.pdb_45       2 MOM      O46        1     -0.326660007048     15.999430000000
    47 mom_tetramer.pdb_46       2 MOM      C47        1      0.124360002768     12.010780000000
    48 mom_tetramer.pdb_47       2 MOM      C48        1     -0.204720005202     12.010780000000
    49 mom_tetramer.pdb_48       2 MOM      C49        1     -0.086159996497     12.010780000000
    50 mom_tetramer.pdb_49       2 MOM      C50        1     -0.063330001938     12.010780000000
    51 mom_tetramer.pdb_50       2 MOM      C51        1     -0.050909999567     12.010780000000
    52 mom_tetramer.pdb_51       2 MOM      C52        1     -0.085189997959     12.010780000000
    53 mom_tetramer.pdb_52       2 MOM      C53        1     -0.138879999328     12.010780000000
    54 mom_tetramer.pdb_53       2 MOM      C54        1      0.689819991779     12.010780000000
    55 mom_tetramer.pdb_54       2 MOM      O55        1     -0.615010022926     15.999430000000
    56 mom_tetramer.pdb_55       2 MOM      C56        1     -0.075960002649     12.010780000000
    57 mom_tetramer.pdb_56       2 MOM      C57        1     -0.139899998712     12.010780000000
    58 mom_tetramer.pdb_57       2 MOM      C58        1     -0.097259998131     12.010780000000
    59 mom_tetramer.pdb_58       2 MOM      C59        1      0.005470000398     12.010780000000
    60 mom_tetramer.pdb_59       2 MOM      C60        1     -0.044109999943     12.010780000000
    61 mom_tetramer.pdb_60       2 MOM      C61        1     -0.089270002949     12.010780000000
    62 mom_tetramer.pdb_61       2 MOM      C62        1     -0.110699996161     12.010780000000
    63 mom_tetramer.pdb_62       2 MOM      C63        1      0.151979997945     12.010780000000
    64 mom_tetramer.pdb_63       2 MOM      C64        1     -0.103059999454     12.010780000000
    65 mom_tetramer.pdb_64       2 MOM      N65        1     -0.568029999542     14.006720000000
    66 mom_tetramer.pdb_65       2 MOM      C66        1     -0.115809999215     12.010780000000
    67 mom_tetramer.pdb_66       2 MOM      C67        1     -0.132090002107     12.010780000000
    68 mom_tetramer.pdb_67       2 MOM      C68        1     -0.106799997198     12.010780000000
    69 mom_tetramer.pdb_68       2 MOM      C69        1     -0.145270004678     12.010780000000
    70 mom_tetramer.pdb_69       2 MOM      H70        1      0.044610001338      1.007947000000
    71 mom_tetramer.pdb_70       2 MOM      H71        1      0.044610001338      1.007947000000
    72 mom_tetramer.pdb_71       2 MOM      H72        1      0.044610001338      1.007947000000
    73 mom_tetramer.pdb_72       2 MOM      H73        1      0.139100000453      1.007947000000
    74 mom_tetramer.pdb_73       2 MOM      H74        1      0.139149993849      1.007947000000
    75 mom_tetramer.pdb_74       2 MOM      H75        1      0.143889993620      1.007947000000
    76 mom_tetramer.pdb_75       2 MOM      H76        1      0.161229998064      1.007947000000
    77 mom_tetramer.pdb_76       2 MOM      H77        1      0.142110005212      1.007947000000
    78 mom_tetramer.pdb_77       2 MOM      H78        1      0.135260001016      1.007947000000
    79 mom_tetramer.pdb_78       2 MOM      H79        1      0.144020006251      1.007947000000
    80 mom_tetramer.pdb_79       2 MOM      H80        1      0.082690000725      1.007947000000
    81 mom_tetramer.pdb_80       2 MOM      H81        1      0.044870000523      1.007947000000
    82 mom_tetramer.pdb_81       2 MOM      H82        1      0.044870000523      1.007947000000
    83 mom_tetramer.pdb_82       2 MOM      H83        1      0.044870000523      1.007947000000
    84 mom_tetramer.pdb_83       2 MOM      H84        1      0.305500000906      1.007947000000
    85 mom_tetramer.pdb_84       2 MOM      H85        1      0.125530004692      1.007947000000
    86 mom_tetramer.pdb_85       2 MOM      H86        1      0.132479995680      1.007947000000
    87 mom_tetramer.pdb_86       2 MOM      H87        1      0.135639995527      1.007947000000
    88 mom_tetramer.pdb_87       2 MOM      H88        1      0.155520007205      1.007947000000
    89 mom_tetramer.pdb_88       3 MOM      C89        1      0.112790003610     12.010780000000
    90 mom_tetramer.pdb_89       3 MOM      O90        1     -0.320289999056     15.999430000000
    91 mom_tetramer.pdb_90       3 MOM      C91        1      0.124049999011     12.010780000000
    92 mom_tetramer.pdb_91       3 MOM      C92        1     -0.149599998999     12.010780000000
    93 mom_tetramer.pdb_92       3 MOM      C93        1     -0.080849997508     12.010780000000
    94 mom_tetramer.pdb_93       3 MOM      C94        1     -0.065880000400     12.010780000000
    95 mom_tetramer.pdb_94       3 MOM      C95        1     -0.038619998652     12.010780000000
    96 mom_tetramer.pdb_95       3 MOM      C96        1     -0.046259999084     12.010780000000
    97 mom_tetramer.pdb_96       3 MOM      C97        1     -0.137449994492     12.010780000000
    98 mom_tetramer.pdb_97       3 MOM      C98        1      0.680639982414     12.010780000000
    99 mom_tetramer.pdb_98       3 MOM      O99        1     -0.606689989376     15.999430000000
   100 mom_tetramer.pdb_99       3 MOM      C100       1     -0.104280002224     12.010780000000
   101 mom_tetramer.pdb_100       3 MOM      C101       1     -0.144999995637     12.010780000000
   102 mom_tetramer.pdb_101       3 MOM      C102       1     -0.095770001221     12.010780000000
   103 mom_tetramer.pdb_102       3 MOM      C103       1     -0.001669999836     12.010780000000
   104 mom_tetramer.pdb_103       3 MOM      C104       1     -0.039149999428     12.010780000000
   105 mom_tetramer.pdb_104       3 MOM      C105       1     -0.116970002460     12.010780000000
   106 mom_tetramer.pdb_105       3 MOM      C106       1     -0.099279999542     12.010780000000
   107 mom_tetramer.pdb_106       3 MOM      C107       1      0.152360007358     12.010780000000
   108 mom_tetramer.pdb_107       3 MOM      C108       1     -0.112920000958     12.010780000000
   109 mom_tetramer.pdb_108       3 MOM      N109       1     -0.570969998646     14.006720000000
   110 mom_tetramer.pdb_109       3 MOM      C110       1     -0.111110001612     12.010780000000
   111 mom_tetramer.pdb_110       3 MOM      C111       1     -0.129969999003     12.010780000000
   112 mom_tetramer.pdb_111       3 MOM      C112       1     -0.107770003188     12.010780000000
   113 mom_tetramer.pdb_112       3 MOM      C113       1     -0.210360005307     12.010780000000
   114 mom_tetramer.pdb_113       3 MOM      H114       1      0.044330001068      1.007947000000
   115 mom_tetramer.pdb_114       3 MOM      H115       1      0.044330001068      1.007947000000
   116 mom_tetramer.pdb_115       3 MOM      H116       1      0.044330001068      1.007947000000
   117 mom_tetramer.pdb_116       3 MOM      H117       1      0.156090006423      1.007947000000
   118 mom_tetramer.pdb_117       3 MOM      H118       1      0.160329997730      1.007947000000
   119 mom_tetramer.pdb_118       3 MOM      H119       1      0.161899998975      1.007947000000
   120 mom_tetramer.pdb_119       3 MOM      H120       1      0.128220007014      1.007947000000
   121 mom_tetramer.pdb_120       3 MOM      H121       1      0.134010002208      1.007947000000
   122 mom_tetramer.pdb_121       3 MOM      H122       1      0.135470003081      1.007947000000
   123 mom_tetramer.pdb_122       3 MOM      H123       1      0.133149996591      1.007947000000
   124 mom_tetramer.pdb_123       3 MOM      H124       1      0.086470000637      1.007947000000
   125 mom_tetramer.pdb_124       3 MOM      H125       1      0.045010000658      1.007947000000
   126 mom_tetramer.pdb_125       3 MOM      H126       1      0.045010000658      1.007947000000
   127 mom_tetramer.pdb_126       3 MOM      H127       1      0.045010000658      1.007947000000
   128 mom_tetramer.pdb_127       3 MOM      H128       1      0.310460001421      1.007947000000
   129 mom_tetramer.pdb_128       3 MOM      H129       1      0.138180002761      1.007947000000
   130 mom_tetramer.pdb_129       3 MOM      H130       1      0.135749995899      1.007947000000
   131 mom_tetramer.pdb_130       3 MOM      H131       1      0.140729993773      1.007947000000
   132 mom_tetramer.pdb_131       3 MOM      H132       1      0.141859993529      1.007947000000
   133 mom_tetramer.pdb_132       4 MOM      C133       1      0.112340003443     12.010780000000
   134 mom_tetramer.pdb_133       4 MOM      O134       1     -0.326139986324     15.999430000000
   135 mom_tetramer.pdb_134       4 MOM      C135       1      0.125110000563     12.010780000000
   136 mom_tetramer.pdb_135       4 MOM      C136       1     -0.204349994469     12.010780000000
   137 mom_tetramer.pdb_136       4 MOM      C137       1     -0.083149999189     12.010780000000
   138 mom_tetramer.pdb_137       4 MOM      C138       1     -0.071819998133     12.010780000000
   139 mom_tetramer.pdb_138       4 MOM      C139       1     -0.042649999070     12.010780000000
   140 mom_tetramer.pdb_139       4 MOM      C140       1     -0.092689998257     12.010780000000
   141 mom_tetramer.pdb_140       4 MOM      C141       1     -0.143920004177     12.010780000000
   142 mom_tetramer.pdb_141       4 MOM      C142       1      0.674390018177     12.010780000000
   143 mom_tetramer.pdb_142       4 MOM      O143       1     -0.608280002880     15.999430000000
   144 mom_tetramer.pdb_143       4 MOM      C144       1     -0.074060000288     12.010780000000
   145 mom_tetramer.pdb_144       4 MOM      C145       1     -0.140599995661     12.010780000000
   146 mom_tetramer.pdb_145       4 MOM      C146       1     -0.091090000975     12.010780000000
   147 mom_tetramer.pdb_146       4 MOM      C147       1      0.006900000111     12.010780000000
   148 mom_tetramer.pdb_147       4 MOM      C148       1     -0.045290000546     12.010780000000
   149 mom_tetramer.pdb_148       4 MOM      C149       1     -0.105010002661     12.010780000000
   150 mom_tetramer.pdb_149       4 MOM      C150       1     -0.117650002050     12.010780000000
   151 mom_tetramer.pdb_150       4 MOM      C151       1      0.160449996781     12.010780000000
   152 mom_tetramer.pdb_151       4 MOM      C152       1     -0.102820001352     12.010780000000
   153 mom_tetramer.pdb_152       4 MOM      N153       1     -0.548680007267     14.006720000000
   154 mom_tetramer.pdb_153       4 MOM      C154       1     -0.098710000324     12.010780000000
   155 mom_tetramer.pdb_154       4 MOM      C155       1     -0.130850001979     12.010780000000
   156 mom_tetramer.pdb_155       4 MOM      C156       1     -0.106329999673     12.010780000000
   157 mom_tetramer.pdb_156       4 MOM      C157       1     -0.147300004768     12.010780000000
   158 mom_tetramer.pdb_157       4 MOM      H158       1      0.045839999062      1.007947000000
   159 mom_tetramer.pdb_158       4 MOM      H159       1      0.045839999062      1.007947000000
   160 mom_tetramer.pdb_159       4 MOM      H160       1      0.045839999062      1.007947000000
   161 mom_tetramer.pdb_160       4 MOM      H161       1      0.141289994311      1.007947000000
   162 mom_tetramer.pdb_161       4 MOM      H162       1      0.141690001083      1.007947000000
   163 mom_tetramer.pdb_162       4 MOM      H163       1      0.139459997606      1.007947000000
   164 mom_tetramer.pdb_163       4 MOM      H164       1      0.156100005102      1.007947000000
   165 mom_tetramer.pdb_164       4 MOM      H165       1      0.139009997440      1.007947000000
   166 mom_tetramer.pdb_165       4 MOM      H166       1      0.139369994593      1.007947000000
   167 mom_tetramer.pdb_166       4 MOM      H167       1      0.128680005860      1.007947000000
   168 mom_tetramer.pdb_167       4 MOM      H168       1      0.087540000868      1.007947000000
   169 mom_tetramer.pdb_168       4 MOM      H169       1      0.045630000723      1.007947000000
   170 mom_tetramer.pdb_169       4 MOM      H170       1      0.045630000723      1.007947000000
   171 mom_tetramer.pdb_170       4 MOM      H171       1      0.045630000723      1.007947000000
   172 mom_tetramer.pdb_171       4 MOM      H172       1      0.325300008249      1.007947000000
   173 mom_tetramer.pdb_172       4 MOM      H173       1      0.143040001583      1.007947000000
   174 mom_tetramer.pdb_173       4 MOM      H174       1      0.136289999080      1.007947000000
   175 mom_tetramer.pdb_174       4 MOM      H175       1      0.136769995284      1.007947000000
   176 mom_tetramer.pdb_175       4 MOM      H176       1      0.156739995074      1.007947000000
   177 mom_tetramer.pdb_176       5 CAP      C177       1      0.130610004258     12.010780000000
   178 mom_tetramer.pdb_177       5 CAP      O178       1     -0.426800012398     15.999430000000
   179 mom_tetramer.pdb_178       5 CAP      H179       1      0.052030001027      1.007947000000
   180 mom_tetramer.pdb_179       5 CAP      H180       1      0.052030001027      1.007947000000
   181 mom_tetramer.pdb_180       5 CAP      H181       1      0.052030001027      1.007947000000
   182 mom_tetramer.pdb_181       6 CAP      C182       1     -0.114370003152     12.010780000000
   183 mom_tetramer.pdb_182       6 CAP      C183       1      0.189160004449     12.010780000000
   184 mom_tetramer.pdb_183       6 CAP      C184       1     -0.114370003152     12.010780000000
   185 mom_tetramer.pdb_184       6 CAP      C185       1     -0.114370003152     12.010780000000
   186 mom_tetramer.pdb_185       6 CAP      O186       1     -0.440629988718     15.999430000000
   187 mom_tetramer.pdb_186       6 CAP      C187       1      0.749700010014     12.010780000000
   188 mom_tetramer.pdb_187       6 CAP      O188       1     -0.602530002403     15.999430000000
   189 mom_tetramer.pdb_188       6 CAP      H189       1      0.051229998660      1.007947000000
   190 mom_tetramer.pdb_189       6 CAP      H190       1      0.051229998660      1.007947000000
   191 mom_tetramer.pdb_190       6 CAP      H191       1      0.051229998660      1.007947000000
   192 mom_tetramer.pdb_191       6 CAP      H192       1      0.051229998660      1.007947000000
   193 mom_tetramer.pdb_192       6 CAP      H193       1      0.051229998660      1.007947000000
   194 mom_tetramer.pdb_193       6 CAP      H194       1      0.051229998660      1.007947000000
   195 mom_tetramer.pdb_194       6 CAP      H195       1      0.051229998660      1.007947000000
   196 mom_tetramer.pdb_195       6 CAP      H196       1      0.051229998660      1.007947000000
   197 mom_tetramer.pdb_196       6 CAP      H197       1      0.051229998660      1.007947000000

[ pairs ]
;ai    aj   funct
   153	   183	     1
     9	   177	     1
    99	   100	     1
    90	   103	     1
   147	   155	     1
    94	    97	     1
   142	   163	     1
     3	    16	     1
    15	    43	     1
   141	   165	     1
    66	    87	     1
    15	    23	     1
    61	    64	     1
    65	    96	     1
     2	     5	     1
    14	    32	     1
    60	    66	     1
    64	    98	     1
   135	   162	     1
   104	   132	     1
    68	    79	     1
    51	    60	     1
   138	   156	     1
   184	   195	     1
   138	   145	     1
   106	   128	     1
   108	   110	     1
    42	    43	     1
    69	    73	     1
   168	   169	     1
   186	   191	     1
   103	   118	     1
     6	    31	     1
   124	   127	     1
    94	   101	     1
    17	    25	     1
   153	   169	     1
   138	   176	     1
    91	   114	     1
    66	    80	     1
     8	    34	     1
    91	    94	     1
   140	   147	     1
   107	   143	     1
    60	    86	     1
    20	    22	     1
   138	   149	     1
     8	    13	     1
    62	    82	     1
   102	   120	     1
    46	    88	     1
    53	    58	     1
   151	   173	     1
    92	   132	     1
   103	   111	     1
   149	   175	     1
    98	   119	     1
     6	    24	     1
    12	   178	     1
    93	    96	     1
    91	   118	     1
   149	   157	     1
   137	   157	     1
    18	    39	     1
    84	    99	     1
    60	    63	     1
    65	    82	     1
    64	    84	     1
    68	    85	     1
   185	   192	     1
   135	   148	     1
    62	    68	     1
   103	   131	     1
     8	   178	     1
   106	   125	     1
   134	   137	     1
   186	   197	     1
    54	    76	     1
    48	    59	     1
    52	    78	     1
   172	   188	     1
    10	   181	     1
   146	   147	     1
    96	   103	     1
    14	    15	     1
     2	    15	     1
     4	     7	     1
   140	   164	     1
    80	    98	     1
    21	    39	     1
   109	   127	     1
   133	   136	     1
   136	   139	     1
     5	    25	     1
   107	   129	     1
   134	   161	     1
    56	    78	     1
    50	    68	     1
    77	    78	     1
     7	    12	     1
   182	   196	     1
    50	    75	     1
   186	   190	     1
    97	   121	     1
   150	   172	     1
   107	   111	     1
    95	   118	     1
   102	   119	     1
    40	    53	     1
   124	   126	     1
    95	    98	     1
     3	     6	     1
   105	   113	     1
    36	    39	     1
   120	   121	     1
    93	   113	     1
    16	    44	     1
    11	   177	     1
    93	   102	     1
    21	    52	     1
    61	    67	     1
    91	   104	     1
     3	    26	     1
    66	    79	     1
    76	    77	     1
    63	    99	     1
   185	   189	     1
    63	    79	     1
    19	    23	     1
    50	    61	     1
    50	    88	     1
   186	   194	     1
    52	    57	     1
     6	    34	     1
   148	   176	     1
    21	    56	     1
    22	    43	     1
   109	   144	     1
    92	    95	     1
    20	    54	     1
    61	    87	     1
    80	    84	     1
    65	    81	     1
   135	   158	     1
     4	    44	     1
   138	   161	     1
   143	   144	     1
   168	   172	     1
   135	   138	     1
   184	   191	     1
   134	   147	     1
   138	   141	     1
     1	    25	     1
     8	    32	     1
    96	   120	     1
     7	    25	     1
     9	    14	     1
    45	    69	     1
    94	   117	     1
    95	   104	     1
    17	    41	     1
   136	   176	     1
    17	    21	     1
   153	   154	     1
    18	    42	     1
    22	    36	     1
   137	   140	     1
    61	    80	     1
   140	   143	     1
   128	   143	     1
   152	   187	     1
    62	    98	     1
    90	   132	     1
   109	   110	     1
    47	    71	     1
    49	    60	     1
   112	   113	     1
   147	   175	     1
   182	   195	     1
    46	    73	     1
   150	   171	     1
     6	    13	     1
   121	   122	     1
   124	   125	     1
    36	    38	     1
     5	     8	     1
   142	   145	     1
   149	   153	     1
    19	    53	     1
    80	    81	     1
   107	   141	     1
    21	    22	     1
    24	    25	     1
    55	    56	     1
   184	   197	     1
   106	   130	     1
    46	    59	     1
    51	    69	     1
    50	    78	     1
   186	   193	     1
     6	    17	     1
   104	   107	     1
    45	    48	     1
     6	    44	     1
   156	   167	     1
   151	   155	     1
   146	   163	     1
   147	   150	     1
    91	   116	     1
    96	    99	     1
    85	    86	     1
    15	    18	     1
   137	   146	     1
     5	    14	     1
    10	    32	     1
    64	    66	     1
   139	   162	     1
    60	    88	     1
   139	   142	     1
   168	   171	     1
   113	   117	     1
    47	    50	     1
    95	   121	     1
     8	    15	     1
    62	    84	     1
   151	   186	     1
   184	   190	     1
   100	   119	     1
   182	   192	     1
   124	   142	     1
   153	   171	     1
    52	    76	     1
    98	   101	     1
   105	   109	     1
    17	    20	     1
    14	    31	     1
    25	    29	     1
   106	   127	     1
    50	    57	     1
   105	   129	     1
    47	    70	     1
   103	   106	     1
   147	   167	     1
     9	    33	     1
    18	    54	     1
    15	    35	     1
    16	    22	     1
   109	   140	     1
   140	   166	     1
     2	    44	     1
    24	    35	     1
   112	   123	     1
    59	    67	     1
   139	   148	     1
   184	   187	     1
    59	    74	     1
    62	    81	     1
    47	    74	     1
    46	    49	     1
   130	   131	     1
    58	    76	     1
   168	   170	     1
    49	    52	     1
   150	   174	     1
   154	   175	     1
   156	   157	     1
   124	   128	     1
    95	   100	     1
   154	   168	     1
   153	   170	     1
    18	    38	     1
     3	    28	     1
   108	   142	     1
    10	    31	     1
   185	   191	     1
    47	    60	     1
    51	    54	     1
    59	    87	     1
   150	   187	     1
   186	   196	     1
    54	    75	     1
   104	   110	     1
   161	   162	     1
    52	    59	     1
    53	    77	     1
    95	   113	     1
    36	    54	     1
   173	   174	     1
   105	   108	     1
    12	    34	     1
    10	   180	     1
   134	   176	     1
    16	    19	     1
    21	    38	     1
   148	   151	     1
   109	   126	     1
   139	   165	     1
    24	    41	     1
    65	    83	     1
   112	   129	     1
   135	   160	     1
   104	   130	     1
   138	   163	     1
    61	    69	     1
    63	    85	     1
   103	   123	     1
   110	   131	     1
     6	     9	     1
   106	   126	     1
    51	    74	     1
    98	   120	     1
   186	   189	     1
    48	    51	     1
    96	   122	     1
    94	   119	     1
     6	    29	     1
    17	    43	     1
    32	    33	     1
    17	    23	     1
    97	   102	     1
   157	   161	     1
   133	   157	     1
    18	    24	     1
    20	    40	     1
   140	   145	     1
   108	   128	     1
   168	   187	     1
   100	   122	     1
    86	    87	     1
   117	   118	     1
    58	    59	     1
   110	   124	     1
     1	     4	     1
     8	    11	     1
   183	   188	     1
    58	    75	     1
   182	   197	     1
   129	   130	     1
    49	    69	     1
   149	   173	     1
   106	   112	     1
    94	   112	     1
    36	    40	     1
    17	    36	     1
   154	   167	     1
    12	    31	     1
    92	   103	     1
   149	   155	     1
    18	    37	     1
    84	    97	     1
    65	   100	     1
     3	    27	     1
   144	   163	     1
    29	    30	     1
    19	    55	     1
    80	    83	     1
   185	   190	     1
    19	    35	     1
   107	   123	     1
    94	   132	     1
    50	    53	     1
   165	   166	     1
   186	   195	     1
     7	    10	     1
     7	    33	     1
   174	   175	     1
   150	   170	     1
    94	   105	     1
   172	   186	     1
    89	   113	     1
   149	   168	     1
    10	   179	     1
    96	   101	     1
    22	    35	     1
    65	    66	     1
   137	   148	     1
     5	    16	     1
    21	    37	     1
   109	   125	     1
     2	    29	     1
   135	   159	     1
   185	   194	     1
   139	   144	     1
   151	   188	     1
    59	    79	     1
    62	    86	     1
   182	   194	     1
    50	    73	     1
    48	    88	     1
    36	    37	     1
   105	   111	     1
    16	    42	     1
   142	   164	     1
    90	    93	     1
    11	    12	     1
   149	   152	     1
    61	    65	     1
   141	   146	     1
   148	   154	     1
   139	   157	     1
   138	   166	     1
    63	    97	     1
    19	    41	     1
   185	   187	     1
    68	    69	     1
   184	   196	     1
   156	   173	     1
   110	   123	     1
    51	    77	     1
   105	   131	     1
    47	    72	     1
   186	   192	     1
   164	   165	     1
   182	   187	     1
    52	    55	     1
     7	    30	     1
    40	    55	     1
    41	    42	     1
    90	   117	     1
   148	   174	     1
    93	   104	     1
   150	   156	     1
    91	   115	     1
    10	    13	     1
    33	    34	     1
    61	    85	     1
    80	    82	     1
     4	    15	     1
   106	   142	     1
   184	   189	     1
    54	    57	     1
   152	   172	     1
    62	    83	     1
    94	   122	     1
     7	    16	     1
   105	   124	     1
   151	   167	     1
   152	   154	     1
   102	   103	     1
   147	   162	     1
   150	   169	     1
   146	   164	     1
    89	    92	     1
    15	    30	     1
    18	    40	     1
   144	   166	     1
     3	    30	     1
   136	   147	     1
    63	    67	     1
   128	   141	     1
   185	   193	     1
    59	    62	     1
    51	    56	     1
    56	    75	     1
    49	    58	     1
    73	    74	     1
   182	   193	     1

[ bonds ]
;ai    aj   funct r k
     1      2      1      0.142589505373  306888.771877388994 
     1     26      1      0.109389949263  309655.084322414012 
     1     27      1      0.109389949263  309655.084322414012 
     1     28      1      0.109389949263  309655.084322414012 
     2      3      1      0.136294580649  356218.264001121745 
     3      4      1      0.138719322718  301905.092578520998 
     3     25      1      0.138719322718  301905.092578520998 
     4      5      1      0.138719322718  301905.092578520998 
     4     29      1      0.108535849592  332422.631675317942 
     5      6      1      0.138719322718  301905.092578520998 
     5     30      1      0.108535849592  332422.631675317942 
     6      7      1      0.145462892503  233580.248617646750 
     6     15      1      0.138719322718  301905.092578520998 
     7      8      1      0.138719322718  301905.092578520998 
     7     14      1      0.138719322718  301905.092578520998 
     8      9      1      0.138719322718  301905.092578520998 
     8     31      1      0.108535849592  332422.631675317942 
     9     10      1      0.145462892503  233580.248617646750 
     9     12      1      0.138719322718  301905.092578520998 
    10     11      1      0.122519838622  487602.327766196802 
    10    178      1      0.134574123280  252005.673256632901 
    12     13      1      0.138719322718  301905.092578520998 
    12     32      1      0.108535849592  332422.631675317942 
    13     14      1      0.138719322718  301905.092578520998 
    13     33      1      0.108535849592  332422.631675317942 
    14     34      1      0.108535849592  332422.631675317942 
    15     16      1      0.145462892503  233580.248617646750 
    15     25      1      0.138719322718  301905.092578520998 
    16     17      1      0.138719322718  301905.092578520998 
    16     24      1      0.138719322718  301905.092578520998 
    17     18      1      0.138719322718  301905.092578520998 
    17     35      1      0.108535849592  332422.631675317942 
    18     19      1      0.149864681646  242452.869388089370 
    18     22      1      0.138719322718  301905.092578520998 
    19     20      1      0.152190126495  221435.259290285845 
    19     21      1      0.145009858627  294600.927775905351 
    19     36      1      0.109389949263  309655.084322414012 
    20     37      1      0.109389949263  309655.084322414012 
    20     38      1      0.109389949263  309655.084322414012 
    20     39      1      0.109389949263  309655.084322414012 
    21     40      1      0.101948186503  422704.914414302446 
    21     54      1      0.138189777668  412347.817359175009 
    22     23      1      0.138719322718  301905.092578520998 
    22     41      1      0.108535849592  332422.631675317942 
    23     24      1      0.138719322718  301905.092578520998 
    23     42      1      0.108535849592  332422.631675317942 
    24     43      1      0.108535849592  332422.631675317942 
    25     44      1      0.108535849592  332422.631675317942 
    45     46      1      0.142589505373  306888.771877388994 
    45     70      1      0.109389949263  309655.084322414012 
    45     71      1      0.109389949263  309655.084322414012 
    45     72      1      0.109389949263  309655.084322414012 
    46     47      1      0.136294580649  356218.264001121745 
    47     48      1      0.138719322718  301905.092578520998 
    47     69      1      0.138719322718  301905.092578520998 
    48     49      1      0.138719322718  301905.092578520998 
    48     73      1      0.108535849592  332422.631675317942 
    49     50      1      0.138719322718  301905.092578520998 
    49     74      1      0.108535849592  332422.631675317942 
    50     51      1      0.145462892503  233580.248617646750 
    50     59      1      0.138719322718  301905.092578520998 
    51     52      1      0.138719322718  301905.092578520998 
    51     58      1      0.138719322718  301905.092578520998 
    52     53      1      0.138719322718  301905.092578520998 
    52     75      1      0.108535849592  332422.631675317942 
    53     54      1      0.145462892503  233580.248617646750 
    53     56      1      0.138719322718  301905.092578520998 
    54     55      1      0.122519838622  487602.327766196802 
    56     57      1      0.138719322718  301905.092578520998 
    56     76      1      0.108535849592  332422.631675317942 
    57     58      1      0.138719322718  301905.092578520998 
    57     77      1      0.108535849592  332422.631675317942 
    58     78      1      0.108535849592  332422.631675317942 
    59     60      1      0.145462892503  233580.248617646750 
    59     69      1      0.138719322718  301905.092578520998 
    60     61      1      0.138719322718  301905.092578520998 
    60     68      1      0.138719322718  301905.092578520998 
    61     62      1      0.138719322718  301905.092578520998 
    61     79      1      0.108535849592  332422.631675317942 
    62     63      1      0.149864681646  242452.869388089370 
    62     66      1      0.138719322718  301905.092578520998 
    63     64      1      0.152190126495  221435.259290285845 
    63     65      1      0.145009858627  294600.927775905351 
    63     80      1      0.109389949263  309655.084322414012 
    64     81      1      0.109389949263  309655.084322414012 
    64     82      1      0.109389949263  309655.084322414012 
    64     83      1      0.109389949263  309655.084322414012 
    65     84      1      0.101948186503  422704.914414302446 
    65     98      1      0.138189777668  412347.817359175009 
    66     67      1      0.138719322718  301905.092578520998 
    66     85      1      0.108535849592  332422.631675317942 
    67     68      1      0.138719322718  301905.092578520998 
    67     86      1      0.108535849592  332422.631675317942 
    68     87      1      0.108535849592  332422.631675317942 
    69     88      1      0.108535849592  332422.631675317942 
    89     90      1      0.142589505373  306888.771877388994 
    89    114      1      0.109389949263  309655.084322414012 
    89    115      1      0.109389949263  309655.084322414012 
    89    116      1      0.109389949263  309655.084322414012 
    90     91      1      0.136294580649  356218.264001121745 
    91     92      1      0.138719322718  301905.092578520998 
    91    113      1      0.138719322718  301905.092578520998 
    92     93      1      0.138719322718  301905.092578520998 
    92    117      1      0.108535849592  332422.631675317942 
    93     94      1      0.138719322718  301905.092578520998 
    93    118      1      0.108535849592  332422.631675317942 
    94     95      1      0.145462892503  233580.248617646750 
    94    103      1      0.138719322718  301905.092578520998 
    95     96      1      0.138719322718  301905.092578520998 
    95    102      1      0.138719322718  301905.092578520998 
    96     97      1      0.138719322718  301905.092578520998 
    96    119      1      0.108535849592  332422.631675317942 
    97     98      1      0.145462892503  233580.248617646750 
    97    100      1      0.138719322718  301905.092578520998 
    98     99      1      0.122519838622  487602.327766196802 
   100    101      1      0.138719322718  301905.092578520998 
   100    120      1      0.108535849592  332422.631675317942 
   101    102      1      0.138719322718  301905.092578520998 
   101    121      1      0.108535849592  332422.631675317942 
   102    122      1      0.108535849592  332422.631675317942 
   103    104      1      0.145462892503  233580.248617646750 
   103    113      1      0.138719322718  301905.092578520998 
   104    105      1      0.138719322718  301905.092578520998 
   104    112      1      0.138719322718  301905.092578520998 
   105    106      1      0.138719322718  301905.092578520998 
   105    123      1      0.108535849592  332422.631675317942 
   106    107      1      0.149864681646  242452.869388089370 
   106    110      1      0.138719322718  301905.092578520998 
   107    108      1      0.152190126495  221435.259290285845 
   107    109      1      0.145009858627  294600.927775905351 
   107    124      1      0.109389949263  309655.084322414012 
   108    125      1      0.109389949263  309655.084322414012 
   108    126      1      0.109389949263  309655.084322414012 
   108    127      1      0.109389949263  309655.084322414012 
   109    128      1      0.101948186503  422704.914414302446 
   109    142      1      0.138189777668  412347.817359175009 
   110    111      1      0.138719322718  301905.092578520998 
   110    129      1      0.108535849592  332422.631675317942 
   111    112      1      0.138719322718  301905.092578520998 
   111    130      1      0.108535849592  332422.631675317942 
   112    131      1      0.108535849592  332422.631675317942 
   113    132      1      0.108535849592  332422.631675317942 
   133    134      1      0.142589505373  306888.771877388994 
   133    158      1      0.109389949263  309655.084322414012 
   133    159      1      0.109389949263  309655.084322414012 
   133    160      1      0.109389949263  309655.084322414012 
   134    135      1      0.136294580649  356218.264001121745 
   135    136      1      0.138719322718  301905.092578520998 
   135    157      1      0.138719322718  301905.092578520998 
   136    137      1      0.138719322718  301905.092578520998 
   136    161      1      0.108535849592  332422.631675317942 
   137    138      1      0.138719322718  301905.092578520998 
   137    162      1      0.108535849592  332422.631675317942 
   138    139      1      0.145462892503  233580.248617646750 
   138    147      1      0.138719322718  301905.092578520998 
   139    140      1      0.138719322718  301905.092578520998 
   139    146      1      0.138719322718  301905.092578520998 
   140    141      1      0.138719322718  301905.092578520998 
   140    163      1      0.108535849592  332422.631675317942 
   141    142      1      0.145462892503  233580.248617646750 
   141    144      1      0.138719322718  301905.092578520998 
   142    143      1      0.122519838622  487602.327766196802 
   144    145      1      0.138719322718  301905.092578520998 
   144    164      1      0.108535849592  332422.631675317942 
   145    146      1      0.138719322718  301905.092578520998 
   145    165      1      0.108535849592  332422.631675317942 
   146    166      1      0.108535849592  332422.631675317942 
   147    148      1      0.145462892503  233580.248617646750 
   147    157      1      0.138719322718  301905.092578520998 
   148    149      1      0.138719322718  301905.092578520998 
   148    156      1      0.138719322718  301905.092578520998 
   149    150      1      0.138719322718  301905.092578520998 
   149    167      1      0.108535849592  332422.631675317942 
   150    151      1      0.149864681646  242452.869388089370 
   150    154      1      0.138719322718  301905.092578520998 
   151    152      1      0.152190126495  221435.259290285845 
   151    153      1      0.145009858627  294600.927775905351 
   151    168      1      0.109389949263  309655.084322414012 
   152    169      1      0.109389949263  309655.084322414012 
   152    170      1      0.109389949263  309655.084322414012 
   152    171      1      0.109389949263  309655.084322414012 
   153    172      1      0.101948186503  422704.914414302446 
   153    187      1      0.138189777668  412347.817359175009 
   154    155      1      0.138719322718  301905.092578520998 
   154    173      1      0.108535849592  332422.631675317942 
   155    156      1      0.138719322718  301905.092578520998 
   155    174      1      0.108535849592  332422.631675317942 
   156    175      1      0.108535849592  332422.631675317942 
   157    176      1      0.108535849592  332422.631675317942 
   177    178      1      0.142589505373  306888.771877388994 
   177    179      1      0.109389949263  309655.084322414012 
   177    180      1      0.109389949263  309655.084322414012 
   177    181      1      0.109389949263  309655.084322414012 
   182    183      1      0.152190126495  221435.259290285845 
   182    189      1      0.109389949263  309655.084322414012 
   182    190      1      0.109389949263  309655.084322414012 
   182    191      1      0.109389949263  309655.084322414012 
   183    184      1      0.152190126495  221435.259290285845 
   183    185      1      0.152190126495  221435.259290285845 
   183    186      1      0.142589505373  306888.771877388994 
   184    192      1      0.109389949263  309655.084322414012 
   184    193      1      0.109389949263  309655.084322414012 
   184    194      1      0.109389949263  309655.084322414012 
   185    195      1      0.109389949263  309655.084322414012 
   185    196      1      0.109389949263  309655.084322414012 
   185    197      1      0.109389949263  309655.084322414012 
   186    187      1      0.134574123280  252005.673256632901 
   187    188      1      0.122519838622  487602.327766196802 

[ angles ]
;ai    aj   ak   funct theta  k
   141    140    163      1     129.183592992600     285.070774532144 
    90     89    115      1     116.547586263400     445.222086509286 
   149    148    156      1     126.806242045100     484.492885493347 
    70     45     72      1     115.603099953300     408.161690475075 
   148    156    175      1     129.183592992600     285.070774532144 
    48     49     74      1     129.183592992600     285.070774532144 
   152    151    168      1     116.547586263400     445.222086509286 
    94    103    104      1     126.806242045100     484.492885493347 
    45     46     47      1     110.353880618100     544.678275491328 
   182    183    184      1     116.547586263400     445.222086509286 
   137    138    147      1     126.806242045100     484.492885493347 
    92     91    113      1     126.806242045100     484.492885493347 
    97     96    119      1     129.183592992600     285.070774532144 
    16     17     35      1     129.183592992600     285.070774532144 
    92     93    118      1     129.183592992600     285.070774532144 
    46     47     69      1     126.806242045100     484.492885493347 
   125    108    126      1     115.603099953300     408.161690475075 
    91    113    103      1     126.806242045100     484.492885493347 
    63     65     84      1     115.507132767400     530.901282784327 
   107    108    125      1     116.547586263400     445.222086509286 
    90     91    113      1     126.806242045100     484.492885493347 
   139    138    147      1     126.806242045100     484.492885493347 
   134    133    160      1     116.547586263400     445.222086509286 
    91     92     93      1     126.806242045100     484.492885493347 
     6      7      8      1     126.806242045100     484.492885493347 
     3     25     15      1     126.806242045100     484.492885493347 
   100    101    121      1     129.183592992600     285.070774532144 
     3      4     29      1     129.183592992600     285.070774532144 
    62     66     67      1     126.806242045100     484.492885493347 
    50     59     69      1     126.806242045100     484.492885493347 
    91     92    117      1     129.183592992600     285.070774532144 
   184    183    185      1     116.547586263400     445.222086509286 
   151    153    187      1     117.346557051400     463.769802376852 
    17     18     19      1     126.806242045100     484.492885493347 
   135    157    147      1     126.806242045100     484.492885493347 
    50     49     74      1     129.183592992600     285.070774532144 
    19     20     39      1     116.547586263400     445.222086509286 
   150    151    153      1     116.547586263400     445.222086509286 
     2      1     26      1     116.547586263400     445.222086509286 
    16     15     25      1     126.806242045100     484.492885493347 
    60     68     67      1     126.806242045100     484.492885493347 
   114     89    115      1     115.603099953300     408.161690475075 
    46     47     48      1     126.806242045100     484.492885493347 
    49     50     51      1     126.806242045100     484.492885493347 
   180    177    181      1     115.603099953300     408.161690475075 
     6      7     14      1     126.806242045100     484.492885493347 
   107    109    142      1     117.346557051400     463.769802376852 
    47     69     59      1     126.806242045100     484.492885493347 
   139    146    145      1     126.806242045100     484.492885493347 
    22     23     24      1     126.806242045100     484.492885493347 
    90     89    114      1     116.547586263400     445.222086509286 
    63     64     83      1     116.547586263400     445.222086509286 
   106    107    109      1     116.547586263400     445.222086509286 
    47     48     73      1     129.183592992600     285.070774532144 
   136    137    162      1     129.183592992600     285.070774532144 
   148    149    150      1     126.806242045100     484.492885493347 
   192    184    194      1     115.603099953300     408.161690475075 
   138    147    148      1     126.806242045100     484.492885493347 
   185    183    186      1     116.547586263400     445.222086509286 
   137    136    161      1     129.183592992600     285.070774532144 
    60     68     87      1     129.183592992600     285.070774532144 
    52     53     54      1     126.806242045100     484.492885493347 
    26      1     28      1     115.603099953300     408.161690475075 
   193    184    194      1     115.603099953300     408.161690475075 
   135    136    137      1     126.806242045100     484.492885493347 
   138    139    140      1     126.806242045100     484.492885493347 
    93     94    103      1     126.806242045100     484.492885493347 
   144    145    165      1     129.183592992600     285.070774532144 
    20     19     21      1     116.547586263400     445.222086509286 
    17     16     24      1     126.806242045100     484.492885493347 
    58     57     77      1     129.183592992600     285.070774532144 
   105    106    110      1     126.806242045100     484.492885493347 
    71     45     72      1     115.603099953300     408.161690475075 
   134    133    159      1     116.547586263400     445.222086509286 
   179    177    181      1     115.603099953300     408.161690475075 
    13     12     32      1     129.183592992600     285.070774532144 
    51     50     59      1     126.806242045100     484.492885493347 
    67     66     85      1     129.183592992600     285.070774532144 
   105    104    112      1     126.806242045100     484.492885493347 
   106    110    129      1     129.183592992600     285.070774532144 
    62     63     64      1     116.547586263400     445.222086509286 
     1      2      3      1     110.353880618100     544.678275491328 
     9     10     11      1     126.806242045100     484.492885493347 
   108    107    124      1     116.547586263400     445.222086509286 
   141    144    164      1     129.183592992600     285.070774532144 
    52     51     58      1     126.806242045100     484.492885493347 
   153    187    188      1     126.806242045100     484.492885493347 
   103    104    112      1     126.806242045100     484.492885493347 
   128    109    142      1     115.507132767400     530.901282784327 
   172    153    187      1     115.507132767400     530.901282784327 
   104    112    111      1     126.806242045100     484.492885493347 
     6     15     25      1     126.806242045100     484.492885493347 
    67     68     87      1     129.183592992600     285.070774532144 
    19     18     22      1     126.806242045100     484.492885493347 
    19     20     38      1     116.547586263400     445.222086509286 
    65     98     97      1     126.806242045100     484.492885493347 
    61     60     68      1     126.806242045100     484.492885493347 
    51     58     78      1     129.183592992600     285.070774532144 
   101    100    120      1     129.183592992600     285.070774532144 
   169    152    171      1     115.603099953300     408.161690475075 
   142    141    144      1     126.806242045100     484.492885493347 
     8      7     14      1     126.806242045100     484.492885493347 
    95     96    119      1     129.183592992600     285.070774532144 
   183    182    190      1     116.547586263400     445.222086509286 
    89     90     91      1     110.353880618100     544.678275491328 
    92     93     94      1     126.806242045100     484.492885493347 
   178    177    180      1     116.547586263400     445.222086509286 
   138    139    146      1     126.806242045100     484.492885493347 
    60     61     79      1     129.183592992600     285.070774532144 
    63     64     82      1     116.547586263400     445.222086509286 
    63     62     66      1     126.806242045100     484.492885493347 
   139    140    141      1     126.806242045100     484.492885493347 
    17     18     22      1     126.806242045100     484.492885493347 
    64     63     65      1     116.547586263400     445.222086509286 
    97    100    120      1     129.183592992600     285.070774532144 
   105    106    107      1     126.806242045100     484.492885493347 
    94    103    113      1     126.806242045100     484.492885493347 
   192    184    193      1     115.603099953300     408.161690475075 
     6      5     30      1     129.183592992600     285.070774532144 
   150    149    167      1     129.183592992600     285.070774532144 
    94     93    118      1     129.183592992600     285.070774532144 
   147    148    156      1     126.806242045100     484.492885493347 
   183    184    192      1     116.547586263400     445.222086509286 
    13     14     34      1     129.183592992600     285.070774532144 
   106    105    123      1     129.183592992600     285.070774532144 
    40     21     54      1     115.507132767400     530.901282784327 
     7     14     34      1     129.183592992600     285.070774532144 
   183    185    197      1     116.547586263400     445.222086509286 
    53     56     57      1     126.806242045100     484.492885493347 
    47     48     49      1     126.806242045100     484.492885493347 
    95     94    103      1     126.806242045100     484.492885493347 
   149    150    154      1     126.806242045100     484.492885493347 
   170    152    171      1     115.603099953300     408.161690475075 
    61     62     63      1     126.806242045100     484.492885493347 
   179    177    180      1     115.603099953300     408.161690475075 
   151    153    172      1     115.507132767400     530.901282784327 
    51     58     57      1     126.806242045100     484.492885493347 
    21     54     53      1     126.806242045100     484.492885493347 
   147    148    149      1     126.806242045100     484.492885493347 
     5      6      7      1     126.806242045100     484.492885493347 
   145    144    164      1     129.183592992600     285.070774532144 
   158    133    160      1     115.603099953300     408.161690475075 
   115     89    116      1     115.603099953300     408.161690475075 
   101    102    122      1     129.183592992600     285.070774532144 
     4      3     25      1     126.806242045100     484.492885493347 
    98     97    100      1     126.806242045100     484.492885493347 
     4      5     30      1     129.183592992600     285.070774532144 
   169    152    170      1     115.603099953300     408.161690475075 
   107    108    127      1     116.547586263400     445.222086509286 
   110    111    130      1     129.183592992600     285.070774532144 
    93     94     95      1     126.806242045100     484.492885493347 
    93     92    117      1     129.183592992600     285.070774532144 
    50     51     52      1     126.806242045100     484.492885493347 
    82     64     83      1     115.603099953300     408.161690475075 
    24     23     42      1     129.183592992600     285.070774532144 
   103    113    132      1     129.183592992600     285.070774532144 
   195    185    197      1     115.603099953300     408.161690475075 
     2      3     25      1     126.806242045100     484.492885493347 
     7      8      9      1     126.806242045100     484.492885493347 
   133    134    135      1     110.353880618100     544.678275491328 
   136    137    138      1     126.806242045100     484.492885493347 
    56     57     77      1     129.183592992600     285.070774532144 
   145    146    166      1     129.183592992600     285.070774532144 
   148    147    157      1     126.806242045100     484.492885493347 
     3     25     44      1     129.183592992600     285.070774532144 
    37     20     39      1     115.603099953300     408.161690475075 
   186    187    188      1     127.469141619100    1685.413543333009 
     7     14     13      1     126.806242045100     484.492885493347 
   183    182    189      1     116.547586263400     445.222086509286 
   178    177    179      1     116.547586263400     445.222086509286 
    68     67     86      1     129.183592992600     285.070774532144 
   135    157    176      1     129.183592992600     285.070774532144 
    60     61     62      1     126.806242045100     484.492885493347 
   108    107    109      1     116.547586263400     445.222086509286 
   109    107    124      1     116.547586263400     445.222086509286 
    63     64     81      1     116.547586263400     445.222086509286 
     9      8     31      1     129.183592992600     285.070774532144 
    70     45     71      1     115.603099953300     408.161690475075 
    96     97     98      1     126.806242045100     484.492885493347 
   149    150    151      1     126.806242045100     484.492885493347 
   189    182    191      1     115.603099953300     408.161690475075 
    18     19     21      1     116.547586263400     445.222086509286 
     2      1     28      1     116.547586263400     445.222086509286 
   111    110    129      1     129.183592992600     285.070774532144 
   138    147    157      1     126.806242045100     484.492885493347 
   151    152    171      1     116.547586263400     445.222086509286 
   109    142    141      1     126.806242045100     484.492885493347 
   183    186    187      1     110.353880618100     544.678275491328 
    84     65     98      1     115.507132767400     530.901282784327 
   183    185    196      1     116.547586263400     445.222086509286 
    47     69     88      1     129.183592992600     285.070774532144 
   146    145    165      1     129.183592992600     285.070774532144 
    90     89    116      1     116.547586263400     445.222086509286 
    15     25     44      1     129.183592992600     285.070774532144 
    50     51     58      1     126.806242045100     484.492885493347 
   134    135    157      1     126.806242045100     484.492885493347 
    27      1     28      1     115.603099953300     408.161690475075 
    90     91     92      1     126.806242045100     484.492885493347 
   104    105    106      1     126.806242045100     484.492885493347 
   154    155    174      1     129.183592992600     285.070774532144 
   137    138    139      1     126.806242045100     484.492885493347 
   140    141    142      1     126.806242045100     484.492885493347 
    62     63     80      1     116.547586263400     445.222086509286 
    51     52     53      1     126.806242045100     484.492885493347 
    52     53     56      1     126.806242045100     484.492885493347 
   158    133    159      1     115.603099953300     408.161690475075 
   125    108    127      1     115.603099953300     408.161690475075 
   106    110    111      1     126.806242045100     484.492885493347 
   154    155    156      1     126.806242045100     484.492885493347 
   107    109    128      1     115.507132767400     530.901282784327 
    46     45     72      1     116.547586263400     445.222086509286 
   155    154    173      1     129.183592992600     285.070774532144 
     8      9     10      1     126.806242045100     484.492885493347 
    23     22     41      1     129.183592992600     285.070774532144 
    18     17     35      1     129.183592992600     285.070774532144 
   100    101    102      1     126.806242045100     484.492885493347 
   147    157    176      1     129.183592992600     285.070774532144 
   150    154    173      1     129.183592992600     285.070774532144 
    10    178    177      1     110.353880618100     544.678275491328 
   195    185    196      1     115.603099953300     408.161690475075 
   153    151    168      1     116.547586263400     445.222086509286 
    18     22     41      1     129.183592992600     285.070774532144 
    61     62     66      1     126.806242045100     484.492885493347 
   150    151    152      1     116.547586263400     445.222086509286 
   150    154    155      1     126.806242045100     484.492885493347 
   152    151    153      1     116.547586263400     445.222086509286 
     5      4     29      1     129.183592992600     285.070774532144 
    49     50     59      1     126.806242045100     484.492885493347 
    37     20     38      1     115.603099953300     408.161690475075 
   151    152    170      1     116.547586263400     445.222086509286 
   140    139    146      1     126.806242045100     484.492885493347 
   104    112    131      1     129.183592992600     285.070774532144 
   103    104    105      1     126.806242045100     484.492885493347 
   106    107    108      1     116.547586263400     445.222086509286 
    53     54     55      1     126.806242045100     484.492885493347 
    66     67     86      1     129.183592992600     285.070774532144 
   189    182    190      1     115.603099953300     408.161690475075 
    18     19     20      1     116.547586263400     445.222086509286 
     9     10    178      1     126.806242045100     484.492885493347 
    65     98     99      1     126.806242045100     484.492885493347 
    94     95     96      1     126.806242045100     484.492885493347 
   196    185    197      1     115.603099953300     408.161690475075 
     4      5      6      1     126.806242045100     484.492885493347 
    11     10    178      1     127.469141619100    1685.413543333009 
    26      1     27      1     115.603099953300     408.161690475075 
   183    185    195      1     116.547586263400     445.222086509286 
    12     13     14      1     126.806242045100     484.492885493347 
     8      9     12      1     126.806242045100     484.492885493347 
   139    140    163      1     129.183592992600     285.070774532144 
   151    150    154      1     126.806242045100     484.492885493347 
   155    156    175      1     129.183592992600     285.070774532144 
   104    105    123      1     129.183592992600     285.070774532144 
    23     24     43      1     129.183592992600     285.070774532144 
   134    135    136      1     126.806242045100     484.492885493347 
   159    133    160      1     115.603099953300     408.161690475075 
   134    133    158      1     116.547586263400     445.222086509286 
    91    113    132      1     129.183592992600     285.070774532144 
   182    183    186      1     116.547586263400     445.222086509286 
    97     98     99      1     126.806242045100     484.492885493347 
   183    184    194      1     116.547586263400     445.222086509286 
    95    102    122      1     129.183592992600     285.070774532144 
   112    111    130      1     129.183592992600     285.070774532144 
    46     45     71      1     116.547586263400     445.222086509286 
    50     59     60      1     126.806242045100     484.492885493347 
   102    101    121      1     129.183592992600     285.070774532144 
   141    142    143      1     126.806242045100     484.492885493347 
   144    145    146      1     126.806242045100     484.492885493347 
    60     59     69      1     126.806242045100     484.492885493347 
   104    103    113      1     126.806242045100     484.492885493347 
   110    111    112      1     126.806242045100     484.492885493347 
     7      6     15      1     126.806242045100     484.492885493347 
     9     12     13      1     126.806242045100     484.492885493347 
    19     20     37      1     116.547586263400     445.222086509286 
    21     54     55      1     126.806242045100     484.492885493347 
    94     95    102      1     126.806242045100     484.492885493347 
    62     63     65      1     116.547586263400     445.222086509286 
    48     47     69      1     126.806242045100     484.492885493347 
    16     24     43      1     129.183592992600     285.070774532144 
   151    152    169      1     116.547586263400     445.222086509286 
    16     24     23      1     126.806242045100     484.492885493347 
    22     23     42      1     129.183592992600     285.070774532144 
    81     64     83      1     115.603099953300     408.161690475075 
   141    144    145      1     126.806242045100     484.492885493347 
   126    108    127      1     115.603099953300     408.161690475075 
    96     95    102      1     126.806242045100     484.492885493347 
    62     66     85      1     129.183592992600     285.070774532144 
    64     63     80      1     116.547586263400     445.222086509286 
    54     53     56      1     126.806242045100     484.492885493347 
   138    137    162      1     129.183592992600     285.070774532144 
     7      8     31      1     129.183592992600     285.070774532144 
    97    100    101      1     126.806242045100     484.492885493347 
   183    182    191      1     116.547586263400     445.222086509286 
     5      6     15      1     126.806242045100     484.492885493347 
   178    177    181      1     116.547586263400     445.222086509286 
    95    102    101      1     126.806242045100     484.492885493347 
   136    135    157      1     126.806242045100     484.492885493347 
    96     97    100      1     126.806242045100     484.492885493347 
    19     21     54      1     117.346557051400     463.769802376852 
     2      3      4      1     126.806242045100     484.492885493347 
   150    151    168      1     116.547586263400     445.222086509286 
    21     19     36      1     116.547586263400     445.222086509286 
   156    155    174      1     129.183592992600     285.070774532144 
   182    183    185      1     116.547586263400     445.222086509286 
   183    184    193      1     116.547586263400     445.222086509286 
   109    142    143      1     126.806242045100     484.492885493347 
    38     20     39      1     115.603099953300     408.161690475075 
    46     45     70      1     116.547586263400     445.222086509286 
    49     48     73      1     129.183592992600     285.070774532144 
    65     63     80      1     116.547586263400     445.222086509286 
   107    108    126      1     116.547586263400     445.222086509286 
   153    187    186      1     126.806242045100     484.492885493347 
    12     13     33      1     129.183592992600     285.070774532144 
     6     15     16      1     126.806242045100     484.492885493347 
    15     16     17      1     126.806242045100     484.492885493347 
    53     56     76      1     129.183592992600     285.070774532144 
    10      9     12      1     126.806242045100     484.492885493347 
    18     19     36      1     116.547586263400     445.222086509286 
    48     49     50      1     126.806242045100     484.492885493347 
    15     16     24      1     126.806242045100     484.492885493347 
    59     60     68      1     126.806242045100     484.492885493347 
    56     57     58      1     126.806242045100     484.492885493347 
   190    182    191      1     115.603099953300     408.161690475075 
   107    106    110      1     126.806242045100     484.492885493347 
   140    141    144      1     126.806242045100     484.492885493347 
   111    112    131      1     129.183592992600     285.070774532144 
   135    136    161      1     129.183592992600     285.070774532144 
    16     17     18      1     126.806242045100     484.492885493347 
    57     56     76      1     129.183592992600     285.070774532144 
   106    107    124      1     116.547586263400     445.222086509286 
    14     13     33      1     129.183592992600     285.070774532144 
    63     65     98      1     117.346557051400     463.769802376852 
    81     64     82      1     115.603099953300     408.161690475075 
    95     96     97      1     126.806242045100     484.492885493347 
    20     19     36      1     116.547586263400     445.222086509286 
    66     67     68      1     126.806242045100     484.492885493347 
    53     52     75      1     129.183592992600     285.070774532144 
    19     21     40      1     115.507132767400     530.901282784327 
   184    183    186      1     116.547586263400     445.222086509286 
   148    149    167      1     129.183592992600     285.070774532144 
    59     60     61      1     126.806242045100     484.492885493347 
    18     22     23      1     126.806242045100     484.492885493347 
   148    156    155      1     126.806242045100     484.492885493347 
     2      1     27      1     116.547586263400     445.222086509286 
     9     12     32      1     129.183592992600     285.070774532144 
    62     61     79      1     129.183592992600     285.070774532144 
    57     58     78      1     129.183592992600     285.070774532144 
    59     69     88      1     129.183592992600     285.070774532144 
   114     89    116      1     115.603099953300     408.161690475075 
    51     52     75      1     129.183592992600     285.070774532144 
   139    146    166      1     129.183592992600     285.070774532144 
     3      4      5      1     126.806242045100     484.492885493347 

[ dihedrals ]
;ai    aj   ak   al   funct phi  k
    10     9     8    31     1    180.000000000000     15.321515534534                 2
    21    19    20    39     1      0.000000000000      0.483407861024                 3
    17    16    15    25     1    180.000000000000      4.866977563957                 2
   135   136   137   162     1    180.000000000000     15.321515534534                 2
    63    62    61    79     1    180.000000000000     15.321515534534                 2
    96    95   102   122     1    180.000000000000     15.321515534534                 2
    73    48    49    74     1    180.000000000000     15.321515534534                 2
   182   183   185   197     1      0.000000000000      0.435413753811                 3
    95    96    97    98     1    180.000000000000     15.321515534534                 2
    62    61    60    68     1    180.000000000000     15.321515534534                 2
    36    19    20    39     1      0.000000000000      0.799950138473                 3
   184   183   186   187     1      0.000000000000      0.802605161760                 3
   184   183   186   187     1    180.000000000000      3.850192060290                 1
     1     2     3     4     1    180.000000000000      6.410861677363                 2
    68    60    59    69     1    180.000000000000      4.866977563957                 2
    49    50    51    58     1    180.000000000000      4.866977563957                 2
     7     8     9    12     1    180.000000000000     15.321515534534                 2
    91    92    93   118     1    180.000000000000     15.321515534534                 2
    58    51    52    75     1    180.000000000000     15.321515534534                 2
    80    63    64    83     1      0.000000000000      0.799950138473                 3
   105   104   112   111     1    180.000000000000     15.321515534534                 2
   153   187   186   183     1    180.000000000000     11.630908055712                 2
   109   107   108   125     1      0.000000000000      0.483407861024                 3
    49    48    47    69     1    180.000000000000     15.321515534534                 2
    59    60    61    62     1    180.000000000000     15.321515534534                 2
   148   149   150   151     1    180.000000000000     15.321515534534                 2
    62    63    64    82     1      0.000000000000      0.483407861024                 3
   139   146   145   165     1    180.000000000000     15.321515534534                 2
    65    98    97    96     1    180.000000000000      4.173190890070                 2
     7     6    15    25     1    180.000000000000     15.321515534534                 2
   150   151   152   171     1      0.000000000000      0.483407861024                 3
    24    16    15    25     1    180.000000000000      4.866977563957                 2
   168   151   153   172     1      0.000000000000      0.762485897686                 2
   168   151   153   172     1      0.000000000000      0.124362804952                 3
    47    46    45    70     1      0.000000000000      0.198220506977                 3
   164   144   145   165     1    180.000000000000     15.321515534534                 2
     7     6     5    30     1    180.000000000000     15.321515534534                 2
     6     7     8     9     1    180.000000000000     15.321515534534                 2
     9     8     7    14     1    180.000000000000     15.321515534534                 2
    19    21    54    53     1    180.000000000000      7.569054279773                 2
    19    21    54    53     1      0.000000000000     -0.201513062842                 1
   128   109   142   143     1    180.000000000000      9.825603686166                 2
   128   109   142   143     1      0.000000000000      5.255757435828                 1
   182   183   184   192     1      0.000000000000      0.435413753811                 3
   124   107   108   126     1      0.000000000000      0.799950138473                 3
   154   150   151   168     1      0.000000000000      0.111501038139                 3
    52    53    54    55     1    180.000000000000      4.173190890070                 2
    60    61    62    63     1    180.000000000000     15.321515534534                 2
   149   150   151   168     1      0.000000000000      0.111501038139                 3
    17    18    22    41     1    180.000000000000     15.321515534534                 2
     2     3    25    44     1    180.000000000000     15.321515534534                 2
   139   140   141   142     1    180.000000000000     15.321515534534                 2
    52    51    50    59     1    180.000000000000      4.866977563957                 2
    65    63    62    66     1      0.000000000000      0.111501038139                 3
   149   150   154   155     1    180.000000000000     15.321515534534                 2
   185   183   182   190     1      0.000000000000      0.435413753811                 3
     3    25    15     6     1    180.000000000000     15.321515534534                 2
    53    56    57    77     1    180.000000000000     15.321515534534                 2
    94    95    96   119     1    180.000000000000     15.321515534534                 2
   133   134   135   136     1    180.000000000000      6.410861677363                 2
   139   138   147   157     1    180.000000000000     15.321515534534                 2
   106   110   111   112     1    180.000000000000     15.321515534534                 2
    16    24    23    22     1    180.000000000000     15.321515534534                 2
   148   156   155   174     1    180.000000000000     15.321515534534                 2
   106   107   108   127     1      0.000000000000      0.483407861024                 3
    55    54    53    56     1    180.000000000000      4.173190890070                 2
    89    90    91    92     1    180.000000000000      6.410861677363                 2
    18    19    21    40     1      0.000000000000      0.762485897686                 2
    18    19    21    40     1      0.000000000000      0.124362804952                 3
    52    53    56    57     1    180.000000000000     15.321515534534                 2
   184   183   185   195     1      0.000000000000      0.435413753811                 3
     9    12    13    14     1    180.000000000000     15.321515534534                 2
    54    53    56    76     1    180.000000000000     15.321515534534                 2
    96    95   102   101     1    180.000000000000     15.321515534534                 2
   121   101   102   122     1    180.000000000000     15.321515534534                 2
   151   150   149   167     1    180.000000000000     15.321515534534                 2
   149   148   156   175     1    180.000000000000     15.321515534534                 2
    64    63    65    98     1    180.000000000000     -0.622862944840                 4
    64    63    65    98     1    180.000000000000     -0.514769632165                 3
    64    63    65    98     1      0.000000000000      1.229801223351                 2
    64    63    65    98     1      0.000000000000     -1.265294746367                 1
    46    47    69    59     1    180.000000000000     15.321515534534                 2
     3     2     1    27     1      0.000000000000      0.198220506977                 3
    94   103   104   112     1    180.000000000000      4.866977563957                 2
   130   111   112   131     1    180.000000000000     15.321515534534                 2
    63    62    66    67     1    180.000000000000     15.321515534534                 2
     8     9    12    32     1    180.000000000000     15.321515534534                 2
    68    67    66    85     1    180.000000000000     15.321515534534                 2
    15    16    17    18     1    180.000000000000     15.321515534534                 2
    46    47    48    73     1    180.000000000000     15.321515534534                 2
    10   178   177   179     1      0.000000000000      0.198220506977                 3
   137   136   135   157     1    180.000000000000     15.321515534534                 2
   109   142   141   140     1    180.000000000000      4.173190890070                 2
   168   151   152   171     1      0.000000000000      0.799950138473                 3
    56    57    58    78     1    180.000000000000     15.321515534534                 2
    48    49    50    51     1    180.000000000000     15.321515534534                 2
   182   183   185   196     1      0.000000000000      0.435413753811                 3
    36    19    20    38     1      0.000000000000      0.799950138473                 3
    56    53    52    75     1    180.000000000000     15.321515534534                 2
   186   183   184   194     1      0.000000000000      0.466735938990                 3
   186   183   184   194     1      0.000000000000      1.436153909162                 1
   135   134   133   160     1      0.000000000000      0.198220506977                 3
   185   183   184   192     1      0.000000000000      0.435413753811                 3
    54    53    52    75     1    180.000000000000     15.321515534534                 2
   136   137   138   147     1    180.000000000000     15.321515534534                 2
     5     6     7     8     1    180.000000000000      4.866977563957                 2
   108   107   106   110     1      0.000000000000      0.111501038139                 3
   186   183   182   189     1      0.000000000000      0.466735938990                 3
   186   183   182   189     1      0.000000000000      1.436153909162                 1
   105   106   107   109     1      0.000000000000      0.111501038139                 3
    90    91   113   132     1    180.000000000000     15.321515534534                 2
   146   139   138   147     1    180.000000000000      4.866977563957                 2
   138   139   140   141     1    180.000000000000     15.321515534534                 2
   146   139   140   163     1    180.000000000000     15.321515534534                 2
    92    93    94   103     1    180.000000000000     15.321515534534                 2
    62    63    64    81     1      0.000000000000      0.483407861024                 3
   137   138   147   148     1    180.000000000000     15.321515534534                 2
    50    51    52    53     1    180.000000000000     15.321515534534                 2
    94   103   104   105     1    180.000000000000      4.866977563957                 2
   150   151   153   172     1      0.000000000000      0.762485897686                 2
   150   151   153   172     1      0.000000000000      0.124362804952                 3
   139   146   145   144     1    180.000000000000     15.321515534534                 2
    95    94   103   113     1    180.000000000000     15.321515534534                 2
   109   142   141   144     1    180.000000000000      4.173190890070                 2
    91    90    89   114     1      0.000000000000      0.198220506977                 3
   106   107   109   142     1    180.000000000000     -2.883499339083                 2
   106   107   109   142     1      0.000000000000      1.141330947302                 1
   182   183   186   187     1      0.000000000000      0.802605161760                 3
   182   183   186   187     1    180.000000000000      3.850192060290                 1
   107   109   142   143     1    180.000000000000     12.978553656010                 2
   107   109   142   143     1      0.000000000000     -1.779100933344                 1
    21    54    53    52     1    180.000000000000      4.173190890070                 2
    80    63    65    84     1      0.000000000000      0.762485897686                 2
    80    63    65    84     1      0.000000000000      0.124362804952                 3
   100   101   102   122     1    180.000000000000     15.321515534534                 2
     4     3    25    44     1    180.000000000000     15.321515534534                 2
   156   148   147   157     1    180.000000000000      4.866977563957                 2
   185   183   182   189     1      0.000000000000      0.435413753811                 3
     5     6     7    14     1    180.000000000000      4.866977563957                 2
    51    50    49    74     1    180.000000000000     15.321515534534                 2
    32    12    13    33     1    180.000000000000     15.321515534534                 2
   148   149   150   154     1    180.000000000000     15.321515534534                 2
    14     7     8    31     1    180.000000000000     15.321515534534                 2
    12    13    14    34     1    180.000000000000     15.321515534534                 2
   157   135   136   161     1    180.000000000000     15.321515534534                 2
   112   104   105   123     1    180.000000000000     15.321515534534                 2
    19    18    17    35     1    180.000000000000     15.321515534534                 2
    15    16    17    35     1    180.000000000000     15.321515534534                 2
    84    65    98    99     1    180.000000000000      9.825603686166                 2
    84    65    98    99     1      0.000000000000      5.255757435828                 1
   144   145   146   166     1    180.000000000000     15.321515534534                 2
    90    91    92   117     1    180.000000000000     15.321515534534                 2
   149   148   147   157     1    180.000000000000      4.866977563957                 2
    19    18    22    23     1    180.000000000000     15.321515534534                 2
    95    94    93   118     1    180.000000000000     15.321515534534                 2
   168   151   152   170     1      0.000000000000      0.799950138473                 3
    48    47    69    88     1    180.000000000000     15.321515534534                 2
    10     9    12    13     1    180.000000000000     15.321515534534                 2
    60    61    62    66     1    180.000000000000     15.321515534534                 2
     6     5     4    29     1    180.000000000000     15.321515534534                 2
    49    50    59    69     1    180.000000000000     15.321515534534                 2
   110   111   112   131     1    180.000000000000     15.321515534534                 2
    61    62    63    65     1      0.000000000000      0.111501038139                 3
    93    94    95    96     1    180.000000000000      4.866977563957                 2
    61    60    59    69     1    180.000000000000      4.866977563957                 2
     9    10   178   177     1    180.000000000000     11.630908055712                 2
    91    92    93    94     1    180.000000000000     15.321515534534                 2
    85    66    67    86     1    180.000000000000     15.321515534534                 2
   102   101   100   120     1    180.000000000000     15.321515534534                 2
     3     2     1    26     1      0.000000000000      0.198220506977                 3
    65    63    64    81     1      0.000000000000      0.483407861024                 3
   141   144   145   165     1    180.000000000000     15.321515534534                 2
    45    46    47    69     1    180.000000000000      6.410861677363                 2
    29     4     5    30     1    180.000000000000     15.321515534534                 2
    96    97   100   120     1    180.000000000000     15.321515534534                 2
    22    18    17    35     1    180.000000000000     15.321515534534                 2
    63    65    98    97     1    180.000000000000      7.569054279773                 2
    63    65    98    97     1      0.000000000000     -0.201513062842                 1
   186   183   185   195     1      0.000000000000      0.466735938990                 3
   186   183   185   195     1      0.000000000000      1.436153909162                 1
   151   150   154   173     1    180.000000000000     15.321515534534                 2
   182   183   185   195     1      0.000000000000      0.435413753811                 3
   106   107   109   128     1      0.000000000000      0.762485897686                 2
   106   107   109   128     1      0.000000000000      0.124362804952                 3
    51    52    53    54     1    180.000000000000     15.321515534534                 2
   184   183   182   191     1      0.000000000000      0.435413753811                 3
    18    22    23    24     1    180.000000000000     15.321515534534                 2
   186   183   184   193     1      0.000000000000      0.466735938990                 3
   186   183   184   193     1      0.000000000000      1.436153909162                 1
     5     4     3    25     1    180.000000000000     15.321515534534                 2
    15    16    24    23     1    180.000000000000     15.321515534534                 2
   172   153   187   188     1    180.000000000000      2.033839522640                 2
   172   153   187   188     1      0.000000000000      3.730867000451                 1
   139   138   137   162     1    180.000000000000     15.321515534534                 2
    98    97   100   101     1    180.000000000000     15.321515534534                 2
   151   153   187   186     1    180.000000000000      7.569054279773                 2
   151   153   187   186     1      0.000000000000     -0.201513062842                 1
   185   183   186   187     1      0.000000000000      0.802605161760                 3
   185   183   186   187     1    180.000000000000      3.850192060290                 1
    92    91   113   132     1    180.000000000000     15.321515534534                 2
    93    92    91   113     1    180.000000000000     15.321515534534                 2
     4     5     6     7     1    180.000000000000     15.321515534534                 2
    58    57    56    76     1    180.000000000000     15.321515534534                 2
    50    49    48    73     1    180.000000000000     15.321515534534                 2
    17    18    19    21     1      0.000000000000      0.111501038139                 3
    46    47    48    49     1    180.000000000000     15.321515534534                 2
   150   154   155   174     1    180.000000000000     15.321515534534                 2
   156   155   154   173     1    180.000000000000     15.321515534534                 2
   113    91    92   117     1    180.000000000000     15.321515534534                 2
     5     6    15    25     1    180.000000000000     15.321515534534                 2
    18    19    20    38     1      0.000000000000      0.483407861024                 3
    95    96    97   100     1    180.000000000000     15.321515534534                 2
   137   138   139   146     1    180.000000000000      4.866977563957                 2
   105   104   112   131     1    180.000000000000     15.321515534534                 2
   128   109   142   141     1    180.000000000000      7.569054279773                 2
   128   109   142   141     1      0.000000000000     -0.201513062842                 1
   150   154   155   156     1    180.000000000000     15.321515534534                 2
   112   104   103   113     1    180.000000000000      4.866977563957                 2
    94   103   113   132     1    180.000000000000     15.321515534534                 2
    51    58    57    56     1    180.000000000000     15.321515534534                 2
    61    62    66    85     1    180.000000000000     15.321515534534                 2
   136   137   138   139     1    180.000000000000     15.321515534534                 2
    18    17    16    24     1    180.000000000000     15.321515534534                 2
    93    94    95   102     1    180.000000000000      4.866977563957                 2
     6     7    14    13     1    180.000000000000     15.321515534534                 2
    33    13    14    34     1    180.000000000000     15.321515534534                 2
   153   151   152   171     1      0.000000000000      0.483407861024                 3
   109   107   108   127     1      0.000000000000      0.483407861024                 3
   104   105   106   110     1    180.000000000000     15.321515534534                 2
    16    24    23    42     1    180.000000000000     15.321515534534                 2
   138   139   146   145     1    180.000000000000     15.321515534534                 2
    15     6     5    30     1    180.000000000000     15.321515534534                 2
    47    46    45    72     1      0.000000000000      0.198220506977                 3
    53    52    51    58     1    180.000000000000     15.321515534534                 2
   138   137   136   161     1    180.000000000000     15.321515534534                 2
    19    21    54    55     1    180.000000000000     12.978553656010                 2
    19    21    54    55     1      0.000000000000     -1.779100933344                 1
   182   183   184   194     1      0.000000000000      0.435413753811                 3
   168   151   152   169     1      0.000000000000      0.799950138473                 3
    62    66    67    86     1    180.000000000000     15.321515534534                 2
    16    17    18    19     1    180.000000000000     15.321515534534                 2
    66    67    68    87     1    180.000000000000     15.321515534534                 2
   139   140   141   144     1    180.000000000000     15.321515534534                 2
     6     7     8    31     1    180.000000000000     15.321515534534                 2
    99    98    97   100     1    180.000000000000      4.173190890070                 2
    50    59    60    68     1    180.000000000000      4.866977563957                 2
    18    19    21    54     1    180.000000000000     -2.883499339083                 2
    18    19    21    54     1      0.000000000000      1.141330947302                 1
    61    62    63    64     1      0.000000000000      0.111501038139                 3
    17    18    22    23     1    180.000000000000     15.321515534534                 2
    52    51    58    78     1    180.000000000000     15.321515534534                 2
   138   147   157   176     1    180.000000000000     15.321515534534                 2
   109   107   106   110     1      0.000000000000      0.111501038139                 3
   168   151   153   187     1      0.000000000000      0.762485897686                 2
   168   151   153   187     1      0.000000000000      0.124362804952                 3
     8     9    10    11     1    180.000000000000      4.173190890070                 2
    69    47    48    73     1    180.000000000000     15.321515534534                 2
    97   100   101   121     1    180.000000000000     15.321515534534                 2
    21    19    20    38     1      0.000000000000      0.483407861024                 3
   150   151   152   170     1      0.000000000000      0.483407861024                 3
   154   150   149   167     1    180.000000000000     15.321515534534                 2
   148   147   157   176     1    180.000000000000     15.321515534534                 2
   184   183   182   190     1      0.000000000000      0.435413753811                 3
   184   183   185   197     1      0.000000000000      0.435413753811                 3
    40    21    54    53     1    180.000000000000      7.569054279773                 2
    40    21    54    53     1      0.000000000000     -0.201513062842                 1
    22    23    24    43     1    180.000000000000     15.321515534534                 2
    10     9    12    32     1    180.000000000000     15.321515534534                 2
    60    59    69    88     1    180.000000000000     15.321515534534                 2
    14     7     6    15     1    180.000000000000      4.866977563957                 2
   152   151   153   172     1      0.000000000000      0.762485897686                 2
   152   151   153   172     1      0.000000000000      0.124362804952                 3
    16    15    25    44     1    180.000000000000     15.321515534534                 2
    94    95   102   122     1    180.000000000000     15.321515534534                 2
    80    63    64    82     1      0.000000000000      0.799950138473                 3
    50    59    60    61     1    180.000000000000      4.866977563957                 2
    66    62    63    80     1      0.000000000000      0.111501038139                 3
   140   139   146   166     1    180.000000000000     15.321515534534                 2
   105   104   103   113     1    180.000000000000      4.866977563957                 2
   104   105   106   107     1    180.000000000000     15.321515534534                 2
   140   141   142   143     1    180.000000000000      4.173190890070                 2
    11    10   178   177     1    180.000000000000      4.869377577648                 2
    11    10   178   177     1    180.000000000000      0.702571835515                 1
    46    47    69    88     1    180.000000000000     15.321515534534                 2
   137   138   147   157     1    180.000000000000     15.321515534534                 2
   120   100   101   121     1    180.000000000000     15.321515534534                 2
    42    23    24    43     1    180.000000000000     15.321515534534                 2
   153   151   152   170     1      0.000000000000      0.483407861024                 3
   140   139   138   147     1    180.000000000000      4.866977563957                 2
   106   105   104   112     1    180.000000000000     15.321515534534                 2
     6    15    25    44     1    180.000000000000     15.321515534534                 2
     3     4     5    30     1    180.000000000000     15.321515534534                 2
    17    18    19    20     1      0.000000000000      0.111501038139                 3
    50    59    69    88     1    180.000000000000     15.321515534534                 2
    20    19    21    54     1    180.000000000000     -0.622862944840                 4
    20    19    21    54     1    180.000000000000     -0.514769632165                 3
    20    19    21    54     1      0.000000000000      1.229801223351                 2
    20    19    21    54     1      0.000000000000     -1.265294746367                 1
   103    94    93   118     1    180.000000000000     15.321515534534                 2
    10   178   177   181     1      0.000000000000      0.198220506977                 3
    12     9    10   178     1    180.000000000000      4.173190890070                 2
   138   147   148   156     1    180.000000000000      4.866977563957                 2
   147   138   137   162     1    180.000000000000     15.321515534534                 2
    18    19    20    37     1      0.000000000000      0.483407861024                 3
    90    91    92    93     1    180.000000000000     15.321515534534                 2
     8     7    14    34     1    180.000000000000     15.321515534534                 2
   136   135   157   147     1    180.000000000000     15.321515534534                 2
   124   107   108   125     1      0.000000000000      0.799950138473                 3
    21    19    18    22     1      0.000000000000      0.111501038139                 3
   185   183   184   194     1      0.000000000000      0.435413753811                 3
   186   183   182   191     1      0.000000000000      0.466735938990                 3
   186   183   182   191     1      0.000000000000      1.436153909162                 1
    52    51    58    57     1    180.000000000000     15.321515534534                 2
    53    56    57    58     1    180.000000000000     15.321515534534                 2
    24    23    22    41     1    180.000000000000     15.321515534534                 2
   109   107   108   126     1      0.000000000000      0.483407861024                 3
    62    63    64    83     1      0.000000000000      0.483407861024                 3
    64    63    65    84     1      0.000000000000      0.762485897686                 2
    64    63    65    84     1      0.000000000000      0.124362804952                 3
   107   106   110   129     1    180.000000000000     15.321515534534                 2
   110   106   107   124     1      0.000000000000      0.111501038139                 3
   161   136   137   162     1    180.000000000000     15.321515534534                 2
     6    15    16    17     1    180.000000000000      4.866977563957                 2
   106   107   108   126     1      0.000000000000      0.483407861024                 3
    47    46    45    71     1      0.000000000000      0.198220506977                 3
    60    68    67    66     1    180.000000000000     15.321515534534                 2
    91    90    89   116     1      0.000000000000      0.198220506977                 3
   107   106   110   111     1    180.000000000000     15.321515534534                 2
     6    15    16    24     1    180.000000000000      4.866977563957                 2
   138   147   148   149     1    180.000000000000      4.866977563957                 2
    86    67    68    87     1    180.000000000000     15.321515534534                 2
    47    48    49    74     1    180.000000000000     15.321515534534                 2
   105   106   110   129     1    180.000000000000     15.321515534534                 2
   117    92    93   118     1    180.000000000000     15.321515534534                 2
    49    50    51    52     1    180.000000000000      4.866977563957                 2
     1     2     3    25     1    180.000000000000      6.410861677363                 2
   133   134   135   157     1    180.000000000000      6.410861677363                 2
   147   148   156   155     1    180.000000000000     15.321515534534                 2
   104   103   113   132     1    180.000000000000     15.321515534534                 2
    51    50    59    60     1    180.000000000000     15.321515534534                 2
    50    51    58    78     1    180.000000000000     15.321515534534                 2
   142   141   144   145     1    180.000000000000     15.321515534534                 2
   150   151   153   187     1    180.000000000000     -2.883499339083                 2
   150   151   153   187     1      0.000000000000      1.141330947302                 1
     8     7     6    15     1    180.000000000000      4.866977563957                 2
     8     9    12    13     1    180.000000000000     15.321515534534                 2
   140   141   144   145     1    180.000000000000     15.321515534534                 2
    50    51    52    75     1    180.000000000000     15.321515534534                 2
    94    95   102   101     1    180.000000000000     15.321515534534                 2
   134   135   157   176     1    180.000000000000     15.321515534534                 2
    20    19    21    40     1      0.000000000000      0.762485897686                 2
    20    19    21    40     1      0.000000000000      0.124362804952                 3
    21    19    20    37     1      0.000000000000      0.483407861024                 3
    60    68    67    86     1    180.000000000000     15.321515534534                 2
     8     7    14    13     1    180.000000000000     15.321515534534                 2
   150   151   152   169     1      0.000000000000      0.483407861024                 3
    17    16    24    43     1    180.000000000000     15.321515534534                 2
   147   148   156   175     1    180.000000000000     15.321515534534                 2
    36    19    20    37     1      0.000000000000      0.799950138473                 3
    52    53    56    76     1    180.000000000000     15.321515534534                 2
    17    16    24    23     1    180.000000000000     15.321515534534                 2
    16    17    18    22     1    180.000000000000     15.321515534534                 2
   135   157   147   148     1    180.000000000000     15.321515534534                 2
   135   134   133   159     1      0.000000000000      0.198220506977                 3
   134   135   136   161     1    180.000000000000     15.321515534534                 2
   102    95    94   103     1    180.000000000000      4.866977563957                 2
   102    95    96   119     1    180.000000000000     15.321515534534                 2
     9    12    13    33     1    180.000000000000     15.321515534534                 2
   183   186   187   188     1    180.000000000000      4.869377577648                 2
   183   186   187   188     1    180.000000000000      0.702571835515                 1
    93    94   103   104     1    180.000000000000     15.321515534534                 2
   149   150   151   153     1      0.000000000000      0.111501038139                 3
   105   106   107   108     1      0.000000000000      0.111501038139                 3
   151   150   154   155     1    180.000000000000     15.321515534534                 2
    80    63    64    81     1      0.000000000000      0.799950138473                 3
     2     3     4     5     1    180.000000000000     15.321515534534                 2
    47    69    59    50     1    180.000000000000     15.321515534534                 2
     3     2     1    28     1      0.000000000000      0.198220506977                 3
     7     6    15    16     1    180.000000000000     15.321515534534                 2
   140   139   146   145     1    180.000000000000     15.321515534534                 2
   147   148   149   167     1    180.000000000000     15.321515534534                 2
    65    63    64    83     1      0.000000000000      0.483407861024                 3
    95   102   101   121     1    180.000000000000     15.321515534534                 2
    62    63    65    98     1    180.000000000000     -2.883499339083                 2
    62    63    65    98     1      0.000000000000      1.141330947302                 1
   107   106   105   123     1    180.000000000000     15.321515534534                 2
    76    56    57    77     1    180.000000000000     15.321515534534                 2
    10   178   177   180     1      0.000000000000      0.198220506977                 3
    63    65    98    99     1    180.000000000000     12.978553656010                 2
    63    65    98    99     1      0.000000000000     -1.779100933344                 1
   124   107   109   142     1      0.000000000000      0.762485897686                 2
   124   107   109   142     1      0.000000000000      0.124362804952                 3
   186   183   185   197     1      0.000000000000      0.466735938990                 3
   186   183   185   197     1      0.000000000000      1.436153909162                 1
    51    52    53    56     1    180.000000000000     15.321515534534                 2
    61    62    66    67     1    180.000000000000     15.321515534534                 2
   185   183   184   193     1      0.000000000000      0.435413753811                 3
     2     3    25    15     1    180.000000000000     15.321515534534                 2
   186   183   182   190     1      0.000000000000      0.466735938990                 3
   186   183   182   190     1      0.000000000000      1.436153909162                 1
   151   153   187   188     1    180.000000000000      7.569054279773                 2
   151   153   187   188     1      0.000000000000     -0.201513062842                 1
    50    51    58    57     1    180.000000000000     15.321515534534                 2
   141   140   139   146     1    180.000000000000     15.321515534534                 2
    22    18    19    36     1      0.000000000000      0.111501038139                 3
   143   142   141   144     1    180.000000000000      4.173190890070                 2
   152   151   150   154     1      0.000000000000      0.111501038139                 3
    94    95    96    97     1    180.000000000000     15.321515534534                 2
    45    46    47    48     1    180.000000000000      6.410861677363                 2
    92    93    94    95     1    180.000000000000     15.321515534534                 2
   106   107   108   125     1      0.000000000000      0.483407861024                 3
    91    90    89   115     1      0.000000000000      0.198220506977                 3
    62    66    67    68     1    180.000000000000     15.321515534534                 2
   148   156   155   154     1    180.000000000000     15.321515534534                 2
    61    60    68    67     1    180.000000000000     15.321515534534                 2
   149   150   154   173     1    180.000000000000     15.321515534534                 2
   106   110   111   130     1    180.000000000000     15.321515534534                 2
   142   141   144   164     1    180.000000000000     15.321515534534                 2
     3     4     5     6     1    180.000000000000     15.321515534534                 2
    96    97    98    99     1    180.000000000000      4.173190890070                 2
    61    62    63    80     1      0.000000000000      0.111501038139                 3
   140   141   144   164     1    180.000000000000     15.321515534534                 2
   139   138   147   148     1    180.000000000000     15.321515534534                 2
    17    18    19    36     1      0.000000000000      0.111501038139                 3
     2     3     4    29     1    180.000000000000     15.321515534534                 2
   173   154   155   174     1    180.000000000000     15.321515534534                 2
     4     5     6    15     1    180.000000000000     15.321515534534                 2
    25     3     4    29     1    180.000000000000     15.321515534534                 2
    65    98    97   100     1    180.000000000000      4.173190890070                 2
   149   148   156   155     1    180.000000000000     15.321515534534                 2
    62    63    65    84     1      0.000000000000      0.762485897686                 2
    62    63    65    84     1      0.000000000000      0.124362804952                 3
    36    19    21    54     1      0.000000000000      0.762485897686                 2
    36    19    21    54     1      0.000000000000      0.124362804952                 3
   108   107   109   142     1    180.000000000000     -0.622862944840                 4
   108   107   109   142     1    180.000000000000     -0.514769632165                 3
   108   107   109   142     1      0.000000000000      1.229801223351                 2
   108   107   109   142     1      0.000000000000     -1.265294746367                 1
   129   110   111   130     1    180.000000000000     15.321515534534                 2
    47    48    49    50     1    180.000000000000     15.321515534534                 2
   146   145   144   164     1    180.000000000000     15.321515534534                 2
    95   102   101   100     1    180.000000000000     15.321515534534                 2
   124   107   109   128     1      0.000000000000      0.762485897686                 2
   124   107   109   128     1      0.000000000000      0.124362804952                 3
     7    14    13    33     1    180.000000000000     15.321515534534                 2
   186   183   184   192     1      0.000000000000      0.466735938990                 3
   186   183   184   192     1      0.000000000000      1.436153909162                 1
    61    60    68    87     1    180.000000000000     15.321515534534                 2
    80    63    65    98     1      0.000000000000      0.762485897686                 2
    80    63    65    98     1      0.000000000000      0.124362804952                 3
   135   134   133   158     1      0.000000000000      0.198220506977                 3
    98    97    96   119     1    180.000000000000     15.321515534534                 2
    96    97   100   101     1    180.000000000000     15.321515534534                 2
   135   157   147   138     1    180.000000000000     15.321515534534                 2
   103   104   105   106     1    180.000000000000     15.321515534534                 2
   149   150   151   152     1      0.000000000000      0.111501038139                 3
   142   141   140   163     1    180.000000000000     15.321515534534                 2
    47    69    59    60     1    180.000000000000     15.321515534534                 2
   156   148   149   167     1    180.000000000000     15.321515534534                 2
   112   111   110   129     1    180.000000000000     15.321515534534                 2
    59    60    68    67     1    180.000000000000     15.321515534534                 2
   154   155   156   175     1    180.000000000000     15.321515534534                 2
    65    63    64    82     1      0.000000000000      0.483407861024                 3
   174   155   156   175     1    180.000000000000     15.321515534534                 2
   165   145   146   166     1    180.000000000000     15.321515534534                 2
    64    63    62    66     1      0.000000000000      0.111501038139                 3
    91   113   103   104     1    180.000000000000     15.321515534534                 2
    90    91   113   103     1    180.000000000000     15.321515534534                 2
    97    96    95   102     1    180.000000000000     15.321515534534                 2
    63    62    66    85     1    180.000000000000     15.321515534534                 2
   141   144   145   146     1    180.000000000000     15.321515534534                 2
   186   183   185   196     1      0.000000000000      0.466735938990                 3
   186   183   185   196     1      0.000000000000      1.436153909162                 1
    98    97   100   120     1    180.000000000000     15.321515534534                 2
    40    21    54    55     1    180.000000000000      9.825603686166                 2
    40    21    54    55     1      0.000000000000      5.255757435828                 1
   100    97    96   119     1    180.000000000000     15.321515534534                 2
   107   109   142   141     1    180.000000000000      7.569054279773                 2
   107   109   142   141     1      0.000000000000     -0.201513062842                 1
   150   149   148   156     1    180.000000000000     15.321515534534                 2
     4     3    25    15     1    180.000000000000     15.321515534534                 2
   103   104   112   111     1    180.000000000000     15.321515534534                 2
   104   112   111   110     1    180.000000000000     15.321515534534                 2
   138   139   140   163     1    180.000000000000     15.321515534534                 2
     3    25    15    16     1    180.000000000000     15.321515534534                 2
    24    16    17    35     1    180.000000000000     15.321515534534                 2
    11    10     9    12     1    180.000000000000      4.173190890070                 2
    59    60    61    79     1    180.000000000000     15.321515534534                 2
    59    60    68    87     1    180.000000000000     15.321515534534                 2
   136   135   157   176     1    180.000000000000     15.321515534534                 2
    84    65    98    97     1    180.000000000000      7.569054279773                 2
    84    65    98    97     1      0.000000000000     -0.201513062842                 1
   147   148   149   150     1    180.000000000000     15.321515534534                 2
     8     9    10   178     1    180.000000000000      4.173190890070                 2
    19    18    22    41     1    180.000000000000     15.321515534534                 2
    95    94   103   104     1    180.000000000000     15.321515534534                 2
   153   151   150   154     1      0.000000000000      0.111501038139                 3
    18    19    20    39     1      0.000000000000      0.483407861024                 3
   103   104   112   131     1    180.000000000000     15.321515534534                 2
    36    19    21    40     1      0.000000000000      0.762485897686                 2
    36    19    21    40     1      0.000000000000      0.124362804952                 3
   108   107   109   128     1      0.000000000000      0.762485897686                 2
   108   107   109   128     1      0.000000000000      0.124362804952                 3
     7    14    13    12     1    180.000000000000     15.321515534534                 2
   104   112   111   130     1    180.000000000000     15.321515534534                 2
    77    57    58    78     1    180.000000000000     15.321515534534                 2
    49    50    59    60     1    180.000000000000     15.321515534534                 2
    48    47    69    59     1    180.000000000000     15.321515534534                 2
    54    53    56    57     1    180.000000000000     15.321515534534                 2
   182   183   184   193     1      0.000000000000      0.435413753811                 3
   124   107   108   127     1      0.000000000000      0.799950138473                 3
   152   151   153   187     1    180.000000000000     -0.622862944840                 4
   152   151   153   187     1    180.000000000000     -0.514769632165                 3
   152   151   153   187     1      0.000000000000      1.229801223351                 2
   152   151   153   187     1      0.000000000000     -1.265294746367                 1
    68    60    61    79     1    180.000000000000     15.321515534534                 2
     7     8     9    10     1    180.000000000000     15.321515534534                 2
    96    95    94   103     1    180.000000000000      4.866977563957                 2
   134   135   136   137     1    180.000000000000     15.321515534534                 2
   105   106   110   111     1    180.000000000000     15.321515534534                 2
   185   183   182   191     1      0.000000000000      0.435413753811                 3
   144   141   140   163     1    180.000000000000     15.321515534534                 2
   138   139   146   166     1    180.000000000000     15.321515534534                 2
   110   106   105   123     1    180.000000000000     15.321515534534                 2
    66    62    61    79     1    180.000000000000     15.321515534534                 2
    89    90    91   113     1    180.000000000000      6.410861677363                 2
    41    22    23    42     1    180.000000000000     15.321515534534                 2
    20    19    18    22     1      0.000000000000      0.111501038139                 3
    48    49    50    59     1    180.000000000000     15.321515534534                 2
    18    22    23    42     1    180.000000000000     15.321515534534                 2
   103   104   105   123     1    180.000000000000     15.321515534534                 2
    58    51    50    59     1    180.000000000000      4.866977563957                 2
   105   106   107   124     1      0.000000000000      0.111501038139                 3
   137   138   139   140     1    180.000000000000      4.866977563957                 2
   184   183   182   189     1      0.000000000000      0.435413753811                 3
    59    50    49    74     1    180.000000000000     15.321515534534                 2
   135   136   137   138     1    180.000000000000     15.321515534534                 2
   184   183   185   196     1      0.000000000000      0.435413753811                 3
   134   135   157   147     1    180.000000000000     15.321515534534                 2
    21    54    53    56     1    180.000000000000      4.173190890070                 2
    97   100   101   102     1    180.000000000000     15.321515534534                 2
    51    58    57    77     1    180.000000000000     15.321515534534                 2
    93    94   103   113     1    180.000000000000     15.321515534534                 2
   172   153   187   186     1    180.000000000000      7.569054279773                 2
   172   153   187   186     1      0.000000000000     -0.201513062842                 1
    14    13    12    32     1    180.000000000000     15.321515534534                 2
    12     9     8    31     1    180.000000000000     15.321515534534                 2
     6     7    14    34     1    180.000000000000     15.321515534534                 2
    51    50    59    69     1    180.000000000000     15.321515534534                 2
    94    93    92   117     1    180.000000000000     15.321515534534                 2
   153   151   152   169     1      0.000000000000      0.483407861024                 3
    15    16    24    43     1    180.000000000000     15.321515534534                 2
     5     6    15    16     1    180.000000000000     15.321515534534                 2
    91   113   103    94     1    180.000000000000     15.321515534534                 2
    92    91   113   103     1    180.000000000000     15.321515534534                 2
     4    29     3     5     4    180.000000000000      1.534133333333                 2
    50    59    49    51     4    180.000000000000      1.534133333333                 2
    51    58    50    52     4    180.000000000000      1.534133333333                 2
   102   101   122    95     4    180.000000000000      1.534133333333                 2
    22    41    18    23     4    180.000000000000      1.534133333333                 2
    10   178     9    11     4    180.000000000000     14.644000000000                 2
    97   100    96    98     4    180.000000000000      1.534133333333                 2
   106   105   107   110     4    180.000000000000      1.534133333333                 2
   140   141   163   139     4    180.000000000000      1.534133333333                 2
    48    49    73    47     4    180.000000000000      1.534133333333                 2
   141   140   142   144     4    180.000000000000      1.534133333333                 2
   141   142   144   140     4    180.000000000000      1.534133333333                 2
   156   175   148   155     4    180.000000000000      1.534133333333                 2
   139   140   146   138     4    180.000000000000      1.534133333333                 2
    62    63    66    61     4    180.000000000000      1.534133333333                 2
   147   138   148   157     4    180.000000000000      1.534133333333                 2
   100   120    97   101     4    180.000000000000      1.534133333333                 2
    48    47    49    73     4    180.000000000000      1.534133333333                 2
    18    22    17    19     4    180.000000000000      1.534133333333                 2
    17    18    35    16     4    180.000000000000      1.534133333333                 2
   113   132    91   103     4    180.000000000000      1.534133333333                 2
   138   139   147   137     4    180.000000000000      1.534133333333                 2
   145   165   144   146     4    180.000000000000      1.534133333333                 2
    18    19    22    17     4    180.000000000000      1.534133333333                 2
    15     6    16    25     4    180.000000000000      1.534133333333                 2
    24    23    43    16     4    180.000000000000      1.534133333333                 2
    12    13    32     9     4    180.000000000000      1.534133333333                 2
    91   113    90    92     4    180.000000000000      1.534133333333                 2
    49    74    48    50     4    180.000000000000      1.534133333333                 2
    60    59    61    68     4    180.000000000000      1.534133333333                 2
    22    23    41    18     4    180.000000000000      1.534133333333                 2
   153   151   172   187     4    180.000000000000      1.394666666667                 2
    56    76    53    57     4    180.000000000000      1.534133333333                 2
    14    13    34     7     4    180.000000000000      1.534133333333                 2
   136   135   137   161     4    180.000000000000      1.534133333333                 2
    47    69    46    48     4    180.000000000000      1.534133333333                 2
    57    77    56    58     4    180.000000000000      1.534133333333                 2
   150   149   151   154     4    180.000000000000      1.534133333333                 2
    95    96   102    94     4    180.000000000000      1.534133333333                 2
   105   123   104   106     4    180.000000000000      1.534133333333                 2
     8    31     7     9     4    180.000000000000      1.534133333333                 2
    67    68    86    66     4    180.000000000000      1.534133333333                 2
   155   156   174   154     4    180.000000000000      1.534133333333                 2
   102    95   101   122     4    180.000000000000      1.534133333333                 2
   153   172   187   151     4    180.000000000000      1.394666666667                 2
    94    95   103    93     4    180.000000000000      1.534133333333                 2
   150   154   149   151     4    180.000000000000      1.534133333333                 2
   110   106   111   129     4    180.000000000000      1.534133333333                 2
   104   103   105   112     4    180.000000000000      1.534133333333                 2
    57    58    77    56     4    180.000000000000      1.534133333333                 2
    94    93    95   103     4    180.000000000000      1.534133333333                 2
   150   151   154   149     4    180.000000000000      1.534133333333                 2
    56    53    57    76     4    180.000000000000      1.534133333333                 2
   139   146   138   140     4    180.000000000000      1.534133333333                 2
    98    65    97    99     4    180.000000000000      1.534133333333                 2
   136   161   135   137     4    180.000000000000      1.534133333333                 2
    16    15    17    24     4    180.000000000000      1.534133333333                 2
    60    61    68    59     4    180.000000000000      1.534133333333                 2
   187   153   186   188     4    180.000000000000     14.644000000000                 2
    12    32     9    13     4    180.000000000000      1.534133333333                 2
    97    96    98   100     4    180.000000000000      1.534133333333                 2
   149   148   150   167     4    180.000000000000      1.534133333333                 2
    95    94    96   102     4    180.000000000000      1.534133333333                 2
   155   154   156   174     4    180.000000000000      1.534133333333                 2
   148   149   156   147     4    180.000000000000      1.534133333333                 2
     5     6    30     4     4    180.000000000000      1.534133333333                 2
    94   103    93    95     4    180.000000000000      1.534133333333                 2
    57    56    58    77     4    180.000000000000      1.534133333333                 2
    14     7    13    34     4    180.000000000000      1.534133333333                 2
   138   147   137   139     4    180.000000000000      1.534133333333                 2
    53    54    56    52     4    180.000000000000      1.534133333333                 2
    21    54    19    40     4    180.000000000000      1.394666666667                 2
    58    57    78    51     4    180.000000000000      1.534133333333                 2
     9    12     8    10     4    180.000000000000      1.534133333333                 2
   136   137   161   135     4    180.000000000000      1.534133333333                 2
    66    85    62    67     4    180.000000000000      1.534133333333                 2
    93    94   118    92     4    180.000000000000      1.534133333333                 2
    69    47    59    88     4    180.000000000000      1.534133333333                 2
    59    50    60    69     4    180.000000000000      1.534133333333                 2
    69    59    88    47     4    180.000000000000      1.534133333333                 2
    24    43    16    23     4    180.000000000000      1.534133333333                 2
    69    88    47    59     4    180.000000000000      1.534133333333                 2
   142   109   141   143     4    180.000000000000      1.534133333333                 2
   146   145   166   139     4    180.000000000000      1.534133333333                 2
   101   100   102   121     4    180.000000000000      1.534133333333                 2
    61    60    62    79     4    180.000000000000      1.534133333333                 2
    25     3    15    44     4    180.000000000000      1.534133333333                 2
   141   144   140   142     4    180.000000000000      1.534133333333                 2
    98    97    99    65     4    180.000000000000      1.534133333333                 2
   103   113    94   104     4    180.000000000000      1.534133333333                 2
    47    46    48    69     4    180.000000000000      1.534133333333                 2
   153   187   151   172     4    180.000000000000      1.394666666667                 2
   101   121   100   102     4    180.000000000000      1.534133333333                 2
    96   119    95    97     4    180.000000000000      1.534133333333                 2
    22    18    23    41     4    180.000000000000      1.534133333333                 2
    49    48    50    74     4    180.000000000000      1.534133333333                 2
    68    87    60    67     4    180.000000000000      1.534133333333                 2
    54    21    53    55     4    180.000000000000      1.534133333333                 2
   111   110   112   130     4    180.000000000000      1.534133333333                 2
    59    69    50    60     4    180.000000000000      1.534133333333                 2
   148   156   147   149     4    180.000000000000      1.534133333333                 2
   109   128   142   107     4    180.000000000000      1.394666666667                 2
    51    50    52    58     4    180.000000000000      1.534133333333                 2
    10     9    11   178     4    180.000000000000     14.644000000000                 2
    49    50    74    48     4    180.000000000000      1.534133333333                 2
    52    75    51    53     4    180.000000000000      1.534133333333                 2
   144   141   145   164     4    180.000000000000      1.534133333333                 2
   157   135   147   176     4    180.000000000000      1.534133333333                 2
   137   138   162   136     4    180.000000000000      1.534133333333                 2
    60    68    59    61     4    180.000000000000      1.534133333333                 2
   149   150   167   148     4    180.000000000000      1.534133333333                 2
    68    60    67    87     4    180.000000000000      1.534133333333                 2
   106   107   110   105     4    180.000000000000      1.534133333333                 2
   154   173   150   155     4    180.000000000000      1.534133333333                 2
   135   136   157   134     4    180.000000000000      1.534133333333                 2
    65    63    84    98     4    180.000000000000      1.394666666667                 2
    92    91    93   117     4    180.000000000000      1.534133333333                 2
    17    35    16    18     4    180.000000000000      1.534133333333                 2
   112   131   104   111     4    180.000000000000      1.534133333333                 2
    54    55    21    53     4    180.000000000000      1.534133333333                 2
     6    15     5     7     4    180.000000000000      1.534133333333                 2
    16    24    15    17     4    180.000000000000      1.534133333333                 2
   146   166   139   145     4    180.000000000000      1.534133333333                 2
   154   150   155   173     4    180.000000000000      1.534133333333                 2
    52    53    75    51     4    180.000000000000      1.534133333333                 2
    91    90    92   113     4    180.000000000000      1.534133333333                 2
   101   102   121   100     4    180.000000000000      1.534133333333                 2
    50    49    51    59     4    180.000000000000      1.534133333333                 2
    47    48    69    46     4    180.000000000000      1.534133333333                 2
     8     7     9    31     4    180.000000000000      1.534133333333                 2
    68    67    87    60     4    180.000000000000      1.534133333333                 2
   104   105   112   103     4    180.000000000000      1.534133333333                 2
   149   167   148   150     4    180.000000000000      1.534133333333                 2
   146   139   145   166     4    180.000000000000      1.534133333333                 2
     5     4     6    30     4    180.000000000000      1.534133333333                 2
    53    56    52    54     4    180.000000000000      1.534133333333                 2
     7    14     6     8     4    180.000000000000      1.534133333333                 2
   137   136   138   162     4    180.000000000000      1.534133333333                 2
   140   139   141   163     4    180.000000000000      1.534133333333                 2
     7     6     8    14     4    180.000000000000      1.534133333333                 2
    67    66    68    86     4    180.000000000000      1.534133333333                 2
    21    40    54    19     4    180.000000000000      1.394666666667                 2
   111   112   130   110     4    180.000000000000      1.534133333333                 2
    51    52    58    50     4    180.000000000000      1.534133333333                 2
    10    11   178     9     4    180.000000000000     14.644000000000                 2
   145   146   165   144     4    180.000000000000      1.534133333333                 2
   156   148   155   175     4    180.000000000000      1.534133333333                 2
    58    78    51    57     4    180.000000000000      1.534133333333                 2
   106   110   105   107     4    180.000000000000      1.534133333333                 2
   100    97   101   120     4    180.000000000000      1.534133333333                 2
    91    92   113    90     4    180.000000000000      1.534133333333                 2
   105   106   123   104     4    180.000000000000      1.534133333333                 2
    67    86    66    68     4    180.000000000000      1.534133333333                 2
   144   164   141   145     4    180.000000000000      1.534133333333                 2
    23    22    24    42     4    180.000000000000      1.534133333333                 2
   155   174   154   156     4    180.000000000000      1.534133333333                 2
     4     5    29     3     4    180.000000000000      1.534133333333                 2
    56    57    76    53     4    180.000000000000      1.534133333333                 2
    92    93   117    91     4    180.000000000000      1.534133333333                 2
   113    91   103   132     4    180.000000000000      1.534133333333                 2
    92   117    91    93     4    180.000000000000      1.534133333333                 2
    65    98    63    84     4    180.000000000000      1.394666666667                 2
    13    33    12    14     4    180.000000000000      1.534133333333                 2
   103    94   104   113     4    180.000000000000      1.534133333333                 2
   142   143   109   141     4    180.000000000000      1.534133333333                 2
   102   122    95   101     4    180.000000000000      1.534133333333                 2
   144   145   164   141     4    180.000000000000      1.534133333333                 2
    23    42    22    24     4    180.000000000000      1.534133333333                 2
    17    16    18    35     4    180.000000000000      1.534133333333                 2
    48    73    47    49     4    180.000000000000      1.534133333333                 2
   109   142   107   128     4    180.000000000000      1.394666666667                 2
     8     9    31     7     4    180.000000000000      1.534133333333                 2
   154   155   173   150     4    180.000000000000      1.534133333333                 2
    95   102    94    96     4    180.000000000000      1.534133333333                 2
    61    79    60    62     4    180.000000000000      1.534133333333                 2
    13    12    14    33     4    180.000000000000      1.534133333333                 2
     3     2     4    25     4    180.000000000000      1.534133333333                 2
   142   141   143   109     4    180.000000000000      1.534133333333                 2
     7     8    14     6     4    180.000000000000      1.534133333333                 2
    98    99    65    97     4    180.000000000000      1.534133333333                 2
   145   144   146   165     4    180.000000000000      1.534133333333                 2
   156   155   175   148     4    180.000000000000      1.534133333333                 2
     9    10    12     8     4    180.000000000000      1.534133333333                 2
   112   104   111   131     4    180.000000000000      1.534133333333                 2
    14    34     7    13     4    180.000000000000      1.534133333333                 2
    61    62    79    60     4    180.000000000000      1.534133333333                 2
   187   186   188   153     4    180.000000000000     14.644000000000                 2
    96    97   119    95     4    180.000000000000      1.534133333333                 2
    97    98   100    96     4    180.000000000000      1.534133333333                 2
   109   107   128   142     4    180.000000000000      1.394666666667                 2
     6     5     7    15     4    180.000000000000      1.534133333333                 2
   139   138   140   146     4    180.000000000000      1.534133333333                 2
     3    25     2     4     4    180.000000000000      1.534133333333                 2
    16    17    24    15     4    180.000000000000      1.534133333333                 2
   105   104   106   123     4    180.000000000000      1.534133333333                 2
    58    51    57    78     4    180.000000000000      1.534133333333                 2
    59    60    69    50     4    180.000000000000      1.534133333333                 2
    12     9    13    32     4    180.000000000000      1.534133333333                 2
    62    61    63    66     4    180.000000000000      1.534133333333                 2
     3     4    25     2     4    180.000000000000      1.534133333333                 2
   147   157   138   148     4    180.000000000000      1.534133333333                 2
   187   188   153   186     4    180.000000000000     14.644000000000                 2
   113   103   132    91     4    180.000000000000      1.534133333333                 2
   147   148   157   138     4    180.000000000000      1.534133333333                 2
    96    95    97   119     4    180.000000000000      1.534133333333                 2
    54    53    55    21     4    180.000000000000      1.534133333333                 2
    23    24    42    22     4    180.000000000000      1.534133333333                 2
    15    16    25     6     4    180.000000000000      1.534133333333                 2
    15    25     6    16     4    180.000000000000      1.534133333333                 2
   157   176   135   147     4    180.000000000000      1.534133333333                 2
   140   163   139   141     4    180.000000000000      1.534133333333                 2
    66    67    85    62     4    180.000000000000      1.534133333333                 2
   110   129   106   111     4    180.000000000000      1.534133333333                 2
    25    44     3    15     4    180.000000000000      1.534133333333                 2
    18    17    19    22     4    180.000000000000      1.534133333333                 2
   111   130   110   112     4    180.000000000000      1.534133333333                 2
   137   162   136   138     4    180.000000000000      1.534133333333                 2
   138   137   139   147     4    180.000000000000      1.534133333333                 2
    66    62    67    85     4    180.000000000000      1.534133333333                 2
    52    51    53    75     4    180.000000000000      1.534133333333                 2
   104   112   103   105     4    180.000000000000      1.534133333333                 2
    53    52    54    56     4    180.000000000000      1.534133333333                 2
   135   134   136   157     4    180.000000000000      1.534133333333                 2
    21    19    40    54     4    180.000000000000      1.394666666667                 2
     5    30     4     6     4    180.000000000000      1.534133333333                 2
    62    66    61    63     4    180.000000000000      1.534133333333                 2
    13    14    33    12     4    180.000000000000      1.534133333333                 2
    93    92    94   118     4    180.000000000000      1.534133333333                 2
    50    51    59    49     4    180.000000000000      1.534133333333                 2
    24    16    23    43     4    180.000000000000      1.534133333333                 2
   135   157   134   136     4    180.000000000000      1.534133333333                 2
    65    84    98    63     4    180.000000000000      1.394666666667                 2
    25    15    44     3     4    180.000000000000      1.534133333333                 2
   103   104   113    94     4    180.000000000000      1.534133333333                 2
   110   111   129   106     4    180.000000000000      1.534133333333                 2
    93   118    92    94     4    180.000000000000      1.534133333333                 2
   112   111   131   104     4    180.000000000000      1.534133333333                 2
   100   101   120    97     4    180.000000000000      1.534133333333                 2
   157   147   176   135     4    180.000000000000      1.534133333333                 2
     6     7    15     5     4    180.000000000000      1.534133333333                 2
   148   147   149   156     4    180.000000000000      1.534133333333                 2
     4     3     5    29     4    180.000000000000      1.534133333333                 2
     9     8    10    12     4    180.000000000000      1.534133333333                 2

[ settles ]
;i  funct   dOH  dHH


[ exclusions ]
;ai    aj


[ system ]
;name
FOO

[ molecules ]
;name	number
mom_tetramer.pdb	1

