Generated by Interchange
197
    1MOM     C1    1  -0.264   0.547   0.087
    1MOM     O2    2  -0.152   0.466   0.057
    1MOM     C3    3  -0.173   0.331   0.045
    1MOM     C4    4  -0.293   0.264   0.062
    1MOM     C5    5  -0.299   0.125   0.050
    1MOM     C6    6  -0.184   0.050   0.019
    1MOM     C7    7  -0.196  -0.098   0.012
    1MOM     C8    8  -0.284  -0.160  -0.079
    1MOM     C9    9  -0.292  -0.300  -0.088
    1MOM    C10   10  -0.396  -0.359  -0.177
    1MOM    O11   11  -0.470  -0.292  -0.247
    1MOM    C12   12  -0.211  -0.381  -0.007
    1MOM    C13   13  -0.124  -0.321   0.084
    1MOM    C14   14  -0.118  -0.181   0.094
    1MOM    C15   15  -0.060   0.118   0.001
    1MOM    C16   16   0.064   0.047  -0.037
    1MOM    C17   17   0.180   0.054   0.041
    1MOM    C18   18   0.293  -0.025   0.011
    1MOM    C19   19   0.421  -0.013   0.091
    1MOM    C20   20   0.451  -0.142   0.168
    1MOM    N21   21   0.537   0.034   0.012
    1MOM    C22   22   0.283  -0.116  -0.095
    1MOM    C23   23   0.173  -0.115  -0.181
    1MOM    C24   24   0.065  -0.033  -0.152
    1MOM    C25   25  -0.058   0.258   0.016
    1MOM    H26   26  -0.307   0.521   0.184
    1MOM    H27   27  -0.339   0.541   0.007
    1MOM    H28   28  -0.229   0.651   0.092
    1MOM    H29   29  -0.385   0.317   0.084
    1MOM    H30   30  -0.395   0.075   0.062
    1MOM    H31   31  -0.347  -0.099  -0.143
    1MOM    H32   32  -0.215  -0.489  -0.012
    1MOM    H33   33  -0.060  -0.383   0.147
    1MOM    H34   34  -0.047  -0.138   0.164
    1MOM    H35   35   0.182   0.119   0.128
    1MOM    H36   36   0.407   0.066   0.166
    1MOM    H37   37   0.538  -0.129   0.234
    1MOM    H38   38   0.366  -0.171   0.230
    1MOM    H39   39   0.473  -0.226   0.101
    1MOM    H40   40   0.608   0.062   0.080
    1MOM    H41   41   0.364  -0.184  -0.117
    1MOM    H42   42   0.173  -0.178  -0.269
    1MOM    H43   43  -0.021  -0.036  -0.219
    1MOM    H44   44   0.036   0.311   0.002
    2MOM    C45   45   0.714  -0.706  -0.767
    2MOM    O46   46   0.734  -0.568  -0.794
    2MOM    C47   47   0.690  -0.479  -0.701
    2MOM    C48   48   0.626  -0.508  -0.582
    2MOM    C49   49   0.585  -0.404  -0.496
    2MOM    C50   50   0.608  -0.269  -0.528
    2MOM    C51   51   0.559  -0.163  -0.437
    2MOM    C52   52   0.603  -0.155  -0.303
    2MOM    C53   53   0.561  -0.050  -0.219
    2MOM    C54   54   0.601  -0.052  -0.075
    2MOM    O55   55   0.690  -0.127  -0.035
    2MOM    C56   56   0.478   0.050  -0.270
    2MOM    C57   57   0.431   0.042  -0.401
    2MOM    C58   58   0.471  -0.064  -0.483
    2MOM    C59   59   0.677  -0.239  -0.649
    2MOM    C60   60   0.712  -0.101  -0.688
    2MOM    C61   61   0.670  -0.045  -0.810
    2MOM    C62   62   0.693   0.090  -0.840
    2MOM    C63   63   0.653   0.150  -0.973
    2MOM    C64   64   0.542   0.254  -0.956
    2MOM    N65   65   0.767   0.202  -1.052
    2MOM    C66   66   0.752   0.170  -0.740
    2MOM    C67   67   0.805   0.114  -0.625
    2MOM    C68   68   0.786  -0.021  -0.600
    2MOM    C69   69   0.715  -0.345  -0.734
    2MOM    H70   70   0.608  -0.730  -0.760
    2MOM    H71   71   0.768  -0.737  -0.677
    2MOM    H72   72   0.756  -0.763  -0.851
    2MOM    H73   73   0.605  -0.610  -0.552
    2MOM    H74   74   0.533  -0.430  -0.404
    2MOM    H75   75   0.669  -0.232  -0.263
    2MOM    H76   76   0.442   0.131  -0.206
    2MOM    H77   77   0.362   0.117  -0.439
    2MOM    H78   78   0.434  -0.067  -0.585
    2MOM    H79   79   0.615  -0.107  -0.881
    2MOM    H80   80   0.612   0.069  -1.036
    2MOM    H81   81   0.508   0.291  -1.054
    2MOM    H82   82   0.456   0.212  -0.903
    2MOM    H83   83   0.577   0.341  -0.899
    2MOM    H84   84   0.732   0.218  -1.146
    2MOM    H85   85   0.764   0.276  -0.755
    2MOM    H86   86   0.860   0.176  -0.555
    2MOM    H87   87   0.825  -0.063  -0.507
    2MOM    H88   88   0.768  -0.324  -0.827
    3MOM    C89   89   1.233   0.997  -0.468
    3MOM    O90   90   1.313   0.910  -0.548
    3MOM    C91   91   1.253   0.800  -0.601
    3MOM    C92   92   1.120   0.762  -0.586
    3MOM    C93   93   1.073   0.645  -0.646
    3MOM    C94   94   1.157   0.562  -0.723
    3MOM    C95   95   1.104   0.436  -0.781
    3MOM    C96   96   0.995   0.437  -0.870
    3MOM    C97   97   0.950   0.317  -0.930
    3MOM    C98   98   0.827   0.322  -1.016
    3MOM    O99   99   0.782   0.429  -1.056
    3MOM   C100  100   1.014   0.197  -0.902
    3MOM   C101  101   1.120   0.194  -0.811
    3MOM   C102  102   1.164   0.312  -0.751
    3MOM   C103  103   1.293   0.603  -0.742
    3MOM   C104  104   1.386   0.528  -0.828
    3MOM   C105  105   1.508   0.476  -0.778
    3MOM   C106  106   1.589   0.393  -0.857
    3MOM   C107  107   1.723   0.342  -0.806
    3MOM   C108  108   1.721   0.190  -0.787
    3MOM   N109  109   1.838   0.388  -0.886
    3MOM   C110  110   1.541   0.356  -0.984
    3MOM   C111  111   1.428   0.415  -1.039
    3MOM   C112  112   1.352   0.501  -0.961
    3MOM   C113  113   1.338   0.720  -0.679
    3MOM   H114  114   1.194   0.945  -0.380
    3MOM   H115  115   1.152   1.041  -0.528
    3MOM   H116  116   1.296   1.078  -0.433
    3MOM   H117  117   1.050   0.822  -0.528
    3MOM   H118  118   0.969   0.617  -0.632
    3MOM   H119  119   0.944   0.530  -0.894
    3MOM   H120  120   0.979   0.103  -0.944
    3MOM   H121  121   1.167   0.100  -0.785
    3MOM   H122  122   1.248   0.308  -0.682
    3MOM   H123  123   1.537   0.499  -0.676
    3MOM   H124  124   1.740   0.387  -0.708
    3MOM   H125  125   1.815   0.157  -0.741
    3MOM   H126  126   1.638   0.160  -0.722
    3MOM   H127  127   1.710   0.137  -0.882
    3MOM   H128  128   1.921   0.369  -0.830
    3MOM   H129  129   1.596   0.285  -1.045
    3MOM   H130  130   1.399   0.393  -1.141
    3MOM   H131  131   1.262   0.544  -1.004
    3MOM   H132  132   1.441   0.752  -0.692
    4MOM   C133  133   1.706   0.001  -1.894
    4MOM   O134  134   1.763   0.130  -1.875
    4MOM   C135  135   1.757   0.183  -1.748
    4MOM   C136  136   1.699   0.124  -1.637
    4MOM   C137  137   1.700   0.191  -1.514
    4MOM   C138  138   1.759   0.319  -1.500
    4MOM   C139  139   1.753   0.387  -1.369
    4MOM   C140  140   1.810   0.330  -1.254
    4MOM   C141  141   1.811   0.400  -1.132
    4MOM   C142  142   1.864   0.331  -1.010
    4MOM   O143  143   1.929   0.228  -1.019
    4MOM   C144  144   1.756   0.529  -1.125
    4MOM   C145  145   1.695   0.584  -1.237
    4MOM   C146  146   1.693   0.514  -1.357
    4MOM   C147  147   1.820   0.378  -1.614
    4MOM   C148  148   1.891   0.508  -1.608
    4MOM   C149  149   1.855   0.617  -1.690
    4MOM   C150  150   1.918   0.743  -1.678
    4MOM   C151  151   1.878   0.861  -1.767
    4MOM   C152  152   1.791   0.962  -1.692
    4MOM   N153  153   1.995   0.921  -1.832
    4MOM   C154  154   2.018   0.757  -1.580
    4MOM   C155  155   2.057   0.650  -1.501
    4MOM   C156  156   1.995   0.526  -1.515
    4MOM   C157  157   1.817   0.309  -1.736
    4MOM   H158  158   1.598   0.001  -1.873
    4MOM   H159  159   1.758  -0.075  -1.834
    4MOM   H160  160   1.718  -0.025  -2.000
    4MOM   H161  161   1.653   0.026  -1.641
    4MOM   H162  162   1.653   0.144  -1.428
    4MOM   H163  163   1.854   0.231  -1.258
    4MOM   H164  164   1.754   0.584  -1.031
    4MOM   H165  165   1.648   0.682  -1.230
    4MOM   H166  166   1.646   0.560  -1.444
    4MOM   H167  167   1.775   0.604  -1.763
    4MOM   H168  168   1.818   0.821  -1.850
    4MOM   H169  169   1.760   1.043  -1.759
    4MOM   H170  170   1.702   0.914  -1.651
    4MOM   H171  171   1.842   1.007  -1.607
    4MOM   H172  172   1.992   0.937  -1.932
    4MOM   H173  173   2.067   0.852  -1.563
    4MOM   H174  174   2.135   0.664  -1.426
    4MOM   H175  175   2.027   0.445  -1.451
    4MOM   H176  176   1.864   0.352  -1.824
    5CAP   C177  177  -0.539  -0.543  -0.168
    5CAP   O178  178  -0.407  -0.492  -0.153
    5CAP   H179  179  -0.594  -0.519  -0.076
    5CAP   H180  180  -0.534  -0.652  -0.178
    5CAP   H181  181  -0.591  -0.502  -0.255
    6CAP   C182  182   2.444   1.036  -1.817
    6CAP   C183  183   2.313   1.062  -1.741
    6CAP   C184  184   2.330   1.002  -1.600
    6CAP   C185  185   2.289   1.213  -1.735
    6CAP   O186  186   2.207   0.998  -1.818
    6CAP   C187  187   2.082   1.002  -1.764
    6CAP   O188  188   2.054   1.063  -1.663
    6CAP   H189  189   2.529   1.086  -1.768
    6CAP   H190  190   2.467   0.929  -1.822
    6CAP   H191  191   2.438   1.072  -1.920
    6CAP   H192  192   2.342   0.893  -1.603
    6CAP   H193  193   2.244   1.022  -1.535
    6CAP   H194  194   2.417   1.045  -1.549
    6CAP   H195  195   2.270   1.253  -1.836
    6CAP   H196  196   2.202   1.239  -1.675
    6CAP   H197  197   2.375   1.266  -1.692
  5.0000000  5.0000000  5.0000000
