Generated by Interchange
197
    1PMP     C1    1   0.208   0.498  -0.020
    1PMP     O2    2   0.086   0.424  -0.023
    1PMP     C3    3   0.096   0.288  -0.016
    1PMP     C4    4   0.213   0.214   0.000
    1PMP     C5    5   0.210   0.073   0.007
    1PMP     C6    6   0.334  -0.005   0.024
    1PMP     C7    7   0.449   0.026  -0.050
    1PMP     C8    8   0.567  -0.048  -0.035
    1PMP     C9    9   0.572  -0.155   0.054
    1PMP    C10   10   0.695  -0.238   0.058
    1PMP    O11   11   0.793  -0.219  -0.011
    1PMP    C12   12   0.457  -0.188   0.128
    1PMP    C13   13   0.340  -0.113   0.113
    1PMP    C14   14   0.085   0.010  -0.001
    1PMP    C15   15  -0.035   0.082  -0.017
    1PMP    C16   16  -0.165   0.014  -0.026
    1PMP    C17   17  -0.181  -0.103  -0.102
    1PMP    C18   18  -0.304  -0.168  -0.110
    1PMP    C19   19  -0.415  -0.117  -0.042
    1PMP    C20   20  -0.546  -0.193  -0.046
    1PMP    C21   21  -0.647  -0.117  -0.131
    1PMP    N22   22  -0.599  -0.225   0.086
    1PMP    C23   23  -0.401  -0.000   0.034
    1PMP    C24   24  -0.277   0.063   0.043
    1PMP    C25   25  -0.027   0.222  -0.024
    1PMP    H26   26   0.272   0.472  -0.105
    1PMP    H27   27   0.182   0.604  -0.027
    1PMP    H28   28   0.260   0.483   0.075
    1PMP    H29   29   0.309   0.264   0.009
    1PMP    H30   30   0.448   0.107  -0.123
    1PMP    H31   31   0.654  -0.023  -0.096
    1PMP    H32   32   0.457  -0.272   0.197
    1PMP    H33   33   0.253  -0.142   0.172
    1PMP    H34   34   0.080  -0.099   0.005
    1PMP    H35   35  -0.096  -0.146  -0.156
    1PMP    H36   36  -0.311  -0.260  -0.167
    1PMP    H37   37  -0.529  -0.290  -0.094
    1PMP    H38   38  -0.671  -0.018  -0.088
    1PMP    H39   39  -0.609  -0.101  -0.232
    1PMP    H40   40  -0.741  -0.172  -0.139
    1PMP    H41   41  -0.696  -0.251   0.083
    1PMP    H42   42  -0.485   0.038   0.091
    1PMP    H43   43  -0.269   0.151   0.107
    1PMP    H44   44  -0.117   0.281  -0.037
    2PMP    C45   45  -0.438  -1.160   0.355
    2PMP    O46   46  -0.571  -1.168   0.403
    2PMP    C47   47  -0.645  -1.053   0.401
    2PMP    C48   48  -0.603  -0.929   0.356
    2PMP    C49   49  -0.689  -0.817   0.360
    2PMP    C50   50  -0.647  -0.685   0.313
    2PMP    C51   51  -0.520  -0.633   0.344
    2PMP    C52   52  -0.482  -0.506   0.300
    2PMP    C53   53  -0.570  -0.427   0.225
    2PMP    C54   54  -0.518  -0.297   0.173
    2PMP    O55   55  -0.404  -0.264   0.204
    2PMP    C56   56  -0.696  -0.477   0.193
    2PMP    C57   57  -0.733  -0.605   0.236
    2PMP    C58   58  -0.819  -0.836   0.411
    2PMP    C59   59  -0.864  -0.960   0.457
    2PMP    C60   60  -1.000  -0.976   0.510
    2PMP    C61   61  -1.056  -0.879   0.595
    2PMP    C62   62  -1.185  -0.894   0.646
    2PMP    C63   63  -1.261  -1.007   0.613
    2PMP    C64   64  -1.402  -1.019   0.664
    2PMP    C65   65  -1.411  -1.127   0.771
    2PMP    N66   66  -1.501  -1.040   0.558
    2PMP    C67   67  -1.205  -1.104   0.529
    2PMP    C68   68  -1.077  -1.088   0.477
    2PMP    C69   69  -0.775  -1.068   0.451
    2PMP    H70   70  -0.379  -1.090   0.415
    2PMP    H71   71  -0.393  -1.259   0.365
    2PMP    H72   72  -0.436  -1.133   0.249
    2PMP    H73   73  -0.503  -0.916   0.315
    2PMP    H74   74  -0.450  -0.691   0.403
    2PMP    H75   75  -0.382  -0.470   0.324
    2PMP    H76   76  -0.768  -0.423   0.133
    2PMP    H77   77  -0.832  -0.642   0.208
    2PMP    H78   78  -0.887  -0.750   0.414
    2PMP    H79   79  -1.000  -0.790   0.622
    2PMP    H80   80  -1.227  -0.815   0.708
    2PMP    H81   81  -1.431  -0.924   0.711
    2PMP    H82   82  -1.385  -1.226   0.732
    2PMP    H83   83  -1.342  -1.105   0.854
    2PMP    H84   84  -1.512  -1.134   0.812
    2PMP    H85   85  -1.588  -1.073   0.594
    2PMP    H86   86  -1.265  -1.190   0.498
    2PMP    H87   87  -1.039  -1.163   0.408
    2PMP    H88   88  -0.806  -1.166   0.488
    3PMP    C89   89  -1.995  -0.222   0.321
    3PMP    O90   90  -2.116  -0.297   0.319
    3PMP    C91   91  -2.106  -0.432   0.334
    3PMP    C92   92  -1.989  -0.505   0.355
    3PMP    C93   93  -1.992  -0.645   0.369
    3PMP    C94   94  -1.869  -0.722   0.391
    3PMP    C95   95  -1.752  -0.697   0.318
    3PMP    C96   96  -1.637  -0.773   0.338
    3PMP    C97   97  -1.636  -0.877   0.432
    3PMP    C98   98  -1.507  -0.946   0.456
    3PMP    O99   99  -1.410  -0.913   0.388
    3PMP   C100  100  -1.752  -0.903   0.506
    3PMP   C101  101  -1.866  -0.826   0.486
    3PMP   C102  102  -2.116  -0.710   0.361
    3PMP   C103  103  -2.235  -0.640   0.340
    3PMP   C104  104  -2.364  -0.710   0.332
    3PMP   C105  105  -2.376  -0.832   0.263
    3PMP   C106  106  -2.498  -0.899   0.257
    3PMP   C107  107  -2.611  -0.846   0.320
    3PMP   C108  108  -2.741  -0.923   0.318
    3PMP   C109  109  -2.843  -0.852   0.229
    3PMP   N110  110  -2.796  -0.949   0.451
    3PMP   C111  111  -2.600  -0.725   0.389
    3PMP   C112  112  -2.478  -0.659   0.396
    3PMP   C113  113  -2.228  -0.501   0.326
    3PMP   H114  114  -1.929  -0.252   0.239
    3PMP   H115  115  -2.021  -0.117   0.306
    3PMP   H116  116  -1.945  -0.231   0.418
    3PMP   H117  117  -1.893  -0.454   0.363
    3PMP   H118  118  -1.750  -0.618   0.243
    3PMP   H119  119  -1.548  -0.749   0.282
    3PMP   H120  120  -1.757  -0.980   0.582
    3PMP   H121  121  -1.954  -0.848   0.546
    3PMP   H122  122  -2.119  -0.818   0.372
    3PMP   H123  123  -2.290  -0.876   0.213
    3PMP   H124  124  -2.503  -0.995   0.206
    3PMP   H125  125  -2.723  -1.022   0.275
    3PMP   H126  126  -2.869  -0.753   0.268
    3PMP   H127  127  -2.803  -0.839   0.127
    3PMP   H128  128  -2.935  -0.910   0.221
    3PMP   H129  129  -2.892  -0.977   0.447
    3PMP   H130  130  -2.686  -0.684   0.443
    3PMP   H131  131  -2.472  -0.568   0.455
    3PMP   H132  132  -2.318  -0.443   0.308
    4PMP   C133  133  -2.630  -1.863   0.775
    4PMP   O134  134  -2.765  -1.872   0.819
    4PMP   C135  135  -2.840  -1.758   0.811
    4PMP   C136  136  -2.799  -1.635   0.758
    4PMP   C137  137  -2.886  -1.525   0.756
    4PMP   C138  138  -2.844  -1.395   0.703
    4PMP   C139  139  -2.719  -1.340   0.734
    4PMP   C140  140  -2.681  -1.215   0.683
    4PMP   C141  141  -2.768  -1.142   0.601
    4PMP   C142  142  -2.716  -1.015   0.543
    4PMP   O143  143  -2.603  -0.978   0.574
    4PMP   C144  144  -2.892  -1.196   0.569
    4PMP   C145  145  -2.930  -1.321   0.619
    4PMP   C146  146  -3.015  -1.541   0.808
    4PMP   C147  147  -3.059  -1.664   0.862
    4PMP   C148  148  -3.195  -1.678   0.915
    4PMP   C149  149  -3.252  -1.578   0.995
    4PMP   C150  150  -3.382  -1.590   1.044
    4PMP   C151  151  -3.458  -1.705   1.014
    4PMP   C152  152  -3.602  -1.711   1.059
    4PMP   C153  153  -3.616  -1.816   1.170
    4PMP   N154  154  -3.696  -1.735   0.949
    4PMP   C155  155  -3.401  -1.806   0.937
    4PMP   C156  156  -3.272  -1.792   0.887
    4PMP   C157  157  -2.969  -1.770   0.861
    4PMP   H158  158  -2.574  -1.790   0.833
    4PMP   H159  159  -2.584  -1.961   0.791
    4PMP   H160  160  -2.625  -1.842   0.668
    4PMP   H161  161  -2.699  -1.624   0.716
    4PMP   H162  162  -2.649  -1.393   0.798
    4PMP   H163  163  -2.582  -1.176   0.707
    4PMP   H164  164  -2.963  -1.146   0.504
    4PMP   H165  165  -3.027  -1.361   0.591
    4PMP   H166  166  -3.084  -1.457   0.807
    4PMP   H167  167  -3.197  -1.487   1.018
    4PMP   H168  168  -3.426  -1.509   1.101
    4PMP   H169  169  -3.632  -1.614   1.100
    4PMP   H170  170  -3.589  -1.916   1.135
    4PMP   H171  171  -3.549  -1.792   1.253
    4PMP   H172  172  -3.718  -1.820   1.208
    4PMP   H173  173  -3.789  -1.764   0.976
    4PMP   H174  174  -3.459  -1.894   0.910
    4PMP   H175  175  -3.232  -1.870   0.822
    4PMP   H176  176  -2.999  -1.866   0.903
    5CAP   C177  177   0.717  -0.468   0.077
    5CAP   O178  178   0.671  -0.347   0.136
    5CAP   H179  179   0.642  -0.499   0.003
    5CAP   H180  180   0.720  -0.545   0.155
    5CAP   H181  181   0.815  -0.460   0.031
    6CAP   C182  182  -3.419  -1.484   0.678
    6CAP   C183  183  -3.570  -1.505   0.694
    6CAP   C184  184  -3.633  -1.372   0.738
    6CAP   C185  185  -3.625  -1.555   0.561
    6CAP   O186  186  -3.586  -1.602   0.800
    6CAP   C187  187  -3.705  -1.652   0.839
    6CAP   O188  188  -3.812  -1.631   0.785
    6CAP   H189  189  -3.396  -1.411   0.600
    6CAP   H190  190  -3.374  -1.447   0.771
    6CAP   H191  191  -3.368  -1.578   0.654
    6CAP   H192  192  -3.596  -1.343   0.836
    6CAP   H193  193  -3.742  -1.381   0.747
    6CAP   H194  194  -3.611  -1.292   0.666
    6CAP   H195  195  -3.584  -1.654   0.536
    6CAP   H196  196  -3.734  -1.565   0.562
    6CAP   H197  197  -3.600  -1.486   0.479
  5.0000000  5.0000000  5.0000000
