Generated by Interchange
197
    1PMP     C1    1   0.209   0.499  -0.019
    1PMP     O2    2   0.088   0.426  -0.024
    1PMP     C3    3   0.096   0.290  -0.015
    1PMP     C4    4   0.213   0.216   0.002
    1PMP     C5    5   0.210   0.076   0.009
    1PMP     C6    6   0.333  -0.003   0.027
    1PMP     C7    7   0.449   0.027  -0.048
    1PMP     C8    8   0.566  -0.048  -0.033
    1PMP     C9    9   0.569  -0.155   0.057
    1PMP    C10   10   0.690  -0.242   0.058
    1PMP    O11   11   0.789  -0.222  -0.010
    1PMP    C12   12   0.456  -0.185   0.132
    1PMP    C13   13   0.339  -0.110   0.117
    1PMP    C14   14   0.084   0.012  -0.000
    1PMP    C15   15  -0.035   0.084  -0.017
    1PMP    C16   16  -0.165   0.016  -0.027
    1PMP    C17   17  -0.180  -0.101  -0.103
    1PMP    C18   18  -0.303  -0.166  -0.111
    1PMP    C19   19  -0.414  -0.115  -0.043
    1PMP    C20   20  -0.545  -0.192  -0.048
    1PMP    C21   21  -0.649  -0.116  -0.130
    1PMP    N22   22  -0.598  -0.226   0.084
    1PMP    C23   23  -0.401   0.002   0.032
    1PMP    C24   24  -0.277   0.066   0.041
    1PMP    C25   25  -0.026   0.224  -0.025
    1PMP    H26   26   0.275   0.472  -0.102
    1PMP    H27   27   0.185   0.605  -0.028
    1PMP    H28   28   0.260   0.485   0.078
    1PMP    H29   29   0.309   0.266   0.012
    1PMP    H30   30   0.448   0.107  -0.122
    1PMP    H31   31   0.653  -0.024  -0.094
    1PMP    H32   32   0.455  -0.269   0.202
    1PMP    H33   33   0.252  -0.136   0.177
    1PMP    H34   34   0.080  -0.097   0.006
    1PMP    H35   35  -0.095  -0.143  -0.157
    1PMP    H36   36  -0.310  -0.258  -0.169
    1PMP    H37   37  -0.528  -0.288  -0.097
    1PMP    H38   38  -0.673  -0.019  -0.086
    1PMP    H39   39  -0.612  -0.097  -0.232
    1PMP    H40   40  -0.742  -0.173  -0.138
    1PMP    H41   41  -0.695  -0.252   0.081
    1PMP    H42   42  -0.485   0.040   0.089
    1PMP    H43   43  -0.269   0.153   0.105
    1PMP    H44   44  -0.116   0.283  -0.040
    2PMP    C45   45  -0.437  -1.159   0.352
    2PMP    O46   46  -0.570  -1.168   0.402
    2PMP    C47   47  -0.644  -1.053   0.401
    2PMP    C48   48  -0.603  -0.928   0.355
    2PMP    C49   49  -0.689  -0.817   0.360
    2PMP    C50   50  -0.647  -0.684   0.313
    2PMP    C51   51  -0.522  -0.632   0.346
    2PMP    C52   52  -0.484  -0.505   0.302
    2PMP    C53   53  -0.571  -0.427   0.224
    2PMP    C54   54  -0.517  -0.299   0.170
    2PMP    O55   55  -0.403  -0.267   0.199
    2PMP    C56   56  -0.696  -0.478   0.191
    2PMP    C57   57  -0.734  -0.605   0.235
    2PMP    C58   58  -0.818  -0.836   0.412
    2PMP    C59   59  -0.862  -0.960   0.459
    2PMP    C60   60  -0.998  -0.977   0.513
    2PMP    C61   61  -1.054  -0.880   0.597
    2PMP    C62   62  -1.184  -0.895   0.647
    2PMP    C63   63  -1.260  -1.007   0.614
    2PMP    C64   64  -1.402  -1.019   0.664
    2PMP    C65   65  -1.411  -1.129   0.770
    2PMP    N66   66  -1.500  -1.038   0.559
    2PMP    C67   67  -1.204  -1.105   0.530
    2PMP    C68   68  -1.076  -1.089   0.479
    2PMP    C69   69  -0.773  -1.068   0.453
    2PMP    H70   70  -0.377  -1.090   0.412
    2PMP    H71   71  -0.392  -1.258   0.360
    2PMP    H72   72  -0.437  -1.130   0.246
    2PMP    H73   73  -0.503  -0.915   0.314
    2PMP    H74   74  -0.452  -0.689   0.407
    2PMP    H75   75  -0.385  -0.468   0.327
    2PMP    H76   76  -0.768  -0.424   0.130
    2PMP    H77   77  -0.832  -0.643   0.206
    2PMP    H78   78  -0.886  -0.751   0.416
    2PMP    H79   79  -0.998  -0.791   0.625
    2PMP    H80   80  -1.225  -0.816   0.710
    2PMP    H81   81  -1.430  -0.924   0.712
    2PMP    H82   82  -1.387  -1.227   0.729
    2PMP    H83   83  -1.343  -1.109   0.853
    2PMP    H84   84  -1.513  -1.135   0.811
    2PMP    H85   85  -1.588  -1.072   0.594
    2PMP    H86   86  -1.264  -1.190   0.499
    2PMP    H87   87  -1.038  -1.163   0.410
    2PMP    H88   88  -0.803  -1.166   0.490
    3PMP    C89   89  -1.994  -0.221   0.319
    3PMP    O90   90  -2.115  -0.295   0.315
    3PMP    C91   91  -2.105  -0.431   0.331
    3PMP    C92   92  -1.988  -0.503   0.353
    3PMP    C93   93  -1.991  -0.643   0.367
    3PMP    C94   94  -1.869  -0.722   0.389
    3PMP    C95   95  -1.753  -0.698   0.315
    3PMP    C96   96  -1.638  -0.774   0.336
    3PMP    C97   97  -1.636  -0.877   0.431
    3PMP    C98   98  -1.506  -0.945   0.456
    3PMP    O99   99  -1.409  -0.910   0.390
    3PMP   C100  100  -1.752  -0.903   0.505
    3PMP   C101  101  -1.866  -0.825   0.484
    3PMP   C102  102  -2.115  -0.708   0.360
    3PMP   C103  103  -2.235  -0.637   0.338
    3PMP   C104  104  -2.363  -0.708   0.331
    3PMP   C105  105  -2.375  -0.830   0.262
    3PMP   C106  106  -2.496  -0.898   0.256
    3PMP   C107  107  -2.610  -0.845   0.319
    3PMP   C108  108  -2.739  -0.923   0.316
    3PMP   C109  109  -2.842  -0.852   0.228
    3PMP   N110  110  -2.794  -0.952   0.448
    3PMP   C111  111  -2.600  -0.724   0.387
    3PMP   C112  112  -2.478  -0.657   0.394
    3PMP   C113  113  -2.227  -0.498   0.324
    3PMP   H114  114  -1.927  -0.251   0.238
    3PMP   H115  115  -2.019  -0.116   0.304
    3PMP   H116  116  -1.945  -0.230   0.416
    3PMP   H117  117  -1.892  -0.452   0.361
    3PMP   H118  118  -1.750  -0.620   0.240
    3PMP   H119  119  -1.548  -0.751   0.278
    3PMP   H120  120  -1.757  -0.979   0.582
    3PMP   H121  121  -1.954  -0.846   0.545
    3PMP   H122  122  -2.120  -0.816   0.372
    3PMP   H123  123  -2.289  -0.874   0.212
    3PMP   H124  124  -2.501  -0.994   0.205
    3PMP   H125  125  -2.720  -1.022   0.272
    3PMP   H126  126  -2.869  -0.754   0.267
    3PMP   H127  127  -2.803  -0.839   0.126
    3PMP   H128  128  -2.934  -0.911   0.221
    3PMP   H129  129  -2.891  -0.978   0.446
    3PMP   H130  130  -2.685  -0.683   0.441
    3PMP   H131  131  -2.472  -0.565   0.452
    3PMP   H132  132  -2.317  -0.441   0.305
    4PMP   C133  133  -2.631  -1.865   0.773
    4PMP   O134  134  -2.764  -1.872   0.822
    4PMP   C135  135  -2.839  -1.759   0.814
    4PMP   C136  136  -2.799  -1.636   0.761
    4PMP   C137  137  -2.886  -1.526   0.758
    4PMP   C138  138  -2.845  -1.395   0.704
    4PMP   C139  139  -2.720  -1.340   0.737
    4PMP   C140  140  -2.682  -1.215   0.685
    4PMP   C141  141  -2.768  -1.144   0.601
    4PMP   C142  142  -2.714  -1.018   0.540
    4PMP   O143  143  -2.599  -0.985   0.568
    4PMP   C144  144  -2.893  -1.197   0.569
    4PMP   C145  145  -2.930  -1.322   0.620
    4PMP   C146  146  -3.016  -1.543   0.809
    4PMP   C147  147  -3.059  -1.665   0.863
    4PMP   C148  148  -3.195  -1.680   0.917
    4PMP   C149  149  -3.251  -1.580   0.998
    4PMP   C150  150  -3.381  -1.592   1.047
    4PMP   C151  151  -3.458  -1.705   1.016
    4PMP   C152  152  -3.603  -1.711   1.060
    4PMP   C153  153  -3.618  -1.817   1.170
    4PMP   N154  154  -3.697  -1.733   0.951
    4PMP   C155  155  -3.402  -1.807   0.938
    4PMP   C156  156  -3.272  -1.793   0.888
    4PMP   C157  157  -2.969  -1.772   0.864
    4PMP   H158  158  -2.572  -1.793   0.829
    4PMP   H159  159  -2.585  -1.964   0.787
    4PMP   H160  160  -2.630  -1.843   0.666
    4PMP   H161  161  -2.699  -1.624   0.720
    4PMP   H162  162  -2.652  -1.392   0.803
    4PMP   H163  163  -2.584  -1.176   0.710
    4PMP   H164  164  -2.963  -1.148   0.504
    4PMP   H165  165  -3.027  -1.362   0.592
    4PMP   H166  166  -3.085  -1.459   0.807
    4PMP   H167  167  -3.195  -1.490   1.023
    4PMP   H168  168  -3.423  -1.510   1.106
    4PMP   H169  169  -3.631  -1.614   1.103
    4PMP   H170  170  -3.591  -1.917   1.134
    4PMP   H171  171  -3.553  -1.794   1.255
    4PMP   H172  172  -3.721  -1.822   1.206
    4PMP   H173  173  -3.789  -1.763   0.978
    4PMP   H174  174  -3.460  -1.894   0.911
    4PMP   H175  175  -3.233  -1.871   0.823
    4PMP   H176  176  -2.998  -1.868   0.906
    5CAP   C177  177   0.717  -0.472   0.077
    5CAP   O178  178   0.663  -0.353   0.131
    5CAP   H179  179   0.649  -0.508  -0.001
    5CAP   H180  180   0.721  -0.548   0.156
    5CAP   H181  181   0.818  -0.459   0.035
    6CAP   C182  182  -3.420  -1.486   0.678
    6CAP   C183  183  -3.572  -1.505   0.695
    6CAP   C184  184  -3.634  -1.372   0.736
    6CAP   C185  185  -3.627  -1.558   0.562
    6CAP   O186  186  -3.587  -1.600   0.803
    6CAP   C187  187  -3.706  -1.652   0.840
    6CAP   O188  188  -3.813  -1.633   0.785
    6CAP   H189  189  -3.397  -1.414   0.599
    6CAP   H190  190  -3.375  -1.449   0.771
    6CAP   H191  191  -3.371  -1.580   0.654
    6CAP   H192  192  -3.597  -1.341   0.834
    6CAP   H193  193  -3.743  -1.380   0.745
    6CAP   H194  194  -3.612  -1.293   0.664
    6CAP   H195  195  -3.587  -1.657   0.540
    6CAP   H196  196  -3.736  -1.567   0.564
    6CAP   H197  197  -3.602  -1.491   0.479
  5.0000000  5.0000000  5.0000000
