Generated by Interchange
197
    1PMP     C1    1   0.207   0.500  -0.017
    1PMP     O2    2   0.086   0.425  -0.023
    1PMP     C3    3   0.095   0.289  -0.015
    1PMP     C4    4   0.212   0.215   0.000
    1PMP     C5    5   0.209   0.074   0.007
    1PMP     C6    6   0.333  -0.005   0.023
    1PMP     C7    7   0.450   0.027  -0.049
    1PMP     C8    8   0.568  -0.047  -0.032
    1PMP     C9    9   0.571  -0.155   0.056
    1PMP    C10   10   0.695  -0.237   0.062
    1PMP    O11   11   0.795  -0.216  -0.005
    1PMP    C12   12   0.456  -0.189   0.127
    1PMP    C13   13   0.338  -0.114   0.111
    1PMP    C14   14   0.084   0.011  -0.002
    1PMP    C15   15  -0.036   0.083  -0.017
    1PMP    C16   16  -0.166   0.014  -0.027
    1PMP    C17   17  -0.181  -0.104  -0.102
    1PMP    C18   18  -0.303  -0.169  -0.109
    1PMP    C19   19  -0.415  -0.118  -0.042
    1PMP    C20   20  -0.545  -0.193  -0.045
    1PMP    C21   21  -0.647  -0.116  -0.129
    1PMP    N22   22  -0.596  -0.224   0.088
    1PMP    C23   23  -0.401   0.000   0.033
    1PMP    C24   24  -0.278   0.064   0.041
    1PMP    C25   25  -0.027   0.223  -0.024
    1PMP    H26   26   0.273   0.475  -0.101
    1PMP    H27   27   0.181   0.606  -0.024
    1PMP    H28   28   0.258   0.485   0.079
    1PMP    H29   29   0.308   0.265   0.009
    1PMP    H30   30   0.449   0.108  -0.121
    1PMP    H31   31   0.656  -0.020  -0.091
    1PMP    H32   32   0.454  -0.274   0.195
    1PMP    H33   33   0.251  -0.144   0.169
    1PMP    H34   34   0.079  -0.098   0.003
    1PMP    H35   35  -0.096  -0.146  -0.155
    1PMP    H36   36  -0.310  -0.262  -0.165
    1PMP    H37   37  -0.530  -0.290  -0.093
    1PMP    H38   38  -0.671  -0.018  -0.086
    1PMP    H39   39  -0.609  -0.100  -0.230
    1PMP    H40   40  -0.741  -0.172  -0.137
    1PMP    H41   41  -0.694  -0.249   0.087
    1PMP    H42   42  -0.485   0.038   0.090
    1PMP    H43   43  -0.270   0.152   0.105
    1PMP    H44   44  -0.118   0.283  -0.036
    2PMP    C45   45  -0.437  -1.160   0.352
    2PMP    O46   46  -0.571  -1.168   0.400
    2PMP    C47   47  -0.645  -1.053   0.399
    2PMP    C48   48  -0.603  -0.928   0.354
    2PMP    C49   49  -0.689  -0.817   0.358
    2PMP    C50   50  -0.646  -0.684   0.312
    2PMP    C51   51  -0.519  -0.633   0.345
    2PMP    C52   52  -0.480  -0.506   0.301
    2PMP    C53   53  -0.567  -0.427   0.225
    2PMP    C54   54  -0.514  -0.297   0.173
    2PMP    O55   55  -0.400  -0.264   0.203
    2PMP    C56   56  -0.692  -0.477   0.190
    2PMP    C57   57  -0.731  -0.604   0.234
    2PMP    C58   58  -0.818  -0.835   0.410
    2PMP    C59   59  -0.863  -0.959   0.456
    2PMP    C60   60  -0.999  -0.976   0.510
    2PMP    C61   61  -1.056  -0.878   0.594
    2PMP    C62   62  -1.185  -0.893   0.645
    2PMP    C63   63  -1.260  -1.006   0.613
    2PMP    C64   64  -1.402  -1.018   0.663
    2PMP    C65   65  -1.411  -1.125   0.771
    2PMP    N66   66  -1.499  -1.040   0.556
    2PMP    C67   67  -1.205  -1.104   0.530
    2PMP    C68   68  -1.076  -1.088   0.478
    2PMP    C69   69  -0.774  -1.067   0.450
    2PMP    H70   70  -0.378  -1.090   0.413
    2PMP    H71   71  -0.392  -1.259   0.363
    2PMP    H72   72  -0.434  -1.133   0.246
    2PMP    H73   73  -0.503  -0.915   0.313
    2PMP    H74   74  -0.450  -0.691   0.405
    2PMP    H75   75  -0.380  -0.470   0.326
    2PMP    H76   76  -0.763  -0.423   0.129
    2PMP    H77   77  -0.829  -0.641   0.204
    2PMP    H78   78  -0.886  -0.750   0.413
    2PMP    H79   79  -1.000  -0.789   0.621
    2PMP    H80   80  -1.227  -0.814   0.707
    2PMP    H81   81  -1.432  -0.922   0.708
    2PMP    H82   82  -1.386  -1.224   0.732
    2PMP    H83   83  -1.342  -1.103   0.853
    2PMP    H84   84  -1.513  -1.130   0.812
    2PMP    H85   85  -1.587  -1.074   0.590
    2PMP    H86   86  -1.264  -1.190   0.500
    2PMP    H87   87  -1.038  -1.164   0.410
    2PMP    H88   88  -0.805  -1.165   0.486
    3PMP    C89   89  -1.997  -0.224   0.321
    3PMP    O90   90  -2.117  -0.300   0.318
    3PMP    C91   91  -2.106  -0.434   0.332
    3PMP    C92   92  -1.989  -0.506   0.353
    3PMP    C93   93  -1.991  -0.646   0.368
    3PMP    C94   94  -1.868  -0.723   0.390
    3PMP    C95   95  -1.751  -0.697   0.316
    3PMP    C96   96  -1.636  -0.772   0.338
    3PMP    C97   97  -1.634  -0.876   0.431
    3PMP    C98   98  -1.505  -0.946   0.454
    3PMP    O99   99  -1.408  -0.913   0.386
    3PMP   C100  100  -1.749  -0.902   0.505
    3PMP   C101  101  -1.864  -0.827   0.484
    3PMP   C102  102  -2.115  -0.712   0.361
    3PMP   C103  103  -2.235  -0.642   0.340
    3PMP   C104  104  -2.363  -0.713   0.334
    3PMP   C105  105  -2.375  -0.835   0.265
    3PMP   C106  106  -2.497  -0.902   0.259
    3PMP   C107  107  -2.610  -0.848   0.320
    3PMP   C108  108  -2.740  -0.924   0.317
    3PMP   C109  109  -2.840  -0.852   0.226
    3PMP   N110  110  -2.797  -0.950   0.449
    3PMP   C111  111  -2.600  -0.726   0.389
    3PMP   C112  112  -2.477  -0.660   0.396
    3PMP   C113  113  -2.228  -0.503   0.326
    3PMP   H114  114  -1.930  -0.253   0.239
    3PMP   H115  115  -2.023  -0.119   0.306
    3PMP   H116  116  -1.947  -0.232   0.418
    3PMP   H117  117  -1.893  -0.455   0.360
    3PMP   H118  118  -1.749  -0.618   0.242
    3PMP   H119  119  -1.546  -0.746   0.281
    3PMP   H120  120  -1.754  -0.979   0.582
    3PMP   H121  121  -1.952  -0.849   0.545
    3PMP   H122  122  -2.119  -0.820   0.373
    3PMP   H123  123  -2.289  -0.880   0.216
    3PMP   H124  124  -2.502  -0.998   0.208
    3PMP   H125  125  -2.722  -1.024   0.274
    3PMP   H126  126  -2.867  -0.753   0.265
    3PMP   H127  127  -2.798  -0.839   0.126
    3PMP   H128  128  -2.933  -0.910   0.217
    3PMP   H129  129  -2.893  -0.979   0.445
    3PMP   H130  130  -2.686  -0.685   0.442
    3PMP   H131  131  -2.472  -0.569   0.454
    3PMP   H132  132  -2.318  -0.445   0.309
    4PMP   C133  133  -2.631  -1.864   0.777
    4PMP   O134  134  -2.766  -1.870   0.822
    4PMP   C135  135  -2.841  -1.757   0.813
    4PMP   C136  136  -2.799  -1.634   0.761
    4PMP   C137  137  -2.886  -1.524   0.757
    4PMP   C138  138  -2.844  -1.394   0.703
    4PMP   C139  139  -2.719  -1.339   0.735
    4PMP   C140  140  -2.681  -1.215   0.684
    4PMP   C141  141  -2.768  -1.142   0.600
    4PMP   C142  142  -2.717  -1.015   0.542
    4PMP   O143  143  -2.605  -0.977   0.575
    4PMP   C144  144  -2.892  -1.197   0.567
    4PMP   C145  145  -2.929  -1.321   0.618
    4PMP   C146  146  -3.017  -1.541   0.807
    4PMP   C147  147  -3.061  -1.662   0.860
    4PMP   C148  148  -3.197  -1.677   0.914
    4PMP   C149  149  -3.255  -1.577   0.993
    4PMP   C150  150  -3.384  -1.590   1.043
    4PMP   C151  151  -3.459  -1.705   1.014
    4PMP   C152  152  -3.603  -1.712   1.060
    4PMP   C153  153  -3.614  -1.816   1.171
    4PMP   N154  154  -3.698  -1.735   0.950
    4PMP   C155  155  -3.402  -1.806   0.936
    4PMP   C156  156  -3.274  -1.791   0.885
    4PMP   C157  157  -2.971  -1.769   0.862
    4PMP   H158  158  -2.574  -1.791   0.835
    4PMP   H159  159  -2.586  -1.962   0.792
    4PMP   H160  160  -2.627  -1.842   0.670
    4PMP   H161  161  -2.699  -1.622   0.721
    4PMP   H162  162  -2.650  -1.391   0.801
    4PMP   H163  163  -2.583  -1.175   0.709
    4PMP   H164  164  -2.962  -1.148   0.501
    4PMP   H165  165  -3.026  -1.362   0.589
    4PMP   H166  166  -3.086  -1.456   0.804
    4PMP   H167  167  -3.200  -1.486   1.016
    4PMP   H168  168  -3.428  -1.508   1.100
    4PMP   H169  169  -3.633  -1.615   1.102
    4PMP   H170  170  -3.586  -1.917   1.137
    4PMP   H171  171  -3.547  -1.790   1.254
    4PMP   H172  172  -3.716  -1.822   1.211
    4PMP   H173  173  -3.790  -1.764   0.978
    4PMP   H174  174  -3.461  -1.894   0.909
    4PMP   H175  175  -3.234  -1.869   0.820
    4PMP   H176  176  -3.001  -1.865   0.904
    5CAP   C177  177   0.713  -0.467   0.078
    5CAP   O178  178   0.672  -0.346   0.140
    5CAP   H179  179   0.636  -0.495   0.006
    5CAP   H180  180   0.718  -0.545   0.154
    5CAP   H181  181   0.810  -0.460   0.028
    6CAP   C182  182  -3.419  -1.485   0.680
    6CAP   C183  183  -3.570  -1.506   0.695
    6CAP   C184  184  -3.633  -1.373   0.738
    6CAP   C185  185  -3.625  -1.556   0.562
    6CAP   O186  186  -3.587  -1.603   0.801
    6CAP   C187  187  -3.706  -1.652   0.841
    6CAP   O188  188  -3.814  -1.628   0.789
    6CAP   H189  189  -3.396  -1.412   0.601
    6CAP   H190  190  -3.374  -1.448   0.773
    6CAP   H191  191  -3.368  -1.579   0.656
    6CAP   H192  192  -3.598  -1.344   0.838
    6CAP   H193  193  -3.742  -1.381   0.744
    6CAP   H194  194  -3.608  -1.293   0.668
    6CAP   H195  195  -3.584  -1.655   0.538
    6CAP   H196  196  -3.734  -1.567   0.563
    6CAP   H197  197  -3.599  -1.488   0.480
  5.0000000  5.0000000  5.0000000
