FOO
 3367
    1MOM     C1    1   0.557   0.898   3.231
    1MOM     O2    2   0.546   0.770   3.167
    1MOM     C3    3   0.650   0.683   3.183
    1MOM     C4    4   0.727   0.674   3.300
    1MOM     C5    5   0.835   0.585   3.307
    1MOM     C6    6   0.870   0.505   3.197
    1MOM     C7    7   0.993   0.425   3.205
    1MOM     C8    8   1.012   0.331   3.307
    1MOM     C9    9   1.130   0.254   3.316
    1MOM    C10   10   1.146   0.149   3.418
    1MOM    O11   11   1.068   0.149   3.513
    1MOM    C12   12   1.231   0.278   3.221
    1MOM    C13   13   1.215   0.373   3.120
    1MOM    C14   14   1.095   0.445   3.111
    1MOM    C15   15   0.789   0.509   3.081
    1MOM    C16   16   0.812   0.423   2.965
    1MOM    C17   17   0.843   0.480   2.840
    1MOM    C18   18   0.864   0.401   2.727
    1MOM    C19   19   0.904   0.467   2.596
    1MOM    C20   20   0.807   0.433   2.482
    1MOM    N21   21   1.038   0.426   2.558
    1MOM    C22   22   0.854   0.262   2.739
    1MOM    C23   23   0.823   0.203   2.863
    1MOM    C24   24   0.804   0.284   2.975
    1MOM    C25   25   0.680   0.598   3.077
    1MOM    H26   26   0.659   0.935   3.213
    1MOM    H27   27   0.535   0.882   3.337
    1MOM    H28   28   0.482   0.961   3.183
    1MOM    H29   29   0.704   0.735   3.387
    1MOM    H30   30   0.895   0.582   3.398
    1MOM    H31   31   0.932   0.316   3.379
    1MOM    H32   32   1.324   0.221   3.224
    1MOM    H33   33   1.293   0.390   3.047
    1MOM    H34   34   1.083   0.516   3.030
    1MOM    H35   35   0.853   0.588   2.833
    1MOM    H36   36   0.902   0.576   2.608
    1MOM    H37   37   0.816   0.326   2.464
    1MOM    H38   38   0.708   0.463   2.517
    1MOM    H39   39   0.841   0.493   2.397
    1MOM    H40   40   1.049   0.360   2.483
    1MOM    H41   41   0.871   0.197   2.653
    1MOM    H42   42   0.816   0.095   2.871
    1MOM    H43   43   0.781   0.238   3.071
    1MOM    H44   44   0.618   0.603   2.988
    2MOM    C45   45   2.090   0.684   2.812
    2MOM    O46   46   1.993   0.754   2.732
    2MOM    C47   47   1.881   0.686   2.691
    2MOM    C48   48   1.838   0.562   2.741
    2MOM    C49   49   1.721   0.502   2.692
    2MOM    C50   50   1.645   0.565   2.593
    2MOM    C51   51   1.526   0.496   2.543
    2MOM    C52   52   1.401   0.514   2.604
    2MOM    C53   53   1.285   0.453   2.552
    2MOM    C54   54   1.153   0.483   2.611
    2MOM    O55   55   1.142   0.566   2.700
    2MOM    C56   56   1.300   0.369   2.440
    2MOM    C57   57   1.424   0.349   2.380
    2MOM    C58   58   1.537   0.413   2.431
    2MOM    C59   59   1.688   0.689   2.541
    2MOM    C60   60   1.618   0.760   2.432
    2MOM    C61   61   1.690   0.796   2.317
    2MOM    C62   62   1.630   0.866   2.212
    2MOM    C63   63   1.713   0.903   2.091
    2MOM    C64   64   1.714   1.054   2.066
    2MOM    N65   65   1.663   0.836   1.973
    2MOM    C66   66   1.495   0.900   2.222
    2MOM    C67   67   1.422   0.865   2.336
    2MOM    C68   68   1.483   0.796   2.440
    2MOM    C69   69   1.805   0.747   2.592
    2MOM    H70   70   2.116   0.592   2.757
    2MOM    H71   71   2.043   0.665   2.908
    2MOM    H72   72   2.175   0.752   2.820
    2MOM    H73   73   1.893   0.510   2.818
    2MOM    H74   74   1.690   0.406   2.731
    2MOM    H75   75   1.394   0.579   2.690
    2MOM    H76   76   1.214   0.320   2.395
    2MOM    H77   77   1.433   0.284   2.293
    2MOM    H78   78   1.634   0.400   2.384
    2MOM    H79   79   1.795   0.767   2.310
    2MOM    H80   80   1.817   0.873   2.108
    2MOM    H81   81   1.611   1.085   2.050
    2MOM    H82   82   1.759   1.099   2.155
    2MOM    H83   83   1.776   1.069   1.976
    2MOM    H84   84   1.596   0.885   1.914
    2MOM    H85   85   1.445   0.953   2.142
    2MOM    H86   86   1.317   0.894   2.344
    2MOM    H87   87   1.425   0.772   2.529
    2MOM    H88   88   1.839   0.843   2.553
    3MOM    C89   89   1.445  -0.131   1.469
    3MOM    O90   90   1.573  -0.075   1.503
    3MOM    C91   91   1.578   0.055   1.546
    3MOM    C92   92   1.466   0.135   1.578
    3MOM    C93   93   1.483   0.268   1.616
    3MOM    C94   94   1.611   0.326   1.622
    3MOM    C95   95   1.620   0.469   1.649
    3MOM    C96   96   1.653   0.519   1.776
    3MOM    C97   97   1.659   0.657   1.801
    3MOM    C98   98   1.700   0.709   1.933
    3MOM    O99   99   1.770   0.642   2.008
    3MOM   C100  100   1.627   0.746   1.696
    3MOM   C101  101   1.594   0.697   1.570
    3MOM   C102  102   1.591   0.559   1.546
    3MOM   C103  103   1.724   0.246   1.591
    3MOM   C104  104   1.862   0.297   1.590
    3MOM   C105  105   1.935   0.295   1.471
    3MOM   C106  106   2.070   0.334   1.467
    3MOM   C107  107   2.146   0.330   1.336
    3MOM   C108  108   2.259   0.227   1.341
    3MOM   N109  109   2.202   0.461   1.307
    3MOM   C110  110   2.130   0.378   1.587
    3MOM   C111  111   2.058   0.381   1.706
    3MOM   C112  112   1.924   0.340   1.708
    3MOM   C113  113   1.704   0.113   1.555
    3MOM   H114  114   1.401  -0.065   1.394
    3MOM   H115  115   1.387  -0.136   1.562
    3MOM   H116  116   1.467  -0.230   1.428
    3MOM   H117  117   1.366   0.095   1.574
    3MOM   H118  118   1.396   0.328   1.640
    3MOM   H119  119   1.675   0.449   1.856
    3MOM   H120  120   1.632   0.853   1.711
    3MOM   H121  121   1.571   0.765   1.489
    3MOM   H122  122   1.565   0.522   1.448
    3MOM   H123  123   1.887   0.262   1.380
    3MOM   H124  124   2.078   0.299   1.256
    3MOM   H125  125   2.326   0.257   1.422
    3MOM   H126  126   2.210   0.131   1.361
    3MOM   H127  127   2.307   0.230   1.243
    3MOM   H128  128   2.279   0.493   1.365
    3MOM   H129  129   2.234   0.409   1.587
    3MOM   H130  130   2.106   0.413   1.798
    3MOM   H131  131   1.870   0.340   1.801
    3MOM   H132  132   1.790   0.051   1.532
    4MOM   C133  133   1.893   1.532   1.200
    4MOM   O134  134   1.832   1.406   1.169
    4MOM   C135  135   1.910   1.294   1.185
    4MOM   C136  136   2.013   1.281   1.280
    4MOM   C137  137   2.089   1.164   1.286
    4MOM   C138  138   2.067   1.056   1.199
    4MOM   C139  139   2.156   0.938   1.211
    4MOM   C140  140   2.107   0.806   1.211
    4MOM   C141  141   2.191   0.695   1.230
    4MOM   C142  142   2.136   0.558   1.233
    4MOM   O143  143   2.031   0.530   1.176
    4MOM   C144  144   2.329   0.718   1.247
    4MOM   C145  145   2.380   0.848   1.246
    4MOM   C146  146   2.294   0.957   1.229
    4MOM   C147  147   1.963   1.068   1.104
    4MOM   C148  148   1.934   0.971   0.998
    4MOM   C149  149   1.996   0.984   0.873
    4MOM   C150  150   1.961   0.902   0.764
    4MOM   C151  151   2.025   0.925   0.629
    4MOM   C152  152   1.922   0.965   0.524
    4MOM   N153  153   2.093   0.805   0.584
    4MOM   C154  154   1.865   0.802   0.784
    4MOM   C155  155   1.802   0.787   0.909
    4MOM   C156  156   1.835   0.873   1.014
    4MOM   C157  157   1.886   1.186   1.101
    4MOM   H158  158   1.991   1.533   1.150
    4MOM   H159  159   1.900   1.537   1.309
    4MOM   H160  160   1.826   1.607   1.159
    4MOM   H161  161   2.035   1.361   1.349
    4MOM   H162  162   2.168   1.159   1.361
    4MOM   H163  163   2.000   0.789   1.201
    4MOM   H164  164   2.398   0.635   1.260
    4MOM   H165  165   2.486   0.865   1.260
    4MOM   H166  166   2.336   1.057   1.229
    4MOM   H167  167   2.071   1.062   0.860
    4MOM   H168  168   2.098   1.007   0.636
    4MOM   H169  169   1.854   0.880   0.512
    4MOM   H170  170   1.871   1.054   0.563
    4MOM   H171  171   1.978   0.987   0.433
    4MOM   H172  172   2.039   0.733   0.538
    4MOM   H173  173   1.836   0.736   0.703
    4MOM   H174  174   1.727   0.710   0.922
    4MOM   H175  175   1.784   0.863   1.109
    4MOM   H176  176   1.807   1.195   1.027
    5CAP   C177  177   1.255  -0.047   3.497
    5CAP   O178  178   1.245   0.058   3.399
    5CAP   H179  179   1.267   0.002   3.595
    5CAP   H180  180   1.344  -0.104   3.468
    5CAP   H181  181   1.163  -0.105   3.490
    6CAP   C182  182   2.433   0.911   0.886
    6CAP   C183  183   2.392   0.791   0.798
    6CAP   C184  184   2.513   0.751   0.712
    6CAP   C185  185   2.348   0.676   0.891
    6CAP   O186  186   2.283   0.843   0.719
    6CAP   C187  187   2.212   0.762   0.636
    6CAP   O188  188   2.243   0.650   0.600
    6CAP   H189  189   2.514   0.877   0.950
    6CAP   H190  190   2.464   0.990   0.817
    6CAP   H191  191   2.343   0.939   0.942
    6CAP   H192  192   2.531   0.835   0.644
    6CAP   H193  193   2.486   0.659   0.659
    6CAP   H194  194   2.596   0.734   0.781
    6CAP   H195  195   2.256   0.710   0.940
    6CAP   H196  196   2.332   0.588   0.829
    6CAP   H197  197   2.429   0.661   0.962
    7TCM     c1  198   4.204   0.648   2.598
    7TCM    cl1  199   4.247   0.569   2.443
    7TCM    cl2  200   4.355   0.694   2.684
    7TCM     h1  201   4.145   0.738   2.578
    7TCM    cl3  202   4.110   0.534   2.700
    8TCM     c1  203   1.580   2.590   4.361
    8TCM    cl1  204   1.505   2.451   4.275
    8TCM    cl2  205   1.604   2.725   4.246
    8TCM     h1  206   1.514   2.622   4.442
    8TCM    cl3  207   1.738   2.540   4.428
    9TCM     c1  208   1.753   2.270   0.713
    9TCM    cl1  209   1.819   2.111   0.660
    9TCM    cl2  210   1.741   2.379   0.571
    9TCM     h1  211   1.654   2.256   0.757
    9TCM    cl3  212   1.864   2.343   0.833
   10TCM     c1  213   2.761   0.554   3.530
   10TCM    cl1  214   2.713   0.515   3.361
   10TCM    cl2  215   2.743   0.407   3.630
   10TCM     h1  216   2.865   0.587   3.532
   10TCM    cl3  217   2.654   0.683   3.593
   11TCM     c1  218   2.012   1.459   2.811
   11TCM    cl1  219   1.994   1.594   2.693
   11TCM    cl2  220   1.987   1.522   2.977
   11TCM     h1  221   1.938   1.381   2.789
   11TCM    cl3  222   2.178   1.391   2.797
   12TCM     c1  223   4.961   1.492   4.822
   12TCM    cl1  224   5.054   1.622   4.742
   12TCM    cl2  225   5.022   1.470   4.990
   12TCM     h1  226   4.855   1.519   4.825
   12TCM    cl3  227   4.982   1.339   4.732
   13TCM     c1  228   2.640   0.779   2.314
   13TCM    cl1  229   2.546   0.931   2.327
   13TCM    cl2  230   2.618   0.706   2.152
   13TCM     h1  231   2.746   0.800   2.331
   13TCM    cl3  232   2.582   0.663   2.439
   14TCM     c1  233   3.505   3.944   4.208
   14TCM    cl1  234   3.351   3.940   4.115
   14TCM    cl2  235   3.512   4.095   4.305
   14TCM     h1  236   3.509   3.858   4.275
   14TCM    cl3  237   3.643   3.939   4.094
   15TCM     c1  238   0.158   3.981   3.433
   15TCM    cl1  239   0.050   3.909   3.557
   15TCM    cl2  240   0.215   3.853   3.322
   15TCM     h1  241   0.104   4.057   3.376
   15TCM    cl3  242   0.299   4.056   3.515
   16TCM     c1  243   3.885   1.369   2.587
   16TCM    cl1  244   4.009   1.362   2.717
   16TCM    cl2  245   3.966   1.354   2.428
   16TCM     h1  246   3.814   1.287   2.601
   16TCM    cl3  247   3.799   1.526   2.596
   17TCM     c1  248   4.903   3.061   4.206
   17TCM    cl1  249   4.871   2.886   4.221
   17TCM    cl2  250   5.078   3.088   4.175
   17TCM     h1  251   4.844   3.103   4.124
   17TCM    cl3  252   4.856   3.142   4.359
   18TCM     c1  253   0.554   2.743   1.394
   18TCM    cl1  254   0.420   2.862   1.393
   18TCM    cl2  255   0.563   2.662   1.234
   18TCM     h1  256   0.648   2.794   1.414
   18TCM    cl3  257   0.523   2.621   1.522
   19TCM     c1  258   1.399   1.803   2.033
   19TCM    cl1  259   1.231   1.804   2.097
   19TCM    cl2  260   1.415   1.676   1.908
   19TCM     h1  261   1.422   1.900   1.989
   19TCM    cl3  262   1.513   1.770   2.168
   20TCM     c1  263   4.734   4.407   0.562
   20TCM    cl1  264   4.756   4.578   0.609
   20TCM    cl2  265   4.874   4.353   0.465
   20TCM     h1  266   4.726   4.345   0.652
   20TCM    cl3  267   4.585   4.390   0.464
   21TCM     c1  268   2.447   0.137   3.765
   21TCM    cl1  269   2.462  -0.006   3.871
   21TCM    cl2  270   2.486   0.285   3.859
   21TCM     h1  271   2.516   0.129   3.681
   21TCM    cl3  272   2.279   0.147   3.704
   22TCM     c1  273   2.914   1.605   2.713
   22TCM    cl1  274   3.007   1.467   2.645
   22TCM    cl2  275   2.751   1.610   2.637
   22TCM     h1  276   2.903   1.591   2.821
   22TCM    cl3  277   3.000   1.759   2.680
   23TCM     c1  278   0.751   3.006   4.734
   23TCM    cl1  279   0.924   3.004   4.783
   23TCM    cl2  280   0.732   2.915   4.581
   23TCM     h1  281   0.691   2.959   4.812
   23TCM    cl3  282   0.699   3.176   4.711
   24TCM     c1  283   4.445   3.430   2.042
   24TCM    cl1  284   4.476   3.581   1.949
   24TCM    cl2  285   4.269   3.410   2.067
   24TCM     h1  286   4.484   3.345   1.986
   24TCM    cl3  287   4.528   3.439   2.201
   25TCM     c1  288   0.342   3.882   4.665
   25TCM    cl1  289   0.221   3.781   4.580
   25TCM    cl2  290   0.292   4.054   4.656
   25TCM     h1  291   0.349   3.852   4.770
   25TCM    cl3  292   0.501   3.863   4.585
   26TCM     c1  293   2.267   1.276   3.218
   26TCM    cl1  294   2.349   1.134   3.146
   26TCM    cl2  295   2.089   1.259   3.198
   26TCM     h1  296   2.291   1.283   3.324
   26TCM    cl3  297   2.322   1.426   3.134
   27TCM     c1  298   1.160   1.880   2.499
   27TCM    cl1  299   1.084   1.722   2.461
   27TCM    cl2  300   1.086   2.007   2.397
   27TCM     h1  301   1.145   1.904   2.604
   27TCM    cl3  302   1.336   1.871   2.463
   28TCM     c1  303   3.203   4.691   4.873
   28TCM    cl1  304   3.297   4.797   4.762
   28TCM    cl2  305   3.193   4.525   4.803
   28TCM     h1  306   3.253   4.686   4.970
   28TCM    cl3  307   3.039   4.758   4.893
   29TCM     c1  308   2.795   2.266   2.053
   29TCM    cl1  309   2.655   2.198   1.964
   29TCM    cl2  310   2.770   2.245   2.230
   29TCM     h1  311   2.886   2.214   2.023
   29TCM    cl3  312   2.810   2.441   2.016
   30TCM     c1  313   2.862   2.320   4.995
   30TCM    cl1  314   2.826   2.202   5.125
   30TCM    cl2  315   3.029   2.382   5.014
   30TCM     h1  316   2.852   2.271   4.898
   30TCM    cl3  317   2.746   2.457   5.005
   31TCM     c1  318   0.101   0.154   1.115
   31TCM    cl1  319   0.057   0.010   1.211
   31TCM    cl2  320   0.170   0.280   1.224
   31TCM     h1  321   0.175   0.127   1.039
   31TCM    cl3  322  -0.044   0.220   1.034
   32TCM     c1  323   2.896   0.707   0.916
   32TCM    cl1  324   2.774   0.589   0.976
   32TCM    cl2  325   2.829   0.873   0.926
   32TCM     h1  326   2.986   0.700   0.976
   32TCM    cl3  327   2.934   0.668   0.745
   33TCM     c1  328   3.961   3.216   1.828
   33TCM    cl1  329   3.833   3.093   1.803
   33TCM    cl2  330   4.114   3.134   1.874
   33TCM     h1  331   3.977   3.272   1.735
   33TCM    cl3  332   3.912   3.329   1.958
   34TCM     c1  333   1.013   0.927   3.562
   34TCM    cl1  334   0.895   0.980   3.438
   34TCM    cl2  335   0.973   1.008   3.717
   34TCM     h1  336   1.007   0.819   3.574
   34TCM    cl3  337   1.179   0.973   3.514
   35TCM     c1  338   0.652   0.248   4.246
   35TCM    cl1  339   0.733   0.366   4.354
   35TCM    cl2  340   0.659   0.085   4.321
   35TCM     h1  341   0.547   0.277   4.232
   35TCM    cl3  342   0.735   0.244   4.087
   36TCM     c1  343   2.808   3.699   3.276
   36TCM    cl1  344   2.921   3.597   3.371
   36TCM    cl2  345   2.898   3.839   3.210
   36TCM     h1  346   2.765   3.641   3.194
   36TCM    cl3  347   2.678   3.759   3.384
   37TCM     c1  348   0.173   1.018   2.443
   37TCM    cl1  349   0.125   0.859   2.512
   37TCM    cl2  350   0.235   0.992   2.277
   37TCM     h1  351   0.087   1.085   2.440
   37TCM    cl3  352   0.304   1.089   2.544
   38TCM     c1  353   4.988   1.878   2.004
   38TCM    cl1  354   5.102   1.842   2.138
   38TCM    cl2  355   4.992   2.054   1.967
   38TCM     h1  356   5.017   1.822   1.915
   38TCM    cl3  357   4.822   1.831   2.052
   39TCM     c1  358   1.521   3.628   2.174
   39TCM    cl1  359   1.651   3.543   2.264
   39TCM    cl2  360   1.508   3.557   2.010
   39TCM     h1  361   1.426   3.615   2.227
   39TCM    cl3  362   1.561   3.802   2.162
   40TCM     c1  363   3.744   1.498   1.983
   40TCM    cl1  364   3.640   1.364   1.924
   40TCM    cl2  365   3.740   1.503   2.163
   40TCM     h1  366   3.847   1.482   1.949
   40TCM    cl3  367   3.682   1.654   1.920
   41TCM     c1  368   0.947   2.014   1.973
   41TCM    cl1  369   1.049   2.140   2.050
   41TCM    cl2  370   0.810   2.093   1.889
   41TCM     h1  371   1.007   1.957   1.901
   41TCM    cl3  372   0.883   1.903   2.099
   42TCM     c1  373   2.272   3.704   1.647
   42TCM    cl1  374   2.421   3.651   1.563
   42TCM    cl2  375   2.131   3.618   1.576
   42TCM     h1  376   2.280   3.679   1.753
   42TCM    cl3  377   2.250   3.881   1.629
   43TCM     c1  378   1.020   4.614   0.880
   43TCM    cl1  379   0.934   4.478   0.958
   43TCM    cl2  380   1.196   4.579   0.877
   43TCM     h1  381   0.984   4.627   0.777
   43TCM    cl3  382   0.992   4.765   0.973
   44TCM     c1  383   0.144   1.185   4.381
   44TCM    cl1  384  -0.013   1.103   4.407
   44TCM    cl2  385   0.241   1.173   4.532
   44TCM     h1  386   0.197   1.138   4.298
   44TCM    cl3  387   0.113   1.358   4.345
   45TCM     c1  388   1.339   3.809   4.624
   45TCM    cl1  389   1.427   3.948   4.552
   45TCM    cl2  390   1.410   3.769   4.783
   45TCM     h1  391   1.233   3.836   4.637
   45TCM    cl3  392   1.352   3.667   4.515
   46TCM     c1  393   0.352   0.703   4.458
   46TCM    cl1  394   0.524   0.652   4.459
   46TCM    cl2  395   0.253   0.574   4.383
   46TCM     h1  396   0.319   0.721   4.560
   46TCM    cl3  397   0.335   0.854   4.362
   47TCM     c1  398   1.238   4.287   1.940
   47TCM    cl1  399   1.203   4.431   2.042
   47TCM    cl2  400   1.310   4.340   1.785
   47TCM     h1  401   1.309   4.221   1.992
   47TCM    cl3  402   1.086   4.198   1.907
   48TCM     c1  403   3.414   4.238   4.716
   48TCM    cl1  404   3.572   4.253   4.634
   48TCM    cl2  405   3.437   4.265   4.892
   48TCM     h1  406   3.344   4.313   4.676
   48TCM    cl3  407   3.348   4.074   4.690
   49TCM     c1  408   1.568   1.595   0.979
   49TCM    cl1  409   1.493   1.595   1.141
   49TCM    cl2  410   1.652   1.751   0.952
   49TCM     h1  411   1.641   1.513   0.972
   49TCM    cl3  412   1.441   1.572   0.855
   50TCM     c1  413   3.223   0.826   2.116
   50TCM    cl1  414   3.058   0.810   2.049
   50TCM    cl2  415   3.265   0.678   2.209
   50TCM     h1  416   3.295   0.839   2.034
   50TCM    cl3  417   3.230   0.968   2.225
   51TCM     c1  418   0.374   0.537   1.652
   51TCM    cl1  419   0.228   0.554   1.755
   51TCM    cl2  420   0.504   0.455   1.745
   51TCM     h1  421   0.350   0.478   1.563
   51TCM    cl3  422   0.431   0.700   1.602
   52TCM     c1  423   3.482   2.276   1.211
   52TCM    cl1  424   3.419   2.108   1.196
   52TCM    cl2  425   3.661   2.272   1.204
   52TCM     h1  426   3.444   2.337   1.129
   52TCM    cl3  427   3.430   2.345   1.368
   53TCM     c1  428   4.116   0.099   0.490
   53TCM    cl1  429   4.120  -0.079   0.512
   53TCM    cl2  430   3.953   0.148   0.432
   53TCM     h1  431   4.137   0.148   0.585
   53TCM    cl3  432   4.239   0.148   0.369
   54TCM     c1  433   4.844   1.745   3.171
   54TCM    cl1  434   4.754   1.766   3.017
   54TCM    cl2  435   4.943   1.595   3.162
   54TCM     h1  436   4.910   1.831   3.187
   54TCM    cl3  437   4.727   1.732   3.306
   55TCM     c1  438   2.039   3.492   2.298
   55TCM    cl1  439   2.204   3.540   2.247
   55TCM    cl2  440   1.988   3.594   2.436
   55TCM     h1  441   1.970   3.505   2.215
   55TCM    cl3  442   2.041   3.319   2.348
   56TCM     c1  443   0.423   0.133   4.680
   56TCM    cl1  444   0.392   0.209   4.839
   56TCM    cl2  445   0.579   0.044   4.687
   56TCM     h1  446   0.342   0.064   4.656
   56TCM    cl3  447   0.434   0.261   4.555
   57TCM     c1  448   4.679   0.748   4.425
   57TCM    cl1  449   4.677   0.925   4.395
   57TCM    cl2  450   4.551   0.670   4.326
   57TCM     h1  451   4.776   0.707   4.397
   57TCM    cl3  452   4.646   0.716   4.598
   58TCM     c1  453   3.508   4.469   1.619
   58TCM    cl1  454   3.520   4.647   1.601
   58TCM    cl2  455   3.463   4.396   1.461
   58TCM     h1  456   3.604   4.429   1.652
   58TCM    cl3  457   3.383   4.430   1.741
   59TCM     c1  458   4.644   4.621   4.592
   59TCM    cl1  459   4.611   4.490   4.709
   59TCM    cl2  460   4.786   4.577   4.491
   59TCM     h1  461   4.557   4.634   4.527
   59TCM    cl3  462   4.677   4.774   4.680
   60TCM     c1  463   3.847   4.162   1.643
   60TCM    cl1  464   3.672   4.124   1.654
   60TCM    cl2  465   3.927   4.112   1.795
   60TCM     h1  466   3.891   4.107   1.558
   60TCM    cl3  467   3.868   4.338   1.618
   61TCM     c1  468   3.645   3.857   3.130
   61TCM    cl1  469   3.664   3.802   3.300
   61TCM    cl2  470   3.781   3.966   3.088
   61TCM     h1  471   3.645   3.771   3.063
   61TCM    cl3  472   3.490   3.947   3.115
   62TCM     c1  473   0.295   0.651   3.337
   62TCM    cl1  474   0.219   0.813   3.324
   62TCM    cl2  475   0.167   0.526   3.352
   62TCM     h1  476   0.355   0.631   3.248
   62TCM    cl3  477   0.400   0.647   3.482
   63TCM     c1  478   2.882   2.318   2.822
   63TCM    cl1  479   2.946   2.314   2.990
   63TCM    cl2  480   2.720   2.395   2.822
   63TCM     h1  481   2.950   2.376   2.758
   63TCM    cl3  482   2.869   2.151   2.759
   64TCM     c1  483   3.675   2.262   2.430
   64TCM    cl1  484   3.600   2.187   2.286
   64TCM    cl2  485   3.556   2.261   2.564
   64TCM     h1  486   3.764   2.205   2.460
   64TCM    cl3  487   3.720   2.431   2.391
   65TCM     c1  488   0.025   0.663   2.134
   65TCM    cl1  489  -0.016   0.604   2.298
   65TCM    cl2  490   0.203   0.672   2.116
   65TCM     h1  491  -0.016   0.593   2.059
   65TCM    cl3  492  -0.046   0.825   2.108
   66TCM     c1  493   0.430   0.293   2.951
   66TCM    cl1  494   0.463   0.117   2.960
   66TCM    cl2  495   0.253   0.321   2.953
   66TCM     h1  496   0.477   0.344   3.036
   66TCM    cl3  497   0.497   0.359   2.799
   67TCM     c1  498   0.069   3.710   1.194
   67TCM    cl1  499  -0.103   3.753   1.165
   67TCM    cl2  500   0.125   3.785   1.347
   67TCM     h1  501   0.079   3.602   1.200
   67TCM    cl3  502   0.170   3.773   1.059
   68TCM     c1  503   1.434   3.553   0.564
   68TCM    cl1  504   1.456   3.601   0.736
   68TCM    cl2  505   1.579   3.599   0.470
   68TCM     h1  506   1.420   3.445   0.558
   68TCM    cl3  507   1.290   3.636   0.497
   69TCM     c1  508   2.666   4.583   3.928
   69TCM    cl1  509   2.518   4.642   4.011
   69TCM    cl2  510   2.713   4.700   3.801
   69TCM     h1  511   2.747   4.573   4.001
   69TCM    cl3  512   2.631   4.423   3.854
   70TCM     c1  513   4.729   1.608   0.161
   70TCM    cl1  514   4.631   1.458   0.159
   70TCM    cl2  515   4.667   1.716   0.289
   70TCM     h1  516   4.834   1.583   0.182
   70TCM    cl3  517   4.716   1.689   0.002
   71TCM     c1  518   2.992   4.823   4.540
   71TCM    cl1  519   3.059   4.661   4.504
   71TCM    cl2  520   2.817   4.807   4.577
   71TCM     h1  521   3.044   4.866   4.626
   71TCM    cl3  522   3.013   4.929   4.397
   72TCM     c1  523   3.607   4.063   2.030
   72TCM    cl1  524   3.576   4.234   1.983
   72TCM    cl2  525   3.457   3.992   2.098
   72TCM     h1  526   3.638   4.006   1.942
   72TCM    cl3  527   3.737   4.059   2.154
   73TCM     c1  528   0.891   4.953   3.283
   73TCM    cl1  529   0.753   5.066   3.303
   73TCM    cl2  530   0.976   4.989   3.129
   73TCM     h1  531   0.960   4.965   3.367
   73TCM    cl3  532   0.830   4.784   3.279
   74TCM     c1  533   0.919   1.359   2.569
   74TCM    cl1  534   0.905   1.410   2.397
   74TCM    cl2  535   0.805   1.453   2.670
   74TCM     h1  536   0.894   1.253   2.576
   74TCM    cl3  537   1.087   1.383   2.626
   75TCM     c1  538   1.361   0.582   2.090
   75TCM    cl1  539   1.208   0.567   2.183
   75TCM    cl2  540   1.342   0.713   1.968
   75TCM     h1  541   1.444   0.605   2.157
   75TCM    cl3  542   1.391   0.428   2.003
   76TCM     c1  543   2.973   0.892   3.834
   76TCM    cl1  544   2.910   0.916   4.000
   76TCM    cl2  545   2.873   0.984   3.717
   76TCM     h1  546   3.077   0.926   3.829
   76TCM    cl3  547   2.966   0.717   3.793
   77TCM     c1  548   4.647   4.943   1.034
   77TCM    cl1  549   4.651   5.075   0.913
   77TCM    cl2  550   4.685   5.008   1.197
   77TCM     h1  551   4.547   4.898   1.036
   77TCM    cl3  552   4.767   4.817   0.990
   78TCM     c1  553   0.455   4.204   0.389
   78TCM    cl1  554   0.277   4.227   0.380
   78TCM    cl2  555   0.537   4.354   0.336
   78TCM     h1  556   0.484   4.181   0.492
   78TCM    cl3  557   0.504   4.068   0.283
   79TCM     c1  558   2.395   3.374   1.954
   79TCM    cl1  559   2.453   3.541   1.922
   79TCM    cl2  560   2.528   3.277   2.024
   79TCM     h1  561   2.311   3.377   2.025
   79TCM    cl3  562   2.341   3.300   1.800
   80TCM     c1  563   0.332   3.091   0.849
   80TCM    cl1  564   0.438   3.004   0.965
   80TCM    cl2  565   0.329   3.266   0.890
   80TCM     h1  566   0.370   3.078   0.748
   80TCM    cl3  567   0.165   3.025   0.860
   81TCM     c1  568   3.089   3.815   0.917
   81TCM    cl1  569   2.991   3.685   0.992
   81TCM    cl2  570   3.032   3.974   0.976
   81TCM     h1  571   3.194   3.802   0.943
   81TCM    cl3  572   3.071   3.808   0.739
   82TCM     c1  573   3.139   3.114   4.719
   82TCM    cl1  574   3.216   2.990   4.614
   82TCM    cl2  575   3.094   3.038   4.876
   82TCM     h1  576   3.210   3.196   4.737
   82TCM    cl3  577   2.991   3.177   4.640
   83TCM     c1  578   1.263   1.167   1.817
   83TCM    cl1  579   1.268   1.207   1.643
   83TCM    cl2  580   1.386   1.041   1.854
   83TCM     h1  581   1.284   1.257   1.876
   83TCM    cl3  582   1.100   1.105   1.860
   84TCM     c1  583   1.853   2.665   4.798
   84TCM    cl1  584   1.754   2.782   4.705
   84TCM    cl2  585   1.988   2.607   4.695
   84TCM     h1  586   1.893   2.714   4.888
   84TCM    cl3  587   1.749   2.527   4.846
   85TCM     c1  588   2.404   4.058   3.802
   85TCM    cl1  589   2.246   4.077   3.721
   85TCM    cl2  590   2.492   3.920   3.729
   85TCM     h1  591   2.463   4.150   3.791
   85TCM    cl3  592   2.378   4.025   3.977
   86TCM     c1  593   0.698   0.415   4.786
   86TCM    cl1  594   0.817   0.497   4.680
   86TCM    cl2  595   0.582   0.536   4.850
   86TCM     h1  596   0.645   0.339   4.729
   86TCM    cl3  597   0.785   0.338   4.923
   87TCM     c1  598   0.996   0.823   3.087
   87TCM    cl1  599   0.938   0.993   3.091
   87TCM    cl2  600   1.120   0.796   3.214
   87TCM     h1  601   0.912   0.755   3.102
   87TCM    cl3  602   1.070   0.793   2.927
   88TCM     c1  603   4.694   3.096   3.065
   88TCM    cl1  604   4.661   2.931   3.003
   88TCM    cl2  605   4.853   3.152   3.003
   88TCM     h1  606   4.616   3.164   3.031
   88TCM    cl3  607   4.698   3.092   3.244
   89TCM     c1  608   3.163   4.869   0.307
   89TCM    cl1  609   3.009   4.905   0.222
   89TCM    cl2  610   3.297   4.856   0.188
   89TCM     h1  611   3.185   4.949   0.378
   89TCM    cl3  612   3.147   4.714   0.395
   90TCM     c1  613   1.952   0.177   3.449
   90TCM    cl1  614   1.823   0.242   3.342
   90TCM    cl2  615   1.947   0.263   3.606
   90TCM     h1  616   1.936   0.070   3.465
   90TCM    cl3  617   2.110   0.202   3.370
   91TCM     c1  618   0.822   0.737   3.886
   91TCM    cl1  619   0.800   0.600   3.999
   91TCM    cl2  620   0.709   0.869   3.930
   91TCM     h1  621   0.925   0.774   3.893
   91TCM    cl3  622   0.790   0.683   3.718
   92TCM     c1  623   1.871   0.352   2.116
   92TCM    cl1  624   1.702   0.291   2.121
   92TCM    cl2  625   1.977   0.220   2.057
   92TCM     h1  626   1.877   0.438   2.050
   92TCM    cl3  627   1.922   0.400   2.282
   93TCM     c1  628   1.221   1.364   2.215
   93TCM    cl1  629   1.324   1.224   2.169
   93TCM    cl2  630   1.158   1.441   2.066
   93TCM     h1  631   1.138   1.329   2.276
   93TCM    cl3  632   1.318   1.482   2.308
   94TCM     c1  633   1.435   1.597   0.181
   94TCM    cl1  634   1.509   1.746   0.116
   94TCM    cl2  635   1.486   1.576   0.352
   94TCM     h1  636   1.326   1.604   0.176
   94TCM    cl3  637   1.490   1.455   0.086
   95TCM     c1  638   4.315   3.051   2.185
   95TCM    cl1  639   4.371   3.135   2.334
   95TCM    cl2  640   4.299   2.876   2.219
   95TCM     h1  641   4.219   3.092   2.154
   95TCM    cl3  642   4.436   3.074   2.054
   96TCM     c1  643   2.920   4.783   1.298
   96TCM    cl1  644   2.839   4.902   1.191
   96TCM    cl2  645   2.861   4.618   1.259
   96TCM     h1  646   3.028   4.788   1.284
   96TCM    cl3  647   2.881   4.822   1.469
   97TCM     c1  648   4.420   2.400   2.728
   97TCM    cl1  649   4.596   2.436   2.724
   97TCM    cl2  650   4.393   2.240   2.805
   97TCM     h1  651   4.369   2.478   2.785
   97TCM    cl3  652   4.356   2.396   2.561
   98TCM     c1  653   4.163   0.558   3.589
   98TCM    cl1  654   4.294   0.618   3.696
   98TCM    cl2  655   4.234   0.472   3.449
   98TCM     h1  656   4.098   0.490   3.645
   98TCM    cl3  657   4.066   0.697   3.530
   99TCM     c1  658   4.265   1.152   2.999
   99TCM    cl1  659   4.089   1.170   3.030
   99TCM    cl2  660   4.349   1.129   3.156
   99TCM     h1  661   4.283   1.065   2.935
   99TCM    cl3  662   4.327   1.300   2.918
  100TCM     c1  663   2.003   0.303   3.023
  100TCM    cl1  664   1.977   0.461   3.102
  100TCM    cl2  665   2.123   0.320   2.890
  100TCM     h1  666   2.041   0.231   3.096
  100TCM    cl3  667   1.848   0.244   2.955
  101TCM     c1  668   0.132   4.445   3.369
  101TCM    cl1  669   0.279   4.365   3.305
  101TCM    cl2  670   0.022   4.322   3.439
  101TCM     h1  671   0.160   4.517   3.447
  101TCM    cl3  672   0.048   4.531   3.237
  102TCM     c1  673   0.383   1.820   4.761
  102TCM    cl1  674   0.410   1.661   4.838
  102TCM    cl2  675   0.347   1.796   4.586
  102TCM     h1  676   0.299   1.871   4.809
  102TCM    cl3  677   0.531   1.919   4.777
  103TCM     c1  678   1.036   0.037   0.119
  103TCM    cl1  679   1.054   0.213   0.148
  103TCM    cl2  680   0.949   0.012  -0.036
  103TCM     h1  681   1.135  -0.010   0.114
  103TCM    cl3  682   0.941  -0.036   0.253
  104TCM     c1  683   0.776   2.198   0.894
  104TCM    cl1  684   0.639   2.146   0.997
  104TCM    cl2  685   0.922   2.104   0.937
  104TCM     h1  686   0.751   2.182   0.789
  104TCM    cl3  687   0.807   2.373   0.923
  105TCM     c1  688   4.725   1.531   2.345
  105TCM    cl1  689   4.897   1.582   2.335
  105TCM    cl2  690   4.714   1.375   2.433
  105TCM     h1  691   4.668   1.608   2.399
  105TCM    cl3  692   4.659   1.511   2.180
  106TCM     c1  693   2.903   1.201   2.409
  106TCM    cl1  694   2.735   1.258   2.383
  106TCM    cl2  695   3.011   1.276   2.286
  106TCM     h1  696   2.936   1.229   2.509
  106TCM    cl3  697   2.909   1.022   2.393
  107TCM     c1  698   3.055   0.644   2.539
  107TCM    cl1  699   2.945   0.648   2.681
  107TCM    cl2  700   3.164   0.786   2.545
  107TCM     h1  701   3.114   0.552   2.542
  107TCM    cl3  702   2.958   0.649   2.389
  108TCM     c1  703   2.279   4.700   0.851
  108TCM    cl1  704   2.348   4.866   0.856
  108TCM    cl2  705   2.168   4.686   0.711
  108TCM     h1  706   2.360   4.627   0.842
  108TCM    cl3  707   2.187   4.670   1.002
  109TCM     c1  708   0.391   3.358   4.145
  109TCM    cl1  709   0.231   3.425   4.193
  109TCM    cl2  710   0.369   3.252   4.002
  109TCM     h1  711   0.459   3.440   4.120
  109TCM    cl3  712   0.460   3.262   4.280
  110TCM     c1  713   2.215   0.042   1.678
  110TCM    cl1  714   2.319   0.142   1.786
  110TCM    cl2  715   2.054   0.017   1.753
  110TCM     h1  716   2.203   0.093   1.582
  110TCM    cl3  717   2.294  -0.117   1.653
  111TCM     c1  718   2.485   4.960   3.400
  111TCM    cl1  719   2.311   4.918   3.413
  111TCM    cl2  720   2.572   4.896   3.543
  111TCM     h1  721   2.527   4.916   3.309
  111TCM    cl3  722   2.503   5.138   3.397
  112TCM     c1  723   3.459   3.738   4.611
  112TCM    cl1  724   3.356   3.705   4.467
  112TCM    cl2  725   3.601   3.834   4.560
  112TCM     h1  726   3.401   3.793   4.685
  112TCM    cl3  727   3.514   3.582   4.681
  113TCM     c1  728   1.512   0.164   4.576
  113TCM    cl1  729   1.498   0.026   4.690
  113TCM    cl2  730   1.365   0.173   4.474
  113TCM     h1  731   1.524   0.257   4.632
  113TCM    cl3  732   1.656   0.139   4.472
  114TCM     c1  733   3.286   3.924   1.632
  114TCM    cl1  734   3.124   3.897   1.703
  114TCM    cl2  735   3.413   3.880   1.752
  114TCM     h1  736   3.297   3.862   1.543
  114TCM    cl3  737   3.305   4.096   1.587
  115TCM     c1  738   0.075   2.450   1.982
  115TCM    cl1  739   0.177   2.565   2.075
  115TCM    cl2  740   0.179   2.363   1.864
  115TCM     h1  741   0.028   2.378   2.050
  115TCM    cl3  742  -0.052   2.541   1.894
  116TCM     c1  743   2.026   0.861   3.323
  116TCM    cl1  744   2.139   0.954   3.427
  116TCM    cl2  745   2.116   0.798   3.181
  116TCM     h1  746   1.983   0.778   3.380
  116TCM    cl3  747   1.894   0.969   3.266
  117TCM     c1  748   1.575   4.680   3.370
  117TCM    cl1  749   1.489   4.645   3.524
  117TCM    cl2  750   1.455   4.706   3.240
  117TCM     h1  751   1.637   4.770   3.382
  117TCM    cl3  752   1.680   4.541   3.328
  118TCM     c1  753   1.222   3.067   3.008
  118TCM    cl1  754   1.304   2.914   3.053
  118TCM    cl2  755   1.204   3.074   2.830
  118TCM     h1  756   1.124   3.072   3.056
  118TCM    cl3  757   1.321   3.206   3.063
  119TCM     c1  758   4.699   2.138   2.281
  119TCM    cl1  759   4.715   2.226   2.125
  119TCM    cl2  760   4.640   2.251   2.407
  119TCM     h1  761   4.628   2.056   2.270
  119TCM    cl3  762   4.859   2.074   2.331
  120TCM     c1  763   2.401   1.389   1.719
  120TCM    cl1  764   2.293   1.298   1.830
  120TCM    cl2  765   2.404   1.562   1.764
  120TCM     h1  766   2.503   1.348   1.725
  120TCM    cl3  767   2.340   1.369   1.551
  121TCM     c1  768   1.583   0.160   3.623
  121TCM    cl1  769   1.477   0.128   3.764
  121TCM    cl2  770   1.488   0.244   3.496
  121TCM     h1  771   1.667   0.223   3.654
  121TCM    cl3  772   1.644   0.005   3.558
  122TCM     c1  773   4.262   3.679   2.416
  122TCM    cl1  774   4.420   3.700   2.500
  122TCM    cl2  775   4.216   3.505   2.421
  122TCM     h1  776   4.186   3.738   2.465
  122TCM    cl3  777   4.278   3.732   2.245
  123TCM     c1  778   4.499   1.329   3.631
  123TCM    cl1  779   4.503   1.288   3.456
  123TCM    cl2  780   4.599   1.212   3.722
  123TCM     h1  781   4.538   1.430   3.645
  123TCM    cl3  782   4.330   1.322   3.690
  124TCM     c1  783   3.689   1.815   2.378
  124TCM    cl1  784   3.605   1.877   2.523
  124TCM    cl2  785   3.836   1.913   2.347
  124TCM     h1  786   3.718   1.710   2.394
  124TCM    cl3  787   3.579   1.826   2.237
  125TCM     c1  788   4.675   4.145   3.214
  125TCM    cl1  789   4.753   4.069   3.357
  125TCM    cl2  790   4.710   4.047   3.068
  125TCM     h1  791   4.567   4.151   3.229
  125TCM    cl3  792   4.741   4.310   3.191
  126TCM     c1  793   0.543   1.841   0.213
  126TCM    cl1  794   0.516   1.864   0.389
  126TCM    cl2  795   0.401   1.903   0.123
  126TCM     h1  796   0.633   1.895   0.182
  126TCM    cl3  797   0.563   1.666   0.178
  127TCM     c1  798   3.428   1.733   3.446
  127TCM    cl1  799   3.359   1.749   3.282
  127TCM    cl2  800   3.591   1.659   3.434
  127TCM     h1  801   3.435   1.831   3.493
  127TCM    cl3  802   3.323   1.626   3.545
  128TCM     c1  803   1.452   2.379   2.450
  128TCM    cl1  804   1.358   2.509   2.369
  128TCM    cl2  805   1.340   2.250   2.506
  128TCM     h1  806   1.524   2.337   2.380
  128TCM    cl3  807   1.539   2.447   2.592
  129TCM     c1  808   0.403   2.798   4.981
  129TCM    cl1  809   0.447   2.970   4.959
  129TCM    cl2  810   0.529   2.716   5.079
  129TCM     h1  811   0.307   2.792   5.032
  129TCM    cl3  812   0.391   2.719   4.820
  130TCM     c1  813   0.718   4.711   4.872
  130TCM    cl1  814   0.747   4.710   5.049
  130TCM    cl2  815   0.615   4.571   4.830
  130TCM     h1  816   0.667   4.804   4.843
  130TCM    cl3  817   0.874   4.698   4.784
  131TCM     c1  818   4.879   4.537   0.091
  131TCM    cl1  819   4.906   4.545  -0.085
  131TCM    cl2  820   5.027   4.472   0.170
  131TCM     h1  821   4.858   4.637   0.130
  131TCM    cl3  822   4.741   4.428   0.125
  132TCM     c1  823   0.833   1.519   0.350
  132TCM    cl1  824   0.886   1.372   0.438
  132TCM    cl2  825   0.965   1.577   0.244
  132TCM     h1  826   0.745   1.495   0.290
  132TCM    cl3  827   0.790   1.645   0.470
  133TCM     c1  828   2.302   0.543   3.407
  133TCM    cl1  829   2.127   0.546   3.445
  133TCM    cl2  830   2.328   0.472   3.244
  133TCM     h1  831   2.342   0.645   3.410
  133TCM    cl3  832   2.387   0.442   3.529
  134TCM     c1  833   0.506   1.574   3.152
  134TCM    cl1  834   0.553   1.728   3.231
  134TCM    cl2  835   0.634   1.525   3.035
  134TCM     h1  836   0.494   1.496   3.228
  134TCM    cl3  837   0.351   1.597   3.063
  135TCM     c1  838   0.270   4.354   4.930
  135TCM    cl1  839   0.301   4.419   4.766
  135TCM    cl2  840   0.419   4.273   4.991
  135TCM     h1  841   0.243   4.436   4.997
  135TCM    cl3  842   0.136   4.235   4.924
  136TCM     c1  843   4.158   1.187   2.112
  136TCM    cl1  844   4.279   1.273   2.215
  136TCM    cl2  845   4.036   1.305   2.054
  136TCM     h1  846   4.208   1.141   2.027
  136TCM    cl3  847   4.075   1.062   2.210
  137TCM     c1  848   1.252   0.638   1.626
  137TCM    cl1  849   1.247   0.551   1.468
  137TCM    cl2  850   1.100   0.606   1.716
  137TCM     h1  851   1.337   0.603   1.684
  137TCM    cl3  852   1.267   0.814   1.596
  138TCM     c1  853   2.220   1.791   3.133
  138TCM    cl1  854   2.101   1.866   3.022
  138TCM    cl2  855   2.234   1.892   3.281
  138TCM     h1  856   2.187   1.691   3.160
  138TCM    cl3  857   2.380   1.784   3.053
  139TCM     c1  858   2.676   3.588   3.702
  139TCM    cl1  859   2.780   3.725   3.755
  139TCM    cl2  860   2.554   3.550   3.828
  139TCM     h1  861   2.625   3.615   3.609
  139TCM    cl3  862   2.781   3.445   3.674
  140TCM     c1  863   0.648   1.328   3.530
  140TCM    cl1  864   0.639   1.252   3.367
  140TCM    cl2  865   0.570   1.489   3.524
  140TCM     h1  866   0.597   1.264   3.603
  140TCM    cl3  867   0.820   1.347   3.578
  141TCM     c1  868   0.842   4.412   1.743
  141TCM    cl1  869   0.730   4.471   1.616
  141TCM    cl2  870   0.751   4.382   1.894
  141TCM     h1  871   0.890   4.319   1.709
  141TCM    cl3  872   0.967   4.537   1.774
  142TCM     c1  873   3.527   4.264   2.464
  142TCM    cl1  874   3.705   4.271   2.480
  142TCM    cl2  875   3.475   4.093   2.451
  142TCM     h1  876   3.480   4.310   2.552
  142TCM    cl3  877   3.478   4.353   2.316
  143TCM     c1  878   0.479   2.559   3.331
  143TCM    cl1  879   0.515   2.648   3.179
  143TCM    cl2  880   0.565   2.402   3.329
  143TCM     h1  881   0.513   2.618   3.416
  143TCM    cl3  882   0.303   2.530   3.344
  144TCM     c1  883   1.682   3.877   1.620
  144TCM    cl1  884   1.631   4.049   1.620
  144TCM    cl2  885   1.654   3.807   1.783
  144TCM     h1  886   1.625   3.822   1.546
  144TCM    cl3  887   1.857   3.866   1.581
  145TCM     c1  888   1.561   1.502   2.583
  145TCM    cl1  889   1.635   1.660   2.539
  145TCM    cl2  890   1.404   1.532   2.664
  145TCM     h1  891   1.546   1.442   2.492
  145TCM    cl3  892   1.669   1.414   2.696
  146TCM     c1  893   3.886   0.061   3.902
  146TCM    cl1  894   3.819  -0.105   3.898
  146TCM    cl2  895   4.033   0.063   4.004
  146TCM     h1  896   3.911   0.093   3.800
  146TCM    cl3  897   3.763   0.173   3.970
  147TCM     c1  898   0.094   4.789   4.508
  147TCM    cl1  899   0.242   4.888   4.488
  147TCM    cl2  900  -0.049   4.894   4.485
  147TCM     h1  901   0.093   4.708   4.434
  147TCM    cl3  902   0.093   4.718   4.673
  148TCM     c1  903   1.110   1.635   0.741
  148TCM    cl1  904   0.964   1.735   0.771
  148TCM    cl2  905   1.154   1.643   0.567
  148TCM     h1  906   1.193   1.674   0.801
  148TCM    cl3  907   1.077   1.465   0.785
  149TCM     c1  908   2.631   2.823   0.084
  149TCM    cl1  909   2.694   2.967  -0.002
  149TCM    cl2  910   2.506   2.742  -0.017
  149TCM     h1  911   2.712   2.753   0.105
  149TCM    cl3  912   2.555   2.876   0.238
  150TCM     c1  913   3.654   1.404   3.177
  150TCM    cl1  914   3.494   1.448   3.108
  150TCM    cl2  915   3.762   1.349   3.045
  150TCM     h1  916   3.698   1.492   3.225
  150TCM    cl3  917   3.634   1.273   3.297
  151TCM     c1  918   3.369   0.470   1.943
  151TCM    cl1  919   3.493   0.600   1.936
  151TCM    cl2  920   3.428   0.326   1.854
  151TCM     h1  921   3.350   0.443   2.047
  151TCM    cl3  922   3.217   0.529   1.868
  152TCM     c1  923   3.663   2.563   1.541
  152TCM    cl1  924   3.708   2.683   1.668
  152TCM    cl2  925   3.789   2.435   1.534
  152TCM     h1  926   3.567   2.518   1.566
  152TCM    cl3  927   3.652   2.645   1.382
  153TCM     c1  928   2.762   4.262   2.431
  153TCM    cl1  929   2.720   4.353   2.581
  153TCM    cl2  930   2.878   4.132   2.471
  153TCM     h1  931   2.671   4.219   2.388
  153TCM    cl3  932   2.838   4.374   2.314
  154TCM     c1  933   4.338   1.067   2.530
  154TCM    cl1  934   4.168   1.051   2.584
  154TCM    cl2  935   4.373   0.941   2.407
  154TCM     h1  936   4.354   1.166   2.487
  154TCM    cl3  937   4.448   1.044   2.671
  155TCM     c1  938   1.119   2.038   4.936
  155TCM    cl1  939   1.045   2.160   5.044
  155TCM    cl2  940   1.185   1.903   5.034
  155TCM     h1  941   1.043   1.999   4.867
  155TCM    cl3  942   1.250   2.115   4.841
  156TCM     c1  943   2.362   4.587   4.434
  156TCM    cl1  944   2.530   4.650   4.433
  156TCM    cl2  945   2.336   4.487   4.287
  156TCM     h1  946   2.345   4.526   4.523
  156TCM    cl3  947   2.246   4.725   4.434
  157TCM     c1  948   2.223   0.163   0.072
  157TCM    cl1  949   2.284   0.331   0.055
  157TCM    cl2  950   2.354   0.048   0.032
  157TCM     h1  951   2.189   0.146   0.175
  157TCM    cl3  952   2.087   0.138  -0.042
  158TCM     c1  953   1.926   1.047   2.846
  158TCM    cl1  954   1.831   1.160   2.948
  158TCM    cl2  955   2.095   1.043   2.904
  158TCM     h1  956   1.883   0.947   2.850
  158TCM    cl3  957   1.924   1.106   2.676
  159TCM     c1  958   1.889   2.288   0.247
  159TCM    cl1  959   1.807   2.444   0.210
  159TCM    cl2  960   1.991   2.242   0.107
  159TCM     h1  961   1.951   2.300   0.336
  159TCM    cl3  962   1.765   2.162   0.275
  160TCM     c1  963   2.048   1.704   1.623
  160TCM    cl1  964   2.043   1.566   1.737
  160TCM    cl2  965   2.125   1.652   1.469
  160TCM     h1  966   1.947   1.739   1.603
  160TCM    cl3  967   2.144   1.836   1.697
  161TCM     c1  968   2.660   2.743   0.672
  161TCM    cl1  969   2.631   2.566   0.671
  161TCM    cl2  970   2.752   2.789   0.525
  161TCM     h1  971   2.565   2.796   0.674
  161TCM    cl3  972   2.755   2.786   0.818
  162TCM     c1  973   2.835   1.834   2.199
  162TCM    cl1  974   2.956   1.936   2.114
  162TCM    cl2  975   2.672   1.866   2.132
  162TCM     h1  976   2.861   1.729   2.187
  162TCM    cl3  977   2.836   1.876   2.374
  163TCM     c1  978   4.740   4.846   2.538
  163TCM    cl1  979   4.725   4.844   2.716
  163TCM    cl2  980   4.699   4.685   2.473
  163TCM     h1  981   4.672   4.921   2.496
  163TCM    cl3  982   4.909   4.888   2.492
  164TCM     c1  983   3.157   0.243   4.478
  164TCM    cl1  984   3.271   0.380   4.466
  164TCM    cl2  985   2.992   0.305   4.513
  164TCM     h1  986   3.156   0.187   4.384
  164TCM    cl3  987   3.209   0.135   4.612
  165TCM     c1  988   3.508   3.929   3.690
  165TCM    cl1  989   3.681   3.887   3.709
  165TCM    cl2  990   3.474   4.083   3.776
  165TCM     h1  991   3.485   3.940   3.583
  165TCM    cl3  992   3.407   3.798   3.760
  166TCM     c1  993   1.929   1.353   2.328
  166TCM    cl1  994   1.786   1.266   2.391
  166TCM    cl2  995   2.073   1.310   2.426
  166TCM     h1  996   1.946   1.326   2.224
  166TCM    cl3  997   1.902   1.530   2.341
  167TCM     c1  998   2.735   0.193   4.903
  167TCM    cl1  999   2.845   0.076   4.823
  167TCM    cl2 1000   2.700   0.138   5.071
  167TCM     h1 1001   2.781   0.292   4.906
  167TCM    cl3 1002   2.582   0.201   4.810
  168TCM     c1 1003   2.473   2.818   2.124
  168TCM    cl1 1004   2.482   2.950   2.245
  168TCM    cl2 1005   2.452   2.890   1.961
  168TCM     h1 1006   2.565   2.759   2.127
  168TCM    cl3 1007   2.332   2.713   2.162
  169TCM     c1 1008   0.893   4.784   1.510
  169TCM    cl1 1009   0.763   4.894   1.568
  169TCM    cl2 1010   1.053   4.859   1.542
  169TCM     h1 1011   0.887   4.689   1.564
  169TCM    cl3 1012   0.873   4.753   1.335
  170TCM     c1 1013   4.075   2.446   4.365
  170TCM    cl1 1014   3.917   2.424   4.448
  170TCM    cl2 1015   4.110   2.301   4.264
  170TCM     h1 1016   4.070   2.534   4.300
  170TCM    cl3 1017   4.206   2.467   4.486
  171TCM     c1 1018   1.801   4.806   4.875
  171TCM    cl1 1019   1.658   4.698   4.862
  171TCM    cl2 1020   1.761   4.943   4.984
  171TCM     h1 1021   1.885   4.750   4.916
  171TCM    cl3 1022   1.843   4.868   4.712
  172TCM     c1 1023   3.183   3.699   0.273
  172TCM    cl1 1024   3.129   3.576   0.153
  172TCM    cl2 1025   3.298   3.624   0.389
  172TCM     h1 1026   3.231   3.782   0.222
  172TCM    cl3 1027   3.040   3.760   0.363
  173TCM     c1 1028   4.816   1.121   0.186
  173TCM    cl1 1029   4.908   1.249   0.272
  173TCM    cl2 1030   4.805   1.162   0.012
  173TCM     h1 1031   4.867   1.025   0.198
  173TCM    cl3 1032   4.650   1.109   0.255
  174TCM     c1 1033   4.025   1.770   2.033
  174TCM    cl1 1034   4.052   1.664   1.891
  174TCM    cl2 1035   4.137   1.910   2.025
  174TCM     h1 1036   3.921   1.806   2.032
  174TCM    cl3 1037   4.056   1.676   2.182
  175TCM     c1 1038   3.814   1.797   4.968
  175TCM    cl1 1039   3.747   1.652   4.887
  175TCM    cl2 1040   3.700   1.855   5.093
  175TCM     h1 1041   3.910   1.772   5.014
  175TCM    cl3 1042   3.839   1.927   4.846
  176TCM     c1 1043   3.887   3.197   4.882
  176TCM    cl1 1044   3.855   3.347   4.975
  176TCM    cl2 1045   3.731   3.115   4.848
  176TCM     h1 1046   3.936   3.222   4.788
  176TCM    cl3 1047   3.992   3.088   4.978
  177TCM     c1 1048   1.182   0.444   3.660
  177TCM    cl1 1049   1.056   0.430   3.788
  177TCM    cl2 1050   1.341   0.477   3.738
  177TCM     h1 1051   1.187   0.351   3.603
  177TCM    cl3 1052   1.141   0.581   3.551
  178TCM     c1 1053   3.070   0.213   1.251
  178TCM    cl1 1054   2.990   0.156   1.401
  178TCM    cl2 1055   2.945   0.275   1.138
  178TCM     h1 1056   3.141   0.293   1.274
  178TCM    cl3 1057   3.156   0.076   1.174
  179TCM     c1 1058   1.070   0.407   4.245
  179TCM    cl1 1059   1.201   0.468   4.140
  179TCM    cl2 1060   1.100   0.459   4.415
  179TCM     h1 1061   0.974   0.447   4.211
  179TCM    cl3 1062   1.067   0.228   4.238
  180TCM     c1 1063   3.199   0.286   3.356
  180TCM    cl1 1064   3.262   0.394   3.227
  180TCM    cl2 1065   3.095   0.379   3.469
  180TCM     h1 1066   3.141   0.205   3.311
  180TCM    cl3 1067   3.339   0.217   3.445
  181TCM     c1 1068   2.164   0.856   4.291
  181TCM    cl1 1069   2.119   0.951   4.145
  181TCM    cl2 1070   2.020   0.767   4.350
  181TCM     h1 1071   2.242   0.785   4.265
  181TCM    cl3 1072   2.222   0.967   4.419
  182TCM     c1 1073   3.213   0.588   0.406
  182TCM    cl1 1074   3.380   0.566   0.467
  182TCM    cl2 1075   3.107   0.465   0.482
  182TCM     h1 1076   3.178   0.688   0.432
  182TCM    cl3 1077   3.212   0.568   0.228
  183TCM     c1 1078   1.691   2.014   2.387
  183TCM    cl1 1079   1.661   2.045   2.561
  183TCM    cl2 1080   1.835   1.909   2.369
  183TCM     h1 1081   1.603   1.965   2.343
  183TCM    cl3 1082   1.721   2.169   2.303
  184TCM     c1 1083   4.949   4.150   4.607
  184TCM    cl1 1084   4.939   4.073   4.445
  184TCM    cl2 1085   4.786   4.156   4.681
  184TCM     h1 1086   5.016   4.091   4.671
  184TCM    cl3 1087   5.013   4.316   4.589
  185TCM     c1 1088   0.819   0.856   2.708
  185TCM    cl1 1089   0.888   1.021   2.699
  185TCM    cl2 1090   0.735   0.815   2.555
  185TCM     h1 1091   0.899   0.784   2.726
  185TCM    cl3 1092   0.700   0.851   2.842
  186TCM     c1 1093   4.512   0.916   3.461
  186TCM    cl1 1094   4.572   0.859   3.620
  186TCM    cl2 1095   4.412   0.787   3.386
  186TCM     h1 1096   4.452   1.007   3.475
  186TCM    cl3 1097   4.651   0.949   3.354
  187TCM     c1 1098   0.148   4.594   0.498
  187TCM    cl1 1099   0.110   4.588   0.673
  187TCM    cl2 1100   0.319   4.642   0.476
  187TCM     h1 1101   0.131   4.495   0.453
  187TCM    cl3 1102   0.042   4.715   0.419
  188TCM     c1 1103   0.691   3.283   0.089
  188TCM    cl1 1104   0.801   3.380   0.192
  188TCM    cl2 1105   0.529   3.280   0.165
  188TCM     h1 1106   0.685   3.328  -0.011
  188TCM    cl3 1107   0.754   3.116   0.078
  189TCM     c1 1108   1.358   2.421   4.676
  189TCM    cl1 1109   1.502   2.325   4.630
  189TCM    cl2 1110   1.231   2.401   4.550
  189TCM     h1 1111   1.319   2.386   4.772
  189TCM    cl3 1112   1.403   2.594   4.688
  190TCM     c1 1113   0.663   3.090   0.462
  190TCM    cl1 1114   0.636   3.053   0.636
  190TCM    cl2 1115   0.605   2.952   0.363
  190TCM     h1 1116   0.609   3.180   0.435
  190TCM    cl3 1117   0.839   3.113   0.434
  191TCM     c1 1118   4.275   1.559   2.445
  191TCM    cl1 1119   4.395   1.670   2.373
  191TCM    cl2 1120   4.163   1.652   2.551
  191TCM     h1 1121   4.217   1.510   2.366
  191TCM    cl3 1122   4.360   1.435   2.544
  192TCM     c1 1123   2.242   0.387   4.296
  192TCM    cl1 1124   2.360   0.305   4.188
  192TCM    cl2 1125   2.095   0.430   4.203
  192TCM     h1 1126   2.215   0.321   4.378
  192TCM    cl3 1127   2.318   0.537   4.361
  193TCM     c1 1128   0.449   0.055   2.525
  193TCM    cl1 1129   0.554  -0.045   2.631
  193TCM    cl2 1130   0.536   0.206   2.480
  193TCM     h1 1131   0.423  -0.001   2.435
  193TCM    cl3 1132   0.300   0.098   2.615
  194TCM     c1 1133   1.942   4.548   4.515
  194TCM    cl1 1134   1.987   4.447   4.373
  194TCM    cl2 1135   2.038   4.499   4.658
  194TCM     h1 1136   1.961   4.653   4.492
  194TCM    cl3 1137   1.767   4.526   4.549
  195TCM     c1 1138   4.235   4.401   1.258
  195TCM    cl1 1139   4.238   4.420   1.079
  195TCM    cl2 1140   4.390   4.328   1.311
  195TCM     h1 1141   4.222   4.498   1.305
  195TCM    cl3 1142   4.099   4.293   1.304
  196TCM     c1 1143   1.060   2.675   0.259
  196TCM    cl1 1144   1.184   2.739   0.147
  196TCM    cl2 1145   1.066   2.495   0.255
  196TCM     h1 1146   1.080   2.710   0.361
  196TCM    cl3 1147   0.898   2.732   0.206
  197TCM     c1 1148   1.192   0.872   4.057
  197TCM    cl1 1149   1.060   0.805   4.159
  197TCM    cl2 1150   1.160   1.046   4.028
  197TCM     h1 1151   1.288   0.860   4.108
  197TCM    cl3 1152   1.195   0.785   3.900
  198TCM     c1 1153   1.735   1.299   0.695
  198TCM    cl1 1154   1.697   1.463   0.633
  198TCM    cl2 1155   1.625   1.259   0.831
  198TCM     h1 1156   1.722   1.226   0.614
  198TCM    cl3 1157   1.905   1.298   0.752
  199TCM     c1 1158   1.138   4.520   1.275
  199TCM    cl1 1159   1.219   4.378   1.201
  199TCM    cl2 1160   1.241   4.665   1.253
  199TCM     h1 1161   1.042   4.536   1.226
  199TCM    cl3 1162   1.114   4.491   1.450
  200TCM     c1 1163   4.959   2.511   2.480
  200TCM    cl1 1164   4.958   2.369   2.589
  200TCM    cl2 1165   4.920   2.458   2.314
  200TCM     h1 1166   4.885   2.584   2.515
  200TCM    cl3 1167   5.122   2.586   2.481
  201TCM     c1 1168   0.739   2.245   0.214
  201TCM    cl1 1169   0.689   2.144   0.075
  201TCM    cl2 1170   0.631   2.211   0.353
  201TCM     h1 1171   0.843   2.223   0.241
  201TCM    cl3 1172   0.726   2.419   0.170
  202TCM     c1 1173   3.375   4.422   3.323
  202TCM    cl1 1174   3.530   4.506   3.290
  202TCM    cl2 1175   3.341   4.306   3.190
  202TCM     h1 1176   3.382   4.369   3.418
  202TCM    cl3 1177   3.244   4.545   3.331
  203TCM     c1 1178   2.117   0.936   2.099
  203TCM    cl1 1179   2.295   0.917   2.078
  203TCM    cl2 1180   2.067   1.090   2.024
  203TCM     h1 1181   2.066   0.852   2.051
  203TCM    cl3 1182   2.076   0.940   2.274
  204TCM     c1 1183   0.602   4.719   4.314
  204TCM    cl1 1184   0.566   4.715   4.490
  204TCM    cl2 1185   0.466   4.795   4.226
  204TCM     h1 1186   0.693   4.777   4.297
  204TCM    cl3 1187   0.625   4.552   4.254
  205TCM     c1 1188   1.968   4.744   3.585
  205TCM    cl1 1189   2.017   4.886   3.682
  205TCM    cl2 1190   1.921   4.799   3.421
  205TCM     h1 1191   2.051   4.673   3.578
  205TCM    cl3 1192   1.827   4.665   3.663
  206TCM     c1 1193   1.153   0.197   1.153
  206TCM    cl1 1194   1.139   0.042   1.243
  206TCM    cl2 1195   1.045   0.319   1.227
  206TCM     h1 1196   1.256   0.232   1.158
  206TCM    cl3 1197   1.107   0.170   0.982
  207TCM     c1 1198   2.513   3.346   0.926
  207TCM    cl1 1199   2.543   3.264   1.082
  207TCM    cl2 1200   2.661   3.434   0.877
  207TCM     h1 1201   2.487   3.272   0.850
  207TCM    cl3 1202   2.377   3.462   0.944
  208TCM     c1 1203   0.951   4.000   0.522
  208TCM    cl1 1204   1.038   4.010   0.366
  208TCM    cl2 1205   0.929   3.828   0.567
  208TCM     h1 1206   1.008   4.052   0.599
  208TCM    cl3 1207   0.790   4.078   0.505
  209TCM     c1 1208   3.823   2.199   2.006
  209TCM    cl1 1209   3.946   2.212   2.136
  209TCM    cl2 1210   3.761   2.031   1.998
  209TCM     h1 1211   3.741   2.268   2.026
  209TCM    cl3 1212   3.899   2.241   1.848
  210TCM     c1 1213   2.693   2.370   1.029
  210TCM    cl1 1214   2.539   2.341   0.940
  210TCM    cl2 1215   2.692   2.535   1.100
  210TCM     h1 1216   2.703   2.296   1.108
  210TCM    cl3 1217   2.831   2.356   0.915
  211TCM     c1 1218   2.753   3.317   4.096
  211TCM    cl1 1219   2.842   3.467   4.054
  211TCM    cl2 1220   2.747   3.209   3.953
  211TCM     h1 1221   2.804   3.266   4.178
  211TCM    cl3 1222   2.585   3.358   4.147
  212TCM     c1 1223   1.281   2.898   4.394
  212TCM    cl1 1224   1.424   2.912   4.501
  212TCM    cl2 1225   1.140   2.976   4.474
  212TCM     h1 1226   1.301   2.947   4.299
  212TCM    cl3 1227   1.246   2.724   4.366
  213TCM     c1 1228   1.434   2.801   2.730
  213TCM    cl1 1229   1.575   2.729   2.815
  213TCM    cl2 1230   1.292   2.691   2.743
  213TCM     h1 1231   1.410   2.897   2.776
  213TCM    cl3 1232   1.475   2.827   2.557
  214TCM     c1 1233   3.647   4.527   3.740
  214TCM    cl1 1234   3.524   4.429   3.654
  214TCM    cl2 1235   3.572   4.604   3.884
  214TCM     h1 1236   3.729   4.462   3.772
  214TCM    cl3 1237   3.710   4.653   3.629
  215TCM     c1 1238   0.201   3.272   0.391
  215TCM    cl1 1239   0.326   3.206   0.501
  215TCM    cl2 1240   0.192   3.170   0.244
  215TCM     h1 1241   0.104   3.272   0.442
  215TCM    cl3 1242   0.245   3.440   0.344
  216TCM     c1 1243   1.458   2.352   0.169
  216TCM    cl1 1244   1.373   2.195   0.187
  216TCM    cl2 1245   1.444   2.445   0.322
  216TCM     h1 1246   1.563   2.334   0.147
  216TCM    cl3 1247   1.383   2.445   0.035
  217TCM     c1 1248   0.409   1.945   2.789
  217TCM    cl1 1249   0.467   1.780   2.747
  217TCM    cl2 1250   0.515   2.067   2.712
  217TCM     h1 1251   0.306   1.958   2.753
  217TCM    cl3 1252   0.415   1.965   2.967
  218TCM     c1 1253   3.557   0.282   4.795
  218TCM    cl1 1254   3.581   0.244   4.622
  218TCM    cl2 1255   3.526   0.131   4.885
  218TCM     h1 1256   3.647   0.331   4.835
  218TCM    cl3 1257   3.417   0.392   4.814
  219TCM     c1 1258   1.667   2.749   1.815
  219TCM    cl1 1259   1.758   2.690   1.958
  219TCM    cl2 1260   1.683   2.927   1.804
  219TCM     h1 1261   1.708   2.703   1.724
  219TCM    cl3 1262   1.494   2.705   1.833
  220TCM     c1 1263   3.968   0.568   3.992
  220TCM    cl1 1264   4.035   0.426   3.904
  220TCM    cl2 1265   3.792   0.544   4.016
  220TCM     h1 1266   4.018   0.578   4.089
  220TCM    cl3 1267   3.994   0.716   3.894
  221TCM     c1 1268   0.474   3.900   1.365
  221TCM    cl1 1269   0.591   4.029   1.408
  221TCM    cl2 1270   0.460   3.785   1.502
  221TCM     h1 1271   0.376   3.945   1.345
  221TCM    cl3 1272   0.531   3.814   1.219
  222TCM     c1 1273   0.158   1.546   0.445
  222TCM    cl1 1274  -0.014   1.592   0.426
  222TCM    cl2 1275   0.239   1.661   0.556
  222TCM     h1 1276   0.164   1.445   0.486
  222TCM    cl3 1277   0.239   1.552   0.285
  223TCM     c1 1278   3.282   2.487   2.826
  223TCM    cl1 1279   3.406   2.573   2.728
  223TCM    cl2 1280   3.229   2.339   2.740
  223TCM     h1 1281   3.324   2.460   2.923
  223TCM    cl3 1282   3.140   2.595   2.850
  224TCM     c1 1283   0.252   4.804   2.855
  224TCM    cl1 1284   0.363   4.672   2.804
  224TCM    cl2 1285   0.236   4.802   3.034
  224TCM     h1 1286   0.292   4.900   2.823
  224TCM    cl3 1287   0.091   4.777   2.781
  225TCM     c1 1288   0.183   4.603   2.465
  225TCM    cl1 1289   0.062   4.596   2.332
  225TCM    cl2 1290   0.281   4.752   2.449
  225TCM     h1 1291   0.132   4.603   2.562
  225TCM    cl3 1292   0.292   4.460   2.455
  226TCM     c1 1293   0.243   2.236   2.402
  226TCM    cl1 1294   0.189   2.208   2.233
  226TCM    cl2 1295   0.420   2.264   2.405
  226TCM     h1 1296   0.191   2.323   2.443
  226TCM    cl3 1297   0.203   2.092   2.502
  227TCM     c1 1298   0.314   3.834   2.834
  227TCM    cl1 1299   0.304   3.660   2.878
  227TCM    cl2 1300   0.455   3.859   2.725
  227TCM     h1 1301   0.223   3.864   2.783
  227TCM    cl3 1302   0.335   3.931   2.983
  228TCM     c1 1303   2.306   0.596   3.845
  228TCM    cl1 1304   2.303   0.660   4.013
  228TCM    cl2 1305   2.296   0.733   3.730
  228TCM     h1 1306   2.399   0.541   3.829
  228TCM    cl3 1307   2.165   0.488   3.822
  229TCM     c1 1308   1.828   1.865   1.916
  229TCM    cl1 1309   1.739   1.786   1.782
  229TCM    cl2 1310   1.867   1.742   2.040
  229TCM     h1 1311   1.920   1.910   1.878
  229TCM    cl3 1312   1.723   1.993   1.986
  230TCM     c1 1313   1.117   3.356   2.144
  230TCM    cl1 1314   1.279   3.373   2.220
  230TCM    cl2 1315   1.113   3.454   1.993
  230TCM     h1 1316   1.098   3.251   2.121
  230TCM    cl3 1317   0.992   3.416   2.258
  231TCM     c1 1318   4.638   3.776   2.849
  231TCM    cl1 1319   4.685   3.905   2.733
  231TCM    cl2 1320   4.673   3.616   2.777
  231TCM     h1 1321   4.694   3.788   2.942
  231TCM    cl3 1322   4.462   3.789   2.883
  232TCM     c1 1323   4.287   0.895   4.476
  232TCM    cl1 1324   4.358   0.947   4.633
  232TCM    cl2 1325   4.323   1.019   4.352
  232TCM     h1 1326   4.330   0.799   4.447
  232TCM    cl3 1327   4.109   0.878   4.494
  233TCM     c1 1328   0.252   3.052   4.483
  233TCM    cl1 1329   0.386   3.027   4.599
  233TCM    cl2 1330   0.180   3.214   4.513
  233TCM     h1 1331   0.289   3.046   4.381
  233TCM    cl3 1332   0.129   2.925   4.510
  234TCM     c1 1333   0.985   2.000   0.454
  234TCM    cl1 1334   0.857   2.029   0.575
  234TCM    cl2 1335   1.069   2.155   0.419
  234TCM     h1 1336   1.057   1.927   0.492
  234TCM    cl3 1337   0.910   1.939   0.303
  235TCM     c1 1338   1.851   2.136   1.567
  235TCM    cl1 1339   1.677   2.118   1.607
  235TCM    cl2 1340   1.904   1.997   1.468
  235TCM     h1 1341   1.865   2.229   1.510
  235TCM    cl3 1342   1.946   2.143   1.718
  236TCM     c1 1343   2.438   4.548   3.582
  236TCM    cl1 1344   2.310   4.646   3.661
  236TCM    cl2 1345   2.454   4.594   3.410
  236TCM     h1 1346   2.533   4.564   3.633
  236TCM    cl3 1347   2.393   4.374   3.592
  237TCM     c1 1348   3.275   0.545   1.516
  237TCM    cl1 1349   3.229   0.373   1.536
  237TCM    cl2 1350   3.248   0.595   1.346
  237TCM     h1 1351   3.214   0.607   1.583
  237TCM    cl3 1352   3.448   0.565   1.557
  238TCM     c1 1353   2.364   4.753   4.834
  238TCM    cl1 1354   2.193   4.799   4.806
  238TCM    cl2 1355   2.469   4.856   4.732
  238TCM     h1 1356   2.389   4.768   4.939
  238TCM    cl3 1357   2.389   4.582   4.790
  239TCM     c1 1358   2.701   1.645   3.190
  239TCM    cl1 1359   2.819   1.695   3.316
  239TCM    cl2 1360   2.689   1.466   3.190
  239TCM     h1 1361   2.603   1.688   3.211
  239TCM    cl3 1362   2.758   1.700   3.029
  240TCM     c1 1363   0.826   1.702   4.834
  240TCM    cl1 1364   0.772   1.543   4.896
  240TCM    cl2 1365   0.993   1.688   4.770
  240TCM     h1 1366   0.759   1.735   4.754
  240TCM    cl3 1367   0.825   1.821   4.967
  241TCM     c1 1368   3.040   0.937   2.898
  241TCM    cl1 1369   3.217   0.910   2.890
  241TCM    cl2 1370   2.991   1.050   2.768
  241TCM     h1 1371   2.987   0.842   2.886
  241TCM    cl3 1372   2.999   1.009   3.058
  242TCM     c1 1373   3.568   0.826   1.330
  242TCM    cl1 1374   3.529   0.782   1.160
  242TCM    cl2 1375   3.427   0.908   1.405
  242TCM     h1 1376   3.593   0.735   1.386
  242TCM    cl3 1377   3.709   0.937   1.331
  243TCM     c1 1378   0.637   0.178   0.208
  243TCM    cl1 1379   0.634   0.111   0.374
  243TCM    cl2 1380   0.514   0.308   0.194
  243TCM     h1 1381   0.736   0.219   0.186
  243TCM    cl3 1382   0.599   0.047   0.091
  244TCM     c1 1383   0.382   3.751   3.763
  244TCM    cl1 1384   0.532   3.849   3.765
  244TCM    cl2 1385   0.391   3.624   3.889
  244TCM     h1 1386   0.296   3.816   3.782
  244TCM    cl3 1387   0.364   3.673   3.602
  245TCM     c1 1388   0.192   4.378   4.279
  245TCM    cl1 1389   0.273   4.494   4.390
  245TCM    cl2 1390   0.284   4.371   4.124
  245TCM     h1 1391   0.188   4.279   4.324
  245TCM    cl3 1392   0.025   4.436   4.245
  246TCM     c1 1393   3.441   1.860   0.611
  246TCM    cl1 1394   3.284   1.945   0.621
  246TCM    cl2 1395   3.489   1.805   0.775
  246TCM     h1 1396   3.432   1.773   0.544
  246TCM    cl3 1397   3.565   1.972   0.546
  247TCM     c1 1398   3.158   4.437   3.804
  247TCM    cl1 1399   2.989   4.427   3.863
  247TCM    cl2 1400   3.168   4.355   3.644
  247TCM     h1 1401   3.187   4.542   3.793
  247TCM    cl3 1402   3.267   4.356   3.921
  248TCM     c1 1403   1.841   4.901   3.050
  248TCM    cl1 1404   1.840   4.721   3.043
  248TCM    cl2 1405   1.997   4.957   3.116
  248TCM     h1 1406   1.827   4.941   2.949
  248TCM    cl3 1407   1.708   4.957   3.156
  249TCM     c1 1408   2.345   0.449   2.230
  249TCM    cl1 1409   2.314   0.340   2.369
  249TCM    cl2 1410   2.254   0.602   2.252
  249TCM     h1 1411   2.452   0.471   2.224
  249TCM    cl3 1412   2.291   0.370   2.079
  250TCM     c1 1413   3.289   2.097   3.830
  250TCM    cl1 1414   3.429   2.130   3.938
  250TCM    cl2 1415   3.350   2.055   3.666
  250TCM     h1 1416   3.231   2.013   3.870
  250TCM    cl3 1417   3.184   2.242   3.822
  251TCM     c1 1418   3.019   2.652   0.319
  251TCM    cl1 1419   2.989   2.738   0.164
  251TCM    cl2 1420   3.189   2.596   0.325
  251TCM     h1 1421   3.000   2.721   0.402
  251TCM    cl3 1422   2.908   2.511   0.330
  252TCM     c1 1423   1.324   0.316   4.936
  252TCM    cl1 1424   1.395   0.169   5.011
  252TCM    cl2 1425   1.214   0.268   4.804
  252TCM     h1 1426   1.269   0.372   5.012
  252TCM    cl3 1427   1.456   0.419   4.870
  253TCM     c1 1428   0.926   1.672   1.684
  253TCM    cl1 1429   0.789   1.739   1.779
  253TCM    cl2 1430   1.081   1.716   1.764
  253TCM     h1 1431   0.917   1.563   1.680
  253TCM    cl3 1432   0.923   1.739   1.518
  254TCM     c1 1433   4.840   3.103   0.196
  254TCM    cl1 1434   4.833   2.924   0.208
  254TCM    cl2 1435   4.841   3.174   0.361
  254TCM     h1 1436   4.930   3.132   0.143
  254TCM    cl3 1437   4.696   3.164   0.108
  255TCM     c1 1438   0.355   1.757   3.838
  255TCM    cl1 1439   0.378   1.698   4.005
  255TCM    cl2 1440   0.231   1.886   3.836
  255TCM     h1 1441   0.450   1.796   3.799
  255TCM    cl3 1442   0.301   1.620   3.735
  256TCM     c1 1443   0.974   0.607   0.304
  256TCM    cl1 1444   0.844   0.485   0.280
  256TCM    cl2 1445   1.128   0.524   0.339
  256TCM     h1 1446   0.984   0.668   0.213
  256TCM    cl3 1447   0.932   0.713   0.442
  257TCM     c1 1448   3.618   4.779   4.939
  257TCM    cl1 1449   3.738   4.794   5.071
  257TCM    cl2 1450   3.561   4.609   4.930
  257TCM     h1 1451   3.533   4.845   4.959
  257TCM    cl3 1452   3.695   4.824   4.784
  258TCM     c1 1453   3.188   3.912   3.421
  258TCM    cl1 1454   3.084   3.862   3.559
  258TCM    cl2 1455   3.311   3.785   3.391
  258TCM     h1 1456   3.126   3.925   3.332
  258TCM    cl3 1457   3.269   4.067   3.460
  259TCM     c1 1458   2.796   4.424   3.052
  259TCM    cl1 1459   2.775   4.590   2.986
  259TCM    cl2 1460   2.669   4.394   3.175
  259TCM     h1 1461   2.787   4.352   2.971
  259TCM    cl3 1462   2.958   4.410   3.129
  260TCM     c1 1463   3.365   1.183   2.685
  260TCM    cl1 1464   3.261   1.181   2.539
  260TCM    cl2 1465   3.287   1.286   2.810
  260TCM     h1 1466   3.377   1.081   2.723
  260TCM    cl3 1467   3.525   1.252   2.644
  261TCM     c1 1468   4.402   2.024   4.985
  261TCM    cl1 1469   4.435   1.940   5.140
  261TCM    cl2 1470   4.239   1.978   4.927
  261TCM     h1 1471   4.407   2.132   5.000
  261TCM    cl3 1472   4.525   1.975   4.864
  262TCM     c1 1473   3.007   2.173   0.445
  262TCM    cl1 1474   3.169   2.236   0.404
  262TCM    cl2 1475   2.984   2.182   0.623
  262TCM     h1 1476   2.930   2.232   0.395
  262TCM    cl3 1477   2.995   2.001   0.393
  263TCM     c1 1478   4.524   4.712   1.342
  263TCM    cl1 1479   4.650   4.596   1.288
  263TCM    cl2 1480   4.440   4.647   1.486
  263TCM     h1 1481   4.570   4.808   1.366
  263TCM    cl3 1482   4.405   4.734   1.209
  264TCM     c1 1483   4.518   0.651   3.056
  264TCM    cl1 1484   4.382   0.536   3.078
  264TCM    cl2 1485   4.453   0.812   3.010
  264TCM     h1 1486   4.574   0.660   3.150
  264TCM    cl3 1487   4.625   0.591   2.926
  265TCM     c1 1488   3.474   2.360   0.241
  265TCM    cl1 1489   3.613   2.470   0.263
  265TCM    cl2 1490   3.529   2.190   0.253
  265TCM     h1 1491   3.399   2.380   0.319
  265TCM    cl3 1492   3.401   2.388   0.079
  266TCM     c1 1493   1.656   0.001   2.571
  266TCM    cl1 1494   1.655  -0.067   2.737
  266TCM    cl2 1495   1.746   0.156   2.570
  266TCM     h1 1496   1.704  -0.069   2.502
  266TCM    cl3 1497   1.486   0.029   2.518
  267TCM     c1 1498   1.212   4.681   4.942
  267TCM    cl1 1499   1.310   4.831   4.946
  267TCM    cl2 1500   1.106   4.676   5.086
  267TCM     h1 1501   1.151   4.680   4.851
  267TCM    cl3 1502   1.320   4.538   4.944
  268TCM     c1 1503   0.025   0.312   4.369
  268TCM    cl1 1504  -0.059   0.188   4.270
  268TCM    cl2 1505   0.074   0.240   4.525
  268TCM     h1 1506   0.113   0.347   4.315
  268TCM    cl3 1507  -0.087   0.449   4.398
  269TCM     c1 1508   4.492   4.698   0.201
  269TCM    cl1 1509   4.355   4.806   0.242
  269TCM    cl2 1510   4.639   4.750   0.290
  269TCM     h1 1511   4.467   4.595   0.229
  269TCM    cl3 1512   4.523   4.708   0.025
  270TCM     c1 1513   0.376   2.405   3.701
  270TCM    cl1 1514   0.472   2.556   3.693
  270TCM    cl2 1515   0.314   2.385   3.869
  270TCM     h1 1516   0.292   2.411   3.632
  270TCM    cl3 1517   0.478   2.264   3.658
  271TCM     c1 1518   3.771   1.384   1.560
  271TCM    cl1 1519   3.819   1.300   1.409
  271TCM    cl2 1520   3.728   1.554   1.522
  271TCM     h1 1521   3.685   1.334   1.604
  271TCM    cl3 1522   3.908   1.381   1.676
  272TCM     c1 1523   1.504   4.904   0.253
  272TCM    cl1 1524   1.606   4.954   0.392
  272TCM    cl2 1525   1.331   4.914   0.300
  272TCM     h1 1526   1.523   4.970   0.168
  272TCM    cl3 1527   1.543   4.735   0.208
  273TCM     c1 1528   3.524   0.958   3.640
  273TCM    cl1 1529   3.353   0.954   3.697
  273TCM    cl2 1530   3.526   0.933   3.463
  273TCM     h1 1531   3.568   1.055   3.664
  273TCM    cl3 1532   3.618   0.827   3.719
  274TCM     c1 1533   4.416   3.394   3.180
  274TCM    cl1 1534   4.576   3.437   3.111
  274TCM    cl2 1535   4.361   3.238   3.109
  274TCM     h1 1536   4.424   3.383   3.289
  274TCM    cl3 1537   4.297   3.522   3.141
  275TCM     c1 1538   1.501   0.783   0.539
  275TCM    cl1 1539   1.322   0.780   0.532
  275TCM    cl2 1540   1.560   0.630   0.611
  275TCM     h1 1541   1.541   0.794   0.438
  275TCM    cl3 1542   1.555   0.922   0.639
  276TCM     c1 1543   1.282   2.017   0.909
  276TCM    cl1 1544   1.272   1.861   0.997
  276TCM    cl2 1545   1.218   1.994   0.742
  276TCM     h1 1546   1.223   2.093   0.961
  276TCM    cl3 1547   1.453   2.071   0.899
  277TCM     c1 1548   3.245   2.907   2.443
  277TCM    cl1 1549   3.294   3.077   2.469
  277TCM    cl2 1550   3.159   2.846   2.588
  277TCM     h1 1551   3.179   2.900   2.356
  277TCM    cl3 1552   3.391   2.806   2.413
  278TCM     c1 1553   3.089   3.379   2.589
  278TCM    cl1 1554   3.024   3.532   2.656
  278TCM    cl2 1555   3.077   3.381   2.410
  278TCM     h1 1556   3.194   3.368   2.619
  278TCM    cl3 1557   2.994   3.241   2.654
  279TCM     c1 1558   1.315   1.014   0.178
  279TCM    cl1 1559   1.242   0.850   0.182
  279TCM    cl2 1560   1.354   1.060   0.009
  279TCM     h1 1561   1.243   1.086   0.218
  279TCM    cl3 1562   1.465   1.017   0.276
  280TCM     c1 1563   2.931   0.112   0.707
  280TCM    cl1 1564   2.910   0.284   0.754
  280TCM    cl2 1565   3.023   0.027   0.835
  280TCM     h1 1566   2.833   0.065   0.694
  280TCM    cl3 1567   3.023   0.104   0.553
  281TCM     c1 1568   1.910   3.550   0.740
  281TCM    cl1 1569   1.813   3.696   0.778
  281TCM    cl2 1570   1.802   3.410   0.710
  281TCM     h1 1571   1.971   3.569   0.651
  281TCM    cl3 1572   2.017   3.512   0.879
  282TCM     c1 1573   2.671   3.862   1.697
  282TCM    cl1 1574   2.780   3.996   1.650
  282TCM    cl2 1575   2.564   3.915   1.831
  282TCM     h1 1576   2.610   3.834   1.611
  282TCM    cl3 1577   2.768   3.721   1.750
  283TCM     c1 1578   4.562   0.417   4.002
  283TCM    cl1 1579   4.637   0.368   4.157
  283TCM    cl2 1580   4.622   0.579   3.955
  283TCM     h1 1581   4.588   0.344   3.925
  283TCM    cl3 1582   4.383   0.423   4.021
  284TCM     c1 1583   4.799   2.763   4.549
  284TCM    cl1 1584   4.768   2.602   4.474
  284TCM    cl2 1585   4.844   2.740   4.721
  284TCM     h1 1586   4.881   2.812   4.496
  284TCM    cl3 1587   4.651   2.863   4.539
  285TCM     c1 1588   1.064   4.793   2.011
  285TCM    cl1 1589   0.921   4.764   2.116
  285TCM    cl2 1590   1.208   4.821   2.114
  285TCM     h1 1591   1.081   4.706   1.947
  285TCM    cl3 1592   1.034   4.938   1.910
  286TCM     c1 1593   0.136   0.134   0.295
  286TCM    cl1 1594  -0.028   0.061   0.304
  286TCM    cl2 1595   0.173   0.177   0.125
  286TCM     h1 1596   0.139   0.224   0.357
  286TCM    cl3 1597   0.257   0.016   0.354
  287TCM     c1 1598   4.614   0.503   3.540
  287TCM    cl1 1599   4.616   0.461   3.366
  287TCM    cl2 1600   4.778   0.559   3.590
  287TCM     h1 1601   4.542   0.583   3.557
  287TCM    cl3 1602   4.568   0.360   3.637
  288TCM     c1 1603   3.435   0.080   4.119
  288TCM    cl1 1604   3.356   0.014   4.266
  288TCM    cl2 1605   3.441   0.259   4.132
  288TCM     h1 1606   3.537   0.041   4.110
  288TCM    cl3 1607   3.340   0.034   3.974
  289TCM     c1 1608   1.361   1.873   1.394
  289TCM    cl1 1609   1.473   1.984   1.308
  289TCM    cl2 1610   1.192   1.911   1.347
  289TCM     h1 1611   1.384   1.770   1.367
  289TCM    cl3 1612   1.380   1.893   1.572
  290TCM     c1 1613   0.455   0.152   1.469
  290TCM    cl1 1614   0.311   0.181   1.572
  290TCM    cl2 1615   0.496   0.303   1.381
  290TCM     h1 1616   0.540   0.123   1.532
  290TCM    cl3 1617   0.419   0.022   1.351
  291TCM     c1 1618   3.321   1.555   2.501
  291TCM    cl1 1619   3.216   1.659   2.399
  291TCM    cl2 1620   3.354   1.637   2.658
  291TCM     h1 1621   3.272   1.460   2.519
  291TCM    cl3 1622   3.476   1.527   2.416
  292TCM     c1 1623   3.516   0.236   0.302
  292TCM    cl1 1624   3.513   0.357   0.170
  292TCM    cl2 1625   3.595   0.086   0.244
  292TCM     h1 1626   3.571   0.276   0.388
  292TCM    cl3 1627   3.347   0.199   0.351
  293TCM     c1 1628   0.711   1.412   1.999
  293TCM    cl1 1629   0.557   1.441   1.910
  293TCM    cl2 1630   0.748   1.554   2.102
  293TCM     h1 1631   0.700   1.323   2.062
  293TCM    cl3 1632   0.844   1.386   1.882
  294TCM     c1 1633   2.700   3.782   1.243
  294TCM    cl1 1634   2.618   3.633   1.188
  294TCM    cl2 1635   2.842   3.738   1.343
  294TCM     h1 1636   2.731   3.841   1.157
  294TCM    cl3 1637   2.585   3.878   1.343
  295TCM     c1 1638   2.253   2.717   4.257
  295TCM    cl1 1639   2.304   2.672   4.091
  295TCM    cl2 1640   2.392   2.699   4.370
  295TCM     h1 1641   2.218   2.820   4.258
  295TCM    cl3 1642   2.120   2.608   4.310
  296TCM     c1 1643   0.388   2.399   0.556
  296TCM    cl1 1644   0.515   2.344   0.671
  296TCM    cl2 1645   0.456   2.523   0.444
  296TCM     h1 1646   0.353   2.313   0.497
  296TCM    cl3 1647   0.251   2.470   0.647
  297TCM     c1 1648   2.643   0.262   1.487
  297TCM    cl1 1649   2.594   0.091   1.503
  297TCM    cl2 1650   2.544   0.364   1.596
  297TCM     h1 1651   2.749   0.273   1.514
  297TCM    cl3 1652   2.618   0.316   1.318
  298TCM     c1 1653   2.442   3.702   4.948
  298TCM    cl1 1654   2.432   3.663   4.774
  298TCM    cl2 1655   2.394   3.558   5.044
  298TCM     h1 1656   2.545   3.730   4.973
  298TCM    cl3 1657   2.333   3.839   4.986
  299TCM     c1 1658   0.342   3.462   4.766
  299TCM    cl1 1659   0.377   3.301   4.837
  299TCM    cl2 1660   0.462   3.497   4.637
  299TCM     h1 1661   0.241   3.462   4.723
  299TCM    cl3 1662   0.354   3.586   4.895
  300TCM     c1 1663   3.699   1.908   1.574
  300TCM    cl1 1664   3.552   1.858   1.664
  300TCM    cl2 1665   3.843   1.891   1.678
  300TCM     h1 1666   3.710   1.846   1.485
  300TCM    cl3 1667   3.681   2.080   1.525
  301TCM     c1 1668   2.276   2.978   2.540
  301TCM    cl1 1669   2.128   2.956   2.441
  301TCM    cl2 1670   2.356   2.819   2.565
  301TCM     h1 1671   2.345   3.045   2.488
  301TCM    cl3 1672   2.233   3.050   2.698
  302TCM     c1 1673   4.545   2.936   0.423
  302TCM    cl1 1674   4.519   2.777   0.345
  302TCM    cl2 1675   4.663   2.918   0.557
  302TCM     h1 1676   4.584   3.007   0.349
  302TCM    cl3 1677   4.389   2.997   0.488
  303TCM     c1 1678   0.317   4.283   1.556
  303TCM    cl1 1679   0.234   4.134   1.499
  303TCM    cl2 1680   0.396   4.363   1.416
  303TCM     h1 1681   0.243   4.351   1.600
  303TCM    cl3 1682   0.441   4.239   1.678
  304TCM     c1 1683   3.001   1.459   3.617
  304TCM    cl1 1684   3.048   1.331   3.734
  304TCM    cl2 1685   2.983   1.615   3.704
  304TCM     h1 1686   3.077   1.468   3.540
  304TCM    cl3 1687   2.844   1.415   3.543
  305TCM     c1 1688   1.165   3.881   2.118
  305TCM    cl1 1689   1.244   3.839   1.962
  305TCM    cl2 1690   1.249   4.022   2.190
  305TCM     h1 1691   1.060   3.904   2.102
  305TCM    cl3 1692   1.179   3.741   2.230
  306TCM     c1 1693   2.833   4.110   2.065
  306TCM    cl1 1694   2.793   4.224   1.933
  306TCM    cl2 1695   2.912   3.964   1.999
  306TCM     h1 1696   2.900   4.159   2.136
  306TCM    cl3 1697   2.682   4.060   2.149
  307TCM     c1 1698   1.436   2.978   2.084
  307TCM    cl1 1699   1.512   3.136   2.047
  307TCM    cl2 1700   1.278   3.006   2.164
  307TCM     h1 1701   1.421   2.922   1.992
  307TCM    cl3 1702   1.543   2.885   2.194
  308TCM     c1 1703   4.857   0.045   4.882
  308TCM    cl1 1704   5.026   0.037   4.820
  308TCM    cl2 1705   4.835   0.200   4.968
  308TCM     h1 1706   4.787   0.039   4.798
  308TCM    cl3 1707   4.828  -0.092   4.995
  309TCM     c1 1708   4.310   0.011   2.591
  309TCM    cl1 1709   4.132  -0.009   2.583
  309TCM    cl2 1710   4.387  -0.076   2.453
  309TCM     h1 1711   4.335   0.117   2.585
  309TCM    cl3 1712   4.371  -0.058   2.745
  310TCM     c1 1713   1.350   0.106   2.855
  310TCM    cl1 1714   1.186   0.177   2.842
  310TCM    cl2 1715   1.364   0.014   3.008
  310TCM     h1 1716   1.367   0.039   2.770
  310TCM    cl3 1717   1.472   0.237   2.853
  311TCM     c1 1718   3.400   4.898   3.582
  311TCM    cl1 1719   3.533   4.970   3.679
  311TCM    cl2 1720   3.329   4.758   3.667
  311TCM     h1 1721   3.323   4.973   3.566
  311TCM    cl3 1722   3.465   4.845   3.423
  312TCM     c1 1723   3.616   2.250   4.818
  312TCM    cl1 1724   3.674   2.218   4.651
  312TCM    cl2 1725   3.754   2.287   4.925
  312TCM     h1 1726   3.547   2.335   4.816
  312TCM    cl3 1727   3.531   2.105   4.879
  313TCM     c1 1728   4.378   4.053   2.616
  313TCM    cl1 1729   4.335   4.125   2.774
  313TCM    cl2 1730   4.494   4.160   2.531
  313TCM     h1 1731   4.424   3.955   2.632
  313TCM    cl3 1732   4.230   4.034   2.516
  314TCM     c1 1733   4.810   2.911   2.154
  314TCM    cl1 1734   4.934   2.811   2.237
  314TCM    cl2 1735   4.727   3.015   2.274
  314TCM     h1 1736   4.858   2.974   2.078
  314TCM    cl3 1737   4.690   2.803   2.075
  315TCM     c1 1738   1.255   2.401   0.637
  315TCM    cl1 1739   1.399   2.402   0.744
  315TCM    cl2 1740   1.220   2.568   0.583
  315TCM     h1 1741   1.274   2.337   0.550
  315TCM    cl3 1742   1.115   2.337   0.728
  316TCM     c1 1743   0.786   1.750   3.801
  316TCM    cl1 1744   0.700   1.601   3.853
  316TCM    cl2 1745   0.813   1.855   3.944
  316TCM     h1 1746   0.882   1.723   3.757
  316TCM    cl3 1747   0.687   1.837   3.680
  317TCM     c1 1748   3.971   3.720   1.210
  317TCM    cl1 1749   3.973   3.899   1.222
  317TCM    cl2 1750   3.805   3.660   1.240
  317TCM     h1 1751   4.004   3.690   1.110
  317TCM    cl3 1752   4.083   3.651   1.332
  318TCM     c1 1753   0.119   4.972   2.116
  318TCM    cl1 1754   0.229   4.835   2.076
  318TCM    cl2 1755   0.168   5.043   2.273
  318TCM     h1 1756   0.126   5.047   2.037
  318TCM    cl3 1757  -0.050   4.913   2.126
  319TCM     c1 1758   1.095   2.244   1.600
  319TCM    cl1 1759   1.232   2.257   1.485
  319TCM    cl2 1760   1.126   2.348   1.742
  319TCM     h1 1761   1.003   2.275   1.550
  319TCM    cl3 1762   1.078   2.073   1.653
  320TCM     c1 1763   0.601   2.237   4.057
  320TCM    cl1 1764   0.711   2.321   3.943
  320TCM    cl2 1765   0.693   2.188   4.204
  320TCM     h1 1766   0.520   2.304   4.085
  320TCM    cl3 1767   0.534   2.090   3.979
  321TCM     c1 1768   1.045   0.707   4.866
  321TCM    cl1 1769   0.944   0.821   4.961
  321TCM    cl2 1770   1.076   0.561   4.966
  321TCM     h1 1771   0.992   0.678   4.775
  321TCM    cl3 1772   1.201   0.783   4.824
  322TCM     c1 1773   3.528   2.667   0.983
  322TCM    cl1 1774   3.398   2.624   1.099
  322TCM    cl2 1775   3.456   2.745   0.838
  322TCM     h1 1776   3.598   2.736   1.031
  322TCM    cl3 1777   3.614   2.518   0.934
  323TCM     c1 1778   3.359   4.689   2.872
  323TCM    cl1 1779   3.468   4.761   2.994
  323TCM    cl2 1780   3.257   4.818   2.797
  323TCM     h1 1781   3.418   4.640   2.794
  323TCM    cl3 1782   3.253   4.569   2.952
  324TCM     c1 1783   4.573   3.242   4.775
  324TCM    cl1 1784   4.529   3.207   4.604
  324TCM    cl2 1785   4.425   3.279   4.868
  324TCM     h1 1786   4.623   3.155   4.818
  324TCM    cl3 1787   4.684   3.383   4.780
  325TCM     c1 1788   4.525   2.831   2.512
  325TCM    cl1 1789   4.595   2.943   2.633
  325TCM    cl2 1790   4.377   2.756   2.579
  325TCM     h1 1791   4.500   2.887   2.421
  325TCM    cl3 1792   4.645   2.704   2.473
  326TCM     c1 1793   2.136   4.481   3.219
  326TCM    cl1 1794   2.280   4.379   3.188
  326TCM    cl2 1795   2.177   4.653   3.188
  326TCM     h1 1796   2.054   4.451   3.153
  326TCM    cl3 1797   2.085   4.462   3.390
  327TCM     c1 1798   3.325   2.275   0.771
  327TCM    cl1 1799   3.470   2.191   0.835
  327TCM    cl2 1800   3.375   2.402   0.655
  327TCM     h1 1801   3.259   2.203   0.721
  327TCM    cl3 1802   3.236   2.351   0.908
  328TCM     c1 1803   2.150   1.898   2.585
  328TCM    cl1 1804   2.284   1.864   2.699
  328TCM    cl2 1805   2.211   2.002   2.452
  328TCM     h1 1806   2.112   1.804   2.544
  328TCM    cl3 1807   2.019   1.984   2.672
  329TCM     c1 1808   2.806   2.629   3.236
  329TCM    cl1 1809   2.957   2.549   3.290
  329TCM    cl2 1810   2.817   2.668   3.062
  329TCM     h1 1811   2.721   2.562   3.253
  329TCM    cl3 1812   2.782   2.781   3.330
  330TCM     c1 1813   0.119   1.760   1.519
  330TCM    cl1 1814   0.137   1.809   1.348
  330TCM    cl2 1815  -0.028   1.659   1.539
  330TCM     h1 1816   0.207   1.702   1.550
  330TCM    cl3 1817   0.105   1.906   1.623
  331TCM     c1 1818   1.701   1.255   3.369
  331TCM    cl1 1819   1.544   1.286   3.449
  331TCM    cl2 1820   1.830   1.242   3.493
  331TCM     h1 1821   1.695   1.162   3.312
  331TCM    cl3 1822   1.739   1.390   3.257
  332TCM     c1 1823   3.212   4.292   2.067
  332TCM    cl1 1824   3.158   4.211   2.217
  332TCM    cl2 1825   3.110   4.437   2.037
  332TCM     h1 1826   3.317   4.323   2.077
  332TCM    cl3 1827   3.195   4.180   1.929
  333TCM     c1 1828   1.952   3.684   0.305
  333TCM    cl1 1829   2.125   3.694   0.257
  333TCM    cl2 1830   1.922   3.797   0.441
  333TCM     h1 1831   1.888   3.711   0.220
  333TCM    cl3 1832   1.916   3.517   0.358
  334TCM     c1 1833   4.657   1.922   2.682
  334TCM    cl1 1834   4.757   1.808   2.585
  334TCM    cl2 1835   4.510   1.964   2.588
  334TCM     h1 1836   4.628   1.874   2.776
  334TCM    cl3 1837   4.752   2.070   2.717
  335TCM     c1 1838   2.219   3.775   1.089
  335TCM    cl1 1839   2.230   3.814   1.264
  335TCM    cl2 1840   2.368   3.830   1.006
  335TCM     h1 1841   2.208   3.667   1.076
  335TCM    cl3 1842   2.078   3.860   1.019
  336TCM     c1 1843   1.023   0.010   4.531
  336TCM    cl1 1844   1.128  -0.061   4.658
  336TCM    cl2 1845   0.923   0.142   4.602
  336TCM     h1 1846   1.085   0.051   4.451
  336TCM    cl3 1847   0.915  -0.117   4.465
  337TCM     c1 1848   3.537   3.197   3.514
  337TCM    cl1 1849   3.531   3.079   3.649
  337TCM    cl2 1850   3.448   3.132   3.373
  337TCM     h1 1851   3.492   3.291   3.546
  337TCM    cl3 1852   3.709   3.223   3.467
  338TCM     c1 1853   3.534   4.047   1.292
  338TCM    cl1 1854   3.493   4.005   1.122
  338TCM    cl2 1855   3.692   4.132   1.296
  338TCM     h1 1856   3.456   4.111   1.333
  338TCM    cl3 1857   3.546   3.896   1.388
  339TCM     c1 1858   2.587   1.141   3.570
  339TCM    cl1 1859   2.571   1.234   3.723
  339TCM    cl2 1860   2.545   1.246   3.431
  339TCM     h1 1861   2.690   1.106   3.559
  339TCM    cl3 1862   2.475   1.002   3.572
  340TCM     c1 1863   2.140   3.557   4.452
  340TCM    cl1 1864   2.002   3.470   4.527
  340TCM    cl2 1865   2.294   3.475   4.493
  340TCM     h1 1866   2.127   3.558   4.344
  340TCM    cl3 1867   2.142   3.726   4.514
  341TCM     c1 1868   4.112   3.740   2.915
  341TCM    cl1 1869   4.126   3.752   2.737
  341TCM    cl2 1870   3.955   3.664   2.958
  341TCM     h1 1871   4.194   3.679   2.954
  341TCM    cl3 1872   4.121   3.905   2.987
  342TCM     c1 1873   2.261   0.156   4.644
  342TCM    cl1 1874   2.373   0.125   4.507
  342TCM    cl2 1875   2.096   0.104   4.597
  342TCM     h1 1876   2.294   0.101   4.732
  342TCM    cl3 1877   2.259   0.332   4.679
  343TCM     c1 1878   3.200   2.095   4.718
  343TCM    cl1 1879   3.216   2.047   4.545
  343TCM    cl2 1880   3.029   2.077   4.770
  343TCM     h1 1881   3.264   2.031   4.779
  343TCM    cl3 1882   3.250   2.266   4.736
  344TCM     c1 1883   0.440   0.632   3.991
  344TCM    cl1 1884   0.280   0.712   4.012
  344TCM    cl2 1885   0.454   0.566   3.825
  344TCM     h1 1886   0.519   0.705   4.009
  344TCM    cl3 1887   0.455   0.498   4.110
  345TCM     c1 1888   3.317   1.046   1.772
  345TCM    cl1 1889   3.334   0.869   1.753
  345TCM    cl2 1890   3.397   1.096   1.924
  345TCM     h1 1891   3.364   1.097   1.687
  345TCM    cl3 1892   3.143   1.090   1.780
  346TCM     c1 1893   2.808   0.208   2.374
  346TCM    cl1 1894   2.965   0.285   2.415
  346TCM    cl2 1895   2.833   0.091   2.240
  346TCM     h1 1896   2.770   0.155   2.462
  346TCM    cl3 1897   2.691   0.334   2.324
  347TCM     c1 1898   2.437   4.405   2.087
  347TCM    cl1 1899   2.459   4.346   2.255
  347TCM    cl2 1900   2.425   4.265   1.975
  347TCM     h1 1901   2.345   4.465   2.081
  347TCM    cl3 1902   2.578   4.507   2.041
  348TCM     c1 1903   0.583   1.090   2.295
  348TCM    cl1 1904   0.671   1.141   2.442
  348TCM    cl2 1905   0.701   1.024   2.176
  348TCM     h1 1906   0.509   1.013   2.320
  348TCM    cl3 1907   0.502   1.233   2.224
  349TCM     c1 1908   2.429   4.533   2.868
  349TCM    cl1 1909   2.251   4.536   2.847
  349TCM    cl2 1910   2.507   4.634   2.742
  349TCM     h1 1911   2.455   4.572   2.967
  349TCM    cl3 1912   2.488   4.364   2.853
  350TCM     c1 1913   4.092   2.065   4.616
  350TCM    cl1 1914   4.253   2.086   4.539
  350TCM    cl2 1915   3.967   2.040   4.491
  350TCM     h1 1916   4.095   1.978   4.682
  350TCM    cl3 1917   4.052   2.211   4.712
  351TCM     c1 1918   0.089   0.445   4.844
  351TCM    cl1 1919   0.092   0.529   5.002
  351TCM    cl2 1920   0.221   0.507   4.741
  351TCM     h1 1921   0.101   0.337   4.860
  351TCM    cl3 1922  -0.068   0.477   4.763
  352TCM     c1 1923   3.467   3.921   0.018
  352TCM    cl1 1924   3.616   3.885  -0.074
  352TCM    cl2 1925   3.492   3.888   0.192
  352TCM     h1 1926   3.441   4.027   0.005
  352TCM    cl3 1927   3.333   3.819  -0.044
  353TCM     c1 1928   2.062   2.340   2.513
  353TCM    cl1 1929   2.054   2.319   2.335
  353TCM    cl2 1930   1.896   2.339   2.581
  353TCM     h1 1931   2.120   2.258   2.557
  353TCM    cl3 1932   2.142   2.496   2.552
  354TCM     c1 1933   2.046   4.183   1.587
  354TCM    cl1 1934   1.902   4.290   1.575
  354TCM    cl2 1935   2.167   4.259   1.696
  354TCM     h1 1936   2.016   4.087   1.628
  354TCM    cl3 1937   2.116   4.158   1.424
  355TCM     c1 1938   4.182   3.664   1.680
  355TCM    cl1 1939   4.168   3.490   1.719
  355TCM    cl2 1940   4.348   3.698   1.623
  355TCM     h1 1941   4.111   3.690   1.601
  355TCM    cl3 1942   4.147   3.762   1.826
  356TCM     c1 1943   2.485   4.549   0.507
  356TCM    cl1 1944   2.330   4.535   0.417
  356TCM    cl2 1945   2.479   4.442   0.651
  356TCM     h1 1946   2.568   4.519   0.442
  356TCM    cl3 1947   2.509   4.719   0.560
  357TCM     c1 1948   2.740   2.439   4.629
  357TCM    cl1 1949   2.654   2.291   4.685
  357TCM    cl2 1950   2.695   2.474   4.459
  357TCM     h1 1951   2.711   2.524   4.692
  357TCM    cl3 1952   2.917   2.412   4.640
  358TCM     c1 1953   1.703   3.207   2.424
  358TCM    cl1 1954   1.777   3.052   2.475
  358TCM    cl2 1955   1.735   3.332   2.548
  358TCM     h1 1956   1.745   3.238   2.328
  358TCM    cl3 1957   1.526   3.185   2.408
  359TCM     c1 1958   0.611   4.309   4.592
  359TCM    cl1 1959   0.639   4.186   4.720
  359TCM    cl2 1960   0.541   4.231   4.447
  359TCM     h1 1961   0.541   4.385   4.630
  359TCM    cl3 1962   0.767   4.387   4.550
  360TCM     c1 1963   0.229   2.401   1.487
  360TCM    cl1 1964   0.060   2.449   1.527
  360TCM    cl2 1965   0.265   2.448   1.318
  360TCM     h1 1966   0.298   2.452   1.555
  360TCM    cl3 1967   0.246   2.223   1.504
  361TCM     c1 1968   4.414   0.867   3.944
  361TCM    cl1 1969   4.315   0.984   3.850
  361TCM    cl2 1970   4.309   0.786   4.066
  361TCM     h1 1971   4.455   0.791   3.876
  361TCM    cl3 1972   4.548   0.952   4.027
  362TCM     c1 1973   4.138   1.064   0.082
  362TCM    cl1 1974   4.190   0.920  -0.012
  362TCM    cl2 1975   4.215   1.061   0.244
  362TCM     h1 1976   4.168   1.155   0.030
  362TCM    cl3 1977   3.959   1.063   0.100
  363TCM     c1 1978   2.037   1.611   3.562
  363TCM    cl1 1979   2.098   1.777   3.596
  363TCM    cl2 1980   2.076   1.567   3.392
  363TCM     h1 1981   2.085   1.540   3.630
  363TCM    cl3 1982   1.860   1.607   3.585
  364TCM     c1 1983   0.173   1.482   1.895
  364TCM    cl1 1984   0.028   1.498   2.000
  364TCM    cl2 1985   0.232   1.646   1.852
  364TCM     h1 1986   0.251   1.427   1.948
  364TCM    cl3 1987   0.127   1.395   1.745
  365TCM     c1 1988   1.629   0.549   3.405
  365TCM    cl1 1989   1.751   0.649   3.321
  365TCM    cl2 1990   1.470   0.633   3.405
  365TCM     h1 1991   1.619   0.453   3.353
  365TCM    cl3 1992   1.683   0.522   3.574
  366TCM     c1 1993   2.192   4.152   0.805
  366TCM    cl1 1994   2.359   4.109   0.755
  366TCM    cl2 1995   2.077   4.104   0.675
  366TCM     h1 1996   2.167   4.100   0.897
  366TCM    cl3 1997   2.179   4.329   0.829
  367TCM     c1 1998   3.349   1.816   4.112
  367TCM    cl1 1999   3.206   1.917   4.153
  367TCM    cl2 2000   3.331   1.756   3.944
  367TCM     h1 2001   3.439   1.877   4.120
  367TCM    cl3 2002   3.360   1.678   4.225
  368TCM     c1 2003   2.253   3.692   4.040
  368TCM    cl1 2004   2.264   3.518   4.084
  368TCM    cl2 2005   2.134   3.772   4.148
  368TCM     h1 2006   2.351   3.738   4.052
  368TCM    cl3 2007   2.201   3.708   3.869
  369TCM     c1 2008   3.138   0.646   4.673
  369TCM    cl1 2009   3.043   0.680   4.524
  369TCM    cl2 2010   3.058   0.724   4.814
  369TCM     h1 2011   3.143   0.538   4.689
  369TCM    cl3 2012   3.304   0.712   4.654
  370TCM     c1 2013   2.899   2.579   2.341
  370TCM    cl1 2014   2.942   2.548   2.512
  370TCM    cl2 2015   3.021   2.687   2.266
  370TCM     h1 2016   2.896   2.485   2.286
  370TCM    cl3 2017   2.737   2.658   2.333
  371TCM     c1 2018   4.974   4.047   0.745
  371TCM    cl1 2019   5.140   3.982   0.759
  371TCM    cl2 2020   4.977   4.224   0.772
  371TCM     h1 2021   4.935   4.025   0.645
  371TCM    cl3 2022   4.868   3.972   0.868
  372TCM     c1 2023   1.896   2.898   4.384
  372TCM    cl1 2024   1.768   3.017   4.420
  372TCM    cl2 2025   2.043   2.936   4.479
  372TCM     h1 2026   1.862   2.797   4.409
  372TCM    cl3 2027   1.935   2.905   4.209
  373TCM     c1 2028   2.606   4.250   4.176
  373TCM    cl1 2029   2.696   4.395   4.233
  373TCM    cl2 2030   2.553   4.155   4.318
  373TCM     h1 2031   2.519   4.282   4.118
  373TCM    cl3 2032   2.713   4.148   4.074
  374TCM     c1 2033   4.584   0.296   2.727
  374TCM    cl1 2034   4.625   0.204   2.876
  374TCM    cl2 2035   4.410   0.337   2.731
  374TCM     h1 2036   4.644   0.388   2.722
  374TCM    cl3 2037   4.618   0.195   2.583
  375TCM     c1 2038   2.026   3.716   1.932
  375TCM    cl1 2039   2.082   3.547   1.917
  375TCM    cl2 2040   2.165   3.820   1.977
  375TCM     h1 2041   1.983   3.750   1.837
  375TCM    cl3 2042   1.901   3.726   2.060
  376TCM     c1 2043   3.278   0.449   0.831
  376TCM    cl1 2044   3.186   0.500   0.976
  376TCM    cl2 2045   3.306   0.272   0.838
  376TCM     h1 2046   3.222   0.474   0.740
  376TCM    cl3 2047   3.437   0.534   0.828
  377TCM     c1 2048   4.996   3.693   3.075
  377TCM    cl1 2049   4.977   3.804   2.936
  377TCM    cl2 2050   4.938   3.530   3.028
  377TCM     h1 2051   5.101   3.688   3.104
  377TCM    cl3 2052   4.898   3.754   3.211
  378TCM     c1 2053   2.828   2.838   4.674
  378TCM    cl1 2054   2.891   2.732   4.804
  378TCM    cl2 2055   2.652   2.807   4.652
  378TCM     h1 2056   2.844   2.943   4.700
  378TCM    cl3 2057   2.913   2.800   4.521
  379TCM     c1 2058   2.002   0.438   0.635
  379TCM    cl1 2059   1.888   0.386   0.763
  379TCM    cl2 2060   1.912   0.535   0.514
  379TCM     h1 2061   2.082   0.498   0.679
  379TCM    cl3 2062   2.073   0.295   0.553
  380TCM     c1 2063   2.785   0.435   1.920
  380TCM    cl1 2064   2.873   0.421   1.764
  380TCM    cl2 2065   2.904   0.453   2.054
  380TCM     h1 2066   2.720   0.522   1.918
  380TCM    cl3 2067   2.687   0.287   1.945
  381TCM     c1 2068   1.771   3.732   4.354
  381TCM    cl1 2069   1.628   3.675   4.261
  381TCM    cl2 2070   1.732   3.728   4.530
  381TCM     h1 2071   1.856   3.666   4.335
  381TCM    cl3 2072   1.811   3.899   4.305
  382TCM     c1 2073   0.767   2.668   0.557
  382TCM    cl1 2074   0.908   2.777   0.576
  382TCM    cl2 2075   0.665   2.678   0.704
  382TCM     h1 2076   0.709   2.698   0.470
  382TCM    cl3 2077   0.825   2.500   0.536
  383TCM     c1 2078   2.754   0.217   3.151
  383TCM    cl1 2079   2.921   0.281   3.141
  383TCM    cl2 2080   2.760   0.037   3.160
  383TCM     h1 2081   2.705   0.256   3.241
  383TCM    cl3 2082   2.661   0.265   3.006
  384TCM     c1 2083   2.098   3.130   0.864
  384TCM    cl1 2084   2.207   3.198   0.738
  384TCM    cl2 2085   2.158   3.179   1.026
  384TCM     h1 2086   1.997   3.168   0.849
  384TCM    cl3 2087   2.098   2.951   0.851
  385TCM     c1 2088   3.100   0.314   4.027
  385TCM    cl1 2089   3.004   0.369   3.886
  385TCM    cl2 2090   3.029   0.164   4.096
  385TCM     h1 2091   3.203   0.294   3.995
  385TCM    cl3 2092   3.101   0.442   4.153
  386TCM     c1 2093   0.004   0.462   3.896
  386TCM    cl1 2094   0.097   0.424   4.045
  386TCM    cl2 2095  -0.125   0.339   3.876
  386TCM     h1 2096  -0.041   0.561   3.905
  386TCM    cl3 2097   0.113   0.458   3.754
  387TCM     c1 2098   2.461   2.592   3.593
  387TCM    cl1 2099   2.521   2.761   3.594
  387TCM    cl2 2100   2.563   2.495   3.481
  387TCM     h1 2101   2.467   2.550   3.693
  387TCM    cl3 2102   2.291   2.589   3.537
  388TCM     c1 2103   1.007   1.264   4.957
  388TCM    cl1 2104   1.051   1.151   4.826
  388TCM    cl2 2105   1.135   1.389   4.974
  388TCM     h1 2106   0.912   1.313   4.933
  388TCM    cl3 2107   0.990   1.174   5.112
  389TCM     c1 2108   4.733   3.194   1.773
  389TCM    cl1 2109   4.741   3.018   1.738
  389TCM    cl2 2110   4.766   3.221   1.947
  389TCM     h1 2111   4.808   3.247   1.713
  389TCM    cl3 2112   4.569   3.256   1.734
  390TCM     c1 2113   2.870   3.456   0.570
  390TCM    cl1 2114   2.803   3.621   0.590
  390TCM    cl2 2115   3.045   3.456   0.610
  390TCM     h1 2116   2.818   3.387   0.636
  390TCM    cl3 2117   2.848   3.404   0.399
  391TCM     c1 2118   2.507   4.808   1.281
  391TCM    cl1 2119   2.338   4.867   1.289
  391TCM    cl2 2120   2.527   4.704   1.137
  391TCM     h1 2121   2.575   4.894   1.274
  391TCM    cl3 2122   2.544   4.714   1.429
  392TCM     c1 2123   2.689   4.007   4.692
  392TCM    cl1 2124   2.784   3.960   4.547
  392TCM    cl2 2125   2.726   3.894   4.826
  392TCM     h1 2126   2.716   4.108   4.721
  392TCM    cl3 2127   2.514   3.998   4.654
  393TCM     c1 2128   3.798   3.939   2.609
  393TCM    cl1 2129   3.906   4.049   2.701
  393TCM    cl2 2130   3.721   3.824   2.723
  393TCM     h1 2131   3.721   3.998   2.559
  393TCM    cl3 2132   3.893   3.850   2.486
  394TCM     c1 2133   2.315   1.449   2.205
  394TCM    cl1 2134   2.461   1.539   2.153
  394TCM    cl2 2135   2.346   1.272   2.189
  394TCM     h1 2136   2.293   1.472   2.309
  394TCM    cl3 2137   2.176   1.496   2.102
  395TCM     c1 2138   4.939   2.443   0.427
  395TCM    cl1 2139   4.847   2.307   0.357
  395TCM    cl2 2140   4.841   2.593   0.421
  395TCM     h1 2141   4.965   2.420   0.531
  395TCM    cl3 2142   5.089   2.468   0.333
  396TCM     c1 2143   4.077   0.725   3.014
  396TCM    cl1 2144   4.101   0.802   3.174
  396TCM    cl2 2145   4.101   0.847   2.886
  396TCM     h1 2146   4.148   0.643   3.001
  396TCM    cl3 2147   3.910   0.660   3.004
  397TCM     c1 2148   4.989   2.488   4.909
  397TCM    cl1 2149   4.985   2.337   5.006
  397TCM    cl2 2150   5.067   2.455   4.751
  397TCM     h1 2151   4.887   2.524   4.893
  397TCM    cl3 2152   5.084   2.612   4.998
  398TCM     c1 2153   3.282   0.936   0.939
  398TCM    cl1 2154   3.190   0.865   1.076
  398TCM    cl2 2155   3.228   1.105   0.913
  398TCM     h1 2156   3.389   0.935   0.963
  398TCM    cl3 2157   3.252   0.840   0.790
  399TCM     c1 2158   2.776   4.434   4.607
  399TCM    cl1 2159   2.810   4.497   4.771
  399TCM    cl2 2160   2.615   4.354   4.609
  399TCM     h1 2161   2.777   4.515   4.534
  399TCM    cl3 2162   2.901   4.312   4.565
  400TCM     c1 2163   1.424   0.276   0.548
  400TCM    cl1 2164   1.604   0.278   0.554
  400TCM    cl2 2165   1.363   0.137   0.645
  400TCM     h1 2166   1.385   0.369   0.590
  400TCM    cl3 2167   1.371   0.258   0.378
  401TCM     c1 2168   1.489   3.341   4.418
  401TCM    cl1 2169   1.415   3.290   4.574
  401TCM    cl2 2170   1.459   3.215   4.294
  401TCM     h1 2171   1.445   3.436   4.386
  401TCM    cl3 2172   1.666   3.362   4.441
  402TCM     c1 2173   1.389   2.244   2.014
  402TCM    cl1 2174   1.398   2.141   2.161
  402TCM    cl2 2175   1.396   2.140   1.868
  402TCM     h1 2176   1.295   2.300   2.015
  402TCM    cl3 2177   1.527   2.358   2.013
  403TCM     c1 2178   1.218   1.263   0.498
  403TCM    cl1 2179   1.231   1.333   0.333
  403TCM    cl2 2180   1.382   1.251   0.569
  403TCM     h1 2181   1.155   1.327   0.560
  403TCM    cl3 2182   1.145   1.100   0.486
  404TCM     c1 2183   0.418   0.210   3.390
  404TCM    cl1 2184   0.361   0.270   3.550
  404TCM    cl2 2185   0.513   0.339   3.309
  404TCM     h1 2186   0.480   0.122   3.405
  404TCM    cl3 2187   0.277   0.168   3.287
  405TCM     c1 2188   2.694   3.767   0.257
  405TCM    cl1 2189   2.642   3.922   0.184
  405TCM    cl2 2190   2.764   3.662   0.129
  405TCM     h1 2191   2.769   3.786   0.334
  405TCM    cl3 2192   2.552   3.685   0.330
  406TCM     c1 2193   0.185   2.007   0.462
  406TCM    cl1 2194   0.243   2.076   0.617
  406TCM    cl2 2195   0.215   2.126   0.330
  406TCM     h1 2196   0.238   1.914   0.440
  406TCM    cl3 2197   0.009   1.975   0.473
  407TCM     c1 2198   3.079   4.755   4.092
  407TCM    cl1 2199   3.044   4.788   3.919
  407TCM    cl2 2200   3.243   4.684   4.106
  407TCM     h1 2201   3.073   4.848   4.149
  407TCM    cl3 2202   2.958   4.638   4.156
  408TCM     c1 2203   0.242   3.330   3.228
  408TCM    cl1 2204   0.203   3.277   3.061
  408TCM    cl2 2205   0.274   3.506   3.229
  408TCM     h1 2206   0.157   3.309   3.293
  408TCM    cl3 2207   0.387   3.242   3.286
  409TCM     c1 2208   2.877   0.866   1.730
  409TCM    cl1 2209   2.813   0.980   1.607
  409TCM    cl2 2210   3.006   0.766   1.656
  409TCM     h1 2211   2.918   0.922   1.815
  409TCM    cl3 2212   2.745   0.760   1.787
  410TCM     c1 2213   4.743   4.918   4.177
  410TCM    cl1 2214   4.722   5.004   4.021
  410TCM    cl2 2215   4.722   4.742   4.154
  410TCM     h1 2216   4.844   4.938   4.216
  410TCM    cl3 2217   4.621   4.978   4.294
  411TCM     c1 2218   3.726   0.930   1.766
  411TCM    cl1 2219   3.720   0.781   1.667
  411TCM    cl2 2220   3.656   1.067   1.673
  411TCM     h1 2221   3.668   0.915   1.858
  411TCM    cl3 2222   3.896   0.969   1.807
  412TCM     c1 2223   2.324   4.999   2.116
  412TCM    cl1 2224   2.223   4.979   2.263
  412TCM    cl2 2225   2.363   4.838   2.046
  412TCM     h1 2226   2.271   5.060   2.043
  412TCM    cl3 2227   2.478   5.080   2.161
  413TCM     c1 2228   2.177   2.632   0.688
  413TCM    cl1 2229   2.017   2.650   0.610
  413TCM    cl2 2230   2.301   2.721   0.594
  413TCM     h1 2231   2.172   2.672   0.790
  413TCM    cl3 2232   2.222   2.458   0.694
  414TCM     c1 2233   2.070   4.645   0.199
  414TCM    cl1 2234   1.895   4.617   0.171
  414TCM    cl2 2235   2.107   4.819   0.174
  414TCM     h1 2236   2.096   4.617   0.302
  414TCM    cl3 2237   2.166   4.548   0.083
  415TCM     c1 2238   3.691   1.153   2.246
  415TCM    cl1 2239   3.708   1.041   2.108
  415TCM    cl2 2240   3.744   1.071   2.397
  415TCM     h1 2241   3.752   1.242   2.230
  415TCM    cl3 2242   3.519   1.201   2.263
  416TCM     c1 2243   3.256   4.138   0.627
  416TCM    cl1 2244   3.252   4.022   0.490
  416TCM    cl2 2245   3.336   4.062   0.768
  416TCM     h1 2246   3.311   4.228   0.597
  416TCM    cl3 2247   3.088   4.183   0.671
  417TCM     c1 2248   1.838   4.185   1.994
  417TCM    cl1 2249   1.903   4.057   1.886
  417TCM    cl2 2250   1.708   4.274   1.908
  417TCM     h1 2251   1.797   4.139   2.084
  417TCM    cl3 2252   1.971   4.297   2.038
  418TCM     c1 2253   4.932   2.870   2.760
  418TCM    cl1 2254   5.085   2.901   2.849
  418TCM    cl2 2255   4.884   2.698   2.783
  418TCM     h1 2256   4.853   2.935   2.798
  418TCM    cl3 2257   4.957   2.903   2.586
  419TCM     c1 2258   1.678   1.442   1.961
  419TCM    cl1 2259   1.564   1.351   1.858
  419TCM    cl2 2260   1.841   1.367   1.952
  419TCM     h1 2261   1.683   1.546   1.928
  419TCM    cl3 2262   1.621   1.435   2.130
  420TCM     c1 2263   0.812   4.294   0.093
  420TCM    cl1 2264   0.897   4.359  -0.051
  420TCM    cl2 2265   0.895   4.351   0.241
  420TCM     h1 2266   0.708   4.328   0.093
  420TCM    cl3 2267   0.816   4.114   0.087
  421TCM     c1 2268   3.124   2.668   0.734
  421TCM    cl1 2269   3.102   2.821   0.643
  421TCM    cl2 2270   3.014   2.543   0.666
  421TCM     h1 2271   3.228   2.634   0.724
  421TCM    cl3 2272   3.086   2.693   0.907
  422TCM     c1 2273   0.635   1.860   2.356
  422TCM    cl1 2274   0.703   2.022   2.392
  422TCM    cl2 2275   0.457   1.864   2.378
  422TCM     h1 2276   0.658   1.833   2.253
  422TCM    cl3 2277   0.707   1.739   2.467
  423TCM     c1 2278   2.716   0.536   4.552
  423TCM    cl1 2279   2.621   0.396   4.493
  423TCM    cl2 2280   2.759   0.511   4.724
  423TCM     h1 2281   2.807   0.547   4.492
  423TCM    cl3 2282   2.617   0.685   4.537
  424TCM     c1 2283   0.058   4.003   3.931
  424TCM    cl1 2284   0.206   4.076   3.862
  424TCM    cl2 2285  -0.002   4.106   4.066
  424TCM     h1 2286  -0.019   3.995   3.854
  424TCM    cl3 2287   0.096   3.839   3.993
  425TCM     c1 2288   0.183   4.190   1.070
  425TCM    cl1 2289   0.053   4.119   1.172
  425TCM    cl2 2290   0.342   4.119   1.115
  425TCM     h1 2291   0.162   4.168   0.965
  425TCM    cl3 2292   0.188   4.367   1.094
  426TCM     c1 2293   2.500   2.364   0.373
  426TCM    cl1 2294   2.440   2.276   0.229
  426TCM    cl2 2295   2.543   2.532   0.325
  426TCM     h1 2296   2.422   2.367   0.450
  426TCM    cl3 2297   2.645   2.281   0.439
  427TCM     c1 2298   3.304   2.377   2.227
  427TCM    cl1 2299   3.408   2.484   2.128
  427TCM    cl2 2300   3.144   2.356   2.147
  427TCM     h1 2301   3.351   2.279   2.238
  427TCM    cl3 2302   3.280   2.450   2.389
  428TCM     c1 2303   3.952   1.301   4.771
  428TCM    cl1 2304   4.036   1.389   4.902
  428TCM    cl2 2305   4.038   1.147   4.739
  428TCM     h1 2306   3.849   1.279   4.801
  428TCM    cl3 2307   3.951   1.400   4.622
  429TCM     c1 2308   0.779   1.851   4.325
  429TCM    cl1 2309   0.786   1.893   4.500
  429TCM    cl2 2310   0.609   1.820   4.278
  429TCM     h1 2311   0.819   1.933   4.266
  429TCM    cl3 2312   0.877   1.703   4.296
  430TCM     c1 2313   0.291   0.339   2.037
  430TCM    cl1 2314   0.353   0.194   1.950
  430TCM    cl2 2315   0.355   0.341   2.204
  430TCM     h1 2316   0.323   0.429   1.985
  430TCM    cl3 2317   0.112   0.331   2.041
  431TCM     c1 2318   3.556   0.411   1.149
  431TCM    cl1 2319   3.425   0.311   1.220
  431TCM    cl2 2320   3.649   0.312   1.031
  431TCM     h1 2321   3.513   0.498   1.099
  431TCM    cl3 2322   3.666   0.467   1.280
  432TCM     c1 2323   2.944   2.022   3.493
  432TCM    cl1 2324   3.016   2.186   3.495
  432TCM    cl2 2325   2.851   1.995   3.644
  432TCM     h1 2326   2.878   2.012   3.407
  432TCM    cl3 2327   3.076   1.900   3.482
  433TCM     c1 2328   3.597   2.717   3.505
  433TCM    cl1 2329   3.722   2.839   3.465
  433TCM    cl2 2330   3.649   2.557   3.442
  433TCM     h1 2331   3.584   2.711   3.614
  433TCM    cl3 2332   3.440   2.763   3.430
  434TCM     c1 2333   3.029   4.455   1.663
  434TCM    cl1 2334   2.875   4.540   1.701
  434TCM    cl2 2335   3.098   4.520   1.511
  434TCM     h1 2336   3.099   4.469   1.745
  434TCM    cl3 2337   2.996   4.281   1.641
  435TCM     c1 2338   0.392   1.320   4.021
  435TCM    cl1 2339   0.421   1.173   4.119
  435TCM    cl2 2340   0.216   1.336   3.989
  435TCM     h1 2341   0.428   1.408   4.075
  435TCM    cl3 2342   0.479   1.307   3.864
  436TCM     c1 2343   0.511   1.971   1.531
  436TCM    cl1 2344   0.684   2.011   1.556
  436TCM    cl2 2345   0.476   1.809   1.599
  436TCM     h1 2346   0.448   2.046   1.581
  436TCM    cl3 2347   0.475   1.970   1.355
  437TCM     c1 2348   0.053   2.718   1.190
  437TCM    cl1 2349   0.209   2.750   1.108
  437TCM    cl2 2350  -0.079   2.802   1.101
  437TCM     h1 2351   0.034   2.610   1.192
  437TCM    cl3 2352   0.059   2.780   1.358
  438TCM     c1 2353   1.090   3.410   4.748
  438TCM    cl1 2354   0.987   3.350   4.882
  438TCM    cl2 2355   1.067   3.587   4.732
  438TCM     h1 2356   1.195   3.388   4.770
  438TCM    cl3 2357   1.042   3.329   4.595
  439TCM     c1 2358   3.386   1.283   1.285
  439TCM    cl1 2359   3.224   1.207   1.279
  439TCM    cl2 2360   3.498   1.193   1.177
  439TCM     h1 2361   3.379   1.387   1.252
  439TCM    cl3 2362   3.447   1.278   1.454
  440TCM     c1 2363   3.651   1.871   4.539
  440TCM    cl1 2364   3.752   1.724   4.515
  440TCM    cl2 2365   3.510   1.830   4.642
  440TCM     h1 2366   3.710   1.949   4.587
  440TCM    cl3 2367   3.592   1.930   4.380
  441TCM     c1 2368   0.422   3.942   4.246
  441TCM    cl1 2369   0.267   4.019   4.292
  441TCM    cl2 2370   0.480   4.013   4.092
  441TCM     h1 2371   0.497   3.961   4.324
  441TCM    cl3 2372   0.399   3.766   4.227
  442TCM     c1 2373   3.487   3.345   0.066
  442TCM    cl1 2374   3.406   3.292  -0.085
  442TCM    cl2 2375   3.386   3.296   0.207
  442TCM     h1 2376   3.585   3.298   0.074
  442TCM    cl3 2377   3.506   3.523   0.065
  443TCM     c1 2378   0.772   2.351   1.296
  443TCM    cl1 2379   0.606   2.308   1.350
  443TCM    cl2 2380   0.874   2.204   1.295
  443TCM     h1 2381   0.767   2.394   1.196
  443TCM    cl3 2382   0.843   2.471   1.410
  444TCM     c1 2383   4.434   0.114   0.066
  444TCM    cl1 2384   4.381   0.285   0.058
  444TCM    cl2 2385   4.569   0.099   0.184
  444TCM     h1 2386   4.351   0.051   0.098
  444TCM    cl3 2387   4.489   0.061  -0.096
  445TCM     c1 2388   4.485   1.260   4.775
  445TCM    cl1 2389   4.349   1.324   4.678
  445TCM    cl2 2390   4.428   1.220   4.940
  445TCM     h1 2391   4.525   1.170   4.727
  445TCM    cl3 2392   4.613   1.385   4.785
  446TCM     c1 2393   3.144   0.709   3.332
  446TCM    cl1 2394   3.012   0.665   3.218
  446TCM    cl2 2395   3.078   0.806   3.467
  446TCM     h1 2396   3.190   0.618   3.372
  446TCM    cl3 2397   3.268   0.804   3.245
  447TCM     c1 2398   4.206   1.657   4.601
  447TCM    cl1 2399   4.368   1.729   4.627
  447TCM    cl2 2400   4.141   1.713   4.444
  447TCM     h1 2401   4.214   1.548   4.601
  447TCM    cl3 2402   4.096   1.710   4.732
  448TCM     c1 2403   4.946   2.227   3.503
  448TCM    cl1 2404   4.907   2.070   3.426
  448TCM    cl2 2405   4.975   2.350   3.375
  448TCM     h1 2406   4.862   2.259   3.565
  448TCM    cl3 2407   5.093   2.208   3.604
  449TCM     c1 2408   4.775   4.706   3.538
  449TCM    cl1 2409   4.709   4.574   3.437
  449TCM    cl2 2410   4.951   4.678   3.562
  449TCM     h1 2411   4.759   4.803   3.489
  449TCM    cl3 2412   4.692   4.704   3.697
  450TCM     c1 2413   3.412   0.531   3.757
  450TCM    cl1 2414   3.308   0.623   3.871
  450TCM    cl2 2415   3.375   0.582   3.589
  450TCM     h1 2416   3.517   0.551   3.779
  450TCM    cl3 2417   3.379   0.356   3.775
  451TCM     c1 2418   3.747   3.712   1.667
  451TCM    cl1 2419   3.855   3.817   1.570
  451TCM    cl2 2420   3.756   3.763   1.839
  451TCM     h1 2421   3.644   3.720   1.631
  451TCM    cl3 2422   3.803   3.542   1.651
  452TCM     c1 2423   0.668   0.102   1.101
  452TCM    cl1 2424   0.768   0.086   1.249
  452TCM    cl2 2425   0.661  -0.056   1.017
  452TCM     h1 2426   0.567   0.133   1.129
  452TCM    cl3 2427   0.740   0.225   0.993
  453TCM     c1 2428   2.240   3.786   3.489
  453TCM    cl1 2429   2.349   3.648   3.524
  453TCM    cl2 2430   2.099   3.727   3.396
  453TCM     h1 2431   2.206   3.831   3.582
  453TCM    cl3 2432   2.329   3.907   3.391
  454TCM     c1 2433   4.481   3.947   1.137
  454TCM    cl1 2434   4.425   3.835   1.265
  454TCM    cl2 2435   4.612   4.053   1.201
  454TCM     h1 2436   4.520   3.890   1.052
  454TCM    cl3 2437   4.343   4.049   1.083
  455TCM     c1 2438   3.175   4.211   4.296
  455TCM    cl1 2439   3.033   4.278   4.209
  455TCM    cl2 2440   3.125   4.065   4.388
  455TCM     h1 2441   3.252   4.184   4.223
  455TCM    cl3 2442   3.239   4.334   4.410
  456TCM     c1 2443   1.704   2.032   4.845
  456TCM    cl1 2444   1.643   2.179   4.928
  456TCM    cl2 2445   1.565   1.933   4.789
  456TCM     h1 2446   1.766   2.060   4.760
  456TCM    cl3 2447   1.803   1.936   4.961
  457TCM     c1 2448   1.803   3.292   1.861
  457TCM    cl1 2449   1.761   3.441   1.770
  457TCM    cl2 2450   1.824   3.333   2.035
  457TCM     h1 2451   1.723   3.219   1.850
  457TCM    cl3 2452   1.956   3.226   1.796
  458TCM     c1 2453   1.825   4.885   1.279
  458TCM    cl1 2454   1.976   4.897   1.376
  458TCM    cl2 2455   1.851   4.772   1.142
  458TCM     h1 2456   1.743   4.849   1.342
  458TCM    cl3 2457   1.784   5.047   1.213
  459TCM     c1 2458   3.789   4.181   3.380
  459TCM    cl1 2459   3.833   4.339   3.452
  459TCM    cl2 2460   3.617   4.145   3.415
  459TCM     h1 2461   3.805   4.184   3.272
  459TCM    cl3 2462   3.893   4.053   3.452
  460TCM     c1 2463   0.385   0.988   3.624
  460TCM    cl1 2464   0.330   1.140   3.545
  460TCM    cl2 2465   0.331   0.987   3.795
  460TCM     h1 2466   0.341   0.902   3.572
  460TCM    cl3 2467   0.564   0.979   3.618
  461TCM     c1 2468   1.431   4.415   0.340
  461TCM    cl1 2469   1.478   4.430   0.513
  461TCM    cl2 2470   1.254   4.437   0.324
  461TCM     h1 2471   1.483   4.491   0.282
  461TCM    cl3 2472   1.477   4.252   0.279
  462TCM     c1 2473   3.141   0.272   0.026
  462TCM    cl1 2474   3.029   0.261   0.166
  462TCM    cl2 2475   3.061   0.363  -0.106
  462TCM     h1 2476   3.233   0.323   0.056
  462TCM    cl3 2477   3.180   0.107  -0.031
  463TCM     c1 2478   3.594   0.957   3.098
  463TCM    cl1 2479   3.535   1.076   2.979
  463TCM    cl2 2480   3.771   0.978   3.122
  463TCM     h1 2481   3.542   0.972   3.193
  463TCM    cl3 2482   3.562   0.791   3.037
  464TCM     c1 2483   4.883   4.388   3.782
  464TCM    cl1 2484   4.844   4.218   3.740
  464TCM    cl2 2485   5.061   4.407   3.795
  464TCM     h1 2486   4.844   4.454   3.705
  464TCM    cl3 2487   4.809   4.429   3.940
  465TCM     c1 2488   4.291   1.600   0.133
  465TCM    cl1 2489   4.138   1.694   0.138
  465TCM    cl2 2490   4.351   1.593  -0.036
  465TCM     h1 2491   4.366   1.648   0.196
  465TCM    cl3 2492   4.260   1.434   0.192
  466TCM     c1 2493   0.413   0.581   2.538
  466TCM    cl1 2494   0.442   0.679   2.391
  466TCM    cl2 2495   0.257   0.493   2.524
  466TCM     h1 2496   0.494   0.509   2.551
  466TCM    cl3 2497   0.407   0.689   2.681
  467TCM     c1 2498   0.415   1.991   2.027
  467TCM    cl1 2499   0.516   1.844   2.010
  467TCM    cl2 2500   0.340   2.028   1.868
  467TCM     h1 2501   0.336   1.974   2.101
  467TCM    cl3 2502   0.517   2.129   2.078
  468TCM     c1 2503   3.473   2.178   1.806
  468TCM    cl1 2504   3.541   2.344   1.810
  468TCM    cl2 2505   3.340   2.171   1.686
  468TCM     h1 2506   3.552   2.107   1.778
  468TCM    cl3 2507   3.409   2.136   1.968
  469TCM     c1 2508   2.561   0.990   4.100
  469TCM    cl1 2509   2.548   0.926   3.933
  469TCM    cl2 2510   2.518   0.861   4.217
  469TCM     h1 2511   2.663   1.024   4.119
  469TCM    cl3 2512   2.447   1.128   4.119
  470TCM     c1 2513   4.520   2.416   4.697
  470TCM    cl1 2514   4.490   2.589   4.730
  470TCM    cl2 2515   4.399   2.317   4.785
  470TCM     h1 2516   4.512   2.397   4.589
  470TCM    cl3 2517   4.685   2.372   4.753
  471TCM     c1 2518   3.756   0.876   2.732
  471TCM    cl1 2519   3.587   0.884   2.670
  471TCM    cl2 2520   3.819   1.042   2.757
  471TCM     h1 2521   3.758   0.821   2.826
  471TCM    cl3 2522   3.859   0.791   2.611
  472TCM     c1 2523   3.134   1.974   3.101
  472TCM    cl1 2524   3.157   2.004   2.925
  472TCM    cl2 2525   2.960   1.978   3.139
  472TCM     h1 2526   3.175   1.876   3.126
  472TCM    cl3 2527   3.220   2.101   3.194
  473TCM     c1 2528   3.551   1.748   1.175
  473TCM    cl1 2529   3.703   1.837   1.208
  473TCM    cl2 2530   3.447   1.753   1.321
  473TCM     h1 2531   3.499   1.795   1.091
  473TCM    cl3 2532   3.588   1.577   1.136
  474TCM     c1 2533   0.302   3.448   1.434
  474TCM    cl1 2534   0.125   3.428   1.455
  474TCM    cl2 2535   0.339   3.475   1.260
  474TCM     h1 2536   0.337   3.533   1.492
  474TCM    cl3 2537   0.386   3.300   1.491
  475TCM     c1 2538   2.613   3.801   4.274
  475TCM    cl1 2539   2.442   3.819   4.326
  475TCM    cl2 2540   2.619   3.781   4.096
  475TCM     h1 2541   2.669   3.890   4.303
  475TCM    cl3 2542   2.683   3.656   4.353
  476TCM     c1 2543   1.636   1.541   1.456
  476TCM    cl1 2544   1.753   1.465   1.568
  476TCM    cl2 2545   1.683   1.712   1.431
  476TCM     h1 2546   1.638   1.488   1.361
  476TCM    cl3 2547   1.472   1.533   1.528
  477TCM     c1 2548   4.564   2.485   0.148
  477TCM    cl1 2549   4.689   2.588   0.071
  477TCM    cl2 2550   4.593   2.314   0.103
  477TCM     h1 2551   4.569   2.496   0.256
  477TCM    cl3 2552   4.402   2.535   0.089
  478TCM     c1 2553   2.895   4.588   3.440
  478TCM    cl1 2554   2.802   4.710   3.347
  478TCM    cl2 2555   2.781   4.474   3.519
  478TCM     h1 2556   2.961   4.533   3.373
  478TCM    cl3 2557   2.991   4.671   3.567
  479TCM     c1 2558   0.225   3.775   0.180
  479TCM    cl1 2559   0.071   3.691   0.141
  479TCM    cl2 2560   0.218   3.835   0.349
  479TCM     h1 2561   0.308   3.705   0.170
  479TCM    cl3 2562   0.247   3.913   0.068
  480TCM     c1 2563   0.950   2.682   2.930
  480TCM    cl1 2564   0.926   2.859   2.948
  480TCM    cl2 2565   0.790   2.600   2.930
  480TCM     h1 2566   1.002   2.662   2.836
  480TCM    cl3 2567   1.049   2.621   3.067
  481TCM     c1 2568   2.450   2.837   1.029
  481TCM    cl1 2569   2.459   2.971   0.910
  481TCM    cl2 2570   2.413   2.685   0.942
  481TCM     h1 2571   2.546   2.828   1.082
  481TCM    cl3 2572   2.319   2.870   1.147
  482TCM     c1 2573   4.784   3.456   3.510
  482TCM    cl1 2574   4.893   3.419   3.372
  482TCM    cl2 2575   4.626   3.377   3.483
  482TCM     h1 2576   4.829   3.419   3.602
  482TCM    cl3 2577   4.760   3.634   3.523
  483TCM     c1 2578   2.400   4.973   2.966
  483TCM    cl1 2579   2.470   4.836   3.058
  483TCM    cl2 2580   2.337   5.095   3.081
  483TCM     h1 2581   2.478   5.018   2.903
  483TCM    cl3 2582   2.266   4.913   2.862
  484TCM     c1 2583   0.200   2.748   3.967
  484TCM    cl1 2584   0.350   2.843   3.939
  484TCM    cl2 2585   0.058   2.843   3.911
  484TCM     h1 2586   0.205   2.654   3.911
  484TCM    cl3 2587   0.183   2.713   4.142
  485TCM     c1 2588   2.600   2.125   3.205
  485TCM    cl1 2589   2.597   1.973   3.300
  485TCM    cl2 2590   2.632   2.086   3.033
  485TCM     h1 2591   2.504   2.176   3.214
  485TCM    cl3 2592   2.730   2.231   3.270
  486TCM     c1 2593   1.954   0.818   3.852
  486TCM    cl1 2594   1.885   0.691   3.958
  486TCM    cl2 2595   1.863   0.971   3.874
  486TCM     h1 2596   2.059   0.834   3.878
  486TCM    cl3 2597   1.942   0.767   3.680
  487TCM     c1 2598   0.918   0.211   0.659
  487TCM    cl1 2599   0.790   0.335   0.635
  487TCM    cl2 2600   1.023   0.208   0.513
  487TCM     h1 2601   0.978   0.236   0.746
  487TCM    cl3 2602   0.842   0.050   0.681
  488TCM     c1 2603   4.022   1.098   3.388
  488TCM    cl1 2604   4.012   1.277   3.380
  488TCM    cl2 2605   3.879   1.035   3.476
  488TCM     h1 2606   4.024   1.057   3.287
  488TCM    cl3 2607   4.171   1.051   3.476
  489TCM     c1 2608   3.175   4.881   3.174
  489TCM    cl1 2609   3.034   4.817   3.084
  489TCM    cl2 2610   3.125   4.915   3.343
  489TCM     h1 2611   3.256   4.807   3.174
  489TCM    cl3 2612   3.231   5.033   3.098
  490TCM     c1 2613   2.213   2.200   2.889
  490TCM    cl1 2614   2.090   2.330   2.891
  490TCM    cl2 2615   2.279   2.179   3.055
  490TCM     h1 2616   2.166   2.106   2.857
  490TCM    cl3 2617   2.345   2.243   2.776
  491TCM     c1 2618   1.615   0.628   0.132
  491TCM    cl1 2619   1.729   0.705   0.247
  491TCM    cl2 2620   1.561   0.750   0.012
  491TCM     h1 2621   1.664   0.545   0.081
  491TCM    cl3 2622   1.473   0.568   0.223
  492TCM     c1 2623   2.128   4.431   3.968
  492TCM    cl1 2624   2.041   4.397   3.814
  492TCM    cl2 2625   2.136   4.609   3.993
  492TCM     h1 2626   2.075   4.385   4.051
  492TCM    cl3 2627   2.294   4.365   3.957
  493TCM     c1 2628   0.744   3.803   4.921
  493TCM    cl1 2629   0.822   3.868   4.773
  493TCM    cl2 2630   0.727   3.625   4.907
  493TCM     h1 2631   0.806   3.828   5.008
  493TCM    cl3 2632   0.581   3.876   4.941
  494TCM     c1 2633   0.092   2.861   1.712
  494TCM    cl1 2634   0.144   3.013   1.631
  494TCM    cl2 2635   0.055   2.896   1.884
  494TCM     h1 2636   0.003   2.822   1.662
  494TCM    cl3 2637   0.224   2.739   1.703
  495TCM     c1 2638   3.230   1.139   3.384
  495TCM    cl1 2639   3.310   1.260   3.489
  495TCM    cl2 2640   3.282   1.165   3.214
  495TCM     h1 2641   3.259   1.038   3.416
  495TCM    cl3 2642   3.052   1.157   3.395
  496TCM     c1 2643   4.807   1.207   2.058
  496TCM    cl1 2644   4.871   1.126   1.911
  496TCM    cl2 2645   4.923   1.183   2.193
  496TCM     h1 2646   4.795   1.313   2.039
  496TCM    cl3 2647   4.648   1.136   2.103
  497TCM     c1 2648   1.533   0.240   1.047
  497TCM    cl1 2649   1.441   0.351   0.939
  497TCM    cl2 2650   1.469   0.073   1.029
  497TCM     h1 2651   1.639   0.242   1.020
  497TCM    cl3 2652   1.513   0.293   1.217
  498TCM     c1 2653   2.681   3.132   3.455
  498TCM    cl1 2654   2.822   3.095   3.559
  498TCM    cl2 2655   2.726   3.264   3.341
  498TCM     h1 2656   2.652   3.043   3.399
  498TCM    cl3 2657   2.544   3.187   3.557
  499TCM     c1 2658   0.038   3.149   1.179
  499TCM    cl1 2659   0.026   3.315   1.110
  499TCM    cl2 2660  -0.072   3.135   1.319
  499TCM     h1 2661   0.010   3.076   1.102
  499TCM    cl3 2662   0.206   3.118   1.232
  500TCM     c1 2663   1.840   0.276   0.271
  500TCM    cl1 2664   1.685   0.266   0.183
  500TCM    cl2 2665   1.947   0.392   0.186
  500TCM     h1 2666   1.822   0.310   0.374
  500TCM    cl3 2667   1.917   0.114   0.274
  501TCM     c1 2668   0.836   1.824   2.805
  501TCM    cl1 2669   0.985   1.726   2.827
  501TCM    cl2 2670   0.876   1.971   2.711
  501TCM     h1 2671   0.761   1.765   2.752
  501TCM    cl3 2672   0.772   1.872   2.966
  502TCM     c1 2673   2.727   3.693   2.171
  502TCM    cl1 2674   2.789   3.539   2.101
  502TCM    cl2 2675   2.837   3.747   2.302
  502TCM     h1 2676   2.723   3.769   2.093
  502TCM    cl3 2677   2.563   3.667   2.238
  503TCM     c1 2678   1.579   0.696   2.931
  503TCM    cl1 2679   1.415   0.765   2.945
  503TCM    cl2 2680   1.584   0.539   3.019
  503TCM     h1 2681   1.603   0.680   2.825
  503TCM    cl3 2682   1.698   0.809   3.003
  504TCM     c1 2683   0.008   0.286   2.671
  504TCM    cl1 2684  -0.037   0.267   2.498
  504TCM    cl2 2685  -0.038   0.138   2.761
  504TCM     h1 2686   0.116   0.302   2.679
  504TCM    cl3 2687  -0.078   0.427   2.740
  505TCM     c1 2688   2.576   3.996   3.092
  505TCM    cl1 2689   2.417   4.074   3.060
  505TCM    cl2 2690   2.704   4.079   2.997
  505TCM     h1 2691   2.599   4.003   3.198
  505TCM    cl3 2692   2.567   3.824   3.042
  506TCM     c1 2693   0.325   4.800   0.061
  506TCM    cl1 2694   0.366   4.830  -0.111
  506TCM    cl2 2695   0.390   4.642   0.112
  506TCM     h1 2696   0.367   4.880   0.123
  506TCM    cl3 2697   0.147   4.798   0.078
  507TCM     c1 2698   1.240   4.179   4.904
  507TCM    cl1 2699   1.140   4.077   4.795
  507TCM    cl2 2700   1.412   4.130   4.892
  507TCM     h1 2701   1.230   4.284   4.875
  507TCM    cl3 2702   1.185   4.158   5.073
  508TCM     c1 2703   0.320   1.987   3.308
  508TCM    cl1 2704   0.191   1.882   3.242
  508TCM    cl2 2705   0.344   1.950   3.482
  508TCM     h1 2706   0.413   1.969   3.253
  508TCM    cl3 2707   0.273   2.159   3.289
  509TCM     c1 2708   4.615   0.343   4.581
  509TCM    cl1 2709   4.570   0.386   4.749
  509TCM    cl2 2710   4.465   0.325   4.483
  509TCM     h1 2711   4.677   0.421   4.538
  509TCM    cl3 2712   4.705   0.188   4.582
  510TCM     c1 2713   4.308   2.443   2.170
  510TCM    cl1 2714   4.326   2.268   2.202
  510TCM    cl2 2715   4.458   2.529   2.218
  510TCM     h1 2716   4.290   2.459   2.063
  510TCM    cl3 2717   4.169   2.508   2.264
  511TCM     c1 2718   3.203   4.919   1.612
  511TCM    cl1 2719   3.245   4.851   1.452
  511TCM    cl2 2720   3.330   5.036   1.660
  511TCM     h1 2721   3.107   4.969   1.607
  511TCM    cl3 2722   3.196   4.787   1.734
  512TCM     c1 2723   0.040   4.979   0.676
  512TCM    cl1 2724   0.054   5.157   0.667
  512TCM    cl2 2725  -0.132   4.932   0.652
  512TCM     h1 2726   0.102   4.933   0.598
  512TCM    cl3 2727   0.095   4.923   0.837
  513TCM     c1 2728   3.901   0.124   0.019
  513TCM    cl1 2729   4.062   0.057   0.061
  513TCM    cl2 2730   3.887   0.135  -0.160
  513TCM     h1 2731   3.823   0.058   0.057
  513TCM    cl3 2732   3.882   0.288   0.089
  514TCM     c1 2733   0.698   0.067   2.089
  514TCM    cl1 2734   0.699   0.242   2.132
  514TCM    cl2 2735   0.680   0.049   1.911
  514TCM     h1 2736   0.791   0.021   2.121
  514TCM    cl3 2737   0.560  -0.014   2.172
  515TCM     c1 2738   2.623   0.022   4.198
  515TCM    cl1 2739   2.471  -0.070   4.225
  515TCM    cl2 2740   2.742  -0.081   4.113
  515TCM     h1 2741   2.602   0.111   4.138
  515TCM    cl3 2742   2.691   0.072   4.357
  516TCM     c1 2743   4.284   4.076   1.630
  516TCM    cl1 2744   4.164   4.001   1.520
  516TCM    cl2 2745   4.245   4.250   1.652
  516TCM     h1 2746   4.282   4.025   1.727
  516TCM    cl3 2747   4.448   4.061   1.559
  517TCM     c1 2748   3.028   3.651   4.783
  517TCM    cl1 2749   3.158   3.528   4.773
  517TCM    cl2 2750   2.879   3.586   4.707
  517TCM     h1 2751   3.007   3.674   4.888
  517TCM    cl3 2752   3.079   3.800   4.698
  518TCM     c1 2753   2.673   0.532   4.125
  518TCM    cl1 2754   2.723   0.360   4.129
  518TCM    cl2 2755   2.665   0.587   3.955
  518TCM     h1 2756   2.575   0.543   4.172
  518TCM    cl3 2757   2.794   0.630   4.214
  519TCM     c1 2758   3.214   3.680   1.276
  519TCM    cl1 2759   3.188   3.857   1.291
  519TCM    cl2 2760   3.274   3.616   1.433
  519TCM     h1 2761   3.119   3.631   1.250
  519TCM    cl3 2762   3.336   3.649   1.149
  520TCM     c1 2763   0.084   2.955   3.205
  520TCM    cl1 2764   0.251   2.892   3.221
  520TCM    cl2 2765   0.047   3.061   3.345
  520TCM     h1 2766   0.076   3.013   3.112
  520TCM    cl3 2767  -0.031   2.818   3.201
  521TCM     c1 2768   1.368   3.420   2.629
  521TCM    cl1 2769   1.348   3.472   2.799
  521TCM    cl2 2770   1.392   3.563   2.524
  521TCM     h1 2771   1.455   3.354   2.621
  521TCM    cl3 2772   1.221   3.332   2.576
  522TCM     c1 2773   2.588   4.300   1.590
  522TCM    cl1 2774   2.479   4.168   1.536
  522TCM    cl2 2775   2.491   4.435   1.655
  522TCM     h1 2776   2.656   4.262   1.667
  522TCM    cl3 2777   2.683   4.356   1.448
  523TCM     c1 2778   0.115   1.670   2.757
  523TCM    cl1 2779   0.134   1.749   2.597
  523TCM    cl2 2780  -0.026   1.559   2.750
  523TCM     h1 2781   0.205   1.613   2.781
  523TCM    cl3 2782   0.087   1.796   2.881
  524TCM     c1 2783   4.408   3.319   2.693
  524TCM    cl1 2784   4.563   3.275   2.772
  524TCM    cl2 2785   4.332   3.453   2.784
  524TCM     h1 2786   4.427   3.351   2.590
  524TCM    cl3 2787   4.299   3.177   2.694
  525TCM     c1 2788   2.565   4.792   2.371
  525TCM    cl1 2789   2.710   4.696   2.414
  525TCM    cl2 2790   2.550   4.931   2.484
  525TCM     h1 2791   2.574   4.829   2.269
  525TCM    cl3 2792   2.419   4.689   2.385
  526TCM     c1 2793   2.930   3.110   2.213
  526TCM    cl1 2794   2.802   3.058   2.099
  526TCM    cl2 2795   3.091   3.061   2.148
  526TCM     h1 2796   2.927   3.219   2.226
  526TCM    cl3 2797   2.903   3.029   2.371
  527TCM     c1 2798   1.955   3.270   4.160
  527TCM    cl1 2799   1.992   3.226   3.991
  527TCM    cl2 2800   1.913   3.445   4.168
  527TCM     h1 2801   1.870   3.210   4.196
  527TCM    cl3 2802   2.098   3.238   4.263
  528TCM     c1 2803   4.990   1.982   0.063
  528TCM    cl1 2804   4.996   1.970  -0.116
  528TCM    cl2 2805   5.042   1.826   0.134
  528TCM     h1 2806   5.057   2.062   0.096
  528TCM    cl3 2807   4.822   2.018   0.115
  529TCM     c1 2808   2.071   2.964   2.083
  529TCM    cl1 2809   2.170   3.114   2.085
  529TCM    cl2 2810   2.074   2.893   1.918
  529TCM     h1 2811   2.113   2.892   2.154
  529TCM    cl3 2812   1.902   3.002   2.128
  530TCM     c1 2813   1.892   0.392   4.766
  530TCM    cl1 2814   1.889   0.425   4.590
  530TCM    cl2 2815   1.778   0.259   4.805
  530TCM     h1 2816   1.993   0.363   4.796
  530TCM    cl3 2817   1.843   0.539   4.856
  531TCM     c1 2818   0.299   0.075   4.024
  531TCM    cl1 2819   0.303   0.133   4.194
  531TCM    cl2 2820   0.402   0.181   3.923
  531TCM     h1 2821   0.336  -0.027   4.019
  531TCM    cl3 2822   0.130   0.082   3.963
  532TCM     c1 2823   1.619   4.522   1.592
  532TCM    cl1 2824   1.544   4.623   1.720
  532TCM    cl2 2825   1.735   4.620   1.497
  532TCM     h1 2826   1.671   4.437   1.638
  532TCM    cl3 2827   1.491   4.461   1.482
  533TCM     c1 2828   4.913   0.887   4.047
  533TCM    cl1 2829   4.919   0.744   4.156
  533TCM    cl2 2830   4.906   0.831   3.877
  533TCM     h1 2831   4.824   0.946   4.070
  533TCM    cl3 2832   5.059   0.988   4.073
  534TCM     c1 2833   2.326   3.172   0.215
  534TCM    cl1 2834   2.283   3.099   0.057
  534TCM    cl2 2835   2.213   3.305   0.254
  534TCM     h1 2836   2.321   3.096   0.293
  534TCM    cl3 2837   2.493   3.237   0.206
  535TCM     c1 2838   2.485   4.247   1.138
  535TCM    cl1 2839   2.488   4.374   1.011
  535TCM    cl2 2840   2.616   4.130   1.106
  535TCM     h1 2841   2.499   4.293   1.236
  535TCM    cl3 2842   2.327   4.162   1.134
  536TCM     c1 2843   1.501   0.890   3.674
  536TCM    cl1 2844   1.552   0.774   3.801
  536TCM    cl2 2845   1.639   0.926   3.565
  536TCM     h1 2846   1.419   0.847   3.616
  536TCM    cl3 2847   1.446   1.042   3.753
  537TCM     c1 2848   1.432   1.122   2.685
  537TCM    cl1 2849   1.430   1.176   2.514
  537TCM    cl2 2850   1.570   1.011   2.712
  537TCM     h1 2851   1.442   1.209   2.750
  537TCM    cl3 2852   1.279   1.037   2.722
  538TCM     c1 2853   1.960   2.724   2.848
  538TCM    cl1 2854   1.915   2.891   2.799
  538TCM    cl2 2855   1.896   2.691   3.013
  538TCM     h1 2856   1.918   2.652   2.777
  538TCM    cl3 2857   2.139   2.710   2.850
  539TCM     c1 2858   3.672   4.290   2.862
  539TCM    cl1 2859   3.682   4.303   3.040
  539TCM    cl2 2860   3.604   4.442   2.794
  539TCM     h1 2861   3.771   4.272   2.820
  539TCM    cl3 2862   3.563   4.154   2.817
  540TCM     c1 2863   2.522   0.133   0.489
  540TCM    cl1 2864   2.666   0.042   0.433
  540TCM    cl2 2865   2.523   0.138   0.668
  540TCM     h1 2866   2.525   0.235   0.450
  540TCM    cl3 2867   2.373   0.052   0.430
  541TCM     c1 2868   1.863   3.933   3.864
  541TCM    cl1 2869   1.975   4.036   3.960
  541TCM    cl2 2870   1.835   3.778   3.949
  541TCM     h1 2871   1.768   3.986   3.852
  541TCM    cl3 2872   1.934   3.901   3.703
  542TCM     c1 2873   2.184   2.416   1.076
  542TCM    cl1 2874   2.304   2.455   1.203
  542TCM    cl2 2875   2.085   2.561   1.040
  542TCM     h1 2876   2.236   2.383   0.985
  542TCM    cl3 2877   2.077   2.284   1.134
  543TCM     c1 2878   2.917   0.022   3.657
  543TCM    cl1 2879   3.087   0.071   3.691
  543TCM    cl2 2880   2.865   0.096   3.502
  543TCM     h1 2881   2.911  -0.087   3.651
  543TCM    cl3 2882   2.811   0.079   3.790
  544TCM     c1 2883   2.015   1.031   1.608
  544TCM    cl1 2884   1.982   1.204   1.640
  544TCM    cl2 2885   1.926   0.931   1.727
  544TCM     h1 2886   1.983   1.005   1.507
  544TCM    cl3 2887   2.192   1.002   1.625
  545TCM     c1 2888   2.218   2.646   0.192
  545TCM    cl1 2889   2.189   2.808   0.264
  545TCM    cl2 2890   2.121   2.628   0.043
  545TCM     h1 2891   2.324   2.635   0.168
  545TCM    cl3 2892   2.170   2.518   0.309
  546TCM     c1 2893   3.378   2.568   3.876
  546TCM    cl1 2894   3.448   2.542   4.039
  546TCM    cl2 2895   3.468   2.471   3.755
  546TCM     h1 2896   3.273   2.537   3.876
  546TCM    cl3 2897   3.389   2.742   3.832
  547TCM     c1 2898   0.940   0.207   1.680
  547TCM    cl1 2899   0.801   0.268   1.584
  547TCM    cl2 2900   0.946   0.292   1.837
  547TCM     h1 2901   0.927   0.100   1.697
  547TCM    cl3 2902   1.092   0.235   1.590
  548TCM     c1 2903   0.065   2.714   3.545
  548TCM    cl1 2904  -0.081   2.813   3.574
  548TCM    cl2 2905   0.063   2.573   3.655
  548TCM     h1 2906   0.066   2.680   3.441
  548TCM    cl3 2907   0.212   2.811   3.577
  549TCM     c1 2908   4.483   4.814   0.676
  549TCM    cl1 2909   4.381   4.847   0.820
  549TCM    cl2 2910   4.491   4.961   0.574
  549TCM     h1 2911   4.583   4.785   0.707
  549TCM    cl3 2912   4.408   4.680   0.582
  550TCM     c1 2913   0.493   4.249   0.794
  550TCM    cl1 2914   0.505   4.074   0.756
  550TCM    cl2 2915   0.334   4.311   0.739
  550TCM     h1 2916   0.502   4.263   0.902
  550TCM    cl3 2917   0.624   4.338   0.710
  551TCM     c1 2918   2.282   2.127   3.558
  551TCM    cl1 2919   2.325   2.226   3.414
  551TCM    cl2 2920   2.237   2.237   3.693
  551TCM     h1 2921   2.198   2.062   3.534
  551TCM    cl3 2922   2.424   2.028   3.607
  552TCM     c1 2923   0.665   4.303   1.184
  552TCM    cl1 2924   0.717   4.177   1.067
  552TCM    cl2 2925   0.593   4.441   1.096
  552TCM     h1 2926   0.591   4.260   1.252
  552TCM    cl3 2927   0.807   4.359   1.279
  553TCM     c1 2928   1.501   3.860   0.145
  553TCM    cl1 2929   1.387   3.906   0.276
  553TCM    cl2 2930   1.498   3.682   0.125
  553TCM     h1 2931   1.471   3.908   0.052
  553TCM    cl3 2932   1.667   3.911   0.190
  554TCM     c1 2933   3.164   2.017   2.449
  554TCM    cl1 2934   3.262   2.018   2.298
  554TCM    cl2 2935   3.064   2.165   2.455
  554TCM     h1 2936   3.100   1.929   2.450
  554TCM    cl3 2937   3.275   2.011   2.589
  555TCM     c1 2938   1.814   2.684   2.336
  555TCM    cl1 2939   1.823   2.689   2.515
  555TCM    cl2 2940   1.719   2.540   2.285
  555TCM     h1 2941   1.766   2.775   2.299
  555TCM    cl3 2942   1.980   2.671   2.268
  556TCM     c1 2943   3.157   0.068   1.985
  556TCM    cl1 2944   3.025   0.109   1.870
  556TCM    cl2 2945   3.114  -0.083   2.073
  556TCM     h1 2946   3.250   0.053   1.930
  556TCM    cl3 2947   3.177   0.201   2.103
  557TCM     c1 2948   0.930   2.547   4.372
  557TCM    cl1 2949   0.881   2.709   4.313
  557TCM    cl2 2950   0.964   2.441   4.231
  557TCM     h1 2951   1.020   2.556   4.433
  557TCM    cl3 2952   0.798   2.476   4.470
  558TCM     c1 2953   4.888   3.727   4.784
  558TCM    cl1 2954   4.999   3.586   4.788
  558TCM    cl2 2955   4.830   3.751   4.616
  558TCM     h1 2956   4.803   3.709   4.850
  558TCM    cl3 2957   4.976   3.873   4.838
  559TCM     c1 2958   4.938   1.707   3.675
  559TCM    cl1 2959   5.026   1.730   3.520
  559TCM    cl2 2960   4.810   1.583   3.653
  559TCM     h1 2961   5.009   1.673   3.752
  559TCM    cl3 2962   4.863   1.862   3.726
  560TCM     c1 2963   4.161   2.088   2.526
  560TCM    cl1 2964   4.042   2.216   2.486
  560TCM    cl2 2965   4.186   1.983   2.383
  560TCM     h1 2966   4.257   2.134   2.554
  560TCM    cl3 2967   4.098   1.991   2.662
  561TCM     c1 2968   1.461   2.908   4.856
  561TCM    cl1 2969   1.546   3.065   4.876
  561TCM    cl2 2970   1.284   2.934   4.857
  561TCM     h1 2971   1.491   2.862   4.761
  561TCM    cl3 2972   1.508   2.798   4.991
  562TCM     c1 2973   3.536   2.043   2.862
  562TCM    cl1 2974   3.491   2.190   2.955
  562TCM    cl2 2975   3.499   1.897   2.960
  562TCM     h1 2976   3.480   2.040   2.769
  562TCM    cl3 2977   3.712   2.048   2.827
  563TCM     c1 2978   2.829   4.728   0.799
  563TCM    cl1 2979   2.708   4.850   0.850
  563TCM    cl2 2980   2.861   4.747   0.623
  563TCM     h1 2981   2.922   4.743   0.855
  563TCM    cl3 2982   2.766   4.564   0.832
  564TCM     c1 2983   1.724   4.035   0.627
  564TCM    cl1 2984   1.759   4.144   0.489
  564TCM    cl2 2985   1.580   3.936   0.589
  564TCM     h1 2986   1.810   3.970   0.644
  564TCM    cl3 2987   1.692   4.133   0.774
  565TCM     c1 2988   0.054   3.113   4.835
  565TCM    cl1 2989   0.038   3.262   4.934
  565TCM    cl2 2990  -0.098   3.089   4.743
  565TCM     h1 2991   0.138   3.123   4.766
  565TCM    cl3 2992   0.080   2.973   4.943
  566TCM     c1 2993   2.901   4.937   2.765
  566TCM    cl1 2994   2.968   5.091   2.828
  566TCM    cl2 2995   2.922   4.934   2.587
  566TCM     h1 2996   2.954   4.853   2.810
  566TCM    cl3 2997   2.726   4.928   2.805
  567TCM     c1 2998   4.461   3.828   3.381
  567TCM    cl1 2999   4.374   3.691   3.459
  567TCM    cl2 3000   4.344   3.953   3.329
  567TCM     h1 3001   4.533   3.870   3.451
  567TCM    cl3 3002   4.549   3.768   3.236
  568TCM     c1 3003   1.367   1.067   3.130
  568TCM    cl1 3004   1.475   1.175   3.036
  568TCM    cl2 3005   1.243   1.166   3.213
  568TCM     h1 3006   1.319   0.995   3.063
  568TCM    cl3 3007   1.465   0.978   3.252
  569TCM     c1 3008   3.166   2.870   4.255
  569TCM    cl1 3009   3.338   2.917   4.242
  569TCM    cl2 3010   3.125   2.753   4.125
  569TCM     h1 3011   3.149   2.823   4.353
  569TCM    cl3 3012   3.062   3.016   4.240
  570TCM     c1 3013   2.321   4.155   0.400
  570TCM    cl1 3014   2.217   4.223   0.271
  570TCM    cl2 3015   2.491   4.205   0.373
  570TCM     h1 3016   2.288   4.192   0.498
  570TCM    cl3 3017   2.311   3.976   0.397
  571TCM     c1 3018   3.337   1.926   0.106
  571TCM    cl1 3019   3.215   2.057   0.090
  571TCM    cl2 3020   3.317   1.811  -0.030
  571TCM     h1 3021   3.438   1.970   0.102
  571TCM    cl3 3022   3.316   1.841   0.262
  572TCM     c1 3023   2.508   1.576   3.593
  572TCM    cl1 3024   2.617   1.711   3.635
  572TCM    cl2 3025   2.433   1.608   3.433
  572TCM     h1 3026   2.565   1.483   3.589
  572TCM    cl3 3027   2.378   1.561   3.716
  573TCM     c1 3028   1.015   0.924   2.340
  573TCM    cl1 3029   1.074   0.902   2.172
  573TCM    cl2 3030   1.078   1.079   2.404
  573TCM     h1 3031   0.906   0.926   2.340
  573TCM    cl3 3032   1.072   0.789   2.443
  574TCM     c1 3033   2.553   4.320   4.968
  574TCM    cl1 3034   2.531   4.429   5.108
  574TCM    cl2 3035   2.414   4.207   4.956
  574TCM     h1 3036   2.560   4.379   4.876
  574TCM    cl3 3037   2.704   4.225   4.991
  575TCM     c1 3038   2.142   4.564   1.343
  575TCM    cl1 3039   2.110   4.593   1.517
  575TCM    cl2 3040   2.008   4.469   1.272
  575TCM     h1 3041   2.150   4.660   1.290
  575TCM    cl3 3042   2.295   4.473   1.327
  576TCM     c1 3043   0.974   2.645   4.841
  576TCM    cl1 3044   0.796   2.638   4.827
  576TCM    cl2 3045   1.044   2.689   4.682
  576TCM     h1 3046   1.003   2.720   4.915
  576TCM    cl3 3047   1.038   2.485   4.889
  577TCM     c1 3048   1.590   1.075   1.426
  577TCM    cl1 3049   1.569   1.221   1.324
  577TCM    cl2 3050   1.623   1.123   1.595
  577TCM     h1 3051   1.499   1.015   1.422
  577TCM    cl3 3052   1.729   0.979   1.367
  578TCM     c1 3053   0.130   3.394   3.752
  578TCM    cl1 3054   0.048   3.554   3.742
  578TCM    cl2 3055   0.178   3.341   3.587
  578TCM     h1 3056   0.218   3.402   3.815
  578TCM    cl3 3057   0.016   3.274   3.820
  579TCM     c1 3058   2.076   0.148   0.941
  579TCM    cl1 3059   2.220   0.245   0.896
  579TCM    cl2 3060   2.118   0.041   1.078
  579TCM     h1 3061   1.994   0.214   0.970
  579TCM    cl3 3062   2.025   0.045   0.802
  580TCM     c1 3063   4.997   0.120   3.627
  580TCM    cl1 3064   5.119  -0.004   3.584
  580TCM    cl2 3065   4.843   0.039   3.670
  580TCM     h1 3066   5.032   0.178   3.712
  580TCM    cl3 3067   4.968   0.229   3.488
  581TCM     c1 3068   2.991   4.255   1.268
  581TCM    cl1 3069   3.169   4.235   1.273
  581TCM    cl2 3070   2.913   4.100   1.314
  581TCM     h1 3071   2.960   4.333   1.338
  581TCM    cl3 3072   2.941   4.301   1.102
  582TCM     c1 3073   4.426   4.257   3.610
  582TCM    cl1 3074   4.512   4.382   3.706
  582TCM    cl2 3075   4.504   4.097   3.637
  582TCM     h1 3076   4.321   4.252   3.641
  582TCM    cl3 3077   4.435   4.299   3.436
  583TCM     c1 3078   1.098   3.707   0.181
  583TCM    cl1 3079   1.153   3.537   0.161
  583TCM    cl2 3080   0.924   3.709   0.221
  583TCM     h1 3081   1.155   3.755   0.261
  583TCM    cl3 3082   1.124   3.796   0.027
  584TCM     c1 3083   0.364   2.352   4.932
  584TCM    cl1 3084   0.374   2.383   5.108
  584TCM    cl2 3085   0.305   2.184   4.905
  584TCM     h1 3086   0.294   2.423   4.887
  584TCM    cl3 3087   0.525   2.372   4.856
  585TCM     c1 3088   1.022   0.015   2.370
  585TCM    cl1 3089   1.114   0.066   2.515
  585TCM    cl2 3090   1.039   0.139   2.241
  585TCM     h1 3091   1.061  -0.081   2.334
  585TCM    cl3 3092   0.849  -0.002   2.413
  586TCM     c1 3093   0.836   1.266   4.113
  586TCM    cl1 3094   0.724   1.398   4.160
  586TCM    cl2 3095   0.822   1.239   3.936
  586TCM     h1 3096   0.938   1.295   4.137
  586TCM    cl3 3097   0.793   1.115   4.200
  587TCM     c1 3098   3.810   2.747   3.992
  587TCM    cl1 3099   3.759   2.686   3.831
  587TCM    cl2 3100   3.857   2.608   4.097
  587TCM     h1 3101   3.895   2.814   3.981
  587TCM    cl3 3102   3.673   2.835   4.069
  588TCM     c1 3103   2.061   3.467   4.961
  588TCM    cl1 3104   2.151   3.369   4.841
  588TCM    cl2 3105   1.911   3.380   5.010
  588TCM     h1 3106   2.124   3.484   5.049
  588TCM    cl3 3107   2.017   3.625   4.888
  589TCM     c1 3108   1.040   0.596   0.776
  589TCM    cl1 3109   1.163   0.485   0.707
  589TCM    cl2 3110   1.119   0.747   0.830
  589TCM     h1 3111   0.964   0.618   0.700
  589TCM    cl3 3112   0.962   0.516   0.916
  590TCM     c1 3113   0.625   3.642   0.420
  590TCM    cl1 3114   0.561   3.657   0.252
  590TCM    cl2 3115   0.589   3.477   0.482
  590TCM     h1 3116   0.733   3.658   0.420
  590TCM    cl3 3117   0.546   3.764   0.525
  591TCM     c1 3118   3.129   1.467   3.080
  591TCM    cl1 3119   3.139   1.627   2.999
  591TCM    cl2 3120   2.992   1.375   3.012
  591TCM     h1 3121   3.222   1.412   3.063
  591TCM    cl3 3122   3.104   1.491   3.256
  592TCM     c1 3123   2.657   4.791   0.171
  592TCM    cl1 3124   2.690   4.761  -0.002
  592TCM    cl2 3125   2.743   4.670   0.271
  592TCM     h1 3126   2.690   4.892   0.198
  592TCM    cl3 3127   2.480   4.775   0.200
  593TCM     c1 3128   3.573   3.431   3.127
  593TCM    cl1 3129   3.736   3.463   3.194
  593TCM    cl2 3130   3.550   3.530   2.979
  593TCM     h1 3131   3.563   3.325   3.102
  593TCM    cl3 3132   3.448   3.477   3.248
  594TCM     c1 3133   2.751   3.993   0.718
  594TCM    cl1 3134   2.723   4.164   0.765
  594TCM    cl2 3135   2.654   3.955   0.571
  594TCM     h1 3136   2.857   3.978   0.696
  594TCM    cl3 3137   2.701   3.884   0.851
  595TCM     c1 3138   4.602   4.360   0.984
  595TCM    cl1 3139   4.556   4.520   0.916
  595TCM    cl2 3140   4.774   4.363   1.033
  595TCM     h1 3141   4.539   4.337   1.070
  595TCM    cl3 3142   4.580   4.234   0.858
  596TCM     c1 3143   4.404   2.876   4.935
  596TCM    cl1 3144   4.355   2.971   5.079
  596TCM    cl2 3145   4.580   2.897   4.908
  596TCM     h1 3146   4.382   2.771   4.951
  596TCM    cl3 3147   4.315   2.935   4.791
  597TCM     c1 3148   2.611   1.115   2.001
  597TCM    cl1 3149   2.540   1.043   1.853
  597TCM    cl2 3150   2.651   1.287   1.969
  597TCM     h1 3151   2.540   1.108   2.084
  597TCM    cl3 3152   2.762   1.028   2.043
  598TCM     c1 3153   3.061   4.421   2.643
  598TCM    cl1 3154   3.237   4.437   2.608
  598TCM    cl2 3155   2.994   4.582   2.688
  598TCM     h1 3156   3.010   4.383   2.555
  598TCM    cl3 3157   3.038   4.307   2.780
  599TCM     c1 3158   3.641   3.524   3.738
  599TCM    cl1 3159   3.795   3.432   3.756
  599TCM    cl2 3160   3.505   3.425   3.801
  599TCM     h1 3161   3.648   3.617   3.795
  599TCM    cl3 3162   3.614   3.559   3.565
  600TCM     c1 3163   4.211   0.484   4.805
  600TCM    cl1 3164   4.278   0.591   4.677
  600TCM    cl2 3165   4.196   0.317   4.740
  600TCM     h1 3166   4.278   0.484   4.891
  600TCM    cl3 3167   4.049   0.543   4.854
  601TCM     c1 3168   3.119   3.329   3.548
  601TCM    cl1 3169   3.186   3.198   3.650
  601TCM    cl2 3170   3.107   3.272   3.378
  601TCM     h1 3171   3.021   3.358   3.584
  601TCM    cl3 3172   3.230   3.470   3.553
  602TCM     c1 3173   0.616   2.395   1.841
  602TCM    cl1 3174   0.771   2.454   1.772
  602TCM    cl2 3175   0.529   2.300   1.716
  602TCM     h1 3176   0.636   2.332   1.928
  602TCM    cl3 3177   0.515   2.535   1.890
  603TCM     c1 3178   0.037   4.243   2.960
  603TCM    cl1 3179   0.172   4.360   2.941
  603TCM    cl2 3180   0.064   4.142   3.107
  603TCM     h1 3181  -0.057   4.297   2.970
  603TCM    cl3 3182   0.031   4.136   2.816
  604TCM     c1 3183   2.337   3.333   1.420
  604TCM    cl1 3184   2.515   3.331   1.439
  604TCM    cl2 3185   2.278   3.167   1.383
  604TCM     h1 3186   2.291   3.367   1.514
  604TCM    cl3 3187   2.290   3.444   1.288
  605TCM     c1 3188   0.275   1.526   2.355
  605TCM    cl1 3189   0.355   1.565   2.199
  605TCM    cl2 3190   0.400   1.507   2.483
  605TCM     h1 3191   0.206   1.606   2.381
  605TCM    cl3 3192   0.186   1.371   2.338
  606TCM     c1 3193   3.941   3.045   3.683
  606TCM    cl1 3194   3.848   3.071   3.834
  606TCM    cl2 3195   4.031   2.890   3.695
  606TCM     h1 3196   3.872   3.040   3.598
  606TCM    cl3 3197   4.057   3.179   3.660
  607TCM     c1 3198   1.688   3.157   2.898
  607TCM    cl1 3199   1.559   3.127   2.776
  607TCM    cl2 3200   1.667   3.042   3.034
  607TCM     h1 3201   1.786   3.142   2.852
  607TCM    cl3 3202   1.674   3.325   2.957
  608TCM     c1 3203   2.604   3.234   2.414
  608TCM    cl1 3204   2.603   3.146   2.571
  608TCM    cl2 3205   2.714   3.375   2.425
  608TCM     h1 3206   2.638   3.168   2.335
  608TCM    cl3 3207   2.437   3.290   2.378
  609TCM     c1 3208   1.843   2.985   0.112
  609TCM    cl1 3209   1.823   2.814   0.163
  609TCM    cl2 3210   1.938   2.991  -0.040
  609TCM     h1 3211   1.745   3.030   0.096
  609TCM    cl3 3212   1.930   3.076   0.241
  610TCM     c1 3213   4.688   0.773   2.552
  610TCM    cl1 3214   4.674   0.599   2.509
  610TCM    cl2 3215   4.740   0.868   2.408
  610TCM     h1 3216   4.591   0.810   2.586
  610TCM    cl3 3217   4.808   0.793   2.683
  611TCM     c1 3218   0.281   2.141   1.086
  611TCM    cl1 3219   0.301   1.993   0.986
  611TCM    cl2 3220   0.121   2.138   1.166
  611TCM     h1 3221   0.360   2.145   1.161
  611TCM    cl3 3222   0.292   2.286   0.980
  612TCM     c1 3223   3.038   4.095   0.042
  612TCM    cl1 3224   3.002   3.920   0.044
  612TCM    cl2 3225   3.049   4.154  -0.127
  612TCM     h1 3226   2.958   4.149   0.094
  612TCM    cl3 3227   3.194   4.123   0.127
  613TCM     c1 3228   2.790   4.081   3.518
  613TCM    cl1 3229   2.805   4.144   3.686
  613TCM    cl2 3230   2.915   4.157   3.414
  613TCM     h1 3231   2.804   3.973   3.519
  613TCM    cl3 3232   2.628   4.121   3.453
  614TCM     c1 3233   2.046   4.673   1.861
  614TCM    cl1 3234   2.187   4.565   1.886
  614TCM    cl2 3235   2.012   4.763   2.013
  614TCM     h1 3236   2.068   4.744   1.781
  614TCM    cl3 3237   1.902   4.576   1.818
  615TCM     c1 3238   1.489   1.952   0.464
  615TCM    cl1 3239   1.530   1.846   0.602
  615TCM    cl2 3240   1.477   2.122   0.521
  615TCM     h1 3241   1.567   1.945   0.387
  615TCM    cl3 3242   1.331   1.903   0.395
  616TCM     c1 3243   0.519   2.691   4.346
  616TCM    cl1 3244   0.493   2.857   4.284
  616TCM    cl2 3245   0.528   2.576   4.208
  616TCM     h1 3246   0.613   2.687   4.403
  616TCM    cl3 3247   0.383   2.645   4.454
  617TCM     c1 3248   0.506   1.446   4.505
  617TCM    cl1 3249   0.633   1.562   4.558
  617TCM    cl2 3250   0.581   1.284   4.484
  617TCM     h1 3251   0.428   1.440   4.581
  617TCM    cl3 3252   0.437   1.500   4.349
  618TCM     c1 3253   0.187   2.803   0.473
  618TCM    cl1 3254   0.329   2.840   0.577
  618TCM    cl2 3255   0.234   2.816   0.301
  618TCM     h1 3256   0.152   2.702   0.494
  618TCM    cl3 3257   0.057   2.921   0.509
  619TCM     c1 3258   2.195   4.103   4.463
  619TCM    cl1 3259   2.028   4.086   4.526
  619TCM    cl2 3260   2.275   4.240   4.546
  619TCM     h1 3261   2.250   4.010   4.482
  619TCM    cl3 3262   2.189   4.134   4.286
  620TCM     c1 3263   3.120   3.483   3.074
  620TCM    cl1 3264   2.947   3.472   3.030
  620TCM    cl2 3265   3.179   3.650   3.045
  620TCM     h1 3266   3.133   3.458   3.180
  620TCM    cl3 3267   3.214   3.368   2.974
  621TCM     c1 3268   2.832   4.303   0.336
  621TCM    cl1 3269   2.887   4.134   0.364
  621TCM    cl2 3270   2.951   4.387   0.231
  621TCM     h1 3271   2.734   4.303   0.288
  621TCM    cl3 3272   2.821   4.388   0.494
  622TCM     c1 3273   3.457   4.439   0.228
  622TCM    cl1 3274   3.298   4.478   0.155
  622TCM    cl2 3275   3.436   4.308   0.348
  622TCM     h1 3276   3.526   4.407   0.149
  622TCM    cl3 3277   3.522   4.585   0.309
  623TCM     c1 3278   2.301   3.672   0.586
  623TCM    cl1 3279   2.457   3.664   0.673
  623TCM    cl2 3280   2.187   3.772   0.681
  623TCM     h1 3281   2.316   3.717   0.487
  623TCM    cl3 3282   2.231   3.508   0.567
  624TCM     c1 3283   3.962   3.630   3.430
  624TCM    cl1 3284   4.032   3.737   3.304
  624TCM    cl2 3285   3.988   3.705   3.592
  624TCM     h1 3286   3.855   3.617   3.413
  624TCM    cl3 3287   4.044   3.470   3.424
  625TCM     c1 3288   0.109   4.692   4.005
  625TCM    cl1 3289  -0.018   4.763   3.900
  625TCM    cl2 3290   0.109   4.779   4.161
  625TCM     h1 3291   0.088   4.586   4.021
  625TCM    cl3 3292   0.269   4.711   3.925
  626TCM     c1 3293   3.999   0.166   3.527
  626TCM    cl1 3294   4.139   0.163   3.640
  626TCM    cl2 3295   3.892   0.303   3.571
  626TCM     h1 3296   4.035   0.178   3.425
  626TCM    cl3 3297   3.907   0.012   3.541
  627TCM     c1 3298   2.372   2.589   3.106
  627TCM    cl1 3299   2.432   2.730   3.199
  627TCM    cl2 3300   2.219   2.529   3.179
  627TCM     h1 3301   2.354   2.618   3.002
  627TCM    cl3 3302   2.495   2.459   3.111
  628TCM     c1 3303   4.774   4.482   2.778
  628TCM    cl1 3304   4.830   4.556   2.931
  628TCM    cl2 3305   4.698   4.323   2.812
  628TCM     h1 3306   4.701   4.547   2.729
  628TCM    cl3 3307   4.916   4.458   2.670
  629TCM     c1 3308   2.343   0.707   1.771
  629TCM    cl1 3309   2.346   0.675   1.594
  629TCM    cl2 3310   2.446   0.587   1.855
  629TCM     h1 3311   2.381   0.807   1.790
  629TCM    cl3 3312   2.175   0.692   1.832
  630TCM     c1 3313   0.364   2.476   2.899
  630TCM    cl1 3314   0.328   2.424   2.731
  630TCM    cl2 3315   0.408   2.333   2.998
  630TCM     h1 3316   0.447   2.548   2.899
  630TCM    cl3 3317   0.218   2.554   2.970
  631TCM     c1 3318   1.201   4.255   0.710
  631TCM    cl1 3319   1.068   4.336   0.621
  631TCM    cl2 3320   1.280   4.135   0.601
  631TCM     h1 3321   1.275   4.328   0.742
  631TCM    cl3 3322   1.133   4.170   0.852
  632TCM     c1 3323   2.598   3.154   0.538
  632TCM    cl1 3324   2.529   3.319   0.555
  632TCM    cl2 3325   2.466   3.034   0.544
  632TCM     h1 3326   2.651   3.146   0.442
  632TCM    cl3 3327   2.712   3.126   0.673
  633TCM     c1 3328   0.465   0.143   0.720
  633TCM    cl1 3329   0.422  -0.024   0.672
  633TCM    cl2 3330   0.393   0.178   0.881
  633TCM     h1 3331   0.574   0.152   0.726
  633TCM    cl3 3332   0.401   0.260   0.600
  634TCM     c1 3333   0.027   2.224   3.000
  634TCM    cl1 3334  -0.087   2.354   2.954
  634TCM    cl2 3335   0.113   2.163   2.855
  634TCM     h1 3336   0.099   2.263   3.073
  634TCM    cl3 3337  -0.065   2.089   3.073
  635TCM     c1 3338   2.633   0.897   3.195
  635TCM    cl1 3339   2.705   0.793   3.067
  635TCM    cl2 3340   2.754   0.924   3.325
  635TCM     h1 3341   2.604   0.993   3.151
  635TCM    cl3 3342   2.489   0.815   3.264
  636TCM     c1 3343   0.270   0.971   1.928
  636TCM    cl1 3344   0.292   1.148   1.947
  636TCM    cl2 3345   0.430   0.890   1.931
  636TCM     h1 3346   0.208   0.933   2.010
  636TCM    cl3 3347   0.187   0.938   1.772
  637TCM     c1 3348   4.101   0.424   4.396
  637TCM    cl1 3349   3.961   0.493   4.484
  637TCM    cl2 3350   4.194   0.556   4.318
  637TCM     h1 3351   4.165   0.369   4.465
  637TCM    cl3 3352   4.041   0.312   4.269
  638TCM     c1 3353   0.042   0.896   4.707
  638TCM    cl1 3354   0.012   0.785   4.569
  638TCM    cl2 3355   0.212   0.878   4.762
  638TCM     h1 3356   0.024   0.999   4.676
  638TCM    cl3 3357  -0.069   0.853   4.842
  639TCM     c1 3358   2.807   0.625   1.332
  639TCM    cl1 3359   2.905   0.768   1.287
  639TCM    cl2 3360   2.670   0.676   1.436
  639TCM     h1 3361   2.768   0.576   1.243
  639TCM    cl3 3362   2.910   0.509   1.423
  640TCM     c1 3363   2.107   1.194   3.714
  640TCM    cl1 3364   2.037   1.323   3.817
  640TCM    cl2 3365   2.215   1.090   3.813
  640TCM     h1 3366   2.027   1.133   3.672
  640TCM    cl3 3367   2.202   1.270   3.582
   5.00000   5.00000   5.00000
