FOO
 3367
    1MOM     C1    1   0.813   1.897   0.778
    1MOM     O2    2   0.941   1.857   0.831
    1MOM     C3    3   0.998   1.742   0.782
    1MOM     C4    4   0.974   1.690   0.654
    1MOM     C5    5   1.038   1.573   0.613
    1MOM     C6    6   1.125   1.504   0.698
    1MOM     C7    7   1.182   1.376   0.650
    1MOM     C8    8   1.250   1.369   0.528
    1MOM     C9    9   1.309   1.248   0.484
    1MOM    C10   10   1.387   1.242   0.358
    1MOM    O11   11   1.381   1.337   0.281
    1MOM    C12   12   1.297   1.135   0.566
    1MOM    C13   13   1.226   1.140   0.686
    1MOM    C14   14   1.169   1.260   0.728
    1MOM    C15   15   1.151   1.556   0.827
    1MOM    C16   16   1.243   1.493   0.923
    1MOM    C17   17   1.200   1.465   1.054
    1MOM    C18   18   1.284   1.402   1.147
    1MOM    C19   19   1.232   1.374   1.286
    1MOM    C20   20   1.321   1.438   1.394
    1MOM    N21   21   1.223   1.232   1.314
    1MOM    C22   22   1.414   1.366   1.107
    1MOM    C23   23   1.459   1.395   0.978
    1MOM    C24   24   1.374   1.458   0.887
    1MOM    C25   25   1.087   1.675   0.866
    1MOM    H26   26   0.750   1.808   0.778
    1MOM    H27   27   0.833   1.936   0.678
    1MOM    H28   28   0.777   1.974   0.846
    1MOM    H29   29   0.908   1.740   0.585
    1MOM    H30   30   1.018   1.534   0.513
    1MOM    H31   31   1.260   1.459   0.468
    1MOM    H32   32   1.342   1.041   0.536
    1MOM    H33   33   1.216   1.051   0.747
    1MOM    H34   34   1.115   1.263   0.822
    1MOM    H35   35   1.099   1.490   1.082
    1MOM    H36   36   1.133   1.419   1.296
    1MOM    H37   37   1.417   1.386   1.390
    1MOM    H38   38   1.328   1.543   1.366
    1MOM    H39   39   1.269   1.423   1.489
    1MOM    H40   40   1.281   1.193   1.387
    1MOM    H41   41   1.480   1.316   1.177
    1MOM    H42   42   1.560   1.368   0.948
    1MOM    H43   43   1.410   1.480   0.787
    1MOM    H44   44   1.106   1.716   0.964
    2MOM    C45   45   0.991   0.241   0.964
    2MOM    O46   46   0.889   0.320   1.027
    2MOM    C47   47   0.927   0.437   1.089
    2MOM    C48   48   1.048   0.504   1.068
    2MOM    C49   49   1.077   0.621   1.139
    2MOM    C50   50   0.986   0.673   1.232
    2MOM    C51   51   1.026   0.788   1.314
    2MOM    C52   52   1.057   0.911   1.254
    2MOM    C53   53   1.096   1.022   1.332
    2MOM    C54   54   1.119   1.152   1.269
    2MOM    O55   55   1.043   1.192   1.183
    2MOM    C56   56   1.105   1.007   1.471
    2MOM    C57   57   1.072   0.886   1.532
    2MOM    C58   58   1.033   0.777   1.454
    2MOM    C59   59   0.861   0.610   1.249
    2MOM    C60   60   0.757   0.661   1.340
    2MOM    C61   61   0.700   0.575   1.434
    2MOM    C62   62   0.604   0.619   1.526
    2MOM    C63   63   0.555   0.523   1.631
    2MOM    C64   64   0.402   0.514   1.635
    2MOM    N65   65   0.607   0.564   1.761
    2MOM    C66   66   0.562   0.753   1.520
    2MOM    C67   67   0.617   0.840   1.425
    2MOM    C68   68   0.714   0.794   1.336
    2MOM    C69   69   0.835   0.492   1.178
    2MOM    H70   70   1.070   0.226   1.038
    2MOM    H71   71   1.024   0.298   0.876
    2MOM    H72   72   0.942   0.148   0.937
    2MOM    H73   73   1.122   0.467   0.999
    2MOM    H74   74   1.173   0.670   1.125
    2MOM    H75   75   1.049   0.922   1.146
    2MOM    H76   76   1.133   1.091   1.533
    2MOM    H77   77   1.076   0.876   1.640
    2MOM    H78   78   1.006   0.683   1.502
    2MOM    H79   79   0.733   0.472   1.439
    2MOM    H80   80   0.592   0.423   1.608
    2MOM    H81   81   0.366   0.610   1.672
    2MOM    H82   82   0.371   0.493   1.533
    2MOM    H83   83   0.380   0.432   1.703
    2MOM    H84   84   0.548   0.620   1.821
    2MOM    H85   85   0.489   0.791   1.591
    2MOM    H86   86   0.585   0.944   1.422
    2MOM    H87   87   0.757   0.863   1.263
    2MOM    H88   88   0.739   0.442   1.191
    3MOM    C89   89   1.574   0.807   2.236
    3MOM    O90   90   1.502   0.686   2.262
    3MOM    C91   91   1.373   0.674   2.214
    3MOM    C92   92   1.313   0.763   2.122
    3MOM    C93   93   1.181   0.743   2.081
    3MOM    C94   94   1.106   0.635   2.130
    3MOM    C95   95   0.964   0.627   2.096
    3MOM    C96   96   0.921   0.596   1.967
    3MOM    C97   97   0.783   0.585   1.936
    3MOM    C98   98   0.739   0.546   1.801
    3MOM    O99   99   0.818   0.492   1.724
    3MOM   C100  100   0.690   0.609   2.039
    3MOM   C101  101   0.733   0.638   2.169
    3MOM   C102  102   0.869   0.647   2.197
    3MOM   C103  103   1.166   0.544   2.219
    3MOM   C104  104   1.093   0.428   2.273
    3MOM   C105  105   1.073   0.417   2.411
    3MOM   C106  106   0.999   0.312   2.465
    3MOM   C107  107   0.972   0.311   2.614
    3MOM   C108  108   1.045   0.196   2.684
    3MOM   N109  109   0.829   0.301   2.642
    3MOM   C110  110   0.947   0.213   2.380
    3MOM   C111  111   0.968   0.222   2.242
    3MOM   C112  112   1.039   0.330   2.188
    3MOM   C113  113   1.299   0.566   2.260
    3MOM   H114  114   1.511   0.890   2.271
    3MOM   H115  115   1.594   0.809   2.129
    3MOM   H116  116   1.666   0.799   2.295
    3MOM   H117  117   1.367   0.848   2.084
    3MOM   H118  118   1.136   0.814   2.012
    3MOM   H119  119   0.995   0.577   1.889
    3MOM   H120  120   0.584   0.603   2.021
    3MOM   H121  121   0.661   0.653   2.249
    3MOM   H122  122   0.901   0.668   2.299
    3MOM   H123  123   1.112   0.495   2.475
    3MOM   H124  124   1.010   0.404   2.658
    3MOM   H125  125   1.003   0.103   2.644
    3MOM   H126  126   1.150   0.209   2.660
    3MOM   H127  127   1.025   0.209   2.790
    3MOM   H128  128   0.791   0.212   2.671
    3MOM   H129  129   0.890   0.130   2.420
    3MOM   H130  130   0.927   0.146   2.176
    3MOM   H131  131   1.052   0.338   2.081
    3MOM   H132  132   1.346   0.497   2.329
    4MOM   C133  133   0.091   1.070   2.684
    4MOM   O134  134   0.076   0.972   2.787
    4MOM   C135  135   0.154   0.859   2.777
    4MOM   C136  136   0.189   0.799   2.655
    4MOM   C137  137   0.270   0.684   2.654
    4MOM   C138  138   0.316   0.628   2.774
    4MOM   C139  139   0.399   0.508   2.766
    4MOM   C140  140   0.523   0.511   2.701
    4MOM   C141  141   0.608   0.399   2.701
    4MOM   C142  142   0.744   0.410   2.644
    4MOM   O143  143   0.788   0.519   2.609
    4MOM   C144  144   0.563   0.280   2.761
    4MOM   C145  145   0.438   0.275   2.823
    4MOM   C146  146   0.357   0.389   2.828
    4MOM   C147  147   0.282   0.688   2.897
    4MOM   C148  148   0.336   0.643   3.027
    4MOM   C149  149   0.253   0.619   3.138
    4MOM   C150  150   0.304   0.580   3.262
    4MOM   C151  151   0.212   0.553   3.380
    4MOM   C152  152   0.219   0.667   3.482
    4MOM   N153  153   0.249   0.429   3.446
    4MOM   C154  154   0.443   0.566   3.276
    4MOM   C155  155   0.528   0.590   3.168
    4MOM   C156  156   0.475   0.629   3.044
    4MOM   C157  157   0.199   0.802   2.896
    4MOM   H158  158   0.039   1.032   2.596
    4MOM   H159  159   0.198   1.084   2.668
    4MOM   H160  160   0.044   1.160   2.724
    4MOM   H161  161   0.155   0.840   2.561
    4MOM   H162  162   0.296   0.638   2.560
    4MOM   H163  163   0.556   0.603   2.655
    4MOM   H164  164   0.624   0.191   2.764
    4MOM   H165  165   0.403   0.184   2.870
    4MOM   H166  166   0.261   0.386   2.879
    4MOM   H167  167   0.145   0.630   3.126
    4MOM   H168  168   0.108   0.547   3.344
    4MOM   H169  169   0.323   0.672   3.515
    4MOM   H170  170   0.187   0.757   3.429
    4MOM   H171  171   0.150   0.639   3.562
    4MOM   H172  172   0.330   0.428   3.507
    4MOM   H173  173   0.486   0.536   3.371
    4MOM   H174  174   0.635   0.579   3.180
    4MOM   H175  175   0.542   0.649   2.962
    4MOM   H176  176   0.173   0.850   2.989
    5CAP   C177  177   1.550   1.133   0.224
    5CAP   O178  178   1.460   1.128   0.336
    5CAP   H179  179   1.489   1.143   0.134
    5CAP   H180  180   1.604   1.038   0.227
    5CAP   H181  181   1.616   1.218   0.241
    6CAP   C182  182  -0.015   0.215   3.129
    6CAP   C183  183   0.092   0.177   3.232
    6CAP   C184  184   0.037   0.061   3.317
    6CAP   C185  185   0.220   0.136   3.155
    6CAP   O186  186   0.113   0.298   3.307
    6CAP   C187  187   0.209   0.306   3.402
    6CAP   O188  188   0.262   0.212   3.461
    6CAP   H189  189  -0.038   0.125   3.072
    6CAP   H190  190  -0.100   0.252   3.186
    6CAP   H191  191   0.030   0.293   3.066
    6CAP   H192  192  -0.050   0.102   3.370
    6CAP   H193  193   0.116   0.029   3.384
    6CAP   H194  194   0.009  -0.018   3.247
    6CAP   H195  195   0.253   0.225   3.102
    6CAP   H196  196   0.292   0.103   3.229
    6CAP   H197  197   0.190   0.056   3.088
    7TCM     c1  198   4.464   0.494   2.508
    7TCM    cl1  199   4.305   0.576   2.491
    7TCM    cl2  200   4.510   0.486   2.681
    7TCM     h1  201   4.459   0.393   2.466
    7TCM    cl3  202   4.589   0.589   2.419
    8TCM     c1  203   1.857   2.287   4.035
    8TCM    cl1  204   1.865   2.190   3.884
    8TCM    cl2  205   1.787   2.187   4.166
    8TCM     h1  206   1.957   2.321   4.063
    8TCM    cl3  207   1.751   2.430   4.008
    9TCM     c1  208   1.912   2.243   0.729
    9TCM    cl1  209   1.804   2.303   0.599
    9TCM    cl2  210   1.917   2.064   0.722
    9TCM     h1  211   2.012   2.283   0.714
    9TCM    cl3  212   1.849   2.293   0.889
   10TCM     c1  213   2.824   0.592   3.676
   10TCM    cl1  214   2.844   0.614   3.499
   10TCM    cl2  215   2.896   0.435   3.725
   10TCM     h1  216   2.873   0.673   3.729
   10TCM    cl3  217   2.649   0.590   3.715
   11TCM     c1  218   1.938   1.814   2.548
   11TCM    cl1  219   2.038   1.675   2.602
   11TCM    cl2  220   1.998   1.874   2.390
   11TCM     h1  221   1.834   1.783   2.538
   11TCM    cl3  222   1.948   1.947   2.668
   12TCM     c1  223   0.081   1.456   0.125
   12TCM    cl1  224   0.017   1.551   0.263
   12TCM    cl2  225   0.250   1.506   0.091
   12TCM     h1  226   0.078   1.350   0.150
   12TCM    cl3  227  -0.020   1.486  -0.020
   13TCM     c1  228   2.917   0.736   2.384
   13TCM    cl1  229   2.813   0.602   2.442
   13TCM    cl2  230   3.040   0.776   2.508
   13TCM     h1  231   2.968   0.706   2.291
   13TCM    cl3  232   2.815   0.880   2.352
   14TCM     c1  233   3.459   4.259   4.632
   14TCM    cl1  234   3.311   4.332   4.702
   14TCM    cl2  235   3.422   4.194   4.469
   14TCM     h1  236   3.537   4.336   4.624
   14TCM    cl3  237   3.517   4.126   4.738
   15TCM     c1  238   0.439   4.018   3.217
   15TCM    cl1  239   0.297   4.024   3.326
   15TCM    cl2  240   0.539   3.876   3.259
   15TCM     h1  241   0.405   4.009   3.113
   15TCM    cl3  242   0.535   4.168   3.235
   16TCM     c1  243   3.942   1.294   2.641
   16TCM    cl1  244   4.092   1.339   2.728
   16TCM    cl2  245   3.885   1.134   2.699
   16TCM     h1  246   3.865   1.369   2.660
   16TCM    cl3  247   3.975   1.285   2.466
   17TCM     c1  248   0.089   3.179   4.225
   17TCM    cl1  249  -0.017   3.099   4.345
   17TCM    cl2  250   0.260   3.165   4.276
   17TCM     h1  251   0.076   3.131   4.127
   17TCM    cl3  252   0.044   3.352   4.212
   18TCM     c1  253   0.579   2.837   1.234
   18TCM    cl1  254   0.535   2.809   1.063
   18TCM    cl2  255   0.729   2.746   1.273
   18TCM     h1  256   0.596   2.944   1.250
   18TCM    cl3  257   0.447   2.781   1.341
   19TCM     c1  258   1.253   1.717   2.241
   19TCM    cl1  259   1.215   1.776   2.076
   19TCM    cl2  260   1.104   1.723   2.342
   19TCM     h1  261   1.290   1.615   2.236
   19TCM    cl3  262   1.378   1.823   2.313
   20TCM     c1  263   4.292   4.312   0.523
   20TCM    cl1  264   4.225   4.446   0.424
   20TCM    cl2  265   4.221   4.318   0.688
   20TCM     h1  266   4.267   4.216   0.476
   20TCM    cl3  267   4.470   4.329   0.534
   21TCM     c1  268   2.485   0.102   3.713
   21TCM    cl1  269   2.319   0.169   3.724
   21TCM    cl2  270   2.538   0.048   3.875
   21TCM     h1  271   2.486   0.017   3.643
   21TCM    cl3  272   2.597   0.230   3.655
   22TCM     c1  273   2.814   1.777   2.732
   22TCM    cl1  274   2.667   1.747   2.634
   22TCM    cl2  275   2.955   1.797   2.623
   22TCM     h1  276   2.801   1.868   2.792
   22TCM    cl3  277   2.844   1.638   2.841
   23TCM     c1  278   0.766   3.067   4.802
   23TCM    cl1  279   0.761   2.893   4.757
   23TCM    cl2  280   0.805   3.166   4.658
   23TCM     h1  281   0.670   3.097   4.843
   23TCM    cl3  282   0.894   3.090   4.926
   24TCM     c1  283   4.583   3.204   2.055
   24TCM    cl1  284   4.565   3.302   1.905
   24TCM    cl2  285   4.551   3.032   2.017
   24TCM     h1  286   4.684   3.216   2.094
   24TCM    cl3  287   4.464   3.261   2.177
   25TCM     c1  288   0.299   3.845   4.667
   25TCM    cl1  289   0.155   3.777   4.585
   25TCM    cl2  290   0.269   4.017   4.710
   25TCM     h1  291   0.319   3.788   4.758
   25TCM    cl3  292   0.438   3.834   4.556
   26TCM     c1  293   2.168   1.153   3.289
   26TCM    cl1  294   2.167   1.050   3.437
   26TCM    cl2  295   2.310   1.112   3.187
   26TCM     h1  296   2.077   1.135   3.232
   26TCM    cl3  297   2.177   1.326   3.336
   27TCM     c1  298   1.003   2.047   2.484
   27TCM    cl1  299   1.004   2.107   2.315
   27TCM    cl2  300   0.904   2.157   2.586
   27TCM     h1  301   0.960   1.947   2.487
   27TCM    cl3  302   1.171   2.043   2.547
   28TCM     c1  303   3.034   4.776   4.579
   28TCM    cl1  304   2.996   4.606   4.625
   28TCM    cl2  305   2.882   4.862   4.538
   28TCM     h1  306   3.083   4.826   4.663
   28TCM    cl3  307   3.142   4.777   4.437
   29TCM     c1  308   2.807   2.680   1.902
   29TCM    cl1  309   2.936   2.567   1.849
   29TCM    cl2  310   2.865   2.849   1.888
   29TCM     h1  311   2.719   2.667   1.840
   29TCM    cl3  312   2.765   2.646   2.074
   30TCM     c1  313   2.825   2.185   4.755
   30TCM    cl1  314   2.841   2.032   4.663
   30TCM    cl2  315   2.896   2.163   4.919
   30TCM     h1  316   2.877   2.265   4.703
   30TCM    cl3  317   2.651   2.227   4.772
   31TCM     c1  318   0.133   0.042   1.321
   31TCM    cl1  319   0.115  -0.006   1.493
   31TCM    cl2  320   0.266  -0.051   1.246
   31TCM     h1  321   0.040   0.022   1.268
   31TCM    cl3  322   0.171   0.218   1.312
   32TCM     c1  323   3.315   0.556   0.972
   32TCM    cl1  324   3.324   0.589   1.148
   32TCM    cl2  325   3.322   0.712   0.883
   32TCM     h1  326   3.398   0.492   0.941
   32TCM    cl3  327   3.159   0.475   0.935
   33TCM     c1  328   3.703   3.486   1.788
   33TCM    cl1  329   3.636   3.334   1.857
   33TCM    cl2  330   3.671   3.492   1.612
   33TCM     h1  331   3.656   3.572   1.837
   33TCM    cl3  332   3.880   3.492   1.816
   34TCM     c1  333   1.009   0.890   3.268
   34TCM    cl1  334   1.143   0.970   3.357
   34TCM    cl2  335   0.859   0.987   3.285
   34TCM     h1  336   1.036   0.881   3.162
   34TCM    cl3  337   0.982   0.727   3.338
   35TCM     c1  338   0.653   0.172   4.021
   35TCM    cl1  339   0.614   0.009   4.083
   35TCM    cl2  340   0.715   0.159   3.854
   35TCM     h1  341   0.562   0.234   4.021
   35TCM    cl3  342   0.778   0.247   4.126
   36TCM     c1  343   2.906   3.499   3.374
   36TCM    cl1  344   3.044   3.384   3.371
   36TCM    cl2  345   2.890   3.568   3.539
   36TCM     h1  346   2.923   3.578   3.302
   36TCM    cl3  347   2.755   3.411   3.332
   37TCM     c1  348   0.419   0.938   2.271
   37TCM    cl1  349   0.273   1.018   2.339
   37TCM    cl2  350   0.374   0.840   2.128
   37TCM     h1  351   0.492   1.014   2.243
   37TCM    cl3  352   0.490   0.831   2.397
   38TCM     c1  353   4.979   1.977   2.034
   38TCM    cl1  354   5.119   1.953   2.143
   38TCM    cl2  355   4.938   1.823   1.951
   38TCM     h1  356   4.893   2.010   2.093
   38TCM    cl3  357   5.019   2.102   1.912
   39TCM     c1  358   1.408   3.718   2.057
   39TCM    cl1  359   1.243   3.672   2.004
   39TCM    cl2  360   1.461   3.613   2.192
   39TCM     h1  361   1.478   3.706   1.973
   39TCM    cl3  362   1.409   3.890   2.111
   40TCM     c1  363   3.677   1.408   2.122
   40TCM    cl1  364   3.628   1.535   2.239
   40TCM    cl2  365   3.853   1.376   2.138
   40TCM     h1  366   3.621   1.316   2.142
   40TCM    cl3  367   3.643   1.465   1.956
   41TCM     c1  368   0.862   2.247   1.882
   41TCM    cl1  369   0.757   2.181   2.012
   41TCM    cl2  370   0.944   2.110   1.799
   41TCM     h1  371   0.802   2.303   1.811
   41TCM    cl3  372   0.986   2.354   1.955
   42TCM     c1  373   2.264   3.718   1.709
   42TCM    cl1  374   2.174   3.621   1.831
   42TCM    cl2  375   2.279   3.623   1.558
   42TCM     h1  376   2.211   3.812   1.690
   42TCM    cl3  377   2.428   3.754   1.773
   43TCM     c1  378   0.785   4.380   1.102
   43TCM    cl1  379   0.635   4.340   1.012
   43TCM    cl2  380   0.813   4.558   1.096
   43TCM     h1  381   0.776   4.348   1.206
   43TCM    cl3  382   0.924   4.296   1.025
   44TCM     c1  383   0.348   1.071   4.401
   44TCM    cl1  384   0.506   0.986   4.405
   44TCM    cl2  385   0.298   1.110   4.569
   44TCM     h1  386   0.357   1.163   4.343
   44TCM    cl3  387   0.225   0.964   4.327
   45TCM     c1  388   1.242   3.887   4.598
   45TCM    cl1  389   1.386   3.966   4.671
   45TCM    cl2  390   1.295   3.746   4.500
   45TCM     h1  391   1.175   3.853   4.678
   45TCM    cl3  392   1.156   4.003   4.493
   46TCM     c1  393   0.344   0.692   4.550
   46TCM    cl1  394   0.179   0.630   4.518
   46TCM    cl2  395   0.461   0.556   4.546
   46TCM     h1  396   0.372   0.766   4.474
   46TCM    cl3  397   0.350   0.767   4.713
   47TCM     c1  398   1.226   4.208   1.999
   47TCM    cl1  399   1.060   4.271   2.029
   47TCM    cl2  400   1.337   4.346   1.973
   47TCM     h1  401   1.259   4.150   2.086
   47TCM    cl3  402   1.225   4.102   1.855
   48TCM     c1  403   3.529   4.197   0.086
   48TCM    cl1  404   3.543   4.153   0.259
   48TCM    cl2  405   3.638   4.335   0.050
   48TCM     h1  406   3.557   4.112   0.024
   48TCM    cl3  407   3.359   4.243   0.051
   49TCM     c1  408   1.614   1.662   1.319
   49TCM    cl1  409   1.700   1.511   1.275
   49TCM    cl2  410   1.499   1.704   1.188
   49TCM     h1  411   1.559   1.648   1.412
   49TCM    cl3  412   1.734   1.794   1.339
   50TCM     c1  413   3.414   0.583   2.171
   50TCM    cl1  414   3.272   0.688   2.199
   50TCM    cl2  415   3.360   0.428   2.101
   50TCM     h1  416   3.484   0.632   2.102
   50TCM    cl3  417   3.496   0.553   2.328
   51TCM     c1  418   0.039   0.436   1.825
   51TCM    cl1  419   0.102   0.601   1.859
   51TCM    cl2  420   0.060   0.398   1.651
   51TCM     h1  421   0.094   0.363   1.885
   51TCM    cl3  422  -0.135   0.430   1.867
   52TCM     c1  423   3.462   2.529   1.162
   52TCM    cl1  424   3.330   2.596   1.264
   52TCM    cl2  425   3.547   2.399   1.252
   52TCM     h1  426   3.419   2.488   1.070
   52TCM    cl3  427   3.579   2.658   1.121
   53TCM     c1  428   4.218   0.109   0.563
   53TCM    cl1  429   4.235   0.106   0.384
   53TCM    cl2  430   4.382   0.100   0.637
   53TCM     h1  431   4.170   0.203   0.593
   53TCM    cl3  432   4.119  -0.030   0.616
   54TCM     c1  433   4.980   1.644   3.068
   54TCM    cl1  434   5.144   1.681   3.131
   54TCM    cl2  435   4.986   1.490   2.975
   54TCM     h1  436   4.910   1.634   3.151
   54TCM    cl3  437   4.926   1.777   2.960
   55TCM     c1  438   2.168   3.446   2.329
   55TCM    cl1  439   2.089   3.293   2.380
   55TCM    cl2  440   2.241   3.422   2.167
   55TCM     h1  441   2.093   3.526   2.324
   55TCM    cl3  442   2.295   3.490   2.447
   56TCM     c1  443   0.710   0.166   4.557
   56TCM    cl1  444   0.739   0.032   4.442
   56TCM    cl2  445   0.771   0.120   4.720
   56TCM     h1  446   0.763   0.256   4.523
   56TCM    cl3  447   0.534   0.199   4.567
   57TCM     c1  448   4.634   0.539   4.305
   57TCM    cl1  449   4.611   0.361   4.317
   57TCM    cl2  450   4.716   0.599   4.452
   57TCM     h1  451   4.695   0.562   4.218
   57TCM    cl3  452   4.474   0.618   4.289
   58TCM     c1  453   3.744   4.640   1.306
   58TCM    cl1  454   3.695   4.812   1.289
   58TCM    cl2  455   3.775   4.603   1.479
   58TCM     h1  456   3.664   4.575   1.269
   58TCM    cl3  457   3.894   4.610   1.212
   59TCM     c1  458   4.721   4.306   4.772
   59TCM    cl1  459   4.853   4.331   4.891
   59TCM    cl2  460   4.636   4.461   4.742
   59TCM     h1  461   4.763   4.269   4.678
   59TCM    cl3  462   4.605   4.186   4.837
   60TCM     c1  463   3.879   4.202   1.295
   60TCM    cl1  464   3.722   4.283   1.264
   60TCM    cl2  465   3.951   4.267   1.445
   60TCM     h1  466   3.864   4.094   1.304
   60TCM    cl3  467   3.991   4.235   1.158
   61TCM     c1  468   3.731   3.909   3.295
   61TCM    cl1  469   3.809   3.955   3.451
   61TCM    cl2  470   3.858   3.860   3.179
   61TCM     h1  471   3.661   3.827   3.311
   61TCM    cl3  472   3.644   4.052   3.231
   62TCM     c1  473   0.110   1.009   3.247
   62TCM    cl1  474   0.281   0.956   3.234
   62TCM    cl2  475  -0.000   0.871   3.215
   62TCM     h1  476   0.092   1.048   3.347
   62TCM    cl3  477   0.080   1.138   3.126
   63TCM     c1  478   3.023   2.287   2.793
   63TCM    cl1  479   2.936   2.133   2.762
   63TCM    cl2  480   2.969   2.357   2.949
   63TCM     h1  481   3.131   2.267   2.797
   63TCM    cl3  482   2.988   2.402   2.660
   64TCM     c1  483   3.567   2.371   2.372
   64TCM    cl1  484   3.735   2.434   2.357
   64TCM    cl2  485   3.572   2.202   2.432
   64TCM     h1  486   3.510   2.433   2.441
   64TCM    cl3  487   3.489   2.374   2.210
   65TCM     c1  488   4.964   0.582   2.366
   65TCM    cl1  489   5.056   0.464   2.466
   65TCM    cl2  490   4.892   0.498   2.225
   65TCM     h1  491   4.884   0.627   2.425
   65TCM    cl3  492   5.075   0.710   2.307
   66TCM     c1  493   0.938   4.951   3.103
   66TCM    cl1  494   0.989   5.103   3.184
   66TCM    cl2  495   1.076   4.836   3.101
   66TCM     h1  496   0.854   4.907   3.157
   66TCM    cl3  497   0.889   4.988   2.934
   67TCM     c1  498   0.165   3.559   1.017
   67TCM    cl1  499   0.224   3.431   1.129
   67TCM    cl2  500   0.095   3.481   0.872
   67TCM     h1  501   0.090   3.620   1.067
   67TCM    cl3  502   0.304   3.662   0.968
   68TCM     c1  503   1.709   3.441   0.609
   68TCM    cl1  504   1.714   3.593   0.513
   68TCM    cl2  505   1.704   3.481   0.783
   68TCM     h1  506   1.620   3.384   0.582
   68TCM    cl3  507   1.856   3.345   0.574
   69TCM     c1  508   4.830   0.131   2.228
   69TCM    cl1  509   4.687   0.208   2.304
   69TCM    cl2  510   4.784  -0.027   2.158
   69TCM     h1  511   4.869   0.196   2.149
   69TCM    cl3  512   4.957   0.106   2.352
   70TCM     c1  513   2.607   4.527   3.914
   70TCM    cl1  514   2.604   4.706   3.909
   70TCM    cl2  515   2.562   4.473   4.078
   70TCM     h1  516   2.536   4.487   3.841
   70TCM    cl3  517   2.772   4.469   3.875
   71TCM     c1  518   4.862   1.918   4.931
   71TCM    cl1  519   4.839   1.788   4.810
   71TCM    cl2  520   4.941   2.059   4.852
   71TCM     h1  521   4.765   1.948   4.971
   71TCM    cl3  522   4.966   1.859   5.065
   72TCM     c1  523   2.893   4.794   4.166
   72TCM    cl1  524   2.741   4.888   4.187
   72TCM    cl2  525   2.944   4.800   3.994
   72TCM     h1  526   2.972   4.838   4.229
   72TCM    cl3  527   2.866   4.624   4.216
   73TCM     c1  528   3.685   4.244   1.820
   73TCM    cl1  529   3.614   4.322   1.674
   73TCM    cl2  530   3.696   4.366   1.951
   73TCM     h1  531   3.622   4.161   1.852
   73TCM    cl3  532   3.849   4.183   1.782
   74TCM     c1  533   0.778   0.314   3.392
   74TCM    cl1  534   0.845   0.198   3.511
   74TCM    cl2  535   0.763   0.475   3.470
   74TCM     h1  536   0.845   0.321   3.306
   74TCM    cl3  537   0.616   0.259   3.339
   75TCM     c1  538   0.696   1.393   2.332
   75TCM    cl1  539   0.733   1.424   2.159
   75TCM    cl2  540   0.845   1.422   2.428
   75TCM     h1  541   0.616   1.459   2.366
   75TCM    cl3  542   0.644   1.222   2.351
   76TCM     c1  543   1.398   0.777   1.738
   76TCM    cl1  544   1.337   0.937   1.791
   76TCM    cl2  545   1.262   0.660   1.738
   76TCM     h1  546   1.440   0.785   1.638
   76TCM    cl3  547   1.525   0.720   1.851
   77TCM     c1  548   2.948   1.150   3.691
   77TCM    cl1  549   2.882   1.176   3.856
   77TCM    cl2  550   2.837   1.225   3.572
   77TCM     h1  551   3.046   1.197   3.683
   77TCM    cl3  552   2.963   0.974   3.659
   78TCM     c1  553   4.839   4.805   0.954
   78TCM    cl1  554   4.943   4.667   1.000
   78TCM    cl2  555   4.884   4.948   1.053
   78TCM     h1  556   4.852   4.828   0.848
   78TCM    cl3  557   4.667   4.763   0.987
   79TCM     c1  558   0.489   4.207   0.155
   79TCM    cl1  559   0.578   4.351   0.095
   79TCM    cl2  560   0.582   4.130   0.288
   79TCM     h1  561   0.391   4.237   0.192
   79TCM    cl3  562   0.470   4.089   0.021
   80TCM     c1  563   2.521   3.343   1.937
   80TCM    cl1  564   2.450   3.374   1.776
   80TCM    cl2  565   2.700   3.338   1.922
   80TCM     h1  566   2.493   3.422   2.007
   80TCM    cl3  567   2.462   3.185   1.999
   81TCM     c1  568   0.394   3.204   0.898
   81TCM    cl1  569   0.457   3.330   0.788
   81TCM    cl2  570   0.517   3.171   1.025
   81TCM     h1  571   0.302   3.239   0.945
   81TCM    cl3  572   0.361   3.054   0.806
   82TCM     c1  573   3.327   3.552   0.866
   82TCM    cl1  574   3.391   3.695   0.777
   82TCM    cl2  575   3.276   3.604   1.031
   82TCM     h1  576   3.241   3.511   0.812
   82TCM    cl3  577   3.456   3.428   0.879
   83TCM     c1  578   3.044   3.249   0.039
   83TCM    cl1  579   3.047   3.148  -0.109
   83TCM    cl2  580   3.169   3.190   0.153
   83TCM     h1  581   3.064   3.354   0.013
   83TCM    cl3  582   2.882   3.237   0.116
   84TCM     c1  583   1.293   1.366   1.819
   84TCM    cl1  584   1.157   1.278   1.743
   84TCM    cl2  585   1.274   1.542   1.791
   84TCM     h1  586   1.294   1.346   1.926
   84TCM    cl3  587   1.446   1.310   1.744
   85TCM     c1  588   1.979   2.437   4.471
   85TCM    cl1  589   1.925   2.360   4.624
   85TCM    cl2  590   1.836   2.494   4.379
   85TCM     h1  591   2.044   2.522   4.494
   85TCM    cl3  592   2.068   2.316   4.373
   86TCM     c1  593   2.196   4.257   3.814
   86TCM    cl1  594   2.131   4.258   3.647
   86TCM    cl2  595   2.061   4.228   3.928
   86TCM     h1  596   2.271   4.179   3.824
   86TCM    cl3  597   2.269   4.417   3.850
   87TCM     c1  598   0.692   0.211   0.088
   87TCM    cl1  599   0.812   0.089   0.141
   87TCM    cl2  600   0.740   0.373   0.148
   87TCM     h1  601   0.687   0.212  -0.021
   87TCM    cl3  602   0.531   0.169   0.155
   88TCM     c1  603   1.213   0.676   2.787
   88TCM    cl1  604   1.174   0.749   2.947
   88TCM    cl2  605   1.077   0.708   2.675
   88TCM     h1  606   1.304   0.720   2.748
   88TCM    cl3  607   1.234   0.499   2.806
   89TCM     c1  608   4.704   2.988   3.048
   89TCM    cl1  609   4.692   3.015   2.871
   89TCM    cl2  610   4.578   3.084   3.132
   89TCM     h1  611   4.689   2.882   3.070
   89TCM    cl3  612   4.866   3.038   3.105
   90TCM     c1  613   3.084   4.722   0.118
   90TCM    cl1  614   3.101   4.779  -0.051
   90TCM    cl2  615   3.222   4.783   0.216
   90TCM     h1  616   2.991   4.760   0.160
   90TCM    cl3  617   3.082   4.543   0.122
   91TCM     c1  618   1.825   0.255   3.501
   91TCM    cl1  619   1.964   0.251   3.388
   91TCM    cl2  620   1.882   0.209   3.665
   91TCM     h1  621   1.782   0.355   3.504
   91TCM    cl3  622   1.700   0.138   3.446
   92TCM     c1  623   0.963   0.625   3.843
   92TCM    cl1  624   0.850   0.740   3.765
   92TCM    cl2  625   0.920   0.458   3.793
   92TCM     h1  626   1.065   0.647   3.811
   92TCM    cl3  627   0.950   0.639   4.021
   93TCM     c1  628   2.319   0.288   2.122
   93TCM    cl1  629   2.201   0.241   2.249
   93TCM    cl2  630   2.254   0.247   1.960
   93TCM     h1  631   2.338   0.395   2.128
   93TCM    cl3  632   2.473   0.198   2.148
   94TCM     c1  633   1.070   1.222   2.157
   94TCM    cl1  634   1.196   1.122   2.079
   94TCM    cl2  635   1.146   1.370   2.224
   94TCM     h1  636   0.994   1.250   2.084
   94TCM    cl3  637   0.992   1.126   2.287
   95TCM     c1  638   1.634   1.659   4.993
   95TCM    cl1  639   1.471   1.686   4.923
   95TCM    cl2  640   1.635   1.503   5.082
   95TCM     h1  641   1.708   1.656   4.912
   95TCM    cl3  642   1.673   1.794   5.105
   96TCM     c1  643   4.671   3.013   2.498
   96TCM    cl1  644   4.720   3.178   2.447
   96TCM    cl2  645   4.816   2.909   2.510
   96TCM     h1  646   4.621   3.018   2.595
   96TCM    cl3  647   4.558   2.945   2.376
   97TCM     c1  648   3.108   4.944   1.416
   97TCM    cl1  649   3.182   5.068   1.522
   97TCM    cl2  650   3.074   4.797   1.513
   97TCM     h1  651   3.015   4.983   1.374
   97TCM    cl3  652   3.222   4.905   1.283
   98TCM     c1  653   4.269   2.361   2.945
   98TCM    cl1  654   4.322   2.240   2.823
   98TCM    cl2  655   4.090   2.360   2.956
   98TCM     h1  656   4.312   2.337   3.043
   98TCM    cl3  657   4.324   2.525   2.895
   99TCM     c1  658   4.163   0.895   3.391
   99TCM    cl1  659   4.295   1.016   3.391
   99TCM    cl2  660   4.192   0.777   3.259
   99TCM     h1  661   4.161   0.842   3.487
   99TCM    cl3  662   4.006   0.978   3.364
  100TCM     c1  663   4.219   1.104   2.978
  100TCM    cl1  664   4.367   1.010   3.015
  100TCM    cl2  665   4.197   1.234   3.100
  100TCM     h1  666   4.227   1.148   2.878
  100TCM    cl3  667   4.076   0.995   2.983
  101TCM     c1  668   1.903   0.236   3.030
  101TCM    cl1  669   2.001   0.380   2.987
  101TCM    cl2  670   1.877   0.136   2.883
  101TCM     h1  671   1.956   0.177   3.106
  101TCM    cl3  672   1.744   0.288   3.095
  102TCM     c1  673   0.383   4.477   3.499
  102TCM    cl1  674   0.228   4.493   3.410
  102TCM    cl2  675   0.519   4.517   3.390
  102TCM     h1  676   0.383   4.545   3.584
  102TCM    cl3  677   0.401   4.308   3.556
  103TCM     c1  678   0.313   1.882   4.795
  103TCM    cl1  679   0.308   1.961   4.956
  103TCM    cl2  680   0.251   1.996   4.671
  103TCM     h1  681   0.416   1.855   4.771
  103TCM    cl3  682   0.212   1.734   4.798
  104TCM     c1  683   1.169   0.008   4.959
  104TCM    cl1  684   1.202   0.052   5.130
  104TCM    cl2  685   1.091   0.148   4.878
  104TCM     h1  686   1.262  -0.016   4.908
  104TCM    cl3  687   1.059  -0.133   4.954
  105TCM     c1  688   0.809   2.299   0.996
  105TCM    cl1  689   0.768   2.468   1.041
  105TCM    cl2  690   0.851   2.291   0.822
  105TCM     h1  691   0.894   2.266   1.056
  105TCM    cl3  692   0.668   2.193   1.029
  106TCM     c1  693   4.784   1.666   2.263
  106TCM    cl1  694   4.802   1.831   2.331
  106TCM    cl2  695   4.689   1.563   2.375
  106TCM     h1  696   4.733   1.672   2.166
  106TCM    cl3  697   4.947   1.595   2.240
  107TCM     c1  698   2.970   1.345   2.431
  107TCM    cl1  699   2.931   1.326   2.257
  107TCM    cl2  700   2.991   1.182   2.505
  107TCM     h1  701   3.063   1.402   2.442
  107TCM    cl3  702   2.836   1.432   2.512
  108TCM     c1  703   3.173   0.386   2.568
  108TCM    cl1  704   3.022   0.396   2.664
  108TCM    cl2  705   3.135   0.420   2.396
  108TCM     h1  706   3.245   0.459   2.605
  108TCM    cl3  707   3.242   0.221   2.583
  109TCM     c1  708   2.525   4.561   0.919
  109TCM    cl1  709   2.439   4.490   1.060
  109TCM    cl2  710   2.560   4.734   0.954
  109TCM     h1  711   2.619   4.507   0.903
  109TCM    cl3  712   2.422   4.548   0.773
  110TCM     c1  713   0.302   3.378   3.882
  110TCM    cl1  714   0.203   3.228   3.888
  110TCM    cl2  715   0.433   3.368   4.004
  110TCM     h1  716   0.345   3.389   3.782
  110TCM    cl3  717   0.198   3.520   3.918
  111TCM     c1  718   2.676   4.986   1.860
  111TCM    cl1  719   2.726   4.942   2.026
  111TCM    cl2  720   2.497   4.986   1.851
  111TCM     h1  721   2.714   5.085   1.835
  111TCM    cl3  722   2.741   4.865   1.743
  112TCM     c1  723   2.907   4.817   3.552
  112TCM    cl1  724   2.832   4.755   3.401
  112TCM    cl2  725   2.970   4.678   3.646
  112TCM     h1  726   2.990   4.884   3.527
  112TCM    cl3  727   2.784   4.904   3.648
  113TCM     c1  728   3.550   3.684   0.032
  113TCM    cl1  729   3.625   3.687   0.195
  113TCM    cl2  730   3.674   3.639  -0.090
  113TCM     h1  731   3.469   3.610   0.030
  113TCM    cl3  732   3.485   3.846  -0.007
  114TCM     c1  733   1.759   0.205   4.455
  114TCM    cl1  734   1.686   0.045   4.489
  114TCM    cl2  735   1.669   0.284   4.321
  114TCM     h1  736   1.753   0.268   4.544
  114TCM    cl3  737   1.931   0.185   4.408
  115TCM     c1  738   3.362   3.827   1.733
  115TCM    cl1  739   3.434   3.991   1.742
  115TCM    cl2  740   3.418   3.730   1.874
  115TCM     h1  741   3.253   3.834   1.736
  115TCM    cl3  742   3.414   3.747   1.581
  116TCM     c1  743   0.061   2.461   1.843
  116TCM    cl1  744  -0.046   2.475   1.987
  116TCM    cl2  745   0.224   2.525   1.882
  116TCM     h1  746   0.070   2.356   1.815
  116TCM    cl3  747  -0.009   2.555   1.708
  117TCM     c1  748   1.920   0.783   3.234
  117TCM    cl1  749   1.826   0.649   3.161
  117TCM    cl2  750   2.030   0.855   3.111
  117TCM     h1  751   1.851   0.860   3.270
  117TCM    cl3  752   2.017   0.721   3.371
  118TCM     c1  753   1.694   4.585   3.518
  118TCM    cl1  754   1.777   4.743   3.501
  118TCM    cl2  755   1.801   4.472   3.608
  118TCM     h1  756   1.600   4.598   3.574
  118TCM    cl3  757   1.658   4.517   3.356
  119TCM     c1  758   1.343   2.960   3.485
  119TCM    cl1  759   1.367   2.922   3.311
  119TCM    cl2  760   1.460   2.865   3.582
  119TCM     h1  761   1.361   3.067   3.501
  119TCM    cl3  762   1.176   2.918   3.532
  120TCM     c1  763   4.845   2.282   2.333
  120TCM    cl1  764   4.845   2.216   2.500
  120TCM    cl2  765   4.729   2.191   2.231
  120TCM     h1  766   4.817   2.387   2.335
  120TCM    cl3  767   5.010   2.265   2.265
  121TCM     c1  768   2.235   1.464   1.769
  121TCM    cl1  769   2.355   1.339   1.819
  121TCM    cl2  770   2.302   1.560   1.633
  121TCM     h1  771   2.143   1.415   1.738
  121TCM    cl3  772   2.202   1.572   1.909
  122TCM     c1  773   1.351   4.995   3.460
  122TCM    cl1  774   1.184   5.002   3.528
  122TCM    cl2  775   1.346   5.043   3.288
  122TCM     h1  776   1.416   5.063   3.516
  122TCM    cl3  777   1.412   4.827   3.476
  123TCM     c1  778   4.555   3.762   2.649
  123TCM    cl1  779   4.489   3.925   2.687
  123TCM    cl2  780   4.698   3.780   2.541
  123TCM     h1  781   4.585   3.713   2.741
  123TCM    cl3  782   4.429   3.664   2.567
  124TCM     c1  783   4.246   1.102   3.813
  124TCM    cl1  784   4.144   0.971   3.743
  124TCM    cl2  785   4.405   1.103   3.729
  124TCM     h1  786   4.196   1.198   3.799
  124TCM    cl3  787   4.271   1.070   3.987
  125TCM     c1  788   3.705   1.771   2.484
  125TCM    cl1  789   3.816   1.855   2.372
  125TCM    cl2  790   3.644   1.887   2.607
  125TCM     h1  791   3.621   1.730   2.428
  125TCM    cl3  792   3.793   1.638   2.567
  126TCM     c1  793   4.943   4.047   3.276
  126TCM    cl1  794   4.951   4.023   3.453
  126TCM    cl2  795   4.810   4.160   3.236
  126TCM     h1  796   5.038   4.088   3.240
  126TCM    cl3  797   4.913   3.889   3.196
  127TCM     c1  798   0.553   2.002   0.222
  127TCM    cl1  799   0.456   2.145   0.269
  127TCM    cl2  800   0.632   1.935   0.368
  127TCM     h1  801   0.488   1.927   0.177
  127TCM    cl3  802   0.678   2.052   0.103
  128TCM     c1  803   3.494   1.572   3.484
  128TCM    cl1  804   3.482   1.410   3.561
  128TCM    cl2  805   3.385   1.578   3.342
  128TCM     h1  806   3.465   1.649   3.556
  128TCM    cl3  807   3.663   1.600   3.431
  129TCM     c1  808   1.323   2.388   2.540
  129TCM    cl1  809   1.446   2.506   2.484
  129TCM    cl2  810   1.164   2.425   2.465
  129TCM     h1  811   1.354   2.287   2.512
  129TCM    cl3  812   1.308   2.397   2.719
  130TCM     c1  813   0.448   2.814   4.987
  130TCM    cl1  814   0.444   2.862   5.160
  130TCM    cl2  815   0.435   2.961   4.884
  130TCM     h1  816   0.542   2.762   4.965
  130TCM    cl3  817   0.309   2.707   4.951
  131TCM     c1  818   0.781   4.672   4.809
  131TCM    cl1  819   0.763   4.495   4.784
  131TCM    cl2  820   0.716   4.717   4.970
  131TCM     h1  821   0.887   4.699   4.803
  131TCM    cl3  822   0.691   4.759   4.681
  132TCM     c1  823   4.932   4.736   4.996
  132TCM    cl1  824   5.049   4.608   5.042
  132TCM    cl2  825   4.949   4.876   5.108
  132TCM     h1  826   4.952   4.769   4.894
  132TCM    cl3  827   4.765   4.671   5.006
  133TCM     c1  828   0.798   1.408   0.357
  133TCM    cl1  829   0.775   1.340   0.522
  133TCM    cl2  830   0.749   1.580   0.357
  133TCM     h1  831   0.903   1.400   0.329
  133TCM    cl3  832   0.697   1.316   0.241
  134TCM     c1  833   2.411   0.402   3.279
  134TCM    cl1  834   2.371   0.233   3.325
  134TCM    cl2  835   2.495   0.481   3.416
  134TCM     h1  836   2.476   0.402   3.191
  134TCM    cl3  837   2.260   0.491   3.241
  135TCM     c1  838   0.345   1.394   3.032
  135TCM    cl1  839   0.455   1.532   2.999
  135TCM    cl2  840   0.424   1.281   3.147
  135TCM     h1  841   0.252   1.431   3.076
  135TCM    cl3  842   0.309   1.308   2.879
  136TCM     c1  843   0.356   4.384   4.798
  136TCM    cl1  844   0.311   4.377   4.625
  136TCM    cl2  845   0.221   4.320   4.897
  136TCM     h1  846   0.446   4.325   4.816
  136TCM    cl3  847   0.387   4.555   4.845
  137TCM     c1  848   4.258   1.232   2.146
  137TCM    cl1  849   4.123   1.115   2.164
  137TCM    cl2  850   4.301   1.301   2.306
  137TCM     h1  851   4.345   1.180   2.105
  137TCM    cl3  852   4.209   1.364   2.035
  138TCM     c1  853   1.452   0.559   1.399
  138TCM    cl1  854   1.605   0.581   1.491
  138TCM    cl2  855   1.489   0.491   1.237
  138TCM     h1  856   1.387   0.490   1.454
  138TCM    cl3  857   1.373   0.718   1.379
  139TCM     c1  858   4.584   0.171   3.371
  139TCM    cl1  859   4.699   0.301   3.413
  139TCM    cl2  860   4.553   0.068   3.515
  139TCM     h1  861   4.489   0.216   3.339
  139TCM    cl3  862   4.652   0.071   3.239
  140TCM     c1  863   2.378   1.649   3.421
  140TCM    cl1  864   2.383   1.815   3.353
  140TCM    cl2  865   2.240   1.637   3.535
  140TCM     h1  866   2.365   1.577   3.340
  140TCM    cl3  867   2.530   1.615   3.510
  141TCM     c1  868   2.512   3.539   3.648
  141TCM    cl1  869   2.381   3.603   3.752
  141TCM    cl2  870   2.523   3.636   3.498
  141TCM     h1  871   2.608   3.544   3.702
  141TCM    cl3  872   2.477   3.368   3.606
  142TCM     c1  873   0.747   1.442   3.337
  142TCM    cl1  874   0.889   1.370   3.254
  142TCM    cl2  875   0.804   1.559   3.461
  142TCM     h1  876   0.684   1.494   3.263
  142TCM    cl3  877   0.652   1.313   3.417
  143TCM     c1  878   1.107   4.414   1.510
  143TCM    cl1  879   1.174   4.258   1.454
  143TCM    cl2  880   1.090   4.412   1.689
  143TCM     h1  881   1.173   4.496   1.481
  143TCM    cl3  882   0.945   4.439   1.436
  144TCM     c1  883   3.628   4.059   2.290
  144TCM    cl1  884   3.601   4.237   2.299
  144TCM    cl2  885   3.601   4.005   2.121
  144TCM     h1  886   3.730   4.036   2.320
  144TCM    cl3  887   3.512   3.977   2.399
  145TCM     c1  888   0.629   2.321   3.256
  145TCM    cl1  889   0.528   2.183   3.200
  145TCM    cl2  890   0.706   2.398   3.114
  145TCM     h1  891   0.565   2.393   3.307
  145TCM    cl3  892   0.755   2.261   3.368
  146TCM     c1  893   1.824   3.838   1.662
  146TCM    cl1  894   1.943   3.905   1.778
  146TCM    cl2  895   1.896   3.697   1.579
  146TCM     h1  896   1.733   3.807   1.715
  146TCM    cl3  897   1.781   3.964   1.541
  147TCM     c1  898   1.640   1.499   2.452
  147TCM    cl1  899   1.708   1.520   2.617
  147TCM    cl2  900   1.702   1.630   2.346
  147TCM     h1  901   1.670   1.402   2.412
  147TCM    cl3  902   1.461   1.509   2.461
  148TCM     c1  903   3.759   0.385   3.847
  148TCM    cl1  904   3.754   0.481   3.998
  148TCM    cl2  905   3.637   0.254   3.854
  148TCM     h1  906   3.736   0.450   3.762
  148TCM    cl3  907   3.922   0.315   3.825
  149TCM     c1  908   0.008   4.537   4.506
  149TCM    cl1  909  -0.114   4.633   4.415
  149TCM    cl2  910  -0.039   4.364   4.502
  149TCM     h1  911   0.106   4.550   4.461
  149TCM    cl3  912   0.011   4.594   4.676
  150TCM     c1  913   1.156   2.027   0.520
  150TCM    cl1  914   1.138   2.097   0.684
  150TCM    cl2  915   0.995   2.006   0.445
  150TCM     h1  916   1.216   2.094   0.458
  150TCM    cl3  917   1.239   1.868   0.534
  151TCM     c1  918   2.763   2.863   0.218
  151TCM    cl1  919   2.940   2.855   0.192
  151TCM    cl2  920   2.702   2.699   0.261
  151TCM     h1  921   2.741   2.933   0.299
  151TCM    cl3  922   2.684   2.917   0.067
  152TCM     c1  923   3.737   1.384   3.152
  152TCM    cl1  924   3.838   1.311   3.022
  152TCM    cl2  925   3.704   1.261   3.278
  152TCM     h1  926   3.790   1.469   3.196
  152TCM    cl3  927   3.582   1.440   3.081
  153TCM     c1  928   3.562   0.386   1.675
  153TCM    cl1  929   3.569   0.509   1.806
  153TCM    cl2  930   3.565   0.221   1.746
  153TCM     h1  931   3.470   0.399   1.618
  153TCM    cl3  932   3.704   0.406   1.567
  154TCM     c1  933   3.546   2.411   1.695
  154TCM    cl1  934   3.617   2.425   1.859
  154TCM    cl2  935   3.643   2.295   1.599
  154TCM     h1  936   3.443   2.375   1.702
  154TCM    cl3  937   3.548   2.571   1.613
  155TCM     c1  938   2.842   4.233   2.446
  155TCM    cl1  939   2.832   4.314   2.606
  155TCM    cl2  940   2.945   4.330   2.336
  155TCM     h1  941   2.886   4.133   2.459
  155TCM    cl3  942   2.678   4.217   2.375
  156TCM     c1  943   4.346   0.952   2.532
  156TCM    cl1  944   4.393   1.096   2.628
  156TCM    cl2  945   4.429   0.955   2.373
  156TCM     h1  946   4.374   0.861   2.586
  156TCM    cl3  947   4.168   0.954   2.507
  157TCM     c1  948   1.281   1.941   4.630
  157TCM    cl1  949   1.209   1.912   4.792
  157TCM    cl2  950   1.459   1.952   4.643
  157TCM     h1  951   1.254   1.859   4.563
  157TCM    cl3  952   1.218   2.095   4.563
  158TCM     c1  953   2.345   4.831   4.154
  158TCM    cl1  954   2.354   4.854   4.332
  158TCM    cl2  955   2.251   4.966   4.082
  158TCM     h1  956   2.446   4.829   4.112
  158TCM    cl3  957   2.262   4.676   4.119
  159TCM     c1  958   2.255   0.075   0.009
  159TCM    cl1  959   2.135   0.070   0.142
  159TCM    cl2  960   2.185  -0.003  -0.136
  159TCM     h1  961   2.281   0.179  -0.013
  159TCM    cl3  962   2.402  -0.016   0.057
  160TCM     c1  963   1.981   1.253   2.850
  160TCM    cl1  964   1.976   1.081   2.797
  160TCM    cl2  965   2.146   1.318   2.828
  160TCM     h1  966   1.910   1.312   2.791
  160TCM    cl3  967   1.935   1.263   3.024
  161TCM     c1  968   2.025   2.246   4.985
  161TCM    cl1  969   1.962   2.078   5.001
  161TCM    cl2  970   2.194   2.241   4.925
  161TCM     h1  971   1.963   2.302   4.915
  161TCM    cl3  972   2.020   2.325   5.146
  162TCM     c1  973   2.187   1.942   1.549
  162TCM    cl1  974   2.118   1.867   1.697
  162TCM    cl2  975   2.262   2.100   1.592
  162TCM     h1  976   2.263   1.876   1.507
  162TCM    cl3  977   2.057   1.970   1.429
  163TCM     c1  978   2.625   2.950   0.734
  163TCM    cl1  979   2.581   2.820   0.849
  163TCM    cl2  980   2.478   3.044   0.690
  163TCM     h1  981   2.699   3.016   0.780
  163TCM    cl3  982   2.694   2.877   0.585
  164TCM     c1  983   3.082   1.755   2.186
  164TCM    cl1  984   2.999   1.905   2.237
  164TCM    cl2  985   2.976   1.663   2.074
  164TCM     h1  986   3.176   1.779   2.135
  164TCM    cl3  987   3.115   1.654   2.331
  165TCM     c1  988   4.632   4.651   2.542
  165TCM    cl1  989   4.463   4.672   2.487
  165TCM    cl2  990   4.644   4.692   2.716
  165TCM     h1  991   4.662   4.547   2.527
  165TCM    cl3  992   4.741   4.757   2.447
  166TCM     c1  993   3.106   0.244   4.667
  166TCM    cl1  994   2.991   0.228   4.530
  166TCM    cl2  995   3.147   0.081   4.730
  166TCM     h1  996   3.197   0.295   4.633
  166TCM    cl3  997   3.028   0.341   4.796
  167TCM     c1  998   3.819   4.095   3.786
  167TCM    cl1  999   3.656   4.140   3.726
  167TCM    cl2 1000   3.830   4.133   3.961
  167TCM     h1 1001   3.836   3.988   3.771
  167TCM    cl3 1002   3.942   4.190   3.698
  168TCM     c1 1003   2.050   1.176   2.389
  168TCM    cl1 1004   1.953   1.029   2.349
  168TCM    cl2 1005   2.196   1.127   2.481
  168TCM     h1 1006   2.080   1.227   2.297
  168TCM    cl3 1007   1.951   1.286   2.490
  169TCM     c1 1008   2.683   0.273   4.888
  169TCM    cl1 1009   2.508   0.293   4.859
  169TCM    cl2 1010   2.739   0.122   4.808
  169TCM     h1 1011   2.738   0.358   4.847
  169TCM    cl3 1012   2.714   0.263   5.065
  170TCM     c1 1013   2.489   2.946   1.619
  170TCM    cl1 1014   2.560   2.781   1.620
  170TCM    cl2 1015   2.615   3.064   1.667
  170TCM     h1 1016   2.451   2.970   1.520
  170TCM    cl3 1017   2.354   2.952   1.738
  171TCM     c1 1018   1.101   4.945   1.469
  171TCM    cl1 1019   1.214   5.015   1.589
  171TCM    cl2 1020   1.126   4.768   1.461
  171TCM     h1 1021   0.998   4.967   1.498
  171TCM    cl3 1022   1.135   5.017   1.307
  172TCM     c1 1023   3.884   2.330   4.417
  172TCM    cl1 1024   3.893   2.402   4.253
  172TCM    cl2 1025   3.791   2.439   4.526
  172TCM     h1 1026   3.833   2.233   4.411
  172TCM    cl3 1027   4.049   2.307   4.483
  173TCM     c1 1028   1.827   4.943   4.885
  173TCM    cl1 1029   1.792   4.951   5.061
  173TCM    cl2 1030   1.837   5.110   4.819
  173TCM     h1 1031   1.921   4.892   4.869
  173TCM    cl3 1032   1.695   4.853   4.803
  174TCM     c1 1033   3.308   3.601   0.376
  174TCM    cl1 1034   3.179   3.665   0.481
  174TCM    cl2 1035   3.241   3.562   0.214
  174TCM     h1 1036   3.387   3.676   0.366
  174TCM    cl3 1037   3.376   3.452   0.450
  175TCM     c1 1038   4.903   1.074  -0.003
  175TCM    cl1 1039   4.837   1.103  -0.167
  175TCM    cl2 1040   4.819   1.181   0.114
  175TCM     h1 1041   4.887   0.969   0.025
  175TCM    cl3 1042   5.079   1.111  -0.001
  176TCM     c1 1043   3.983   1.646   1.934
  176TCM    cl1 1044   3.928   1.598   1.770
  176TCM    cl2 1045   3.858   1.750   2.010
  176TCM     h1 1046   3.999   1.557   1.995
  176TCM    cl3 1047   4.136   1.738   1.922
  177TCM     c1 1048   3.839   1.806   4.967
  177TCM    cl1 1049   3.904   1.713   4.828
  177TCM    cl2 1050   3.909   1.971   4.964
  177TCM     h1 1051   3.730   1.812   4.961
  177TCM    cl3 1052   3.887   1.725   5.120
  178TCM     c1 1053   0.296   4.901   4.506
  178TCM    cl1 1054   0.390   4.953   4.362
  178TCM    cl2 1055   0.335   4.730   4.541
  178TCM     h1 1056   0.322   4.964   4.592
  178TCM    cl3 1057   0.120   4.915   4.471
  179TCM     c1 1058   4.008   3.309   4.896
  179TCM    cl1 1059   4.038   3.175   5.012
  179TCM    cl2 1060   4.145   3.319   4.780
  179TCM     h1 1061   3.915   3.290   4.841
  179TCM    cl3 1062   3.994   3.464   4.986
  180TCM     c1 1063   1.200   0.387   3.579
  180TCM    cl1 1064   1.358   0.316   3.627
  180TCM    cl2 1065   1.164   0.345   3.409
  180TCM     h1 1066   1.121   0.346   3.644
  180TCM    cl3 1067   1.207   0.565   3.595
  181TCM     c1 1068   3.526   0.234   1.204
  181TCM    cl1 1069   3.628   0.375   1.159
  181TCM    cl2 1070   3.409   0.202   1.072
  181TCM     h1 1071   3.590   0.147   1.219
  181TCM    cl3 1072   3.437   0.271   1.355
  182TCM     c1 1073   1.123   0.270   4.010
  182TCM    cl1 1074   1.113   0.158   3.871
  182TCM    cl2 1075   1.242   0.400   3.973
  182TCM     h1 1076   1.025   0.315   4.028
  182TCM    cl3 1077   1.175   0.180   4.156
  183TCM     c1 1078   3.333   0.390   3.429
  183TCM    cl1 1079   3.443   0.277   3.516
  183TCM    cl2 1080   3.429   0.512   3.340
  183TCM     h1 1081   3.271   0.333   3.358
  183TCM    cl3 1082   3.227   0.472   3.548
  184TCM     c1 1083   2.172   1.015   4.043
  184TCM    cl1 1084   2.321   1.098   4.099
  184TCM    cl2 1085   2.156   0.858   4.129
  184TCM     h1 1086   2.085   1.078   4.065
  184TCM    cl3 1087   2.183   0.987   3.866
  185TCM     c1 1088   3.255   0.624   0.056
  185TCM    cl1 1089   3.091   0.556   0.079
  185TCM    cl2 1090   3.321   0.572  -0.102
  185TCM     h1 1091   3.249   0.733   0.058
  185TCM    cl3 1092   3.362   0.567   0.188
  186TCM     c1 1093   1.563   2.031   2.539
  186TCM    cl1 1094   1.578   1.877   2.630
  186TCM    cl2 1095   1.676   2.028   2.400
  186TCM     h1 1096   1.460   2.042   2.503
  186TCM    cl3 1097   1.606   2.169   2.645
  187TCM     c1 1098   4.741   3.957   4.581
  187TCM    cl1 1099   4.693   4.091   4.472
  187TCM    cl2 1100   4.889   4.006   4.670
  187TCM     h1 1101   4.661   3.935   4.652
  187TCM    cl3 1102   4.776   3.811   4.482
  188TCM     c1 1103   0.838   1.140   2.871
  188TCM    cl1 1104   0.878   1.178   2.700
  188TCM    cl2 1105   0.735   1.271   2.937
  188TCM     h1 1106   0.784   1.045   2.876
  188TCM    cl3 1107   0.989   1.127   2.966
  189TCM     c1 1108   4.782   0.752   3.500
  189TCM    cl1 1109   4.718   0.655   3.637
  189TCM    cl2 1110   4.907   0.866   3.559
  189TCM     h1 1111   4.826   0.685   3.425
  189TCM    cl3 1112   4.647   0.844   3.425
  190TCM     c1 1113   4.987   4.744   0.452
  190TCM    cl1 1114   5.128   4.655   0.386
  190TCM    cl2 1115   4.986   4.728   0.630
  190TCM     h1 1116   4.993   4.849   0.424
  190TCM    cl3 1117   4.835   4.673   0.387
  191TCM     c1 1118   0.590   3.362   0.106
  191TCM    cl1 1119   0.617   3.189   0.148
  191TCM    cl2 1120   0.615   3.384  -0.070
  191TCM     h1 1121   0.487   3.390   0.132
  191TCM    cl3 1122   0.705   3.464   0.197
  192TCM     c1 1123   1.457   2.373   4.572
  192TCM    cl1 1124   1.562   2.497   4.649
  192TCM    cl2 1125   1.557   2.266   4.469
  192TCM     h1 1126   1.407   2.314   4.649
  192TCM    cl3 1127   1.334   2.456   4.471
  193TCM     c1 1128   1.780   4.315   4.760
  193TCM    cl1 1129   1.833   4.265   4.924
  193TCM    cl2 1130   1.672   4.458   4.772
  193TCM     h1 1131   1.867   4.341   4.699
  193TCM    cl3 1132   1.692   4.179   4.683
  194TCM     c1 1133   0.663   3.103   0.560
  194TCM    cl1 1134   0.773   3.237   0.515
  194TCM    cl2 1135   0.711   3.037   0.720
  194TCM     h1 1136   0.560   3.140   0.565
  194TCM    cl3 1137   0.674   2.972   0.438
  195TCM     c1 1138   4.218   1.717   2.330
  195TCM    cl1 1139   4.076   1.613   2.296
  195TCM    cl2 1140   4.178   1.888   2.294
  195TCM     h1 1141   4.246   1.707   2.435
  195TCM    cl3 1142   4.356   1.665   2.226
  196TCM     c1 1143   2.024   0.511   4.170
  196TCM    cl1 1144   1.919   0.557   4.307
  196TCM    cl2 1145   1.939   0.391   4.066
  196TCM     h1 1146   2.048   0.599   4.111
  196TCM    cl3 1147   2.176   0.438   4.234
  197TCM     c1 1148   0.904   0.470   2.972
  197TCM    cl1 1149   0.839   0.637   2.976
  197TCM    cl2 1150   0.774   0.354   3.014
  197TCM     h1 1151   0.943   0.448   2.872
  197TCM    cl3 1152   1.034   0.454   3.094
  198TCM     c1 1153   2.024   4.719   4.452
  198TCM    cl1 1154   1.948   4.783   4.302
  198TCM    cl2 1155   1.938   4.570   4.505
  198TCM     h1 1156   2.129   4.696   4.432
  198TCM    cl3 1157   2.012   4.843   4.582
  199TCM     c1 1158   4.262   4.501   1.233
  199TCM    cl1 1159   4.378   4.365   1.237
  199TCM    cl2 1160   4.344   4.647   1.167
  199TCM     h1 1161   4.177   4.475   1.169
  199TCM    cl3 1162   4.206   4.534   1.400
  200TCM     c1 1163   0.912   2.406   0.425
  200TCM    cl1 1164   1.090   2.386   0.438
  200TCM    cl2 1165   0.856   2.345   0.266
  200TCM     h1 1166   0.864   2.349   0.505
  200TCM    cl3 1167   0.869   2.579   0.442
  201TCM     c1 1168   1.202   0.932   3.900
  201TCM    cl1 1169   1.285   0.781   3.951
  201TCM    cl2 1170   1.154   0.918   3.727
  201TCM     h1 1171   1.114   0.949   3.962
  201TCM    cl3 1172   1.315   1.071   3.917
  202TCM     c1 1173   1.609   1.899   0.879
  202TCM    cl1 1174   1.629   1.998   1.028
  202TCM    cl2 1175   1.435   1.863   0.852
  202TCM     h1 1176   1.648   1.956   0.794
  202TCM    cl3 1177   1.700   1.745   0.895
  203TCM     c1 1178   1.362   4.586   1.184
  203TCM    cl1 1179   1.194   4.523   1.171
  203TCM    cl2 1180   1.429   4.544   1.345
  203TCM     h1 1181   1.424   4.542   1.106
  203TCM    cl3 1182   1.360   4.764   1.165
  204TCM     c1 1183   0.158   2.550   2.407
  204TCM    cl1 1184   0.192   2.604   2.239
  204TCM    cl2 1185  -0.012   2.588   2.447
  204TCM     h1 1186   0.175   2.442   2.415
  204TCM    cl3 1187   0.268   2.636   2.520
  205TCM     c1 1188   1.104   2.296   4.996
  205TCM    cl1 1189   1.236   2.332   4.880
  205TCM    cl2 1190   1.171   2.206   5.136
  205TCM     h1 1191   1.060   2.390   5.032
  205TCM    cl3 1192   0.978   2.197   4.915
  206TCM     c1 1193   3.536   4.389   3.175
  206TCM    cl1 1194   3.377   4.379   3.092
  206TCM    cl2 1195   3.552   4.546   3.259
  206TCM     h1 1196   3.544   4.307   3.247
  206TCM    cl3 1197   3.667   4.375   3.053
  207TCM     c1 1198   2.273   0.791   2.304
  207TCM    cl1 1199   2.266   0.908   2.167
  207TCM    cl2 1200   2.438   0.789   2.373
  207TCM     h1 1201   2.201   0.821   2.381
  207TCM    cl3 1202   2.231   0.628   2.243
  208TCM     c1 1203   0.631   4.665   4.337
  208TCM    cl1 1204   0.807   4.683   4.308
  208TCM    cl2 1205   0.601   4.513   4.428
  208TCM     h1 1206   0.595   4.750   4.396
  208TCM    cl3 1207   0.544   4.658   4.180
  209TCM     c1 1208   2.126   4.859   3.737
  209TCM    cl1 1209   2.295   4.801   3.750
  209TCM    cl2 1210   2.014   4.727   3.783
  209TCM     h1 1211   2.111   4.945   3.803
  209TCM    cl3 1212   2.094   4.909   3.567
  210TCM     c1 1213   1.019   0.371   1.508
  210TCM    cl1 1214   1.150   0.377   1.385
  210TCM    cl2 1215   1.094   0.336   1.668
  210TCM     h1 1216   0.967   0.467   1.512
  210TCM    cl3 1217   0.903   0.242   1.465
  211TCM     c1 1218   2.586   3.360   1.007
  211TCM    cl1 1219   2.447   3.355   0.893
  211TCM    cl2 1220   2.698   3.490   0.957
  211TCM     h1 1221   2.550   3.379   1.108
  211TCM    cl3 1222   2.673   3.203   1.002
  212TCM     c1 1223   0.852   3.636   0.655
  212TCM    cl1 1224   0.988   3.527   0.612
  212TCM    cl2 1225   0.798   3.603   0.823
  212TCM     h1 1226   0.884   3.740   0.646
  212TCM    cl3 1227   0.714   3.607   0.543
  213TCM     c1 1228   3.641   2.088   2.042
  213TCM    cl1 1229   3.683   2.048   1.873
  213TCM    cl2 1230   3.790   2.137   2.130
  213TCM     h1 1231   3.569   2.171   2.043
  213TCM    cl3 1232   3.568   1.945   2.121
  214TCM     c1 1233   2.722   2.449   1.025
  214TCM    cl1 1234   2.574   2.451   0.922
  214TCM    cl2 1235   2.708   2.318   1.146
  214TCM     h1 1236   2.809   2.432   0.962
  214TCM    cl3 1237   2.738   2.607   1.108
  215TCM     c1 1238   2.750   3.728   3.930
  215TCM    cl1 1239   2.611   3.691   4.036
  215TCM    cl2 1240   2.691   3.807   3.781
  215TCM     h1 1241   2.820   3.795   3.982
  215TCM    cl3 1242   2.833   3.575   3.888
  216TCM     c1 1243   1.201   2.761   3.947
  216TCM    cl1 1244   1.220   2.667   3.795
  216TCM    cl2 1245   1.033   2.823   3.958
  216TCM     h1 1246   1.223   2.697   4.032
  216TCM    cl3 1247   1.316   2.900   3.945
  217TCM     c1 1248   1.710   2.777   3.308
  217TCM    cl1 1249   1.725   2.882   3.164
  217TCM    cl2 1250   1.811   2.843   3.441
  217TCM     h1 1251   1.605   2.773   3.340
  217TCM    cl3 1252   1.765   2.611   3.268
  218TCM     c1 1253   3.719   4.492   3.653
  218TCM    cl1 1254   3.745   4.511   3.829
  218TCM    cl2 1255   3.788   4.634   3.566
  218TCM     h1 1256   3.768   4.401   3.619
  218TCM    cl3 1257   3.544   4.482   3.619
  219TCM     c1 1258   0.271   3.255   0.421
  219TCM    cl1 1259   0.170   3.301   0.562
  219TCM    cl2 1260   0.311   3.080   0.433
  219TCM     h1 1261   0.215   3.273   0.329
  219TCM    cl3 1262   0.422   3.351   0.421
  220TCM     c1 1263   1.615   2.186   4.991
  220TCM    cl1 1264   1.675   2.210   4.823
  220TCM    cl2 1265   1.475   2.075   4.987
  220TCM     h1 1266   1.695   2.142   5.052
  220TCM    cl3 1267   1.566   2.344   5.058
  221TCM     c1 1268   0.547   1.878   2.836
  221TCM    cl1 1269   0.418   1.907   2.958
  221TCM    cl2 1270   0.693   1.972   2.879
  221TCM     h1 1271   0.571   1.771   2.834
  221TCM    cl3 1272   0.487   1.930   2.675
  222TCM     c1 1273   3.610   0.174   4.759
  222TCM    cl1 1274   3.482   0.291   4.716
  222TCM    cl2 1275   3.682   0.105   4.609
  222TCM     h1 1276   3.688   0.224   4.817
  222TCM    cl3 1277   3.539   0.040   4.856
  223TCM     c1 1278   1.731   2.489   2.116
  223TCM    cl1 1279   1.711   2.645   2.202
  223TCM    cl2 1280   1.638   2.494   1.963
  223TCM     h1 1281   1.836   2.472   2.095
  223TCM    cl3 1282   1.668   2.357   2.220
  224TCM     c1 1283   4.177   0.620   4.072
  224TCM    cl1 1284   4.149   0.770   4.166
  224TCM    cl2 1285   4.098   0.635   3.911
  224TCM     h1 1286   4.284   0.605   4.058
  224TCM    cl3 1287   4.108   0.480   4.160
  225TCM     c1 1288   0.214   3.746   1.432
  225TCM    cl1 1289   0.358   3.719   1.329
  225TCM    cl2 1290   0.071   3.670   1.355
  225TCM     h1 1291   0.230   3.702   1.531
  225TCM    cl3 1292   0.186   3.923   1.450
  226TCM     c1 1293   0.456   1.510   0.607
  226TCM    cl1 1294   0.521   1.675   0.632
  226TCM    cl2 1295   0.399   1.494   0.438
  226TCM     h1 1296   0.534   1.436   0.627
  226TCM    cl3 1297   0.318   1.483   0.719
  227TCM     c1 1298   3.556   2.299   2.801
  227TCM    cl1 1299   3.687   2.399   2.731
  227TCM    cl2 1300   3.399   2.351   2.732
  227TCM     h1 1301   3.573   2.193   2.779
  227TCM    cl3 1302   3.554   2.323   2.979
  228TCM     c1 1303   0.489   4.859   2.948
  228TCM    cl1 1304   0.542   4.999   3.047
  228TCM    cl2 1305   0.572   4.865   2.789
  228TCM     h1 1306   0.514   4.766   2.999
  228TCM    cl3 1307   0.312   4.867   2.920
  229TCM     c1 1308   0.242   4.880   2.402
  229TCM    cl1 1309   0.396   4.795   2.372
  229TCM    cl2 1310   0.230   4.921   2.576
  229TCM     h1 1311   0.238   4.972   2.342
  229TCM    cl3 1312   0.105   4.772   2.357
  230TCM     c1 1313   0.527   2.278   2.290
  230TCM    cl1 1314   0.591   2.310   2.454
  230TCM    cl2 1315   0.519   2.431   2.197
  230TCM     h1 1316   0.592   2.206   2.239
  230TCM    cl3 1317   0.362   2.209   2.305
  231TCM     c1 1318   0.539   4.032   2.714
  231TCM    cl1 1319   0.568   3.978   2.883
  231TCM    cl2 1320   0.387   3.959   2.653
  231TCM     h1 1321   0.531   4.140   2.711
  231TCM    cl3 1322   0.676   3.979   2.610
  232TCM     c1 1323   2.269   0.576   3.704
  232TCM    cl1 1324   2.186   0.601   3.861
  232TCM    cl2 1325   2.291   0.736   3.625
  232TCM     h1 1326   2.366   0.529   3.721
  232TCM    cl3 1327   2.167   0.472   3.601
  233TCM     c1 1328   1.763   1.868   2.081
  233TCM    cl1 1329   1.920   1.816   2.012
  233TCM    cl2 1330   1.632   1.766   2.014
  233TCM     h1 1331   1.766   1.858   2.189
  233TCM    cl3 1332   1.733   2.040   2.039
  234TCM     c1 1333   1.145   3.277   2.148
  234TCM    cl1 1334   1.151   3.108   2.210
  234TCM    cl2 1335   1.261   3.295   2.013
  234TCM     h1 1336   1.044   3.299   2.113
  234TCM    cl3 1337   1.188   3.390   2.281
  235TCM     c1 1338   4.807   3.571   3.083
  235TCM    cl1 1339   4.692   3.434   3.096
  235TCM    cl2 1340   4.783   3.653   2.926
  235TCM     h1 1341   4.790   3.641   3.165
  235TCM    cl3 1342   4.974   3.507   3.091
  236TCM     c1 1343   4.357   0.931   4.437
  236TCM    cl1 1344   4.245   1.052   4.508
  236TCM    cl2 1345   4.467   0.868   4.564
  236TCM     h1 1346   4.299   0.848   4.395
  236TCM    cl3 1347   4.453   1.009   4.308
  237TCM     c1 1348   0.350   2.835   4.495
  237TCM    cl1 1349   0.372   2.687   4.594
  237TCM    cl2 1350   0.504   2.928   4.492
  237TCM     h1 1351   0.321   2.808   4.393
  237TCM    cl3 1352   0.221   2.936   4.569
  238TCM     c1 1353   1.146   1.773   0.133
  238TCM    cl1 1354   1.289   1.865   0.188
  238TCM    cl2 1355   1.006   1.883   0.115
  238TCM     h1 1356   1.168   1.725   0.037
  238TCM    cl3 1357   1.108   1.647   0.255
  239TCM     c1 1358   1.806   2.128   1.660
  239TCM    cl1 1359   1.938   2.181   1.769
  239TCM    cl2 1360   1.658   2.224   1.698
  239TCM     h1 1361   1.835   2.145   1.556
  239TCM    cl3 1362   1.771   1.954   1.686
  240TCM     c1 1363   2.590   4.440   3.495
  240TCM    cl1 1364   2.558   4.598   3.573
  240TCM    cl2 1365   2.492   4.314   3.577
  240TCM     h1 1366   2.565   4.444   3.389
  240TCM    cl3 1367   2.764   4.400   3.515
  241TCM     c1 1368   3.185   0.550   1.479
  241TCM    cl1 1369   3.152   0.416   1.593
  241TCM    cl2 1370   3.349   0.613   1.509
  241TCM     h1 1371   3.178   0.513   1.376
  241TCM    cl3 1372   3.065   0.681   1.503
  242TCM     c1 1373   2.356   4.682   4.805
  242TCM    cl1 1374   2.488   4.792   4.754
  242TCM    cl2 1375   2.421   4.556   4.915
  242TCM     h1 1376   2.278   4.738   4.856
  242TCM    cl3 1377   2.286   4.602   4.661
  243TCM     c1 1378   2.641   1.895   3.103
  243TCM    cl1 1379   2.660   1.722   3.144
  243TCM    cl2 1380   2.550   1.910   2.949
  243TCM     h1 1381   2.586   1.946   3.183
  243TCM    cl3 1382   2.803   1.970   3.084
  244TCM     c1 1383   0.709   1.656   4.909
  244TCM    cl1 1384   0.772   1.804   4.829
  244TCM    cl2 1385   0.565   1.698   5.008
  244TCM     h1 1386   0.680   1.583   4.833
  244TCM    cl3 1387   0.835   1.586   5.014
  245TCM     c1 1388   2.957   1.125   2.869
  245TCM    cl1 1389   3.120   1.167   2.933
  245TCM    cl2 1390   2.864   1.276   2.843
  245TCM     h1 1391   2.968   1.072   2.775
  245TCM    cl3 1392   2.871   1.023   2.988
  246TCM     c1 1393   3.733   0.765   1.493
  246TCM    cl1 1394   3.608   0.850   1.589
  246TCM    cl2 1395   3.867   0.879   1.459
  246TCM     h1 1396   3.771   0.680   1.551
  246TCM    cl3 1397   3.662   0.707   1.339
  247TCM     c1 1398   0.482   0.399   0.455
  247TCM    cl1 1399   0.380   0.334   0.587
  247TCM    cl2 1400   0.577   0.538   0.516
  247TCM     h1 1401   0.550   0.321   0.419
  247TCM    cl3 1402   0.377   0.455   0.320
  248TCM     c1 1403   0.576   3.830   3.707
  248TCM    cl1 1404   0.638   3.724   3.576
  248TCM    cl2 1405   0.483   3.729   3.823
  248TCM     h1 1406   0.660   3.878   3.758
  248TCM    cl3 1407   0.468   3.954   3.637
  249TCM     c1 1408   0.018   4.010   4.255
  249TCM    cl1 1409   0.135   4.067   4.378
  249TCM    cl2 1410   0.034   3.833   4.231
  249TCM     h1 1411  -0.084   4.033   4.288
  249TCM    cl3 1412   0.053   4.094   4.100
  250TCM     c1 1413   3.482   1.794   0.908
  250TCM    cl1 1414   3.543   1.631   0.864
  250TCM    cl2 1415   3.307   1.784   0.944
  250TCM     h1 1416   3.536   1.831   0.995
  250TCM    cl3 1417   3.507   1.906   0.769
  251TCM     c1 1418   3.252   4.275   3.697
  251TCM    cl1 1419   3.331   4.198   3.555
  251TCM    cl2 1420   3.286   4.177   3.844
  251TCM     h1 1421   3.291   4.376   3.711
  251TCM    cl3 1422   3.075   4.282   3.671
  252TCM     c1 1423   1.786   4.847   3.100
  252TCM    cl1 1424   1.627   4.850   3.184
  252TCM    cl2 1425   1.831   4.677   3.065
  252TCM     h1 1426   1.779   4.903   3.007
  252TCM    cl3 1427   1.911   4.920   3.206
  253TCM     c1 1428   2.577   0.321   2.517
  253TCM    cl1 1429   2.651   0.349   2.678
  253TCM    cl2 1430   2.425   0.415   2.502
  253TCM     h1 1431   2.647   0.352   2.439
  253TCM    cl3 1432   2.542   0.145   2.499
  254TCM     c1 1433   3.278   2.075   3.881
  254TCM    cl1 1434   3.299   2.250   3.849
  254TCM    cl2 1435   3.410   1.984   3.800
  254TCM     h1 1436   3.281   2.056   3.988
  254TCM    cl3 1437   3.119   2.022   3.816
  255TCM     c1 1438   2.932   2.421   0.349
  255TCM    cl1 1439   3.020   2.565   0.411
  255TCM    cl2 1440   2.810   2.369   0.469
  255TCM     h1 1441   2.882   2.446   0.255
  255TCM    cl3 1442   3.049   2.287   0.321
  256TCM     c1 1443   1.421   0.293   4.827
  256TCM    cl1 1444   1.376   0.420   4.946
  256TCM    cl2 1445   1.489   0.152   4.915
  256TCM     h1 1446   1.333   0.263   4.771
  256TCM    cl3 1447   1.544   0.357   4.714
  257TCM     c1 1448   0.807   1.401   1.572
  257TCM    cl1 1449   0.783   1.430   1.748
  257TCM    cl2 1450   0.814   1.224   1.541
  257TCM     h1 1451   0.724   1.445   1.516
  257TCM    cl3 1452   0.961   1.478   1.521
  258TCM     c1 1453   4.933   2.975   0.227
  258TCM    cl1 1454   4.817   2.975   0.090
  258TCM    cl2 1455   4.969   3.144   0.272
  258TCM     h1 1456   4.889   2.922   0.312
  258TCM    cl3 1457   5.085   2.893   0.178
  259TCM     c1 1458   0.668   1.554   3.798
  259TCM    cl1 1459   0.636   1.378   3.783
  259TCM    cl2 1460   0.682   1.597   3.972
  259TCM     h1 1461   0.761   1.580   3.746
  259TCM    cl3 1462   0.531   1.646   3.726
  260TCM     c1 1463   0.797   0.787   0.395
  260TCM    cl1 1464   0.922   0.659   0.378
  260TCM    cl2 1465   0.697   0.793   0.247
  260TCM     h1 1466   0.734   0.765   0.481
  260TCM    cl3 1467   0.877   0.947   0.420
  261TCM     c1 1468   3.502   4.682   4.829
  261TCM    cl1 1469   3.623   4.573   4.754
  261TCM    cl2 1470   3.406   4.591   4.950
  261TCM     h1 1471   3.552   4.765   4.879
  261TCM    cl3 1472   3.391   4.745   4.703
  262TCM     c1 1473   3.139   3.911   3.315
  262TCM    cl1 1474   3.154   3.870   3.490
  262TCM    cl2 1475   3.116   3.760   3.221
  262TCM     h1 1476   3.053   3.977   3.301
  262TCM    cl3 1477   3.289   3.992   3.259
  263TCM     c1 1478   2.808   4.251   3.023
  263TCM    cl1 1479   2.669   4.199   2.923
  263TCM    cl2 1480   2.887   4.105   3.092
  263TCM     h1 1481   2.880   4.306   2.962
  263TCM    cl3 1482   2.749   4.356   3.156
  264TCM     c1 1483   3.444   1.255   2.790
  264TCM    cl1 1484   3.589   1.342   2.731
  264TCM    cl2 1485   3.494   1.125   2.903
  264TCM     h1 1486   3.378   1.325   2.842
  264TCM    cl3 1487   3.357   1.182   2.651
  265TCM     c1 1488   4.494   2.164   4.842
  265TCM    cl1 1489   4.551   2.334   4.845
  265TCM    cl2 1490   4.526   2.088   5.001
  265TCM     h1 1491   4.387   2.161   4.820
  265TCM    cl3 1492   4.584   2.074   4.715
  266TCM     c1 1493   3.067   2.216   0.686
  266TCM    cl1 1494   2.949   2.231   0.821
  266TCM    cl2 1495   3.167   2.069   0.710
  266TCM     h1 1496   3.014   2.209   0.591
  266TCM    cl3 1497   3.173   2.361   0.685
  267TCM     c1 1498   4.674   4.647   1.330
  267TCM    cl1 1499   4.817   4.747   1.372
  267TCM    cl2 1500   4.590   4.596   1.480
  267TCM     h1 1501   4.606   4.705   1.268
  267TCM    cl3 1502   4.727   4.501   1.240
  268TCM     c1 1503   4.757   0.533   3.010
  268TCM    cl1 1504   4.931   0.538   2.971
  268TCM    cl2 1505   4.734   0.578   3.181
  268TCM     h1 1506   4.702   0.603   2.945
  268TCM    cl3 1507   4.695   0.366   2.983
  269TCM     c1 1508   3.544   1.886   0.370
  269TCM    cl1 1509   3.374   1.939   0.385
  269TCM    cl2 1510   3.623   1.972   0.234
  269TCM     h1 1511   3.598   1.908   0.463
  269TCM    cl3 1512   3.549   1.709   0.339
  270TCM     c1 1513   1.315   4.523   4.781
  270TCM    cl1 1514   1.330   4.397   4.654
  270TCM    cl2 1515   1.142   4.536   4.830
  270TCM     h1 1516   1.376   4.496   4.867
  270TCM    cl3 1517   1.368   4.681   4.716
  271TCM     c1 1518   0.021   0.242   4.389
  271TCM    cl1 1519  -0.098   0.245   4.523
  271TCM    cl2 1520   0.185   0.269   4.456
  271TCM     h1 1521   0.017   0.146   4.337
  271TCM    cl3 1522  -0.017   0.374   4.273
  272TCM     c1 1523   4.452   4.509   0.088
  272TCM    cl1 1524   4.551   4.507   0.238
  272TCM    cl2 1525   4.335   4.645   0.094
  272TCM     h1 1526   4.517   4.521   0.001
  272TCM    cl3 1527   4.362   4.354   0.076
  273TCM     c1 1528   0.712   2.483   3.704
  273TCM    cl1 1529   0.629   2.372   3.818
  273TCM    cl2 1530   0.763   2.631   3.792
  273TCM     h1 1531   0.800   2.433   3.662
  273TCM    cl3 1532   0.600   2.529   3.572
  274TCM     c1 1533   3.749   1.187   1.667
  274TCM    cl1 1534   3.744   1.311   1.538
  274TCM    cl2 1535   3.590   1.181   1.750
  274TCM     h1 1536   3.770   1.089   1.623
  274TCM    cl3 1537   3.877   1.230   1.785
  275TCM     c1 1538   1.345   4.718   0.194
  275TCM    cl1 1539   1.447   4.726   0.342
  275TCM    cl2 1540   1.306   4.547   0.156
  275TCM     h1 1541   1.252   4.773   0.211
  275TCM    cl3 1542   1.435   4.790   0.057
  276TCM     c1 1543   3.316   1.119   3.862
  276TCM    cl1 1544   3.254   1.286   3.845
  276TCM    cl2 1545   3.207   1.027   3.972
  276TCM     h1 1546   3.318   1.070   3.764
  276TCM    cl3 1547   3.482   1.123   3.930
  277TCM     c1 1548   4.420   3.366   3.313
  277TCM    cl1 1549   4.399   3.543   3.301
  277TCM    cl2 1550   4.259   3.286   3.320
  277TCM     h1 1551   4.475   3.329   3.226
  277TCM    cl3 1552   4.512   3.327   3.462
  278TCM     c1 1553   1.390   0.773   0.387
  278TCM    cl1 1554   1.539   0.792   0.486
  278TCM    cl2 1555   1.247   0.776   0.495
  278TCM     h1 1556   1.384   0.855   0.315
  278TCM    cl3 1557   1.394   0.616   0.301
  279TCM     c1 1558   1.122   2.016   1.056
  279TCM    cl1 1559   1.245   1.945   1.165
  279TCM    cl2 1560   1.157   2.191   1.036
  279TCM     h1 1561   1.125   1.967   0.958
  279TCM    cl3 1562   0.960   1.995   1.130
  280TCM     c1 1563   3.418   2.841   2.073
  280TCM    cl1 1564   3.495   3.001   2.044
  280TCM    cl2 1565   3.508   2.753   2.202
  280TCM     h1 1566   3.315   2.856   2.105
  280TCM    cl3 1567   3.421   2.745   1.922
  281TCM     c1 1568   3.089   3.282   2.644
  281TCM    cl1 1569   3.136   3.352   2.485
  281TCM    cl2 1570   3.225   3.300   2.759
  281TCM     h1 1571   3.001   3.335   2.682
  281TCM    cl3 1572   3.051   3.108   2.623
  282TCM     c1 1573   1.209   1.371   0.019
  282TCM    cl1 1574   1.064   1.323   0.114
  282TCM    cl2 1575   1.161   1.488  -0.108
  282TCM     h1 1576   1.283   1.416   0.085
  282TCM    cl3 1577   1.278   1.225  -0.059
  283TCM     c1 1578   3.247   0.186   0.655
  283TCM    cl1 1579   3.310   0.044   0.564
  283TCM    cl2 1580   3.385   0.287   0.710
  283TCM     h1 1581   3.181   0.245   0.590
  283TCM    cl3 1582   3.155   0.128   0.798
  284TCM     c1 1583   2.073   3.547   0.791
  284TCM    cl1 1584   2.150   3.696   0.854
  284TCM    cl2 1585   2.044   3.434   0.928
  284TCM     h1 1586   1.978   3.572   0.743
  284TCM    cl3 1587   2.183   3.470   0.673
  285TCM     c1 1588   2.928   3.649   1.776
  285TCM    cl1 1589   3.040   3.664   1.637
  285TCM    cl2 1590   2.791   3.763   1.755
  285TCM     h1 1591   2.890   3.546   1.782
  285TCM    cl3 1592   3.016   3.689   1.927
  286TCM     c1 1593   4.628   0.356   3.938
  286TCM    cl1 1594   4.461   0.405   3.983
  286TCM    cl2 1595   4.740   0.493   3.969
  286TCM     h1 1596   4.659   0.269   3.997
  286TCM    cl3 1597   4.632   0.315   3.764
  287TCM     c1 1598   4.717   3.112   4.614
  287TCM    cl1 1599   4.551   3.179   4.597
  287TCM    cl2 1600   4.717   2.985   4.740
  287TCM     h1 1601   4.749   3.068   4.518
  287TCM    cl3 1602   4.830   3.243   4.661
  288TCM     c1 1603   1.345   4.699   1.848
  288TCM    cl1 1604   1.447   4.844   1.877
  288TCM    cl2 1605   1.394   4.621   1.694
  288TCM     h1 1606   1.359   4.628   1.930
  288TCM    cl3 1607   1.173   4.748   1.839
  289TCM     c1 1608   0.071   0.282   0.236
  289TCM    cl1 1609  -0.071   0.260   0.128
  289TCM    cl2 1610   0.173   0.135   0.231
  289TCM     h1 1611   0.129   0.368   0.203
  289TCM    cl3 1612   0.016   0.310   0.405
  290TCM     c1 1613   4.398   0.511   3.565
  290TCM    cl1 1614   4.397   0.503   3.386
  290TCM    cl2 1615   4.284   0.391   3.632
  290TCM     h1 1616   4.499   0.490   3.602
  290TCM    cl3 1617   4.349   0.676   3.617
  291TCM     c1 1618   3.465   0.079   4.288
  291TCM    cl1 1619   3.430   0.208   4.168
  291TCM    cl2 1620   3.429  -0.082   4.216
  291TCM     h1 1621   3.571   0.084   4.316
  291TCM    cl3 1622   3.364   0.103   4.433
  292TCM     c1 1623   1.340   1.942   1.574
  292TCM    cl1 1624   1.406   1.919   1.739
  292TCM    cl2 1625   1.288   1.783   1.509
  292TCM     h1 1626   1.254   2.010   1.577
  292TCM    cl3 1627   1.468   2.010   1.467
  293TCM     c1 1628   3.289   1.624   2.688
  293TCM    cl1 1629   3.386   1.629   2.838
  293TCM    cl2 1630   3.170   1.490   2.696
  293TCM     h1 1631   3.237   1.719   2.675
  293TCM    cl3 1632   3.399   1.597   2.549
  294TCM     c1 1633   3.632   0.200   0.258
  294TCM    cl1 1634   3.648   0.290   0.103
  294TCM    cl2 1635   3.544   0.046   0.230
  294TCM     h1 1636   3.731   0.179   0.299
  294TCM    cl3 1637   3.540   0.300   0.375
  295TCM     c1 1638   0.513   1.163   1.802
  295TCM    cl1 1639   0.500   1.230   1.968
  295TCM    cl2 1640   0.447   1.282   1.685
  295TCM     h1 1641   0.617   1.142   1.779
  295TCM    cl3 1642   0.417   1.011   1.794
  296TCM     c1 1643   2.957   3.829   1.259
  296TCM    cl1 1644   2.910   3.705   1.139
  296TCM    cl2 1645   2.835   3.833   1.391
  296TCM     h1 1646   3.055   3.804   1.301
  296TCM    cl3 1647   2.964   3.990   1.179
  297TCM     c1 1648   2.368   2.195   4.121
  297TCM    cl1 1649   2.370   2.371   4.160
  297TCM    cl2 1650   2.487   2.163   3.991
  297TCM     h1 1651   2.395   2.138   4.211
  297TCM    cl3 1652   2.204   2.148   4.065
  298TCM     c1 1653   0.465   2.226   0.640
  298TCM    cl1 1654   0.607   2.298   0.558
  298TCM    cl2 1655   0.419   2.325   0.782
  298TCM     h1 1656   0.381   2.222   0.569
  298TCM    cl3 1657   0.505   2.059   0.693
  299TCM     c1 1658   2.669   0.252   1.560
  299TCM    cl1 1659   2.603   0.324   1.711
  299TCM    cl2 1660   2.567   0.113   1.511
  299TCM     h1 1661   2.668   0.327   1.480
  299TCM    cl3 1662   2.837   0.196   1.588
  300TCM     c1 1663   2.538   3.790   4.906
  300TCM    cl1 1664   2.419   3.803   4.772
  300TCM    cl2 1665   2.592   3.620   4.923
  300TCM     h1 1666   2.624   3.854   4.884
  300TCM    cl3 1667   2.461   3.844   5.059
  301TCM     c1 1668   0.327   3.403   4.609
  301TCM    cl1 1669   0.415   3.251   4.646
  301TCM    cl2 1670   0.326   3.507   4.755
  301TCM     h1 1671   0.377   3.455   4.527
  301TCM    cl3 1672   0.158   3.364   4.564
  302TCM     c1 1673   3.559   1.705   1.711
  302TCM    cl1 1674   3.497   1.561   1.623
  302TCM    cl2 1675   3.433   1.764   1.823
  302TCM     h1 1676   3.649   1.678   1.767
  302TCM    cl3 1677   3.599   1.833   1.592
  303TCM     c1 1678   2.346   2.634   2.476
  303TCM    cl1 1679   2.435   2.734   2.356
  303TCM    cl2 1680   2.357   2.713   2.637
  303TCM     h1 1681   2.241   2.625   2.447
  303TCM    cl3 1682   2.420   2.471   2.485
  304TCM     c1 1683   4.616   2.558   0.554
  304TCM    cl1 1684   4.592   2.412   0.655
  304TCM    cl2 1685   4.719   2.675   0.642
  304TCM     h1 1686   4.665   2.529   0.460
  304TCM    cl3 1687   4.457   2.633   0.518
  305TCM     c1 1688   4.803   4.130   1.319
  305TCM    cl1 1689   4.820   3.954   1.351
  305TCM    cl2 1690   4.726   4.154   1.160
  305TCM     h1 1691   4.742   4.175   1.397
  305TCM    cl3 1692   4.966   4.206   1.319
  306TCM     c1 1693   3.066   1.631   3.636
  306TCM    cl1 1694   3.045   1.614   3.813
  306TCM    cl2 1695   3.103   1.471   3.565
  306TCM     h1 1696   2.974   1.671   3.592
  306TCM    cl3 1697   3.201   1.744   3.602
  307TCM     c1 1698   1.006   3.805   2.299
  307TCM    cl1 1699   1.037   3.933   2.177
  307TCM    cl2 1700   1.161   3.761   2.380
  307TCM     h1 1701   0.936   3.842   2.374
  307TCM    cl3 1702   0.937   3.660   2.219
  308TCM     c1 1703   2.800   4.056   1.987
  308TCM    cl1 1704   2.623   4.041   1.964
  308TCM    cl2 1705   2.846   3.979   2.143
  308TCM     h1 1706   2.852   4.006   1.905
  308TCM    cl3 1707   2.846   4.229   1.992
  309TCM     c1 1708   1.368   2.786   2.108
  309TCM    cl1 1709   1.429   2.916   2.000
  309TCM    cl2 1710   1.192   2.765   2.082
  309TCM     h1 1711   1.420   2.693   2.085
  309TCM    cl3 1712   1.399   2.831   2.279
  310TCM     c1 1713   4.603   0.047   0.320
  310TCM    cl1 1714   4.571   0.210   0.252
  310TCM    cl2 1715   4.767   0.043   0.393
  310TCM     h1 1716   4.528   0.023   0.396
  310TCM    cl3 1717   4.594  -0.074   0.187
  311TCM     c1 1718   4.264   0.031   2.293
  311TCM    cl1 1719   4.201  -0.054   2.438
  311TCM    cl2 1720   4.413  -0.051   2.235
  311TCM     h1 1721   4.189   0.030   2.214
  311TCM    cl3 1722   4.303   0.201   2.336
  312TCM     c1 1723   1.416   0.100   2.809
  312TCM    cl1 1724   1.529  -0.032   2.854
  312TCM    cl2 1725   1.504   0.256   2.809
  312TCM     h1 1726   1.376   0.081   2.709
  312TCM    cl3 1727   1.282   0.106   2.928
  313TCM     c1 1728   3.475   4.846   3.535
  313TCM    cl1 1729   3.573   4.924   3.406
  313TCM    cl2 1730   3.303   4.891   3.514
  313TCM     h1 1731   3.486   4.738   3.529
  313TCM    cl3 1732   3.534   4.904   3.694
  314TCM     c1 1733   3.653   2.142   4.678
  314TCM    cl1 1734   3.797   2.049   4.627
  314TCM    cl2 1735   3.569   2.054   4.810
  314TCM     h1 1736   3.682   2.241   4.712
  314TCM    cl3 1737   3.542   2.156   4.538
  315TCM     c1 1738   4.892   4.160   2.765
  315TCM    cl1 1739   5.051   4.146   2.682
  315TCM    cl2 1740   4.905   4.280   2.898
  315TCM     h1 1741   4.817   4.194   2.693
  315TCM    cl3 1742   4.844   4.002   2.832
  316TCM     c1 1743   4.957   2.871   2.138
  316TCM    cl1 1744   4.908   3.043   2.151
  316TCM    cl2 1745   5.037   2.844   1.980
  316TCM     h1 1746   5.026   2.847   2.219
  316TCM    cl3 1747   4.811   2.767   2.150
  317TCM     c1 1748   1.375   2.363   0.679
  317TCM    cl1 1749   1.257   2.450   0.782
  317TCM    cl2 1750   1.472   2.251   0.780
  317TCM     h1 1751   1.321   2.305   0.603
  317TCM    cl3 1752   1.482   2.481   0.597
  318TCM     c1 1753   1.058   1.826   3.878
  318TCM    cl1 1754   1.017   1.745   4.033
  318TCM    cl2 1755   1.123   1.990   3.911
  318TCM     h1 1756   1.133   1.767   3.825
  318TCM    cl3 1757   0.910   1.838   3.777
  319TCM     c1 1758   4.029   3.674   1.202
  319TCM    cl1 1759   4.199   3.652   1.252
  319TCM    cl2 1760   3.995   3.849   1.187
  319TCM     h1 1761   4.012   3.625   1.106
  319TCM    cl3 1762   3.921   3.602   1.326
  320TCM     c1 1763   0.156   0.012   1.880
  320TCM    cl1 1764  -0.006   0.088   1.880
  320TCM    cl2 1765   0.198  -0.038   2.047
  320TCM     h1 1766   0.156  -0.075   1.814
  320TCM    cl3 1767   0.277   0.131   1.821
  321TCM     c1 1768   1.354   2.414   1.689
  321TCM    cl1 1769   1.408   2.474   1.529
  321TCM    cl2 1770   1.245   2.273   1.664
  321TCM     h1 1771   1.441   2.383   1.747
  321TCM    cl3 1772   1.266   2.544   1.776
  322TCM     c1 1773   0.812   2.041   4.215
  322TCM    cl1 1774   0.984   2.024   4.262
  322TCM    cl2 1775   0.802   2.099   4.045
  322TCM     h1 1776   0.761   1.945   4.224
  322TCM    cl3 1777   0.733   2.161   4.323
  323TCM     c1 1778   1.098   0.924   0.060
  323TCM    cl1 1779   1.167   0.992   0.211
  323TCM    cl2 1780   0.930   0.984   0.039
  323TCM     h1 1781   1.159   0.956  -0.025
  323TCM    cl3 1782   1.098   0.745   0.069
  324TCM     c1 1783   3.391   2.817   0.825
  324TCM    cl1 1784   3.310   2.864   0.978
  324TCM    cl2 1785   3.302   2.890   0.686
  324TCM     h1 1786   3.494   2.853   0.826
  324TCM    cl3 1787   3.390   2.638   0.808
  325TCM     c1 1788   3.322   4.685   2.756
  325TCM    cl1 1789   3.298   4.862   2.773
  325TCM    cl2 1790   3.183   4.598   2.829
  325TCM     h1 1791   3.329   4.660   2.650
  325TCM    cl3 1792   3.473   4.637   2.840
  326TCM     c1 1793   4.471   3.257   4.948
  326TCM    cl1 1794   4.376   3.353   5.066
  326TCM    cl2 1795   4.424   3.084   4.959
  326TCM     h1 1796   4.452   3.294   4.847
  326TCM    cl3 1797   4.646   3.273   4.987
  327TCM     c1 1798   4.527   2.559   2.580
  327TCM    cl1 1799   4.546   2.713   2.669
  327TCM    cl2 1800   4.602   2.426   2.674
  327TCM     h1 1801   4.421   2.538   2.564
  327TCM    cl3 1802   4.611   2.570   2.422
  328TCM     c1 1803   2.091   4.595   3.347
  328TCM    cl1 1804   2.019   4.437   3.304
  328TCM    cl2 1805   2.175   4.662   3.203
  328TCM     h1 1806   2.013   4.664   3.379
  328TCM    cl3 1807   2.211   4.571   3.478
  329TCM     c1 1808   3.327   2.153   1.022
  329TCM    cl1 1809   3.441   2.245   0.919
  329TCM    cl2 1810   3.209   2.267   1.095
  329TCM     h1 1811   3.274   2.079   0.962
  329TCM    cl3 1812   3.419   2.069   1.152
  330TCM     c1 1813   2.437   1.990   2.488
  330TCM    cl1 1814   2.547   2.106   2.570
  330TCM    cl2 1815   2.351   2.073   2.355
  330TCM     h1 1816   2.495   1.907   2.448
  330TCM    cl3 1817   2.318   1.927   2.607
  331TCM     c1 1818   2.711   3.005   3.333
  331TCM    cl1 1819   2.637   3.059   3.487
  331TCM    cl2 1820   2.886   3.044   3.335
  331TCM     h1 1821   2.698   2.897   3.322
  331TCM    cl3 1822   2.633   3.090   3.195
  332TCM     c1 1823   0.163   1.892   1.461
  332TCM    cl1 1824   0.035   1.881   1.587
  332TCM    cl2 1825   0.101   1.987   1.322
  332TCM     h1 1826   0.251   1.941   1.503
  332TCM    cl3 1827   0.205   1.727   1.404
  333TCM     c1 1828   1.714   1.257   3.383
  333TCM    cl1 1829   1.570   1.256   3.276
  333TCM    cl2 1830   1.804   1.411   3.361
  333TCM     h1 1831   1.682   1.248   3.487
  333TCM    cl3 1832   1.821   1.120   3.341
  334TCM     c1 1833   3.198   4.174   2.048
  334TCM    cl1 1834   3.351   4.246   1.989
  334TCM    cl2 1835   3.220   4.117   2.217
  334TCM     h1 1836   3.119   4.250   2.045
  334TCM    cl3 1837   3.152   4.035   1.944
  335TCM     c1 1838   2.042   3.722   0.318
  335TCM    cl1 1839   2.050   3.763   0.493
  335TCM    cl2 1840   1.900   3.804   0.244
  335TCM     h1 1841   2.133   3.756   0.268
  335TCM    cl3 1842   2.025   3.544   0.300
  336TCM     c1 1843   4.767   2.207   2.991
  336TCM    cl1 1844   4.795   2.096   3.130
  336TCM    cl2 1845   4.631   2.317   3.030
  336TCM     h1 1846   4.858   2.265   2.973
  336TCM    cl3 1847   4.727   2.111   2.845
  337TCM     c1 1848   2.539   3.722   1.217
  337TCM    cl1 1849   2.464   3.841   1.329
  337TCM    cl2 1850   2.421   3.681   1.088
  337TCM     h1 1851   2.628   3.765   1.172
  337TCM    cl3 1852   2.582   3.574   1.309
  338TCM     c1 1853   1.165   0.022   4.508
  338TCM    cl1 1854   1.318   0.033   4.600
  338TCM    cl2 1855   1.080   0.180   4.514
  338TCM     h1 1856   1.186  -0.005   4.404
  338TCM    cl3 1857   1.061  -0.105   4.582
  339TCM     c1 1858   3.703   3.136   3.328
  339TCM    cl1 1859   3.645   3.155   3.159
  339TCM    cl2 1860   3.637   3.270   3.428
  339TCM     h1 1861   3.669   3.040   3.368
  339TCM    cl3 1862   3.882   3.143   3.332
  340TCM     c1 1863   3.603   3.786   1.077
  340TCM    cl1 1864   3.587   3.702   1.235
  340TCM    cl2 1865   3.724   3.699   0.977
  340TCM     h1 1866   3.506   3.787   1.026
  340TCM    cl3 1867   3.658   3.955   1.104
  341TCM     c1 1868   2.480   1.078   3.656
  341TCM    cl1 1869   2.518   1.182   3.796
  341TCM    cl2 1870   2.595   0.940   3.655
  341TCM     h1 1871   2.377   1.040   3.664
  341TCM    cl3 1872   2.497   1.173   3.505
  342TCM     c1 1873   1.976   3.742   4.500
  342TCM    cl1 1874   2.050   3.578   4.499
  342TCM    cl2 1875   1.995   3.817   4.338
  342TCM     h1 1876   1.870   3.734   4.525
  342TCM    cl3 1877   2.058   3.843   4.624
  343TCM     c1 1878   4.415   3.835   3.079
  343TCM    cl1 1879   4.272   3.933   3.033
  343TCM    cl2 1880   4.564   3.932   3.057
  343TCM     h1 1881   4.407   3.803   3.183
  343TCM    cl3 1882   4.423   3.690   2.973
  344TCM     c1 1883   3.262   1.932   4.616
  344TCM    cl1 1884   3.203   1.765   4.583
  344TCM    cl2 1885   3.204   1.983   4.778
  344TCM     h1 1886   3.371   1.933   4.614
  344TCM    cl3 1887   3.198   2.044   4.492
  345TCM     c1 1888   0.539   0.563   3.777
  345TCM    cl1 1889   0.414   0.690   3.799
  345TCM    cl2 1890   0.464   0.418   3.703
  345TCM     h1 1891   0.618   0.600   3.711
  345TCM    cl3 1892   0.607   0.520   3.936
  346TCM     c1 1893   3.287   0.851   1.865
  346TCM    cl1 1894   3.457   0.856   1.919
  346TCM    cl2 1895   3.236   0.680   1.845
  346TCM     h1 1896   3.224   0.898   1.941
  346TCM    cl3 1897   3.269   0.938   1.709
  347TCM     c1 1898   2.537   4.507   1.916
  347TCM    cl1 1899   2.451   4.629   1.817
  347TCM    cl2 1900   2.694   4.574   1.972
  347TCM     h1 1901   2.475   4.480   2.003
  347TCM    cl3 1902   2.565   4.362   1.816
  348TCM     c1 1903   0.832   0.950   1.923
  348TCM    cl1 1904   0.751   0.887   1.776
  348TCM    cl2 1905   0.716   0.962   2.058
  348TCM     h1 1906   0.916   0.885   1.950
  348TCM    cl3 1907   0.891   1.114   1.884
  349TCM     c1 1908   2.295   4.321   3.066
  349TCM    cl1 1909   2.316   4.152   3.009
  349TCM    cl2 1910   2.369   4.433   2.947
  349TCM     h1 1911   2.189   4.343   3.077
  349TCM    cl3 1912   2.377   4.340   3.224
  350TCM     c1 1913   4.102   1.869   4.575
  350TCM    cl1 1914   4.107   1.948   4.415
  350TCM    cl2 1915   4.187   1.972   4.696
  350TCM     h1 1916   3.998   1.855   4.606
  350TCM    cl3 1917   4.184   1.709   4.566
  351TCM     c1 1918   0.278   0.421   4.846
  351TCM    cl1 1919   0.452   0.384   4.873
  351TCM    cl2 1920   0.215   0.513   4.987
  351TCM     h1 1921   0.266   0.480   4.755
  351TCM    cl3 1922   0.186   0.267   4.831
  352TCM     c1 1923   3.932   3.955   0.179
  352TCM    cl1 1924   3.819   3.990   0.043
  352TCM    cl2 1925   3.845   3.971   0.335
  352TCM     h1 1926   3.970   3.853   0.169
  352TCM    cl3 1927   4.068   4.072   0.175
  353TCM     c1 1928   1.973   2.283   2.469
  353TCM    cl1 1929   2.011   2.248   2.297
  353TCM    cl2 1930   1.908   2.450   2.481
  353TCM     h1 1931   1.898   2.212   2.505
  353TCM    cl3 1932   2.121   2.270   2.568
  354TCM     c1 1933   2.121   3.912   1.267
  354TCM    cl1 1934   2.082   3.739   1.246
  354TCM    cl2 1935   2.136   3.949   1.442
  354TCM     h1 1936   2.216   3.935   1.217
  354TCM    cl3 1937   1.991   4.013   1.195
  355TCM     c1 1938   4.284   3.762   1.639
  355TCM    cl1 1939   4.340   3.774   1.809
  355TCM    cl2 1940   4.188   3.612   1.618
  355TCM     h1 1941   4.222   3.849   1.615
  355TCM    cl3 1942   4.426   3.759   1.529
  356TCM     c1 1943   2.379   4.626   0.411
  356TCM    cl1 1944   2.207   4.595   0.453
  356TCM    cl2 1945   2.400   4.799   0.369
  356TCM     h1 1946   2.443   4.601   0.496
  356TCM    cl3 1947   2.423   4.526   0.269
  357TCM     c1 1948   2.786   2.421   4.360
  357TCM    cl1 1949   2.900   2.287   4.397
  357TCM    cl2 1950   2.630   2.391   4.444
  357TCM     h1 1951   2.829   2.516   4.395
  357TCM    cl3 1952   2.758   2.428   4.183
  358TCM     c1 1953   1.684   3.165   2.295
  358TCM    cl1 1954   1.719   3.023   2.190
  358TCM    cl2 1955   1.758   3.138   2.456
  358TCM     h1 1956   1.726   3.255   2.250
  358TCM    cl3 1957   1.507   3.184   2.313
  359TCM     c1 1958   0.654   4.163   4.506
  359TCM    cl1 1959   0.619   4.148   4.682
  359TCM    cl2 1960   0.501   4.153   4.414
  359TCM     h1 1961   0.703   4.259   4.487
  359TCM    cl3 1962   0.763   4.030   4.456
  360TCM     c1 1963   0.226   2.308   1.439
  360TCM    cl1 1964   0.250   2.485   1.460
  360TCM    cl2 1965   0.185   2.234   1.597
  360TCM     h1 1966   0.144   2.291   1.368
  360TCM    cl3 1967   0.376   2.233   1.376
  361TCM     c1 1968   4.604   0.900   3.993
  361TCM    cl1 1969   4.488   0.771   3.945
  361TCM    cl2 1970   4.705   0.945   3.852
  361TCM     h1 1971   4.549   0.988   4.028
  361TCM    cl3 1972   4.710   0.839   4.124
  362TCM     c1 1973   3.678   0.834   0.165
  362TCM    cl1 1974   3.536   0.868   0.062
  362TCM    cl2 1975   3.723   0.661   0.151
  362TCM     h1 1976   3.762   0.897   0.133
  362TCM    cl3 1977   3.638   0.872   0.336
  363TCM     c1 1978   1.802   1.735   3.772
  363TCM    cl1 1979   1.646   1.649   3.786
  363TCM    cl2 1980   1.886   1.679   3.624
  363TCM     h1 1981   1.785   1.843   3.767
  363TCM    cl3 1982   1.903   1.697   3.916
  364TCM     c1 1983   0.334   1.556   1.913
  364TCM    cl1 1984   0.261   1.594   1.754
  364TCM    cl2 1985   0.245   1.643   2.042
  364TCM     h1 1986   0.328   1.448   1.931
  364TCM    cl3 1987   0.506   1.608   1.916
  365TCM     c1 1988   1.472   0.522   3.220
  365TCM    cl1 1989   1.400   0.380   3.138
  365TCM    cl2 1990   1.551   0.471   3.373
  365TCM     h1 1991   1.546   0.568   3.154
  365TCM    cl3 1992   1.342   0.640   3.257
  366TCM     c1 1993   2.224   4.127   0.816
  366TCM    cl1 1994   2.278   4.012   0.942
  366TCM    cl2 1995   2.157   4.273   0.896
  366TCM     h1 1996   2.309   4.156   0.754
  366TCM    cl3 1997   2.098   4.050   0.715
  367TCM     c1 1998   3.339   1.605   4.027
  367TCM    cl1 1999   3.427   1.617   3.870
  367TCM    cl2 2000   3.287   1.769   4.079
  367TCM     h1 2001   3.252   1.541   4.015
  367TCM    cl3 2002   3.449   1.535   4.151
  368TCM     c1 2003   2.137   3.847   3.985
  368TCM    cl1 2004   2.072   3.892   3.824
  368TCM    cl2 2005   2.310   3.896   3.994
  368TCM     h1 2006   2.081   3.899   4.064
  368TCM    cl3 2007   2.122   3.670   4.007
  369TCM     c1 2008   3.132   0.708   4.559
  369TCM    cl1 2009   3.266   0.819   4.604
  369TCM    cl2 2010   3.022   0.687   4.699
  369TCM     h1 2011   3.077   0.750   4.475
  369TCM    cl3 2012   3.200   0.549   4.511
  370TCM     c1 2013   3.122   2.668   2.341
  370TCM    cl1 2014   3.123   2.668   2.162
  370TCM    cl2 2015   3.180   2.827   2.400
  370TCM     h1 2016   3.021   2.650   2.378
  370TCM    cl3 2017   3.232   2.540   2.402
  371TCM     c1 2018   4.865   4.311   0.438
  371TCM    cl1 2019   4.920   4.341   0.270
  371TCM    cl2 2020   5.005   4.322   0.551
  371TCM     h1 2021   4.790   4.386   0.466
  371TCM    cl3 2022   4.793   4.147   0.448
  372TCM     c1 2023   2.176   2.723   4.160
  372TCM    cl1 2024   2.213   2.682   4.331
  372TCM    cl2 2025   2.070   2.595   4.091
  372TCM     h1 2026   2.126   2.819   4.155
  372TCM    cl3 2027   2.329   2.730   4.066
  373TCM     c1 2028   2.708   4.145   3.998
  373TCM    cl1 2029   2.669   4.031   4.131
  373TCM    cl2 2030   2.573   4.148   3.880
  373TCM     h1 2031   2.723   4.245   4.039
  373TCM    cl3 2032   2.858   4.091   3.916
  374TCM     c1 2033   4.501   0.121   2.726
  374TCM    cl1 2034   4.562   0.030   2.868
  374TCM    cl2 2035   4.324   0.146   2.741
  374TCM     h1 2036   4.551   0.218   2.722
  374TCM    cl3 2037   4.537   0.030   2.576
  375TCM     c1 2038   1.893   3.604   2.077
  375TCM    cl1 2039   1.826   3.519   2.220
  375TCM    cl2 2040   2.005   3.732   2.133
  375TCM     h1 2041   1.947   3.533   2.013
  375TCM    cl3 2042   1.760   3.679   1.984
  376TCM     c1 2043   3.636   0.634   0.630
  376TCM    cl1 2044   3.756   0.567   0.514
  376TCM    cl2 2045   3.646   0.544   0.785
  376TCM     h1 2046   3.657   0.740   0.647
  376TCM    cl3 2047   3.471   0.616   0.562
  377TCM     c1 2048   0.165   3.788   2.950
  377TCM    cl1 2049   0.323   3.711   2.985
  377TCM    cl2 2050   0.113   3.750   2.783
  377TCM     h1 2051   0.090   3.751   3.021
  377TCM    cl3 2052   0.181   3.966   2.969
  378TCM     c1 2053   2.888   2.648   4.857
  378TCM    cl1 2054   2.922   2.534   4.992
  378TCM    cl2 2055   2.833   2.556   4.714
  378TCM     h1 2056   2.810   2.718   4.888
  378TCM    cl3 2057   3.038   2.739   4.817
  379TCM     c1 2058   2.456   0.458   0.293
  379TCM    cl1 2059   2.465   0.543   0.136
  379TCM    cl2 2060   2.620   0.450   0.367
  379TCM     h1 2061   2.389   0.512   0.360
  379TCM    cl3 2062   2.395   0.292   0.267
  380TCM     c1 2063   2.908   0.089   2.321
  380TCM    cl1 2064   3.072   0.088   2.248
  380TCM    cl2 2065   2.827   0.243   2.281
  380TCM     h1 2066   2.850   0.006   2.280
  380TCM    cl3 2067   2.920   0.072   2.499
  381TCM     c1 2068   1.605   3.570   4.511
  381TCM    cl1 2069   1.630   3.677   4.653
  381TCM    cl2 2070   1.709   3.425   4.528
  381TCM     h1 2071   1.500   3.540   4.505
  381TCM    cl3 2072   1.650   3.659   4.362
  382TCM     c1 2073   0.506   2.713   0.655
  382TCM    cl1 2074   0.641   2.625   0.734
  382TCM    cl2 2075   0.356   2.688   0.748
  382TCM     h1 2076   0.530   2.820   0.651
  382TCM    cl3 2077   0.483   2.651   0.488
  383TCM     c1 2078   2.814   0.275   3.355
  383TCM    cl1 2079   2.993   0.262   3.365
  383TCM    cl2 2080   2.743   0.111   3.343
  383TCM     h1 2081   2.776   0.325   3.445
  383TCM    cl3 2082   2.770   0.370   3.210
  384TCM     c1 2083   2.197   3.121   1.001
  384TCM    cl1 2084   2.143   3.079   0.835
  384TCM    cl2 2085   2.351   3.038   1.038
  384TCM     h1 2086   2.212   3.229   1.008
  384TCM    cl3 2087   2.072   3.070   1.119
  385TCM     c1 2088   3.237   0.130   3.779
  385TCM    cl1 2089   3.087   0.117   3.681
  385TCM    cl2 2090   3.241  -0.004   3.899
  385TCM     h1 2091   3.325   0.123   3.714
  385TCM    cl3 2092   3.239   0.287   3.864
  386TCM     c1 2093   0.328   0.487   4.194
  386TCM    cl1 2094   0.268   0.444   4.030
  386TCM    cl2 2095   0.398   0.652   4.192
  386TCM     h1 2096   0.245   0.483   4.265
  386TCM    cl3 2097   0.454   0.368   4.241
  387TCM     c1 2098   2.375   2.477   3.788
  387TCM    cl1 2099   2.213   2.403   3.807
  387TCM    cl2 2100   2.358   2.635   3.705
  387TCM     h1 2101   2.421   2.491   3.886
  387TCM    cl3 2102   2.478   2.369   3.688
  388TCM     c1 2103   0.675   1.204   4.893
  388TCM    cl1 2104   0.821   1.278   4.818
  388TCM    cl2 2105   0.619   1.067   4.793
  388TCM     h1 2106   0.700   1.169   4.994
  388TCM    cl3 2107   0.545   1.328   4.902
  389TCM     c1 2108   4.723   2.988   1.702
  389TCM    cl1 2109   4.841   3.092   1.786
  389TCM    cl2 2110   4.738   2.820   1.763
  389TCM     h1 2111   4.621   3.024   1.719
  389TCM    cl3 2112   4.758   2.989   1.526
  390TCM     c1 2113   3.101   3.215   0.518
  390TCM    cl1 2114   3.002   3.066   0.508
  390TCM    cl2 2115   3.129   3.258   0.690
  390TCM     h1 2116   3.197   3.199   0.468
  390TCM    cl3 2117   3.015   3.350   0.437
  391TCM     c1 2118   2.653   4.691   1.420
  391TCM    cl1 2119   2.703   4.543   1.332
  391TCM    cl2 2120   2.480   4.724   1.386
  391TCM     h1 2121   2.667   4.677   1.527
  391TCM    cl3 2122   2.752   4.830   1.364
  392TCM     c1 2123   2.825   3.969   4.603
  392TCM    cl1 2124   2.832   3.817   4.698
  392TCM    cl2 2125   2.658   4.034   4.607
  392TCM     h1 2126   2.893   4.042   4.648
  392TCM    cl3 2127   2.874   3.937   4.433
  393TCM     c1 2128   3.998   3.749   2.873
  393TCM    cl1 2129   4.064   3.601   2.950
  393TCM    cl2 2130   3.827   3.720   2.826
  393TCM     h1 2131   4.003   3.832   2.943
  393TCM    cl3 2132   4.094   3.789   2.727
  394TCM     c1 2133   2.224   1.547   2.314
  394TCM    cl1 2134   2.057   1.535   2.249
  394TCM    cl2 2135   2.300   1.700   2.259
  394TCM     h1 2136   2.220   1.547   2.424
  394TCM    cl3 2137   2.320   1.407   2.257
  395TCM     c1 2138   0.044   2.353   0.572
  395TCM    cl1 2139  -0.091   2.386   0.458
  395TCM    cl2 2140   0.018   2.441   0.726
  395TCM     h1 2141   0.048   2.245   0.592
  395TCM    cl3 2142   0.198   2.407   0.498
  396TCM     c1 2143   4.237   0.628   2.936
  396TCM    cl1 2144   4.400   0.613   3.009
  396TCM    cl2 2145   4.184   0.469   2.872
  396TCM     h1 2146   4.165   0.663   3.011
  396TCM    cl3 2147   4.245   0.745   2.801
  397TCM     c1 2148   0.062   2.334   0.075
  397TCM    cl1 2149   0.120   2.485   0.153
  397TCM    cl2 2150  -0.114   2.347   0.047
  397TCM     h1 2151   0.113   2.319  -0.020
  397TCM    cl3 2152   0.095   2.194   0.183
  398TCM     c1 2153   3.607   1.017   0.921
  398TCM    cl1 2154   3.440   1.073   0.956
  398TCM    cl2 2155   3.628   0.999   0.744
  398TCM     h1 2156   3.679   1.090   0.960
  398TCM    cl3 2157   3.634   0.858   1.000
  399TCM     c1 2158   2.693   4.450   4.488
  399TCM    cl1 2159   2.633   4.311   4.392
  399TCM    cl2 2160   2.683   4.412   4.663
  399TCM     h1 2161   2.797   4.470   4.461
  399TCM    cl3 2162   2.594   4.595   4.452
  400TCM     c1 2163   1.519   0.098   0.340
  400TCM    cl1 2164   1.670   0.079   0.435
  400TCM    cl2 2165   1.515   0.261   0.266
  400TCM     h1 2166   1.516   0.022   0.261
  400TCM    cl3 2167   1.378   0.078   0.448
  401TCM     c1 2168   1.469   3.197   4.184
  401TCM    cl1 2169   1.484   3.080   4.319
  401TCM    cl2 2170   1.618   3.192   4.084
  401TCM     h1 2171   1.383   3.171   4.122
  401TCM    cl3 2172   1.447   3.362   4.251
  402TCM     c1 2173   1.301   2.250   2.113
  402TCM    cl1 2174   1.360   2.170   2.263
  402TCM    cl2 2175   1.403   2.195   1.975
  402TCM     h1 2176   1.197   2.223   2.095
  402TCM    cl3 2177   1.317   2.427   2.130
  403TCM     c1 2178   1.586   1.613   0.545
  403TCM    cl1 2179   1.490   1.646   0.397
  403TCM    cl2 2180   1.749   1.688   0.527
  403TCM     h1 2181   1.535   1.656   0.632
  403TCM    cl3 2182   1.606   1.436   0.567
  404TCM     c1 2183   0.443   4.919   3.436
  404TCM    cl1 2184   0.344   4.829   3.316
  404TCM    cl2 2185   0.616   4.905   3.390
  404TCM     h1 2186   0.413   5.024   3.438
  404TCM    cl3 2187   0.421   4.845   3.599
  405TCM     c1 2188   2.737   3.838   0.284
  405TCM    cl1 2189   2.686   4.007   0.316
  405TCM    cl2 2190   2.829   3.778   0.426
  405TCM     h1 2191   2.649   3.776   0.268
  405TCM    cl3 2192   2.843   3.834   0.139
  406TCM     c1 2193   0.246   1.861   0.476
  406TCM    cl1 2194   0.265   1.815   0.304
  406TCM    cl2 2195   0.118   1.761   0.551
  406TCM     h1 2196   0.340   1.846   0.529
  406TCM    cl3 2197   0.199   2.034   0.485
  407TCM     c1 2198   3.268   4.588   3.968
  407TCM    cl1 2199   3.123   4.483   3.978
  407TCM    cl2 2200   3.286   4.646   3.799
  407TCM     h1 2201   3.256   4.674   4.035
  407TCM    cl3 2202   3.413   4.493   4.014
  408TCM     c1 2203   0.182   3.143   3.325
  408TCM    cl1 2204   0.208   3.155   3.502
  408TCM    cl2 2205   0.286   3.014   3.257
  408TCM     h1 2206   0.077   3.120   3.304
  408TCM    cl3 2207   0.225   3.300   3.249
  409TCM     c1 2208   2.971   0.438   1.927
  409TCM    cl1 2209   2.889   0.540   1.804
  409TCM    cl2 2210   2.888   0.280   1.936
  409TCM     h1 2211   3.076   0.423   1.899
  409TCM    cl3 2212   2.962   0.519   2.086
  410TCM     c1 2213   4.827   4.961   4.012
  410TCM    cl1 2214   4.842   4.792   4.069
  410TCM    cl2 2215   4.813   5.071   4.153
  410TCM     h1 2216   4.915   4.988   3.953
  410TCM    cl3 2217   4.680   4.978   3.910
  411TCM     c1 2218   3.832   0.895   2.035
  411TCM    cl1 2219   3.860   0.873   1.859
  411TCM    cl2 2220   3.749   0.749   2.100
  411TCM     h1 2221   3.927   0.909   2.086
  411TCM    cl3 2222   3.729   1.040   2.061
  412TCM     c1 2223   2.347   4.859   2.185
  412TCM    cl1 2224   2.208   4.885   2.075
  412TCM    cl2 2225   2.393   4.685   2.183
  412TCM     h1 2226   2.431   4.920   2.152
  412TCM    cl3 2227   2.300   4.905   2.352
  413TCM     c1 2228   2.325   2.587   0.671
  413TCM    cl1 2229   2.466   2.590   0.560
  413TCM    cl2 2230   2.202   2.473   0.606
  413TCM     h1 2231   2.357   2.555   0.770
  413TCM    cl3 2232   2.254   2.751   0.681
  414TCM     c1 2233   2.029   4.586   0.054
  414TCM    cl1 2234   2.113   4.429   0.075
  414TCM    cl2 2235   1.988   4.610  -0.119
  414TCM     h1 2236   1.938   4.588   0.114
  414TCM    cl3 2237   2.138   4.718   0.107
  415TCM     c1 2238   3.617   1.021   2.438
  415TCM    cl1 2239   3.776   0.943   2.405
  415TCM    cl2 2240   3.492   0.950   2.331
  415TCM     h1 2241   3.589   1.006   2.542
  415TCM    cl3 2242   3.631   1.197   2.404
  416TCM     c1 2243   3.566   4.022   0.582
  416TCM    cl1 2244   3.658   3.973   0.729
  416TCM    cl2 2245   3.419   4.111   0.630
  416TCM     h1 2246   3.629   4.085   0.519
  416TCM    cl3 2247   3.518   3.875   0.491
  417TCM     c1 2248   1.641   4.235   1.744
  417TCM    cl1 2249   1.494   4.247   1.641
  417TCM    cl2 2250   1.619   4.104   1.865
  417TCM     h1 2251   1.727   4.212   1.681
  417TCM    cl3 2252   1.667   4.391   1.828
  418TCM     c1 2253   4.885   2.625   2.796
  418TCM    cl1 2254   5.019   2.744   2.804
  418TCM    cl2 2255   4.784   2.641   2.943
  418TCM     h1 2256   4.825   2.644   2.707
  418TCM    cl3 2257   4.953   2.459   2.788
  419TCM     c1 2258   1.623   1.300   2.050
  419TCM    cl1 2259   1.765   1.311   2.159
  419TCM    cl2 2260   1.497   1.415   2.106
  419TCM     h1 2261   1.652   1.325   1.948
  419TCM    cl3 2262   1.557   1.133   2.054
  420TCM     c1 2263   0.998   4.234   4.947
  420TCM    cl1 2264   1.095   4.238   5.098
  420TCM    cl2 2265   0.851   4.135   4.971
  420TCM     h1 2266   0.970   4.336   4.920
  420TCM    cl3 2267   1.097   4.162   4.816
  421TCM     c1 2268   3.009   2.681   0.808
  421TCM    cl1 2269   2.867   2.597   0.738
  421TCM    cl2 2270   3.063   2.592   0.954
  421TCM     h1 2271   3.090   2.683   0.734
  421TCM    cl3 2272   2.962   2.848   0.852
  422TCM     c1 2273   0.509   1.874   2.320
  422TCM    cl1 2274   0.488   1.904   2.145
  422TCM    cl2 2275   0.673   1.931   2.368
  422TCM     h1 2276   0.433   1.929   2.377
  422TCM    cl3 2277   0.494   1.699   2.353
  423TCM     c1 2278   2.712   0.507   4.417
  423TCM    cl1 2279   2.836   0.630   4.375
  423TCM    cl2 2280   2.548   0.569   4.376
  423TCM     h1 2281   2.731   0.415   4.361
  423TCM    cl3 2282   2.720   0.473   4.593
  424TCM     c1 2283   0.520   4.216   4.054
  424TCM    cl1 2284   0.654   4.308   4.129
  424TCM    cl2 2285   0.588   4.074   3.968
  424TCM     h1 2286   0.450   4.183   4.131
  424TCM    cl3 2287   0.434   4.322   3.937
  425TCM     c1 2288   4.963   3.936   0.962
  425TCM    cl1 2289   4.867   3.787   0.986
  425TCM    cl2 2290   5.041   3.933   0.800
  425TCM     h1 2291   4.898   4.024   0.969
  425TCM    cl3 2292   5.090   3.944   1.088
  426TCM     c1 2293   2.499   2.398   0.062
  426TCM    cl1 2294   2.539   2.543  -0.036
  426TCM    cl2 2295   2.382   2.442   0.190
  426TCM     h1 2296   2.455   2.321  -0.003
  426TCM    cl3 2297   2.649   2.334   0.138
  427TCM     c1 2298   3.149   2.251   2.000
  427TCM    cl1 2299   3.253   2.384   1.938
  427TCM    cl2 2300   3.043   2.314   2.130
  427TCM     h1 2301   3.088   2.212   1.918
  427TCM    cl3 2302   3.252   2.120   2.066
  428TCM     c1 2303   4.067   1.300   4.927
  428TCM    cl1 2304   4.028   1.189   5.063
  428TCM    cl2 2305   4.138   1.452   4.992
  428TCM     h1 2306   4.138   1.252   4.860
  428TCM    cl3 2307   3.916   1.339   4.838
  429TCM     c1 2308   1.353   1.880   4.181
  429TCM    cl1 2309   1.498   1.953   4.257
  429TCM    cl2 2310   1.270   1.776   4.301
  429TCM     h1 2311   1.285   1.959   4.147
  429TCM    cl3 2312   1.403   1.780   4.040
  430TCM     c1 2313   0.281   0.461   2.132
  430TCM    cl1 2314   0.181   0.316   2.167
  430TCM    cl2 2315   0.385   0.423   1.992
  430TCM     h1 2316   0.215   0.545   2.107
  430TCM    cl3 2317   0.383   0.504   2.272
  431TCM     c1 2318   3.734   0.201   0.674
  431TCM    cl1 2319   3.717   0.168   0.849
  431TCM    cl2 2320   3.709   0.049   0.581
  431TCM     h1 2321   3.660   0.276   0.643
  431TCM    cl3 2322   3.899   0.264   0.640
  432TCM     c1 2323   3.144   2.149   3.467
  432TCM    cl1 2324   3.312   2.085   3.462
  432TCM    cl2 2325   3.028   2.017   3.429
  432TCM     h1 2326   3.124   2.188   3.567
  432TCM    cl3 2327   3.127   2.280   3.346
  433TCM     c1 2328   3.622   2.699   3.243
  433TCM    cl1 2329   3.694   2.555   3.322
  433TCM    cl2 2330   3.751   2.795   3.164
  433TCM     h1 2331   3.549   2.667   3.168
  433TCM    cl3 2332   3.540   2.799   3.367
  434TCM     c1 2333   3.053   4.444   1.591
  434TCM    cl1 2334   2.888   4.483   1.651
  434TCM    cl2 2335   3.042   4.373   1.427
  434TCM     h1 2336   3.113   4.535   1.588
  434TCM    cl3 2337   3.130   4.325   1.702
  435TCM     c1 2338   0.572   1.072   4.000
  435TCM    cl1 2339   0.410   0.997   4.003
  435TCM    cl2 2340   0.695   0.947   4.038
  435TCM     h1 2341   0.592   1.115   3.901
  435TCM    cl3 2342   0.580   1.203   4.123
  436TCM     c1 2343   0.564   1.726   1.392
  436TCM    cl1 2344   0.575   1.698   1.569
  436TCM    cl2 2345   0.720   1.683   1.315
  436TCM     h1 2346   0.484   1.664   1.350
  436TCM    cl3 2347   0.527   1.899   1.362
  437TCM     c1 2348   0.241   2.513   1.045
  437TCM    cl1 2349   0.127   2.383   1.095
  437TCM    cl2 2350   0.402   2.479   1.116
  437TCM     h1 2351   0.248   2.515   0.936
  437TCM    cl3 2352   0.181   2.671   1.105
  438TCM     c1 2353   1.100   3.644   4.955
  438TCM    cl1 2354   1.233   3.600   4.842
  438TCM    cl2 2355   0.958   3.540   4.924
  438TCM     h1 2356   1.133   3.631   5.058
  438TCM    cl3 2357   1.056   3.816   4.928
  439TCM     c1 2358   3.415   1.099   1.315
  439TCM    cl1 2359   3.344   0.936   1.336
  439TCM    cl2 2360   3.593   1.086   1.297
  439TCM     h1 2361   3.373   1.145   1.225
  439TCM    cl3 2362   3.377   1.201   1.457
  440TCM     c1 2363   3.611   1.703   4.475
  440TCM    cl1 2364   3.584   1.725   4.651
  440TCM    cl2 2365   3.784   1.730   4.437
  440TCM     h1 2366   3.581   1.602   4.446
  440TCM    cl3 2367   3.511   1.823   4.386
  441TCM     c1 2368   0.428   3.698   4.183
  441TCM    cl1 2369   0.386   3.872   4.187
  441TCM    cl2 2370   0.320   3.606   4.294
  441TCM     h1 2371   0.417   3.659   4.082
  441TCM    cl3 2372   0.598   3.677   4.237
  442TCM     c1 2373   3.465   3.282   4.947
  442TCM    cl1 2374   3.350   3.406   4.886
  442TCM    cl2 2375   3.515   3.325   5.114
  442TCM     h1 2376   3.417   3.184   4.947
  442TCM    cl3 2377   3.611   3.277   4.842
  443TCM     c1 2378   0.930   2.425   1.394
  443TCM    cl1 2379   0.860   2.261   1.369
  443TCM    cl2 2380   1.090   2.433   1.314
  443TCM     h1 2381   0.864   2.500   1.351
  443TCM    cl3 2382   0.949   2.455   1.570
  444TCM     c1 2383   4.361   0.115   4.931
  444TCM    cl1 2384   4.267   0.013   5.044
  444TCM    cl2 2385   4.246   0.201   4.822
  444TCM     h1 2386   4.420   0.188   4.987
  444TCM    cl3 2387   4.470   0.011   4.834
  445TCM     c1 2388   4.475   1.081   4.946
  445TCM    cl1 2389   4.326   1.026   4.863
  445TCM    cl2 2390   4.543   0.945   5.042
  445TCM     h1 2391   4.549   1.114   4.872
  445TCM    cl3 2392   4.434   1.217   5.056
  446TCM     c1 2393   3.071   0.745   3.227
  446TCM    cl1 2394   3.081   0.568   3.198
  446TCM    cl2 2395   3.158   0.831   3.096
  446TCM     h1 2396   2.967   0.776   3.229
  446TCM    cl3 2397   3.149   0.783   3.384
  447TCM     c1 2398   4.531   1.383   4.670
  447TCM    cl1 2399   4.627   1.408   4.820
  447TCM    cl2 2400   4.357   1.374   4.712
  447TCM     h1 2401   4.548   1.466   4.601
  447TCM    cl3 2402   4.581   1.229   4.594
  448TCM     c1 2403   4.980   1.885   3.500
  448TCM    cl1 2404   5.148   1.824   3.487
  448TCM    cl2 2405   4.883   1.820   3.364
  448TCM     h1 2406   4.937   1.852   3.595
  448TCM    cl3 2407   4.980   2.064   3.493
  449TCM     c1 2408   4.909   4.707   3.540
  449TCM    cl1 2409   4.836   4.694   3.703
  449TCM    cl2 2410   5.069   4.785   3.552
  449TCM     h1 2411   4.921   4.607   3.497
  449TCM    cl3 2412   4.803   4.804   3.433
  450TCM     c1 2413   3.475   0.773   3.598
  450TCM    cl1 2414   3.580   0.640   3.655
  450TCM    cl2 2415   3.569   0.926   3.596
  450TCM     h1 2416   3.438   0.751   3.497
  450TCM    cl3 2417   3.335   0.792   3.709
  451TCM     c1 2418   3.788   3.847   1.563
  451TCM    cl1 2419   3.685   3.971   1.485
  451TCM    cl2 2420   3.751   3.838   1.739
  451TCM     h1 2421   3.771   3.750   1.517
  451TCM    cl3 2422   3.960   3.895   1.543
  452TCM     c1 2423   0.580   0.201   1.093
  452TCM    cl1 2424   0.547   0.245   1.264
  452TCM    cl2 2425   0.426   0.200   1.001
  452TCM     h1 2426   0.648   0.274   1.049
  452TCM    cl3 2427   0.654   0.038   1.087
  453TCM     c1 2428   2.217   3.942   3.507
  453TCM    cl1 2429   2.242   4.030   3.353
  453TCM    cl2 2430   2.364   3.959   3.610
  453TCM     h1 2431   2.131   3.984   3.559
  453TCM    cl3 2432   2.188   3.768   3.473
  454TCM     c1 2433   4.345   3.921   1.066
  454TCM    cl1 2434   4.504   3.870   1.130
  454TCM    cl2 2435   4.296   3.813   0.931
  454TCM     h1 2436   4.270   3.916   1.145
  454TCM    cl3 2437   4.356   4.089   1.004
  455TCM     c1 2438   3.082   4.273   4.349
  455TCM    cl1 2439   2.953   4.267   4.225
  455TCM    cl2 2440   3.007   4.264   4.512
  455TCM     h1 2441   3.150   4.188   4.336
  455TCM    cl3 2442   3.173   4.427   4.334
  456TCM     c1 2443   1.856   1.989   4.604
  456TCM    cl1 2444   2.032   2.018   4.622
  456TCM    cl2 2445   1.801   1.874   4.731
  456TCM     h1 2446   1.802   2.083   4.614
  456TCM    cl3 2447   1.823   1.919   4.442
  457TCM     c1 2448   1.610   3.363   1.810
  457TCM    cl1 2449   1.510   3.508   1.774
  457TCM    cl2 2450   1.615   3.336   1.987
  457TCM     h1 2451   1.566   3.275   1.761
  457TCM    cl3 2452   1.777   3.389   1.750
  458TCM     c1 2453   1.510   0.018   1.365
  458TCM    cl1 2454   1.543  -0.102   1.494
  458TCM    cl2 2455   1.644   0.015   1.246
  458TCM     h1 2456   1.416  -0.007   1.315
  458TCM    cl3 2457   1.498   0.182   1.437
  459TCM     c1 2458   4.024   4.321   3.303
  459TCM    cl1 2459   4.065   4.155   3.249
  459TCM    cl2 2460   4.135   4.370   3.435
  459TCM     h1 2461   4.033   4.391   3.219
  459TCM    cl3 2462   3.855   4.322   3.364
  460TCM     c1 2463   0.566   0.973   3.520
  460TCM    cl1 2464   0.599   0.799   3.490
  460TCM    cl2 2465   0.675   1.030   3.650
  460TCM     h1 2466   0.584   1.030   3.428
  460TCM    cl3 2467   0.396   0.994   3.573
  461TCM     c1 2468   1.716   4.412   0.268
  461TCM    cl1 2469   1.832   4.506   0.367
  461TCM    cl2 2470   1.671   4.511   0.125
  461TCM     h1 2471   1.762   4.319   0.235
  461TCM    cl3 2472   1.569   4.376   0.365
  462TCM     c1 2473   3.202   0.151   0.153
  462TCM    cl1 2474   3.297   0.240   0.031
  462TCM    cl2 2475   3.042   0.109   0.084
  462TCM     h1 2476   3.255   0.060   0.181
  462TCM    cl3 2477   3.178   0.255   0.298
  463TCM     c1 2478   3.673   0.897   3.254
  463TCM    cl1 2479   3.494   0.894   3.243
  463TCM    cl2 2480   3.740   0.950   3.096
  463TCM     h1 2481   3.704   0.967   3.332
  463TCM    cl3 2482   3.732   0.732   3.292
  464TCM     c1 2483   0.030   4.343   3.750
  464TCM    cl1 2484  -0.054   4.354   3.591
  464TCM    cl2 2485   0.139   4.485   3.770
  464TCM     h1 2486  -0.045   4.343   3.830
  464TCM    cl3 2487   0.126   4.192   3.757
  465TCM     c1 2488   4.431   1.693   4.965
  465TCM    cl1 2489   4.292   1.794   5.019
  465TCM    cl2 2490   4.574   1.727   5.067
  465TCM     h1 2491   4.405   1.588   4.972
  465TCM    cl3 2492   4.469   1.734   4.794
  466TCM     c1 2493   0.515   0.940   2.762
  466TCM    cl1 2494   0.501   1.090   2.665
  466TCM    cl2 2495   0.514   0.980   2.936
  466TCM     h1 2496   0.431   0.874   2.739
  466TCM    cl3 2497   0.669   0.858   2.720
  467TCM     c1 2498   0.470   2.064   1.827
  467TCM    cl1 2499   0.388   2.191   1.923
  467TCM    cl2 2500   0.552   2.138   1.686
  467TCM     h1 2501   0.544   2.013   1.890
  467TCM    cl3 2502   0.349   1.945   1.770
  468TCM     c1 2503   3.355   2.095   1.532
  468TCM    cl1 2504   3.260   1.954   1.473
  468TCM    cl2 2505   3.345   2.101   1.711
  468TCM     h1 2506   3.459   2.084   1.501
  468TCM    cl3 2507   3.287   2.246   1.465
  469TCM     c1 2508   2.618   0.895   4.032
  469TCM    cl1 2509   2.776   0.840   3.967
  469TCM    cl2 2510   2.624   0.893   4.212
  469TCM     h1 2511   2.597   0.997   3.998
  469TCM    cl3 2512   2.488   0.785   3.976
  470TCM     c1 2513   0.020   2.673   4.748
  470TCM    cl1 2514  -0.073   2.720   4.601
  470TCM    cl2 2515   0.072   2.502   4.734
  470TCM     h1 2516   0.107   2.738   4.758
  470TCM    cl3 2517  -0.085   2.691   4.892
  471TCM     c1 2518   3.856   0.778   2.772
  471TCM    cl1 2519   3.873   0.674   2.917
  471TCM    cl2 2520   3.682   0.815   2.744
  471TCM     h1 2521   3.911   0.871   2.786
  471TCM    cl3 2522   3.922   0.690   2.630
  472TCM     c1 2523   3.167   1.960   3.087
  472TCM    cl1 2524   3.293   1.872   3.178
  472TCM    cl2 2525   3.116   1.861   2.947
  472TCM     h1 2526   3.081   1.979   3.152
  472TCM    cl3 2527   3.234   2.116   3.028
  473TCM     c1 2528   3.540   1.488   1.252
  473TCM    cl1 2529   3.686   1.424   1.168
  473TCM    cl2 2530   3.394   1.431   1.166
  473TCM     h1 2531   3.539   1.452   1.356
  473TCM    cl3 2532   3.544   1.668   1.251
  474TCM     c1 2533   0.405   3.293   1.408
  474TCM    cl1 2534   0.336   3.391   1.541
  474TCM    cl2 2535   0.478   3.142   1.473
  474TCM     h1 2536   0.326   3.267   1.337
  474TCM    cl3 2537   0.532   3.388   1.324
  475TCM     c1 2538   2.443   3.803   4.337
  475TCM    cl1 2539   2.355   3.933   4.426
  475TCM    cl2 2540   2.327   3.674   4.291
  475TCM     h1 2541   2.489   3.845   4.248
  475TCM    cl3 2542   2.569   3.731   4.442
  476TCM     c1 2543   1.828   1.601   1.720
  476TCM    cl1 2544   1.654   1.603   1.675
  476TCM    cl2 2545   1.927   1.569   1.574
  476TCM     h1 2546   1.856   1.698   1.763
  476TCM    cl3 2547   1.856   1.471   1.840
  477TCM     c1 2548   4.652   2.598   0.137
  477TCM    cl1 2549   4.536   2.733   0.119
  477TCM    cl2 2550   4.569   2.455   0.207
  477TCM     h1 2551   4.693   2.571   0.039
  477TCM    cl3 2552   4.785   2.649   0.246
  478TCM     c1 2553   3.075   4.479   3.340
  478TCM    cl1 2554   3.088   4.302   3.311
  478TCM    cl2 2555   3.057   4.563   3.183
  478TCM     h1 2556   2.988   4.500   3.403
  478TCM    cl3 2557   3.224   4.537   3.422
  479TCM     c1 2558   0.027   4.021   0.026
  479TCM    cl1 2559   0.067   3.858  -0.037
  479TCM    cl2 2560   0.138   4.060   0.162
  479TCM     h1 2561   0.038   4.096  -0.053
  479TCM    cl3 2562  -0.142   4.021   0.086
  480TCM     c1 2563   1.119   2.561   3.367
  480TCM    cl1 2564   1.289   2.560   3.424
  480TCM    cl2 2565   1.008   2.546   3.507
  480TCM     h1 2566   1.099   2.655   3.314
  480TCM    cl3 2567   1.092   2.423   3.254
  481TCM     c1 2568   2.401   2.700   1.201
  481TCM    cl1 2569   2.297   2.675   1.056
  481TCM    cl2 2570   2.426   2.543   1.283
  481TCM     h1 2571   2.497   2.741   1.170
  481TCM    cl3 2572   2.321   2.813   1.315
  482TCM     c1 2573   4.945   3.434   3.468
  482TCM    cl1 2574   4.961   3.407   3.645
  482TCM    cl2 2575   4.840   3.576   3.438
  482TCM     h1 2576   5.044   3.451   3.424
  482TCM    cl3 2577   4.870   3.289   3.392
  483TCM     c1 2578   2.527   4.844   3.225
  483TCM    cl1 2579   2.449   4.878   3.383
  483TCM    cl2 2580   2.429   4.917   3.094
  483TCM     h1 2581   2.628   4.887   3.224
  483TCM    cl3 2582   2.539   4.666   3.200
  484TCM     c1 2583   0.063   2.650   4.186
  484TCM    cl1 2584   0.133   2.814   4.168
  484TCM    cl2 2585   0.126   2.575   4.337
  484TCM     h1 2586  -0.046   2.657   4.192
  484TCM    cl3 2587   0.109   2.549   4.045
  485TCM     c1 2588   2.608   2.234   3.353
  485TCM    cl1 2589   2.757   2.281   3.267
  485TCM    cl2 2590   2.643   2.091   3.456
  485TCM     h1 2591   2.573   2.317   3.415
  485TCM    cl3 2592   2.480   2.190   3.235
  486TCM     c1 2593   1.910   0.779   3.730
  486TCM    cl1 2594   1.837   0.630   3.661
  486TCM    cl2 2595   1.866   0.792   3.903
  486TCM     h1 2596   2.018   0.775   3.720
  486TCM    cl3 2597   1.848   0.924   3.643
  487TCM     c1 2598   0.758   0.124   0.575
  487TCM    cl1 2599   0.831   0.257   0.480
  487TCM    cl2 2600   0.619   0.055   0.485
  487TCM     h1 2601   0.833   0.046   0.592
  487TCM    cl3 2602   0.701   0.188   0.733
  488TCM     c1 2603   4.098   1.329   3.436
  488TCM    cl1 2604   4.026   1.470   3.351
  488TCM    cl2 2605   3.988   1.277   3.568
  488TCM     h1 2606   4.112   1.247   3.366
  488TCM    cl3 2607   4.257   1.376   3.507
  489TCM     c1 2608   3.228   4.961   3.131
  489TCM    cl1 2609   3.317   5.105   3.191
  489TCM    cl2 2610   3.080   4.938   3.229
  489TCM     h1 2611   3.201   4.976   3.026
  489TCM    cl3 2612   3.332   4.815   3.146
  490TCM     c1 2613   2.539   2.395   2.821
  490TCM    cl1 2614   2.651   2.535   2.807
  490TCM    cl2 2615   2.391   2.446   2.909
  490TCM     h1 2616   2.512   2.359   2.722
  490TCM    cl3 2617   2.620   2.263   2.912
  491TCM     c1 2618   1.578   0.725   0.013
  491TCM    cl1 2619   1.703   0.766   0.135
  491TCM    cl2 2620   1.653   0.718  -0.150
  491TCM     h1 2621   1.535   0.627   0.037
  491TCM    cl3 2622   1.450   0.850   0.015
  492TCM     c1 2623   2.208   4.300   4.241
  492TCM    cl1 2624   2.341   4.205   4.168
  492TCM    cl2 2625   2.271   4.395   4.379
  492TCM     h1 2626   2.166   4.368   4.166
  492TCM    cl3 2627   2.080   4.188   4.298
  493TCM     c1 2628   0.754   3.704   4.609
  493TCM    cl1 2629   0.678   3.541   4.604
  493TCM    cl2 2630   0.931   3.688   4.586
  493TCM     h1 2631   0.713   3.765   4.529
  493TCM    cl3 2632   0.721   3.781   4.767
  494TCM     c1 2633   0.119   2.889   1.611
  494TCM    cl1 2634   0.272   2.817   1.670
  494TCM    cl2 2635   0.076   2.817   1.452
  494TCM     h1 2636   0.039   2.869   1.683
  494TCM    cl3 2637   0.141   3.065   1.591
  495TCM     c1 2638   3.229   1.116   3.320
  495TCM    cl1 2639   3.321   1.245   3.236
  495TCM    cl2 2640   3.054   1.146   3.301
  495TCM     h1 2641   3.254   1.020   3.276
  495TCM    cl3 2642   3.271   1.117   3.494
  496TCM     c1 2643   1.410   0.122   0.884
  496TCM    cl1 2644   1.257   0.104   0.791
  496TCM    cl2 2645   1.496  -0.036   0.886
  496TCM     h1 2646   1.473   0.197   0.836
  496TCM    cl3 2647   1.371   0.172   1.052
  497TCM     c1 2648   2.712   2.731   3.674
  497TCM    cl1 2649   2.713   2.613   3.539
  497TCM    cl2 2650   2.863   2.828   3.669
  497TCM     h1 2651   2.626   2.798   3.664
  497TCM    cl3 2652   2.702   2.644   3.831
  498TCM     c1 2653   0.065   3.058   1.169
  498TCM    cl1 2654   0.042   3.115   1.000
  498TCM    cl2 2655  -0.002   3.181   1.282
  498TCM     h1 2656   0.014   2.963   1.184
  498TCM    cl3 2657   0.240   3.039   1.201
  499TCM     c1 2658   1.893   0.332   0.105
  499TCM    cl1 2659   1.751   0.410   0.029
  499TCM    cl2 2660   1.887   0.357   0.283
  499TCM     h1 2661   1.892   0.225   0.083
  499TCM    cl3 2662   2.044   0.405   0.041
  500TCM     c1 2663   0.805   1.587   2.737
  500TCM    cl1 2664   0.638   1.541   2.691
  500TCM    cl2 2665   0.810   1.625   2.912
  500TCM     h1 2666   0.873   1.504   2.716
  500TCM    cl3 2667   0.854   1.732   2.643
  501TCM     c1 2668   2.542   3.774   2.185
  501TCM    cl1 2669   2.575   3.728   2.355
  501TCM    cl2 2670   2.368   3.755   2.150
  501TCM     h1 2671   2.571   3.878   2.170
  501TCM    cl3 2672   2.637   3.668   2.075
  502TCM     c1 2673   1.675   0.497   2.596
  502TCM    cl1 2674   1.777   0.572   2.469
  502TCM    cl2 2675   1.509   0.565   2.588
  502TCM     h1 2676   1.670   0.389   2.581
  502TCM    cl3 2677   1.747   0.532   2.757
  503TCM     c1 2678   4.902   0.146   2.762
  503TCM    cl1 2679   4.821   0.267   2.655
  503TCM    cl2 2680   5.075   0.189   2.779
  503TCM     h1 2681   4.854   0.146   2.860
  503TCM    cl3 2682   4.889  -0.017   2.689
  504TCM     c1 2683   2.585   3.834   3.030
  504TCM    cl1 2684   2.513   3.860   2.868
  504TCM    cl2 2685   2.704   3.700   3.021
  504TCM     h1 2686   2.635   3.925   3.064
  504TCM    cl3 2687   2.455   3.791   3.147
  505TCM     c1 2688   0.321   4.957   4.950
  505TCM    cl1 2689   0.350   4.834   5.078
  505TCM    cl2 2690   0.191   4.901   4.840
  505TCM     h1 2691   0.292   5.052   4.996
  505TCM    cl3 2692   0.470   4.981   4.854
  506TCM     c1 2693   1.511   4.070   0.014
  506TCM    cl1 2694   1.370   3.964   0.046
  506TCM    cl2 2695   1.620   4.068   0.157
  506TCM     h1 2696   1.565   4.034  -0.074
  506TCM    cl3 2697   1.454   4.238  -0.016
  507TCM     c1 2698   0.487   1.792   3.302
  507TCM    cl1 2699   0.436   1.629   3.354
  507TCM    cl2 2700   0.639   1.778   3.207
  507TCM     h1 2701   0.409   1.838   3.241
  507TCM    cl3 2702   0.519   1.895   3.446
  508TCM     c1 2703   4.459   0.518   4.700
  508TCM    cl1 2704   4.400   0.558   4.864
  508TCM    cl2 2705   4.319   0.493   4.590
  508TCM     h1 2706   4.520   0.601   4.663
  508TCM    cl3 2707   4.558   0.369   4.706
  509TCM     c1 2708   4.149   2.419   2.441
  509TCM    cl1 2709   4.267   2.285   2.462
  509TCM    cl2 2710   4.230   2.555   2.357
  509TCM     h1 2711   4.064   2.384   2.382
  509TCM    cl3 2712   4.093   2.474   2.602
  510TCM     c1 2713   3.447   4.666   1.620
  510TCM    cl1 2714   3.467   4.842   1.589
  510TCM    cl2 2715   3.388   4.586   1.470
  510TCM     h1 2716   3.543   4.623   1.650
  510TCM    cl3 2717   3.327   4.643   1.751
  511TCM     c1 2718   0.186   0.050   0.725
  511TCM    cl1 2719   0.009   0.084   0.715
  511TCM    cl2 2720   0.244  -0.008   0.566
  511TCM     h1 2721   0.239   0.141   0.753
  511TCM    cl3 2722   0.214  -0.076   0.849
  512TCM     c1 2723   3.915   4.904   0.087
  512TCM    cl1 2724   3.774   4.795   0.064
  512TCM    cl2 2725   3.916   4.966   0.255
  512TCM     h1 2726   4.008   4.850   0.067
  512TCM    cl3 2727   3.900   5.042  -0.027
  513TCM     c1 2728   0.515   0.198   2.395
  513TCM    cl1 2729   0.356   0.223   2.474
  513TCM    cl2 2730   0.490   0.139   2.227
  513TCM     h1 2731   0.570   0.293   2.393
  513TCM    cl3 2732   0.609   0.075   2.486
  514TCM     c1 2733   2.966   0.199   4.167
  514TCM    cl1 2734   3.088   0.078   4.214
  514TCM    cl2 2735   2.911   0.167   3.999
  514TCM     h1 2736   2.880   0.193   4.235
  514TCM    cl3 2737   3.038   0.363   4.177
  515TCM     c1 2738   4.307   4.161   1.510
  515TCM    cl1 2739   4.485   4.142   1.519
  515TCM    cl2 2740   4.235   4.122   1.670
  515TCM     h1 2741   4.283   4.264   1.484
  515TCM    cl3 2742   4.242   4.050   1.385
  516TCM     c1 2743   3.183   3.977   4.825
  516TCM    cl1 2744   3.191   3.959   4.647
  516TCM    cl2 2745   3.139   3.820   4.899
  516TCM     h1 2746   3.280   4.010   4.863
  516TCM    cl3 2747   3.059   4.100   4.865
  517TCM     c1 2748   2.617   0.350   4.026
  517TCM    cl1 2749   2.604   0.253   4.176
  517TCM    cl2 2750   2.722   0.492   4.056
  517TCM     h1 2751   2.660   0.290   3.946
  517TCM    cl3 2752   2.453   0.406   3.978
  518TCM     c1 2753   3.232   3.318   1.850
  518TCM    cl1 2754   3.266   3.396   2.008
  518TCM    cl2 2755   3.302   3.418   1.718
  518TCM     h1 2756   3.277   3.218   1.848
  518TCM    cl3 2757   3.055   3.305   1.826
  519TCM     c1 2758   1.412   3.374   3.234
  519TCM    cl1 2759   1.484   3.237   3.145
  519TCM    cl2 2760   1.542   3.478   3.301
  519TCM     h1 2761   1.349   3.433   3.166
  519TCM    cl3 2762   1.311   3.311   3.368
  520TCM     c1 2763   2.699   4.168   1.554
  520TCM    cl1 2764   2.847   4.109   1.636
  520TCM    cl2 2765   2.563   4.056   1.590
  520TCM     h1 2766   2.674   4.268   1.590
  520TCM    cl3 2767   2.725   4.175   1.377
  521TCM     c1 2768   0.096   1.751   2.643
  521TCM    cl1 2769   0.167   1.809   2.489
  521TCM    cl2 2770   0.227   1.684   2.746
  521TCM     h1 2771   0.047   1.834   2.695
  521TCM    cl3 2772  -0.023   1.622   2.609
  522TCM     c1 2773   4.405   3.331   2.770
  522TCM    cl1 2774   4.390   3.167   2.697
  522TCM    cl2 2775   4.575   3.386   2.754
  522TCM     h1 2776   4.339   3.400   2.719
  522TCM    cl3 2777   4.361   3.322   2.944
  523TCM     c1 2778   2.591   4.766   2.524
  523TCM    cl1 2779   2.676   4.816   2.374
  523TCM    cl2 2780   2.682   4.825   2.667
  523TCM     h1 2781   2.490   4.808   2.526
  523TCM    cl3 2782   2.581   4.587   2.530
  524TCM     c1 2783   3.007   3.098   2.230
  524TCM    cl1 2784   3.123   3.052   2.102
  524TCM    cl2 2785   2.878   2.973   2.241
  524TCM     h1 2786   3.059   3.105   2.326
  524TCM    cl3 2787   2.933   3.256   2.190
  525TCM     c1 2788   2.011   3.326   4.097
  525TCM    cl1 2789   1.899   3.418   4.203
  525TCM    cl2 2790   1.955   3.339   3.927
  525TCM     h1 2791   2.111   3.368   4.106
  525TCM    cl3 2792   2.013   3.153   4.146
  526TCM     c1 2793   4.848   1.970   0.388
  526TCM    cl1 2794   4.849   2.032   0.556
  526TCM    cl2 2795   4.759   2.085   0.283
  526TCM     h1 2796   4.950   1.959   0.351
  526TCM    cl3 2797   4.765   1.811   0.384
  527TCM     c1 2798   2.078   3.147   1.937
  527TCM    cl1 2799   1.965   3.238   2.042
  527TCM    cl2 2800   2.115   3.245   1.792
  527TCM     h1 2801   2.171   3.125   1.991
  527TCM    cl3 2802   2.000   2.993   1.888
  528TCM     c1 2803   2.077   0.465   4.645
  528TCM    cl1 2804   2.155   0.312   4.695
  528TCM    cl2 2805   2.154   0.603   4.732
  528TCM     h1 2806   2.088   0.479   4.538
  528TCM    cl3 2807   1.902   0.459   4.687
  529TCM     c1 2808   0.270   4.975   3.972
  529TCM    cl1 2809   0.184   5.055   4.107
  529TCM    cl2 2810   0.332   5.100   3.859
  529TCM     h1 2811   0.353   4.915   4.011
  529TCM    cl3 2812   0.156   4.867   3.885
  530TCM     c1 2813   1.768   4.565   1.493
  530TCM    cl1 2814   1.790   4.663   1.344
  530TCM    cl2 2815   1.907   4.592   1.604
  530TCM     h1 2816   1.675   4.593   1.543
  530TCM    cl3 2817   1.764   4.391   1.448
  531TCM     c1 2818   0.101   0.777   3.994
  531TCM    cl1 2819   0.037   0.684   3.854
  531TCM    cl2 2820   0.039   0.706   4.146
  531TCM     h1 2821   0.211   0.773   3.993
  531TCM    cl3 2822   0.047   0.947   3.981
  532TCM     c1 2823   2.346   3.301   0.215
  532TCM    cl1 2824   2.368   3.474   0.173
  532TCM    cl2 2825   2.218   3.231   0.111
  532TCM     h1 2826   2.440   3.247   0.199
  532TCM    cl3 2827   2.297   3.288   0.386
  533TCM     c1 2828   2.695   4.152   0.944
  533TCM    cl1 2829   2.567   4.216   0.837
  533TCM    cl2 2830   2.624   4.033   1.057
  533TCM     h1 2831   2.773   4.104   0.885
  533TCM    cl3 2832   2.767   4.288   1.036
  534TCM     c1 2833   1.471   0.867   3.517
  534TCM    cl1 2834   1.599   0.842   3.393
  534TCM    cl2 2835   1.473   1.039   3.569
  534TCM     h1 2836   1.374   0.842   3.474
  534TCM    cl3 2837   1.503   0.762   3.658
  535TCM     c1 2838   1.672   1.068   2.579
  535TCM    cl1 2839   1.606   0.905   2.614
  535TCM    cl2 2840   1.629   1.179   2.713
  535TCM     h1 2841   1.780   1.062   2.569
  535TCM    cl3 2842   1.601   1.131   2.426
  536TCM     c1 2843   2.112   2.953   3.191
  536TCM    cl1 2844   2.255   2.989   3.089
  536TCM    cl2 2845   2.139   3.019   3.356
  536TCM     h1 2846   2.023   2.998   3.147
  536TCM    cl3 2847   2.091   2.775   3.201
  537TCM     c1 2848   3.758   4.132   2.804
  537TCM    cl1 2849   3.903   4.105   2.907
  537TCM    cl2 2850   3.620   4.037   2.869
  537TCM     h1 2851   3.732   4.238   2.804
  537TCM    cl3 2852   3.793   4.078   2.636
  538TCM     c1 2853   2.840   0.109   0.399
  538TCM    cl1 2854   2.890   0.217   0.533
  538TCM    cl2 2855   2.670   0.059   0.422
  538TCM     h1 2856   2.850   0.161   0.303
  538TCM    cl3 2857   2.946  -0.037   0.400
  539TCM     c1 2858   1.766   3.650   3.955
  539TCM    cl1 2859   1.768   3.813   4.032
  539TCM    cl2 2860   1.789   3.667   3.778
  539TCM     h1 2861   1.847   3.590   3.996
  539TCM    cl3 2862   1.609   3.570   3.987
  540TCM     c1 2863   2.165   2.258   1.104
  540TCM    cl1 2864   2.222   2.326   0.948
  540TCM    cl2 2865   2.088   2.387   1.202
  540TCM     h1 2866   2.092   2.179   1.085
  540TCM    cl3 2867   2.305   2.190   1.194
  541TCM     c1 2868   2.048   1.080   1.924
  541TCM    cl1 2869   2.090   1.218   2.030
  541TCM    cl2 2870   2.023   1.140   1.757
  541TCM     h1 2871   2.129   1.006   1.926
  541TCM    cl3 2872   1.896   1.004   1.984
  542TCM     c1 2873   2.331   2.785   0.259
  542TCM    cl1 2874   2.166   2.747   0.318
  542TCM    cl2 2875   2.394   2.930   0.344
  542TCM     h1 2876   2.398   2.701   0.278
  542TCM    cl3 2877   2.324   2.819   0.082
  543TCM     c1 2878   3.374   2.428   4.167
  543TCM    cl1 2879   3.246   2.311   4.212
  543TCM    cl2 2880   3.513   2.410   4.280
  543TCM     h1 2881   3.407   2.410   4.065
  543TCM    cl3 2882   3.309   2.595   4.180
  544TCM     c1 2883   0.784   0.180   1.801
  544TCM    cl1 2884   0.728   0.229   1.964
  544TCM    cl2 2885   0.642   0.139   1.699
  544TCM     h1 2886   0.840   0.262   1.755
  544TCM    cl3 2887   0.892   0.037   1.814
  545TCM     c1 2888   4.476   4.703   0.580
  545TCM    cl1 2889   4.363   4.682   0.718
  545TCM    cl2 2890   4.608   4.814   0.628
  545TCM     h1 2891   4.517   4.606   0.551
  545TCM    cl3 2892   4.387   4.774   0.442
  546TCM     c1 2893   0.194   4.289   1.006
  546TCM    cl1 2894   0.285   4.239   0.860
  546TCM    cl2 2895   0.020   4.300   0.966
  546TCM     h1 2896   0.209   4.216   1.086
  546TCM    cl3 2897   0.253   4.450   1.061
  547TCM     c1 2898   2.265   2.050   3.694
  547TCM    cl1 2899   2.252   2.126   3.531
  547TCM    cl2 2900   2.409   1.943   3.698
  547TCM     h1 2901   2.276   2.128   3.769
  547TCM    cl3 2902   2.118   1.953   3.727
  548TCM     c1 2903   0.539   3.944   1.095
  548TCM    cl1 2904   0.520   3.960   0.917
  548TCM    cl2 2905   0.427   4.057   1.178
  548TCM     h1 2906   0.517   3.841   1.124
  548TCM    cl3 2907   0.708   3.984   1.140
  549TCM     c1 2908   1.277   3.924   0.409
  549TCM    cl1 2909   1.175   3.876   0.549
  549TCM    cl2 2910   1.394   3.792   0.374
  549TCM     h1 2911   1.214   3.941   0.322
  549TCM    cl3 2912   1.367   4.074   0.449
  550TCM     c1 2913   3.227   2.010   2.501
  550TCM    cl1 2914   3.342   1.923   2.395
  550TCM    cl2 2915   3.210   2.179   2.446
  550TCM     h1 2916   3.129   1.961   2.497
  550TCM    cl3 2917   3.288   2.007   2.670
  551TCM     c1 2918   2.035   2.836   2.265
  551TCM    cl1 2919   2.164   2.952   2.220
  551TCM    cl2 2920   2.022   2.830   2.444
  551TCM     h1 2921   1.940   2.869   2.222
  551TCM    cl3 2922   2.077   2.673   2.203
  552TCM     c1 2923   3.243   0.004   1.863
  552TCM    cl1 2924   3.226   0.183   1.868
  552TCM    cl2 2925   3.080  -0.070   1.879
  552TCM     h1 2926   3.287  -0.026   1.768
  552TCM    cl3 2927   3.348  -0.050   1.997
  553TCM     c1 2928   0.964   2.418   4.126
  553TCM    cl1 2929   1.067   2.538   4.211
  553TCM    cl2 2930   1.019   2.402   3.956
  553TCM     h1 2931   0.970   2.322   4.177
  553TCM    cl3 2932   0.794   2.477   4.129
  554TCM     c1 2933   4.752   3.589   4.835
  554TCM    cl1 2934   4.905   3.594   4.742
  554TCM    cl2 2935   4.619   3.531   4.730
  554TCM     h1 2936   4.764   3.523   4.921
  554TCM    cl3 2937   4.712   3.755   4.891
  555TCM     c1 2938   4.830   1.445   3.515
  555TCM    cl1 2939   4.927   1.544   3.629
  555TCM    cl2 2940   4.925   1.416   3.365
  555TCM     h1 2941   4.805   1.349   3.562
  555TCM    cl3 2942   4.678   1.532   3.474
  556TCM     c1 2943   3.992   2.091   2.689
  556TCM    cl1 2944   3.872   2.084   2.822
  556TCM    cl2 2945   3.914   2.159   2.542
  556TCM     h1 2946   4.076   2.154   2.718
  556TCM    cl3 2947   4.052   1.925   2.653
  557TCM     c1 2948   1.481   2.685   4.951
  557TCM    cl1 2949   1.582   2.827   4.907
  557TCM    cl2 2950   1.325   2.693   4.863
  557TCM     h1 2951   1.534   2.593   4.924
  557TCM    cl3 2952   1.450   2.688   5.128
  558TCM     c1 2953   3.618   1.812   3.032
  558TCM    cl1 2954   3.550   1.950   2.940
  558TCM    cl2 2955   3.693   1.872   3.183
  558TCM     h1 2956   3.538   1.742   3.057
  558TCM    cl3 2957   3.742   1.729   2.933
  559TCM     c1 2958   2.854   4.717   0.671
  559TCM    cl1 2959   2.892   4.866   0.763
  559TCM    cl2 2960   2.689   4.730   0.602
  559TCM     h1 2961   2.926   4.704   0.590
  559TCM    cl3 2962   2.861   4.575   0.781
  560TCM     c1 2963   1.700   3.940   0.714
  560TCM    cl1 2964   1.821   3.829   0.786
  560TCM    cl2 2965   1.539   3.863   0.720
  560TCM     h1 2966   1.698   4.034   0.771
  560TCM    cl3 2967   1.743   3.976   0.543
  561TCM     c1 2968   0.146   3.235   4.917
  561TCM    cl1 2969   0.010   3.340   4.969
  561TCM    cl2 2970   0.082   3.074   4.869
  561TCM     h1 2971   0.197   3.280   4.832
  561TCM    cl3 2972   0.261   3.217   5.054
  562TCM     c1 2973   2.892   0.098   2.883
  562TCM    cl1 2974   3.003   0.203   2.977
  562TCM    cl2 2975   2.732   0.094   2.963
  562TCM     h1 2976   2.882   0.137   2.781
  562TCM    cl3 2977   2.959  -0.068   2.878
  563TCM     c1 2978   4.593   3.837   3.597
  563TCM    cl1 2979   4.504   3.685   3.628
  563TCM    cl2 2980   4.619   3.856   3.421
  563TCM     h1 2981   4.535   3.921   3.635
  563TCM    cl3 2982   4.751   3.831   3.682
  564TCM     c1 2983   1.532   0.927   2.973
  564TCM    cl1 2984   1.696   0.978   3.024
  564TCM    cl2 2985   1.413   0.969   3.101
  564TCM     h1 2986   1.505   0.978   2.880
  564TCM    cl3 2987   1.531   0.750   2.946
  565TCM     c1 2988   3.234   2.414   4.572
  565TCM    cl1 2989   3.393   2.479   4.624
  565TCM    cl2 2990   3.136   2.546   4.500
  565TCM     h1 2991   3.249   2.336   4.498
  565TCM    cl3 2992   3.148   2.347   4.714
  566TCM     c1 2993   2.206   4.187   0.331
  566TCM    cl1 2994   2.244   4.016   0.296
  566TCM    cl2 2995   2.301   4.240   0.474
  566TCM     h1 2996   2.233   4.249   0.244
  566TCM    cl3 2997   2.031   4.203   0.365
  567TCM     c1 2998   3.440   1.585   4.999
  567TCM    cl1 2999   3.607   1.521   4.991
  567TCM    cl2 3000   3.345   1.521   4.861
  567TCM     h1 3001   3.393   1.556   5.093
  567TCM    cl3 3002   3.445   1.764   4.988
  568TCM     c1 3003   2.420   1.555   3.885
  568TCM    cl1 3004   2.566   1.659   3.886
  568TCM    cl2 3005   2.273   1.657   3.893
  568TCM     h1 3006   2.418   1.495   3.793
  568TCM    cl3 3007   2.423   1.445   4.027
  569TCM     c1 3008   1.205   1.059   2.574
  569TCM    cl1 3009   1.254   1.225   2.530
  569TCM    cl2 3010   1.273   1.021   2.736
  569TCM     h1 3011   1.096   1.052   2.577
  569TCM    cl3 3012   1.270   0.942   2.454
  570TCM     c1 3013   2.635   4.262   0.013
  570TCM    cl1 3014   2.745   4.333   0.135
  570TCM    cl2 3015   2.479   4.222   0.092
  570TCM     h1 3016   2.618   4.333  -0.068
  570TCM    cl3 3017   2.708   4.112  -0.052
  571TCM     c1 3018   2.303   4.343   1.351
  571TCM    cl1 3019   2.406   4.378   1.494
  571TCM    cl2 3020   2.133   4.319   1.405
  571TCM     h1 3021   2.307   4.427   1.282
  571TCM    cl3 3022   2.361   4.195   1.270
  572TCM     c1 3023   0.969   2.714   0.020
  572TCM    cl1 3024   0.806   2.739   0.092
  572TCM    cl2 3025   0.957   2.601  -0.119
  572TCM     h1 3026   1.009   2.810  -0.015
  572TCM    cl3 3027   1.079   2.644   0.143
  573TCM     c1 3028   1.668   1.087   1.522
  573TCM    cl1 3029   1.721   1.258   1.528
  573TCM    cl2 3030   1.498   1.077   1.463
  573TCM     h1 3031   1.733   1.031   1.455
  573TCM    cl3 3032   1.677   1.016   1.687
  574TCM     c1 3033   0.264   3.690   3.487
  574TCM    cl1 3034   0.146   3.753   3.607
  574TCM    cl2 3035   0.186   3.679   3.326
  574TCM     h1 3036   0.350   3.756   3.482
  574TCM    cl3 3037   0.317   3.526   3.538
  575TCM     c1 3038   0.023   0.245   3.715
  575TCM    cl1 3039  -0.036   0.394   3.634
  575TCM    cl2 3040  -0.075   0.104   3.661
  575TCM     h1 3041   0.128   0.229   3.691
  575TCM    cl3 3042   0.002   0.263   3.892
  576TCM     c1 3043   4.238   0.151   3.152
  576TCM    cl1 3044   4.208   0.176   3.327
  576TCM    cl2 3045   4.291  -0.018   3.125
  576TCM     h1 3046   4.146   0.171   3.095
  576TCM    cl3 3047   4.367   0.263   3.097
  577TCM     c1 3048   3.250   4.080   1.364
  577TCM    cl1 3049   3.383   4.182   1.426
  577TCM    cl2 3050   3.161   4.006   1.502
  577TCM     h1 3051   3.181   4.141   1.306
  577TCM    cl3 3052   3.316   3.949   1.261
  578TCM     c1 3053   4.513   4.302   3.457
  578TCM    cl1 3054   4.615   4.436   3.393
  578TCM    cl2 3055   4.611   4.200   3.567
  578TCM     h1 3056   4.429   4.345   3.513
  578TCM    cl3 3057   4.450   4.202   3.322
  579TCM     c1 3058   0.850   3.832   0.285
  579TCM    cl1 3059   0.976   3.705   0.286
  579TCM    cl2 3060   0.760   3.826   0.131
  579TCM     h1 3061   0.781   3.817   0.368
  579TCM    cl3 3062   0.929   3.992   0.301
  580TCM     c1 3063   0.550   2.391   0.005
  580TCM    cl1 3064   0.516   2.483   0.155
  580TCM    cl2 3065   0.612   2.503  -0.121
  580TCM     h1 3066   0.624   2.314   0.025
  580TCM    cl3 3067   0.398   2.316  -0.055
  581TCM     c1 3068   1.301   0.111   2.363
  581TCM    cl1 3069   1.240  -0.016   2.475
  581TCM    cl2 3070   1.413   0.037   2.245
  581TCM     h1 3071   1.217   0.158   2.311
  581TCM    cl3 3072   1.389   0.235   2.459
  582TCM     c1 3073   1.035   1.277   3.757
  582TCM    cl1 3074   1.020   1.453   3.784
  582TCM    cl2 3075   0.973   1.235   3.594
  582TCM     h1 3076   1.141   1.248   3.763
  582TCM    cl3 3077   0.941   1.189   3.881
  583TCM     c1 3078   3.708   2.521   3.879
  583TCM    cl1 3079   3.638   2.556   3.718
  583TCM    cl2 3080   3.668   2.353   3.928
  583TCM     h1 3081   3.817   2.533   3.875
  583TCM    cl3 3082   3.640   2.635   4.000
  584TCM     c1 3083   2.092   3.548   4.936
  584TCM    cl1 3084   2.217   3.484   4.825
  584TCM    cl2 3085   1.931   3.541   4.856
  584TCM     h1 3086   2.090   3.488   5.027
  584TCM    cl3 3087   2.130   3.718   4.976
  585TCM     c1 3088   1.384   0.496   0.682
  585TCM    cl1 3089   1.230   0.426   0.622
  585TCM    cl2 3090   1.521   0.393   0.627
  585TCM     h1 3091   1.397   0.597   0.643
  585TCM    cl3 3092   1.382   0.500   0.861
  586TCM     c1 3093   0.338   3.720   0.161
  586TCM    cl1 3094   0.434   3.726   0.010
  586TCM    cl2 3095   0.448   3.730   0.302
  586TCM     h1 3096   0.268   3.804   0.163
  586TCM    cl3 3097   0.247   3.566   0.167
  587TCM     c1 3098   3.032   1.505   3.210
  587TCM    cl1 3099   3.127   1.512   3.058
  587TCM    cl2 3100   2.874   1.426   3.179
  587TCM     h1 3101   3.088   1.448   3.284
  587TCM    cl3 3102   3.004   1.672   3.271
  588TCM     c1 3103   2.690   4.739   0.102
  588TCM    cl1 3104   2.748   4.668   0.256
  588TCM    cl2 3105   2.758   4.647  -0.036
  588TCM     h1 3106   2.581   4.738   0.098
  588TCM    cl3 3107   2.748   4.908   0.092
  589TCM     c1 3108   3.516   3.579   3.159
  589TCM    cl1 3109   3.689   3.532   3.160
  589TCM    cl2 3110   3.497   3.732   3.068
  589TCM     h1 3111   3.457   3.500   3.112
  589TCM    cl3 3112   3.460   3.604   3.328
  590TCM     c1 3113   2.969   3.790   0.753
  590TCM    cl1 3114   2.802   3.842   0.796
  590TCM    cl2 3115   2.986   3.614   0.782
  590TCM     h1 3116   2.987   3.811   0.648
  590TCM    cl3 3117   3.087   3.880   0.853
  591TCM     c1 3118   4.686   4.376   0.865
  591TCM    cl1 3119   4.737   4.488   0.735
  591TCM    cl2 3120   4.696   4.207   0.806
  591TCM     h1 3121   4.752   4.388   0.952
  591TCM    cl3 3122   4.518   4.414   0.913
  592TCM     c1 3123   4.554   3.079   0.310
  592TCM    cl1 3124   4.376   3.076   0.332
  592TCM    cl2 3125   4.629   2.954   0.414
  592TCM     h1 3126   4.578   3.060   0.205
  592TCM    cl3 3127   4.617   3.241   0.357
  593TCM     c1 3128   2.985   1.024   2.071
  593TCM    cl1 3129   2.953   0.862   2.000
  593TCM    cl2 3130   3.037   1.135   1.940
  593TCM     h1 3131   2.895   1.062   2.119
  593TCM    cl3 3132   3.117   1.009   2.192
  594TCM     c1 3133   3.329   4.282   2.535
  594TCM    cl1 3134   3.282   4.442   2.470
  594TCM    cl2 3135   3.189   4.206   2.617
  594TCM     h1 3136   3.363   4.217   2.454
  594TCM    cl3 3137   3.462   4.303   2.654
  595TCM     c1 3138   3.921   3.496   3.438
  595TCM    cl1 3139   3.798   3.604   3.512
  595TCM    cl2 3140   4.011   3.410   3.568
  595TCM     h1 3141   3.872   3.424   3.373
  595TCM    cl3 3142   4.036   3.595   3.341
  596TCM     c1 3143   4.074   0.328   0.123
  596TCM    cl1 3144   4.237   0.395   0.156
  596TCM    cl2 3145   3.995   0.423  -0.007
  596TCM     h1 3146   4.083   0.224   0.092
  596TCM    cl3 3147   3.974   0.337   0.272
  597TCM     c1 3148   3.248   3.114   3.211
  597TCM    cl1 3149   3.314   3.104   3.377
  597TCM    cl2 3150   3.312   2.979   3.112
  597TCM     h1 3151   3.139   3.109   3.214
  597TCM    cl3 3152   3.297   3.270   3.137
  598TCM     c1 3153   0.558   2.584   1.652
  598TCM    cl1 3154   0.589   2.490   1.802
  598TCM    cl2 3155   0.601   2.484   1.510
  598TCM     h1 3156   0.453   2.612   1.648
  598TCM    cl3 3157   0.660   2.732   1.653
  599TCM     c1 3158   0.249   4.392   2.988
  599TCM    cl1 3159   0.352   4.524   3.052
  599TCM    cl2 3160   0.184   4.295   3.124
  599TCM     h1 3161   0.166   4.435   2.931
  599TCM    cl3 3162   0.347   4.287   2.882
  600TCM     c1 3163   2.345   3.296   1.389
  600TCM    cl1 3164   2.499   3.215   1.342
  600TCM    cl2 3165   2.232   3.171   1.451
  600TCM     h1 3166   2.365   3.370   1.467
  600TCM    cl3 3167   2.274   3.376   1.245
  601TCM     c1 3168   0.228   1.423   2.397
  601TCM    cl1 3169   0.312   1.369   2.248
  601TCM    cl2 3170   0.342   1.411   2.534
  601TCM     h1 3171   0.194   1.527   2.385
  601TCM    cl3 3172   0.087   1.316   2.428
  602TCM     c1 3173   3.894   2.916   3.650
  602TCM    cl1 3174   3.727   2.981   3.656
  602TCM    cl2 3175   3.913   2.816   3.502
  602TCM     h1 3176   3.966   2.999   3.647
  602TCM    cl3 3177   3.924   2.815   3.795
  603TCM     c1 3178   1.822   3.216   3.436
  603TCM    cl1 3179   1.859   3.377   3.505
  603TCM    cl2 3180   1.842   3.220   3.258
  603TCM     h1 3181   1.891   3.142   3.479
  603TCM    cl3 3182   1.653   3.171   3.477
  604TCM     c1 3183   2.604   3.189   2.356
  604TCM    cl1 3184   2.439   3.135   2.402
  604TCM    cl2 3185   2.711   3.184   2.499
  604TCM     h1 3186   2.643   3.123   2.278
  604TCM    cl3 3187   2.597   3.357   2.293
  605TCM     c1 3188   1.958   2.675   4.861
  605TCM    cl1 3189   1.835   2.561   4.925
  605TCM    cl2 3190   1.913   2.724   4.695
  605TCM     h1 3191   1.964   2.763   4.926
  605TCM    cl3 3192   2.118   2.592   4.857
  606TCM     c1 3193   4.780   0.841   2.702
  606TCM    cl1 3194   4.619   0.837   2.781
  606TCM    cl2 3195   4.766   0.921   2.542
  606TCM     h1 3196   4.850   0.896   2.764
  606TCM    cl3 3197   4.837   0.673   2.677
  607TCM     c1 3198   0.201   1.982   0.954
  607TCM    cl1 3199   0.131   2.090   0.828
  607TCM    cl2 3200   0.328   2.071   1.043
  607TCM     h1 3201   0.122   1.951   1.023
  607TCM    cl3 3202   0.273   1.838   0.875
  608TCM     c1 3203   3.170   4.078   0.326
  608TCM    cl1 3204   3.103   4.018   0.481
  608TCM    cl2 3205   3.037   4.148   0.229
  608TCM     h1 3206   3.245   4.155   0.346
  608TCM    cl3 3207   3.243   3.942   0.237
  609TCM     c1 3208   2.698   3.959   3.439
  609TCM    cl1 3209   2.820   4.050   3.535
  609TCM    cl2 3210   2.783   3.839   3.337
  609TCM     h1 3211   2.629   3.908   3.506
  609TCM    cl3 3212   2.608   4.072   3.333
  610TCM     c1 3213   2.176   4.274   1.769
  610TCM    cl1 3214   2.204   4.352   1.928
  610TCM    cl2 3215   1.999   4.256   1.741
  610TCM     h1 3216   2.218   4.336   1.690
  610TCM    cl3 3217   2.253   4.112   1.767
  611TCM     c1 3218   1.564   2.040   0.370
  611TCM    cl1 3219   1.574   1.993   0.542
  611TCM    cl2 3220   1.727   2.089   0.313
  611TCM     h1 3221   1.528   1.956   0.311
  611TCM    cl3 3222   1.452   2.179   0.356
  612TCM     c1 3223   0.524   2.730   4.084
  612TCM    cl1 3224   0.429   2.692   3.936
  612TCM    cl2 3225   0.466   2.629   4.220
  612TCM     h1 3226   0.629   2.710   4.065
  612TCM    cl3 3227   0.501   2.903   4.125
  613TCM     c1 3228   0.450   1.445   4.571
  613TCM    cl1 3229   0.506   1.609   4.619
  613TCM    cl2 3230   0.591   1.347   4.521
  613TCM     h1 3231   0.400   1.397   4.656
  613TCM    cl3 3232   0.335   1.458   4.435
  614TCM     c1 3233   0.065   2.881   0.645
  614TCM    cl1 3234  -0.051   3.011   0.605
  614TCM    cl2 3235   0.062   2.756   0.517
  614TCM     h1 3236   0.166   2.923   0.652
  614TCM    cl3 3237   0.020   2.808   0.803
  615TCM     c1 3238   2.235   4.127   4.745
  615TCM    cl1 3239   2.383   4.228   4.744
  615TCM    cl2 3240   2.104   4.214   4.660
  615TCM     h1 3241   2.255   4.032   4.694
  615TCM    cl3 3242   2.185   4.095   4.915
  616TCM     c1 3243   2.862   3.316   2.995
  616TCM    cl1 3244   2.775   3.337   2.840
  616TCM    cl2 3245   2.979   3.450   3.016
  616TCM     h1 3246   2.790   3.316   3.077
  616TCM    cl3 3247   2.951   3.160   2.992
  617TCM     c1 3248   2.821   4.302   0.488
  617TCM    cl1 3249   2.864   4.214   0.639
  617TCM    cl2 3250   2.943   4.429   0.457
  617TCM     h1 3251   2.819   4.232   0.404
  617TCM    cl3 3252   2.659   4.376   0.508
  618TCM     c1 3253   3.474   4.521   0.438
  618TCM    cl1 3254   3.542   4.600   0.291
  618TCM    cl2 3255   3.598   4.412   0.509
  618TCM     h1 3256   3.447   4.597   0.511
  618TCM    cl3 3257   3.329   4.425   0.393
  619TCM     c1 3258   2.404   3.776   0.600
  619TCM    cl1 3259   2.473   3.941   0.615
  619TCM    cl2 3260   2.502   3.662   0.697
  619TCM     h1 3261   2.301   3.776   0.635
  619TCM    cl3 3262   2.409   3.726   0.427
  620TCM     c1 3263   4.166   3.953   3.536
  620TCM    cl1 3264   4.256   3.876   3.401
  620TCM    cl2 3265   4.279   4.057   3.630
  620TCM     h1 3266   4.086   4.015   3.495
  620TCM    cl3 3267   4.098   3.827   3.643
  621TCM     c1 3268   0.186   4.512   4.136
  621TCM    cl1 3269   0.018   4.457   4.109
  621TCM    cl2 3270   0.265   4.405   4.256
  621TCM     h1 3271   0.242   4.508   4.041
  621TCM    cl3 3272   0.184   4.680   4.198
  622TCM     c1 3273   3.964   0.453   3.459
  622TCM    cl1 3274   3.794   0.398   3.473
  622TCM    cl2 3275   3.983   0.610   3.544
  622TCM     h1 3276   4.030   0.379   3.505
  622TCM    cl3 3277   4.007   0.472   3.286
  623TCM     c1 3278   2.418   2.634   3.253
  623TCM    cl1 3279   2.434   2.782   3.353
  623TCM    cl2 3280   2.351   2.502   3.355
  623TCM     h1 3281   2.350   2.653   3.169
  623TCM    cl3 3282   2.580   2.587   3.192
  624TCM     c1 3283   0.050   4.630   2.688
  624TCM    cl1 3284   0.002   4.650   2.860
  624TCM    cl2 3285  -0.049   4.501   2.612
  624TCM     h1 3286   0.036   4.724   2.635
  624TCM    cl3 3287   0.223   4.582   2.681
  625TCM     c1 3288   2.585   0.620   2.008
  625TCM    cl1 3289   2.425   0.590   1.933
  625TCM    cl2 3290   2.597   0.529   2.162
  625TCM     h1 3291   2.664   0.586   1.940
  625TCM    cl3 3292   2.604   0.795   2.040
  626TCM     c1 3293   0.390   2.379   2.748
  626TCM    cl1 3294   0.265   2.296   2.651
  626TCM    cl2 3295   0.484   2.257   2.840
  626TCM     h1 3296   0.457   2.435   2.682
  626TCM    cl3 3297   0.313   2.492   2.864
  627TCM     c1 3298   0.797   4.076   0.712
  627TCM    cl1 3299   0.706   3.973   0.597
  627TCM    cl2 3300   0.904   4.188   0.621
  627TCM     h1 3301   0.727   4.133   0.774
  627TCM    cl3 3302   0.898   3.970   0.817
  628TCM     c1 3303   2.628   3.314   0.508
  628TCM    cl1 3304   2.656   3.178   0.395
  628TCM    cl2 3305   2.661   3.468   0.421
  628TCM     h1 3306   2.525   3.313   0.543
  628TCM    cl3 3307   2.739   3.299   0.649
  629TCM     c1 3308   0.779   0.621   0.845
  629TCM    cl1 3309   0.885   0.531   0.731
  629TCM    cl2 3310   0.634   0.523   0.883
  629TCM     h1 3311   0.834   0.643   0.937
  629TCM    cl3 3312   0.728   0.775   0.768
  630TCM     c1 3313   0.184   2.159   3.047
  630TCM    cl1 3314   0.170   2.039   3.179
  630TCM    cl2 3315   0.104   2.311   3.097
  630TCM     h1 3316   0.289   2.178   3.026
  630TCM    cl3 3317   0.104   2.095   2.900
  631TCM     c1 3318   2.624   0.871   3.229
  631TCM    cl1 3319   2.754   0.938   3.333
  631TCM    cl2 3320   2.482   0.827   3.329
  631TCM     h1 3321   2.595   0.946   3.154
  631TCM    cl3 3322   2.687   0.724   3.147
  632TCM     c1 3323   0.042   1.172   2.089
  632TCM    cl1 3324   0.132   1.247   1.953
  632TCM    cl2 3325   0.027   0.995   2.061
  632TCM     h1 3326   0.096   1.189   2.182
  632TCM    cl3 3327  -0.121   1.245   2.101
  633TCM     c1 3328   3.793   0.390   4.352
  633TCM    cl1 3329   3.806   0.229   4.272
  633TCM    cl2 3330   3.897   0.391   4.499
  633TCM     h1 3331   3.826   0.468   4.283
  633TCM    cl3 3332   3.623   0.418   4.400
  634TCM     c1 3333   4.890   0.691   4.742
  634TCM    cl1 3334   4.905   0.515   4.772
  634TCM    cl2 3335   5.016   0.778   4.835
  634TCM     h1 3336   4.903   0.711   4.635
  634TCM    cl3 3337   4.729   0.748   4.795
  635TCM     c1 3338   2.927   0.306   1.189
  635TCM    cl1 3339   3.096   0.275   1.239
  635TCM    cl2 3340   2.860   0.438   1.290
  635TCM     h1 3341   2.925   0.334   1.083
  635TCM    cl3 3342   2.831   0.157   1.214
  636TCM     c1 3343   2.051   1.379   3.773
  636TCM    cl1 3344   2.048   1.344   3.948
  636TCM    cl2 3345   1.915   1.294   3.693
  636TCM     h1 3346   2.042   1.487   3.757
  636TCM    cl3 3347   2.205   1.320   3.704
  637TCM     c1 3348   3.277   1.324   2.135
  637TCM    cl1 3349   3.303   1.485   2.061
  637TCM    cl2 3350   3.310   1.332   2.311
  637TCM     h1 3351   3.173   1.293   2.119
  637TCM    cl3 3352   3.387   1.204   2.060
  638TCM     c1 3353   3.679   2.014   4.087
  638TCM    cl1 3354   3.666   1.838   4.053
  638TCM    cl2 3355   3.796   2.040   4.220
  638TCM     h1 3356   3.713   2.066   3.997
  638TCM    cl3 3357   3.519   2.078   4.138
  639TCM     c1 3358   1.418   2.290   4.113
  639TCM    cl1 3359   1.270   2.229   4.193
  639TCM    cl2 3360   1.391   2.460   4.061
  639TCM     h1 3361   1.502   2.285   4.182
  639TCM    cl3 3362   1.453   2.188   3.969
  640TCM     c1 3363   1.368   0.349   1.929
  640TCM    cl1 3364   1.495   0.356   2.055
  640TCM    cl2 3365   1.275   0.196   1.946
  640TCM     h1 3366   1.301   0.434   1.940
  640TCM    cl3 3367   1.445   0.353   1.766
   5.00000   5.00000   5.00000
