Glycine aRginine prOline Methionine Alanine Cystine Serine
 3367
    1MOM     C1    1   0.916   1.898   0.918
    1MOM     O2    2   1.018   1.834   0.994
    1MOM     C3    3   1.073   1.721   0.941
    1MOM     C4    4   1.033   1.659   0.823
    1MOM     C5    5   1.096   1.541   0.782
    1MOM     C6    6   1.200   1.483   0.857
    1MOM     C7    7   1.253   1.353   0.813
    1MOM     C8    8   1.314   1.336   0.687
    1MOM     C9    9   1.360   1.210   0.645
    1MOM    C10   10   1.427   1.200   0.512
    1MOM    O11   11   1.432   1.290   0.431
    1MOM    C12   12   1.343   1.099   0.728
    1MOM    C13   13   1.285   1.113   0.853
    1MOM    C14   14   1.240   1.239   0.895
    1MOM    C15   15   1.243   1.548   0.975
    1MOM    C16   16   1.354   1.497   1.059
    1MOM    C17   17   1.329   1.464   1.194
    1MOM    C18   18   1.432   1.412   1.276
    1MOM    C19   19   1.400   1.373   1.418
    1MOM    C20   20   1.472   1.467   1.516
    1MOM    N21   21   1.427   1.234   1.451
    1MOM    C22   22   1.560   1.393   1.221
    1MOM    C23   23   1.586   1.428   1.089
    1MOM    C24   24   1.484   1.480   1.009
    1MOM    C25   25   1.178   1.666   1.015
    1MOM    H26   26   0.828   1.833   0.907
    1MOM    H27   27   0.955   1.931   0.821
    1MOM    H28   28   0.884   1.987   0.973
    1MOM    H29   29   0.951   1.696   0.762
    1MOM    H30   30   1.060   1.492   0.692
    1MOM    H31   31   1.327   1.422   0.622
    1MOM    H32   32   1.376   1.000   0.696
    1MOM    H33   33   1.275   1.028   0.919
    1MOM    H34   34   1.195   1.248   0.993
    1MOM    H35   35   1.228   1.475   1.233
    1MOM    H36   36   1.292   1.385   1.435
    1MOM    H37   37   1.581   1.457   1.510
    1MOM    H38   38   1.446   1.571   1.496
    1MOM    H39   39   1.443   1.443   1.619
    1MOM    H40   40   1.434   1.218   1.551
    1MOM    H41   41   1.639   1.350   1.282
    1MOM    H42   42   1.685   1.412   1.047
    1MOM    H43   43   1.505   1.505   0.906
    1MOM    H44   44   1.208   1.717   1.106
    2MOM    C45   45   0.934   0.359   1.036
    2MOM    O46   46   0.864   0.449   1.122
    2MOM    C47   47   0.939   0.542   1.187
    2MOM    C48   48   1.077   0.555   1.180
    2MOM    C49   49   1.141   0.653   1.258
    2MOM    C50   50   1.070   0.739   1.344
    2MOM    C51   51   1.145   0.832   1.430
    2MOM    C52   52   1.228   0.930   1.372
    2MOM    C53   53   1.296   1.025   1.450
    2MOM    C54   54   1.366   1.134   1.377
    2MOM    O55   55   1.362   1.135   1.255
    2MOM    C56   56   1.284   1.019   1.590
    2MOM    C57   57   1.204   0.920   1.648
    2MOM    C58   58   1.135   0.829   1.569
    2MOM    C59   59   0.929   0.729   1.347
    2MOM    C60   60   0.842   0.816   1.429
    2MOM    C61   61   0.758   0.761   1.527
    2MOM    C62   62   0.680   0.840   1.612
    2MOM    C63   63   0.598   0.773   1.720
    2MOM    C64   64   0.449   0.789   1.689
    2MOM    N65   65   0.629   0.817   1.855
    2MOM    C66   66   0.685   0.980   1.597
    2MOM    C67   67   0.766   1.037   1.498
    2MOM    C68   68   0.843   0.956   1.415
    2MOM    C69   69   0.866   0.628   1.269
    2MOM    H70   70   1.006   0.299   1.093
    2MOM    H71   71   0.983   0.413   0.955
    2MOM    H72   72   0.860   0.290   0.992
    2MOM    H73   73   1.139   0.493   1.117
    2MOM    H74   74   1.250   0.661   1.252
    2MOM    H75   75   1.233   0.937   1.263
    2MOM    H76   76   1.332   1.090   1.655
    2MOM    H77   77   1.192   0.918   1.756
    2MOM    H78   78   1.071   0.755   1.618
    2MOM    H79   79   0.759   0.652   1.542
    2MOM    H80   80   0.620   0.666   1.720
    2MOM    H81   81   0.417   0.893   1.691
    2MOM    H82   82   0.425   0.747   1.592
    2MOM    H83   83   0.389   0.735   1.765
    2MOM    H84   84   0.555   0.798   1.921
    2MOM    H85   85   0.628   1.043   1.664
    2MOM    H86   86   0.770   1.144   1.488
    2MOM    H87   87   0.906   1.003   1.340
    2MOM    H88   88   0.757   0.617   1.273
    3MOM    C89   89   1.571   0.771   2.395
    3MOM    O90   90   1.482   0.659   2.391
    3MOM    C91   91   1.356   0.683   2.344
    3MOM    C92   92   1.305   0.805   2.301
    3MOM    C93   93   1.173   0.815   2.259
    3MOM    C94   94   1.086   0.703   2.258
    3MOM    C95   95   0.946   0.722   2.219
    3MOM    C96   96   0.913   0.768   2.091
    3MOM    C97   97   0.780   0.781   2.048
    3MOM    C98   98   0.759   0.814   1.904
    3MOM    O99   99   0.857   0.828   1.832
    3MOM   C100  100   0.676   0.751   2.137
    3MOM   C101  101   0.707   0.706   2.266
    3MOM   C102  102   0.840   0.692   2.306
    3MOM   C103  103   1.139   0.577   2.298
    3MOM   C104  104   1.060   0.453   2.297
    3MOM   C105  105   1.042   0.381   2.416
    3MOM   C106  106   0.965   0.264   2.420
    3MOM   C107  107   0.942   0.196   2.553
    3MOM   C108  108   1.006   0.058   2.556
    3MOM   N109  109   0.800   0.190   2.589
    3MOM   C110  110   0.905   0.218   2.302
    3MOM   C111  111   0.923   0.287   2.183
    3MOM   C112  112   1.001   0.403   2.180
    3MOM   C113  113   1.273   0.571   2.341
    3MOM   H114  114   1.531   0.850   2.460
    3MOM   H115  115   1.592   0.807   2.294
    3MOM   H116  116   1.666   0.735   2.438
    3MOM   H117  117   1.366   0.895   2.299
    3MOM   H118  118   1.135   0.912   2.228
    3MOM   H119  119   0.994   0.788   2.020
    3MOM   H120  120   0.572   0.759   2.110
    3MOM   H121  121   0.628   0.678   2.334
    3MOM   H122  122   0.860   0.653   2.406
    3MOM   H123  123   1.083   0.421   2.508
    3MOM   H124  124   0.988   0.256   2.633
    3MOM   H125  125   0.961  -0.009   2.482
    3MOM   H126  126   1.113   0.065   2.536
    3MOM   H127  127   0.993   0.011   2.655
    3MOM   H128  128   0.781   0.118   2.656
    3MOM   H129  129   0.840   0.131   2.305
    3MOM   H130  130   0.874   0.253   2.092
    3MOM   H131  131   1.014   0.455   2.086
    3MOM   H132  132   1.314   0.475   2.373
    4MOM   C133  133   0.068   0.984   2.754
    4MOM   O134  134   0.159   0.945   2.856
    4MOM   C135  135   0.230   0.829   2.835
    4MOM   C136  136   0.220   0.747   2.723
    4MOM   C137  137   0.296   0.630   2.715
    4MOM   C138  138   0.385   0.592   2.819
    4MOM   C139  139   0.455   0.463   2.805
    4MOM   C140  140   0.548   0.439   2.703
    4MOM   C141  141   0.619   0.317   2.695
    4MOM   C142  142   0.725   0.306   2.593
    4MOM   O143  143   0.746   0.405   2.523
    4MOM   C144  144   0.594   0.217   2.788
    4MOM   C145  145   0.499   0.238   2.885
    4MOM   C146  146   0.429   0.359   2.893
    4MOM   C147  147   0.396   0.676   2.933
    4MOM   C148  148   0.485   0.647   3.049
    4MOM   C149  149   0.433   0.636   3.180
    4MOM   C150  150   0.513   0.609   3.291
    4MOM   C151  151   0.451   0.596   3.430
    4MOM   C152  152   0.494   0.712   3.519
    4MOM   N153  153   0.486   0.469   3.493
    4MOM   C154  154   0.651   0.590   3.270
    4MOM   C155  155   0.706   0.602   3.142
    4MOM   C156  156   0.623   0.632   3.033
    4MOM   C157  157   0.317   0.793   2.938
    4MOM   H158  158  -0.010   0.909   2.739
    4MOM   H159  159   0.121   1.006   2.661
    4MOM   H160  160   0.020   1.076   2.787
    4MOM   H161  161   0.154   0.770   2.641
    4MOM   H162  162   0.285   0.567   2.629
    4MOM   H163  163   0.570   0.518   2.631
    4MOM   H164  164   0.646   0.122   2.790
    4MOM   H165  165   0.484   0.158   2.958
    4MOM   H166  166   0.353   0.374   2.969
    4MOM   H167  167   0.325   0.649   3.195
    4MOM   H168  168   0.343   0.599   3.420
    4MOM   H169  169   0.602   0.711   3.539
    4MOM   H170  170   0.468   0.808   3.474
    4MOM   H171  171   0.443   0.706   3.616
    4MOM   H172  172   0.463   0.465   3.591
    4MOM   H173  173   0.716   0.565   3.353
    4MOM   H174  174   0.813   0.588   3.127
    4MOM   H175  175   0.669   0.641   2.935
    4MOM   H176  176   0.324   0.859   3.024
    5CAP   C177  177   1.612   1.062   0.536
    5CAP   O178  178   1.478   1.076   0.490
    5CAP   H179  179   1.672   1.151   0.514
    5CAP   H180  180   1.658   0.976   0.485
    5CAP   H181  181   1.613   1.041   0.643
    6CAP   C182  182   0.163   0.319   3.212
    6CAP   C183  183   0.285   0.258   3.284
    6CAP   C184  184   0.244   0.133   3.361
    6CAP   C185  185   0.390   0.222   3.183
    6CAP   O186  186   0.332   0.363   3.369
    6CAP   C187  187   0.449   0.350   3.437
    6CAP   O188  188   0.513   0.247   3.450
    6CAP   H189  189   0.119   0.249   3.139
    6CAP   H190  190   0.086   0.347   3.284
    6CAP   H191  191   0.191   0.410   3.159
    6CAP   H192  192   0.174   0.156   3.442
    6CAP   H193  193   0.331   0.084   3.407
    6CAP   H194  194   0.198   0.059   3.294
    6CAP   H195  195   0.437   0.315   3.147
    6CAP   H196  196   0.473   0.163   3.224
    6CAP   H197  197   0.345   0.164   3.102
    1TCM     c1  198   4.332   0.347   2.671
    1TCM    cl1  199   4.444   0.469   2.607
    1TCM    cl2  200   4.322   0.363   2.848
    1TCM     h1  201   4.232   0.361   2.627
    1TCM    cl3  202   4.393   0.184   2.630
    1TCM     c1  203   1.816   2.542   4.312
    1TCM    cl1  204   1.742   2.454   4.177
    1TCM    cl2  205   1.743   2.490   4.465
    1TCM     h1  206   1.926   2.521   4.314
    1TCM    cl3  207   1.790   2.717   4.290
    1TCM     c1  208   1.883   2.327   0.975
    1TCM    cl1  209   1.786   2.315   0.826
    1TCM    cl2  210   1.887   2.169   1.056
    1TCM     h1  211   1.987   2.358   0.949
    1TCM    cl3  212   1.811   2.448   1.083
    1TCM     c1  213   2.751   0.660   3.823
    1TCM    cl1  214   2.869   0.562   3.733
    1TCM    cl2  215   2.640   0.552   3.911
    1TCM     h1  216   2.805   0.725   3.896
    1TCM    cl3  217   2.659   0.761   3.711
    1TCM     c1  218   2.117   1.741   2.848
    1TCM    cl1  219   2.238   1.614   2.875
    1TCM    cl2  220   2.067   1.740   2.677
    1TCM     h1  221   2.028   1.722   2.912
    1TCM    cl3  222   2.186   1.899   2.888
    1TCM     c1  223   5.033   1.263   0.559
    1TCM    cl1  224   5.012   1.326   0.724
    1TCM    cl2  225   5.207   1.256   0.520
    1TCM     h1  226   4.989   1.161   0.552
    1TCM    cl3  227   4.951   1.371   0.444
    1TCM     c1  228   2.849   0.888   2.522
    1TCM    cl1  229   2.732   0.769   2.460
    1TCM    cl2  230   2.917   0.829   2.676
    1TCM     h1  231   2.931   0.901   2.449
    1TCM    cl3  232   2.767   1.043   2.549
    1TCM     c1  233   3.756   4.053   4.779
    1TCM    cl1  234   3.841   4.204   4.818
    1TCM    cl2  235   3.676   4.069   4.621
    1TCM     h1  236   3.829   3.969   4.774
    1TCM    cl3  237   3.634   4.019   4.904
    1TCM     c1  238   0.777   4.167   3.470
    1TCM    cl1  239   0.602   4.158   3.439
    1TCM    cl2  240   0.857   4.025   3.400
    1TCM     h1  241   0.818   4.259   3.424
    1TCM    cl3  242   0.805   4.171   3.646
    1TCM     c1  243   3.912   1.288   2.632
    1TCM    cl1  244   4.062   1.325   2.720
    1TCM    cl2  245   3.943   1.157   2.515
    1TCM     h1  246   3.834   1.256   2.703
    1TCM    cl3  247   3.858   1.433   2.545
    1TCM     c1  248   4.909   3.077   4.464
    1TCM    cl1  249   4.973   2.966   4.587
    1TCM    cl2  250   4.999   3.231   4.471
    1TCM     h1  251   4.921   3.032   4.363
    1TCM    cl3  252   4.737   3.108   4.495
    1TCM     c1  253   0.584   2.975   1.446
    1TCM    cl1  254   0.730   2.951   1.346
    1TCM    cl2  255   0.546   2.825   1.532
    1TCM     h1  256   0.603   3.056   1.519
    1TCM    cl3  257   0.448   3.020   1.341
    1TCM     c1  258   1.469   1.822   2.513
    1TCM    cl1  259   1.459   1.706   2.379
    1TCM    cl2  260   1.352   1.778   2.639
    1TCM     h1  261   1.571   1.822   2.555
    1TCM    cl3  262   1.431   1.985   2.452
    1TCM     c1  263   4.298   4.430   0.716
    1TCM    cl1  264   4.220   4.514   0.580
    1TCM    cl2  265   4.176   4.338   0.806
    1TCM     h1  266   4.376   4.361   0.677
    1TCM    cl3  267   4.373   4.550   0.824
    1TCM     c1  268   2.432   5.268   3.723
    1TCM    cl1  269   2.302   5.330   3.619
    1TCM    cl2  270   2.409   5.328   3.889
    1TCM     h1  271   2.430   5.157   3.724
    1TCM    cl3  272   2.589   5.324   3.662
    1TCM     c1  273   2.907   1.915   3.092
    1TCM    cl1  274   2.737   1.881   3.052
    1TCM    cl2  275   3.012   1.849   2.965
    1TCM     h1  276   2.922   2.024   3.100
    1TCM    cl3  277   2.947   1.838   3.248
    1TCM     c1  278   0.680   3.116   5.017
    1TCM    cl1  279   0.647   2.942   5.036
    1TCM    cl2  280   0.574   3.182   4.890
    1TCM     h1  281   0.660   3.168   5.113
    1TCM    cl3  282   0.850   3.139   4.970
    1TCM     c1  283   4.593   3.546   2.164
    1TCM    cl1  284   4.676   3.648   2.044
    1TCM    cl2  285   4.622   3.374   2.126
    1TCM     h1  286   4.632   3.568   2.265
    1TCM    cl3  287   4.418   3.579   2.159
    1TCM     c1  288   5.199   3.671   4.887
    1TCM    cl1  289   5.053   3.667   4.786
    1TCM    cl2  290   5.225   3.836   4.947
    1TCM     h1  291   5.187   3.602   4.973
    1TCM    cl3  292   5.340   3.620   4.791
    1TCM     c1  293   2.137   1.163   3.463
    1TCM    cl1  294   2.212   1.097   3.610
    1TCM    cl2  295   2.263   1.232   3.358
    1TCM     h1  296   2.084   1.083   3.409
    1TCM    cl3  297   2.022   1.291   3.509
    1TCM     c1  298   1.149   2.087   2.761
    1TCM    cl1  299   1.068   2.171   2.627
    1TCM    cl2  300   1.070   2.131   2.914
    1TCM     h1  301   1.142   1.978   2.745
    1TCM    cl3  302   1.320   2.136   2.766
    1TCM     c1  303   3.149   4.742   4.847
    1TCM    cl1  304   3.284   4.641   4.905
    1TCM    cl2  305   3.002   4.702   4.940
    1TCM     h1  306   3.174   4.849   4.861
    1TCM    cl3  307   3.120   4.709   4.675
    1TCM     c1  308   2.717   2.483   2.009
    1TCM    cl1  309   2.745   2.311   1.970
    1TCM    cl2  310   2.726   2.506   2.185
    1TCM     h1  311   2.795   2.545   1.959
    1TCM    cl3  312   2.557   2.531   1.950
    1TCM     c1  313   2.753   2.030   5.067
    1TCM    cl1  314   2.630   1.954   4.963
    1TCM    cl2  315   2.742   1.962   5.231
    1TCM     h1  316   2.854   2.010   5.025
    1TCM    cl3  317   2.724   2.205   5.073
    1TCM     c1  318   5.014   0.250   1.340
    1TCM    cl1  319   4.910   0.389   1.377
    1TCM    cl2  320   5.156   0.253   1.447
    1TCM     h1  321   4.958   0.156   1.356
    1TCM    cl3  322   5.068   0.259   1.171
    1TCM     c1  323   3.097   0.938   1.155
    1TCM    cl1  324   3.204   1.026   1.266
    1TCM    cl2  325   3.129   0.991   0.988
    1TCM     h1  326   3.117   0.829   1.163
    1TCM    cl3  327   2.927   0.971   1.196
    1TCM     c1  328   3.942   3.269   1.886
    1TCM    cl1  329   3.838   3.175   1.995
    1TCM    cl2  330   3.948   3.190   1.727
    1TCM     h1  331   3.901   3.372   1.874
    1TCM    cl3  332   4.107   3.278   1.953
    1TCM     c1  333   1.113   0.851   3.652
    1TCM    cl1  334   1.289   0.875   3.658
    1TCM    cl2  335   1.032   1.005   3.690
    1TCM     h1  336   1.084   0.818   3.551
    1TCM    cl3  337   1.066   0.729   3.772
    1TCM     c1  338   0.705   5.198   4.110
    1TCM    cl1  339   0.763   5.059   4.204
    1TCM    cl2  340   0.675   5.147   3.942
    1TCM     h1  341   0.611   5.236   4.154
    1TCM    cl3  342   0.828   5.327   4.111
    1TCM     c1  343   2.847   3.639   3.480
    1TCM    cl1  344   2.924   3.498   3.556
    1TCM    cl2  345   2.818   3.764   3.603
    1TCM     h1  346   2.914   3.680   3.401
    1TCM    cl3  347   2.693   3.591   3.407
    1TCM     c1  348   0.428   0.931   2.422
    1TCM    cl1  349   0.317   0.890   2.555
    1TCM    cl2  350   0.363   0.868   2.269
    1TCM     h1  351   0.438   1.041   2.415
    1TCM    cl3  352   0.587   0.859   2.453
    1TCM     c1  353   4.953   1.994   2.147
    1TCM    cl1  354   5.100   1.919   2.081
    1TCM    cl2  355   4.849   2.048   2.013
    1TCM     h1  356   4.898   1.921   2.209
    1TCM    cl3  357   4.997   2.135   2.247
    1TCM     c1  358   1.275   3.600   2.351
    1TCM    cl1  359   1.113   3.584   2.279
    1TCM    cl2  360   1.381   3.474   2.284
    1TCM     h1  361   1.316   3.700   2.327
    1TCM    cl3  362   1.263   3.580   2.527
    1TCM     c1  363   3.906   1.405   2.055
    1TCM    cl1  364   3.739   1.466   2.065
    1TCM    cl2  365   4.018   1.543   2.043
    1TCM     h1  366   3.930   1.346   2.145
    1TCM    cl3  367   3.923   1.303   1.910
    1TCM     c1  368   0.819   2.231   2.148
    1TCM    cl1  369   0.968   2.264   2.238
    1TCM    cl2  370   0.803   2.056   2.121
    1TCM     h1  371   0.732   2.267   2.206
    1TCM    cl3  372   0.825   2.314   1.991
    1TCM     c1  373   2.171   3.768   1.730
    1TCM    cl1  374   2.078   3.679   1.852
    1TCM    cl2  375   2.108   3.731   1.568
    1TCM     h1  376   2.162   3.877   1.749
    1TCM    cl3  377   2.342   3.720   1.740
    1TCM     c1  378   1.031   4.527   1.151
    1TCM    cl1  379   0.948   4.504   1.307
    1TCM    cl2  380   1.043   4.701   1.116
    1TCM     h1  381   1.133   4.483   1.157
    1TCM    cl3  382   0.938   4.447   1.022
    1TCM     c1  383   0.242   1.301   4.808
    1TCM    cl1  384   0.369   1.230   4.707
    1TCM    cl2  385   0.301   1.319   4.975
    1TCM     h1  386   0.214   1.401   4.768
    1TCM    cl3  387   0.099   1.195   4.807
    1TCM     c1  388   1.333   3.875   4.782
    1TCM    cl1  389   1.429   3.979   4.889
    1TCM    cl2  390   1.402   3.879   4.618
    1TCM     h1  391   1.334   3.771   4.820
    1TCM    cl3  392   1.166   3.935   4.776
    1TCM     c1  393   0.327   0.755   4.835
    1TCM    cl1  394   0.252   0.615   4.754
    1TCM    cl2  395   0.469   0.700   4.927
    1TCM     h1  396   0.358   0.829   4.760
    1TCM    cl3  397   0.209   0.829   4.946
    1TCM     c1  398   1.120   4.277   2.260
    1TCM    cl1  399   0.996   4.329   2.376
    1TCM    cl2  400   1.275   4.356   2.299
    1TCM     h1  401   1.132   4.167   2.265
    1TCM    cl3  402   1.071   4.323   2.095
    1TCM     c1  403   3.685   4.099   0.159
    1TCM    cl1  404   3.802   3.987   0.231
    1TCM    cl2  405   3.770   4.242   0.097
    1TCM     h1  406   3.631   4.049   0.076
    1TCM    cl3  407   3.568   4.150   0.283
    1TCM     c1  408   1.793   1.562   1.416
    1TCM    cl1  409   1.839   1.400   1.357
    1TCM    cl2  410   1.645   1.615   1.334
    1TCM     h1  411   1.776   1.557   1.526
    1TCM    cl3  412   1.925   1.676   1.382
    1TCM     c1  413   3.564   0.662   2.319
    1TCM    cl1  414   3.487   0.808   2.253
    1TCM    cl2  415   3.472   0.518   2.269
    1TCM     h1  416   3.668   0.654   2.282
    1TCM    cl3  417   3.566   0.671   2.497
    1TCM     c1  418   0.115   0.657   2.006
    1TCM    cl1  419   0.281   0.711   2.039
    1TCM    cl2  420   0.079   0.677   1.833
    1TCM     h1  421   0.105   0.550   2.033
    1TCM    cl3  422   0.001   0.753   2.102
    1TCM     c1  423   3.905   2.624   1.114
    1TCM    cl1  424   3.766   2.721   1.170
    1TCM    cl2  425   3.864   2.452   1.121
    1TCM     h1  426   3.929   2.652   1.009
    1TCM    cl3  427   4.045   2.656   1.217
    1TCM     c1  428   4.174   0.099   0.776
    1TCM    cl1  429   4.305   0.026   0.682
    1TCM    cl2  430   4.216   0.096   0.949
    1TCM     h1  431   4.159   0.205   0.744
    1TCM    cl3  432   4.023   0.008   0.750
    1TCM     c1  433   4.857   1.702   3.360
    1TCM    cl1  434   4.910   1.870   3.335
    1TCM    cl2  435   4.972   1.592   3.282
    1TCM     h1  436   4.853   1.681   3.469
    1TCM    cl3  437   4.696   1.680   3.289
    1TCM     c1  438   2.096   3.683   2.514
    1TCM    cl1  439   1.927   3.731   2.489
    1TCM    cl2  440   2.104   3.551   2.633
    1TCM     h1  441   2.139   3.648   2.417
    1TCM    cl3  442   2.189   3.822   2.574
    1TCM     c1  443   0.580   0.263   4.873
    1TCM    cl1  444   0.469   0.177   4.763
    1TCM    cl2  445   0.710   0.153   4.923
    1TCM     h1  446   0.623   0.351   4.820
    1TCM    cl3  447   0.490   0.318   5.016
    1TCM     c1  448   4.684   0.618   4.448
    1TCM    cl1  449   4.710   0.446   4.409
    1TCM    cl2  450   4.779   0.661   4.592
    1TCM     h1  451   4.717   0.680   4.362
    1TCM    cl3  452   4.512   0.647   4.479
    1TCM     c1  453   3.841   4.711   1.539
    1TCM    cl1  454   3.863   4.854   1.436
    1TCM    cl2  455   3.805   4.762   1.705
    1TCM     h1  456   3.756   4.650   1.500
    1TCM    cl3  457   3.989   4.613   1.538
    1TCM     c1  458   4.502   4.561   4.898
    1TCM    cl1  459   4.544   4.575   5.070
    1TCM    cl2  460   4.435   4.715   4.841
    1TCM     h1  461   4.593   4.536   4.840
    1TCM    cl3  462   4.381   4.432   4.877
    1TCM     c1  463   3.949   4.273   1.737
    1TCM    cl1  464   3.820   4.394   1.711
    1TCM    cl2  465   3.995   4.273   1.909
    1TCM     h1  466   3.912   4.173   1.708
    1TCM    cl3  467   4.090   4.316   1.638
    1TCM     c1  468   3.873   4.042   3.391
    1TCM    cl1  469   3.881   3.963   3.549
    1TCM    cl2  470   4.032   4.030   3.311
    1TCM     h1  471   3.796   3.993   3.328
    1TCM    cl3  472   3.831   4.214   3.412
    1TCM     c1  473   0.427   1.027   3.441
    1TCM    cl1  474   0.599   0.984   3.457
    1TCM    cl2  475   0.358   0.943   3.300
    1TCM     h1  476   0.372   0.997   3.533
    1TCM    cl3  477   0.411   1.203   3.418
    1TCM     c1  478   3.052   2.652   2.852
    1TCM    cl1  479   2.943   2.511   2.854
    1TCM    cl2  480   3.056   2.725   3.014
    1TCM     h1  481   3.154   2.619   2.823
    1TCM    cl3  482   2.992   2.771   2.735
    1TCM     c1  483   3.725   2.484   2.456
    1TCM    cl1  484   3.842   2.617   2.441
    1TCM    cl2  485   3.809   2.328   2.436
    1TCM     h1  486   3.677   2.487   2.556
    1TCM    cl3  487   3.600   2.500   2.330
    1TCM     c1  488   5.004   0.680   2.443
    1TCM    cl1  489   4.930   0.565   2.557
    1TCM    cl2  490   4.937   0.655   2.281
    1TCM     h1  491   4.983   0.784   2.476
    1TCM    cl3  492   5.180   0.654   2.439
    1TCM     c1  493   0.694   0.088   3.233
    1TCM    cl1  494   0.668   0.264   3.233
    1TCM    cl2  495   0.866   0.054   3.260
    1TCM     h1  496   0.634   0.042   3.314
    1TCM    cl3  497   0.644   0.021   3.076
    1TCM     c1  498   5.239   3.693   1.389
    1TCM    cl1  499   5.340   3.550   1.355
    1TCM    cl2  500   5.091   3.686   1.290
    1TCM     h1  501   5.212   3.694   1.496
    1TCM    cl3  502   5.330   3.840   1.349
    1TCM     c1  503   1.472   3.303   0.960
    1TCM    cl1  504   1.547   3.270   0.803
    1TCM    cl2  505   1.531   3.187   1.081
    1TCM     h1  506   1.497   3.406   0.993
    1TCM    cl3  507   1.295   3.288   0.946
    1TCM     c1  508   4.872   0.147   2.169
    1TCM    cl1  509   4.698   0.111   2.182
    1TCM    cl2  510   4.926   0.118   2.003
    1TCM     h1  511   4.889   0.254   2.196
    1TCM    cl3  512   4.962   0.043   2.281
    1TCM     c1  513   2.675   4.478   4.243
    1TCM    cl1  514   2.708   4.622   4.144
    1TCM    cl2  515   2.680   4.523   4.415
    1TCM     h1  516   2.574   4.439   4.218
    1TCM    cl3  517   2.797   4.354   4.210
    1TCM     c1  518   4.662   1.714   0.331
    1TCM    cl1  519   4.589   1.674   0.175
    1TCM    cl2  520   4.664   1.890   0.353
    1TCM     h1  521   4.603   1.667   0.413
    1TCM    cl3  522   4.829   1.653   0.336
    1TCM     c1  523   2.967   4.699   4.433
    1TCM    cl1  524   2.899   4.827   4.536
    1TCM    cl2  525   2.879   4.694   4.279
    1TCM     h1  526   3.074   4.720   4.413
    1TCM    cl3  527   2.951   4.542   4.515
    1TCM     c1  528   3.803   4.169   2.079
    1TCM    cl1  529   3.803   4.333   2.012
    1TCM    cl2  530   3.763   4.176   2.252
    1TCM     h1  531   3.727   4.108   2.026
    1TCM    cl3  532   3.963   4.095   2.058
    1TCM     c1  533   0.935   0.211   3.503
    1TCM    cl1  534   0.929   0.360   3.599
    1TCM    cl2  535   0.973   0.250   3.334
    1TCM     h1  536   1.014   0.143   3.544
    1TCM    cl3  537   0.777   0.129   3.511
    1TCM     c1  538   0.866   1.392   2.619
    1TCM    cl1  539   1.013   1.425   2.525
    1TCM    cl2  540   0.911   1.327   2.779
    1TCM     h1  541   0.808   1.486   2.633
    1TCM    cl3  542   0.766   1.273   2.533
    1TCM     c1  543   1.351   0.704   2.053
    1TCM    cl1  544   1.337   0.879   2.082
    1TCM    cl2  545   1.193   0.627   2.082
    1TCM     h1  546   1.382   0.686   1.948
    1TCM    cl3  547   1.472   0.635   2.163
    1TCM     c1  548   2.953   1.188   3.961
    1TCM    cl1  549   2.845   1.204   4.101
    1TCM    cl2  550   2.959   1.342   3.873
    1TCM     h1  551   3.055   1.162   3.997
    1TCM    cl3  552   2.893   1.060   3.853
    1TCM     c1  553   4.619   5.128   1.269
    1TCM    cl1  554   4.762   5.123   1.163
    1TCM    cl2  555   4.670   5.165   1.436
    1TCM     h1  556   4.550   5.207   1.234
    1TCM    cl3  557   4.537   4.971   1.265
    1TCM     c1  558   0.525   4.430   0.319
    1TCM    cl1  559   0.690   4.369   0.294
    1TCM    cl2  560   0.501   4.470   0.491
    1TCM     h1  561   0.510   4.522   0.258
    1TCM    cl3  562   0.407   4.306   0.271
    1TCM     c1  563   2.440   3.421   2.257
    1TCM    cl1  564   2.407   3.395   2.084
    1TCM    cl2  565   2.599   3.354   2.298
    1TCM     h1  566   2.439   3.530   2.279
    1TCM    cl3  567   2.315   3.340   2.354
    1TCM     c1  568   0.344   3.166   1.092
    1TCM    cl1  569   0.379   3.271   0.953
    1TCM    cl2  570   0.404   3.243   1.241
    1TCM     h1  571   0.235   3.150   1.100
    1TCM    cl3  572   0.426   3.010   1.070
    1TCM     c1  573   3.372   3.637   1.091
    1TCM    cl1  574   3.487   3.772   1.095
    1TCM    cl2  575   3.385   3.543   1.242
    1TCM     h1  576   3.269   3.677   1.082
    1TCM    cl3  577   3.408   3.532   0.952
    1TCM     c1  578   3.205   3.109   4.964
    1TCM    cl1  579   3.366   3.044   4.927
    1TCM    cl2  580   3.206   3.183   5.126
    1TCM     h1  581   3.178   3.186   4.889
    1TCM    cl3  582   3.085   2.977   4.960
    1TCM     c1  583   1.150   1.313   1.936
    1TCM    cl1  584   1.013   1.266   1.832
    1TCM    cl2  585   1.181   1.487   1.917
    1TCM     h1  586   1.125   1.291   2.042
    1TCM    cl3  587   1.295   1.222   1.888
    1TCM     c1  588   1.940   2.661   4.777
    1TCM    cl1  589   1.914   2.585   4.936
    1TCM    cl2  590   1.787   2.728   4.718
    1TCM     h1  591   2.015   2.742   4.787
    1TCM    cl3  592   2.000   2.539   4.662
    1TCM     c1  593   2.138   4.116   4.070
    1TCM    cl1  594   2.031   4.020   3.964
    1TCM    cl2  595   2.126   4.056   4.237
    1TCM     h1  596   2.243   4.106   4.035
    1TCM    cl3  597   2.090   4.287   4.064
    1TCM     c1  598   0.791   0.349   0.132
    1TCM    cl1  599   0.877   0.220   0.218
    1TCM    cl2  600   0.773   0.490   0.238
    1TCM     h1  601   0.849   0.378   0.042
    1TCM    cl3  602   0.631   0.290   0.083
    1TCM     c1  603   1.094   0.631   2.918
    1TCM    cl1  604   1.012   0.665   3.072
    1TCM    cl2  605   0.974   0.585   2.795
    1TCM     h1  606   1.148   0.722   2.884
    1TCM    cl3  607   1.210   0.498   2.940
    1TCM     c1  608   4.542   3.197   3.283
    1TCM    cl1  609   4.486   3.096   3.148
    1TCM    cl2  610   4.402   3.245   3.382
    1TCM     h1  611   4.613   3.139   3.346
    1TCM    cl3  612   4.623   3.342   3.220
    1TCM     c1  613   3.187   4.766   5.222
    1TCM    cl1  614   3.157   4.911   5.123
    1TCM    cl2  615   3.351   4.775   5.291
    1TCM     h1  616   3.113   4.761   5.304
    1TCM    cl3  617   3.173   4.621   5.121
    1TCM     c1  618   1.799   0.143   3.544
    1TCM    cl1  619   1.965   0.090   3.508
    1TCM    cl2  620   1.791   0.203   3.711
    1TCM     h1  621   1.770   0.224   3.474
    1TCM    cl3  622   1.687   0.006   3.525
    1TCM     c1  623   1.007   0.718   4.035
    1TCM    cl1  624   0.884   0.834   3.979
    1TCM    cl2  625   0.973   0.558   3.965
    1TCM     h1  626   1.107   0.752   4.002
    1TCM    cl3  627   1.002   0.708   4.212
    1TCM     c1  628   2.047   5.148   2.396
    1TCM    cl1  629   2.142   5.214   2.531
    1TCM    cl2  630   1.881   5.114   2.451
    1TCM     h1  631   2.045   5.221   2.313
    1TCM    cl3  632   2.123   4.997   2.339
    1TCM     c1  633   1.152   1.267   2.397
    1TCM    cl1  634   1.267   1.192   2.284
    1TCM    cl2  635   1.239   1.375   2.507
    1TCM     h1  636   1.077   1.326   2.339
    1TCM    cl3  637   1.070   1.140   2.490
    1TCM     c1  638   1.623   1.628   0.170
    1TCM    cl1  639   1.512   1.691   0.047
    1TCM    cl2  640   1.530   1.546   0.298
    1TCM     h1  641   1.694   1.556   0.124
    1TCM    cl3  642   1.714   1.763   0.242
    1TCM     c1  643   4.236   3.109   2.490
    1TCM    cl1  644   4.143   3.258   2.463
    1TCM    cl2  645   4.378   3.109   2.383
    1TCM     h1  646   4.269   3.104   2.595
    1TCM    cl3  647   4.134   2.968   2.453
    1TCM     c1  648   2.920   4.892   1.448
    1TCM    cl1  649   3.003   4.955   1.592
    1TCM    cl2  650   2.859   4.728   1.482
    1TCM     h1  651   2.834   4.958   1.423
    1TCM    cl3  652   3.033   4.886   1.311
    1TCM     c1  653   4.308   2.473   3.355
    1TCM    cl1  654   4.339   2.353   3.483
    1TCM    cl2  655   4.293   2.390   3.198
    1TCM     h1  656   4.214   2.527   3.377
    1TCM    cl3  657   4.444   2.588   3.348
    1TCM     c1  658   4.319   0.748   3.678
    1TCM    cl1  659   4.463   0.837   3.732
    1TCM    cl2  660   4.327   0.723   3.502
    1TCM     h1  661   4.315   0.650   3.729
    1TCM    cl3  662   4.173   0.841   3.717
    1TCM     c1  663   4.256   0.980   3.321
    1TCM    cl1  664   4.397   0.940   3.220
    1TCM    cl2  665   4.311   1.066   3.467
    1TCM     h1  666   4.187   1.046   3.264
    1TCM    cl3  667   4.172   0.831   3.368
    1TCM     c1  668   2.079   0.282   3.350
    1TCM    cl1  669   2.182   0.403   3.270
    1TCM    cl2  670   2.165   0.126   3.358
    1TCM     h1  671   2.055   0.316   3.453
    1TCM    cl3  672   1.929   0.261   3.257
    1TCM     c1  673   0.537   4.481   3.679
    1TCM    cl1  674   0.386   4.510   3.770
    1TCM    cl2  675   0.533   4.575   3.528
    1TCM     h1  676   0.623   4.513   3.740
    1TCM    cl3  677   0.551   4.308   3.641
    1TCM     c1  678   0.294   1.931   4.787
    1TCM    cl1  679   0.201   1.933   4.939
    1TCM    cl2  680   0.380   2.085   4.768
    1TCM     h1  681   0.367   1.847   4.790
    1TCM    cl3  682   0.183   1.907   4.650
    1TCM     c1  683   1.099   5.131   5.220
    1TCM    cl1  684   1.081   5.273   5.325
    1TCM    cl2  685   1.120   5.184   5.052
    1TCM     h1  686   1.188   5.073   5.252
    1TCM    cl3  687   0.953   5.029   5.233
    1TCM     c1  688   0.839   2.228   1.169
    1TCM    cl1  689   0.866   2.398   1.212
    1TCM    cl2  690   0.869   2.205   0.995
    1TCM     h1  691   0.909   2.164   1.227
    1TCM    cl3  692   0.672   2.182   1.208
    1TCM     c1  693   4.825   1.694   2.321
    1TCM    cl1  694   4.821   1.814   2.451
    1TCM    cl2  695   4.754   1.541   2.379
    1TCM     h1  696   4.766   1.731   2.234
    1TCM    cl3  697   4.993   1.666   2.270
    1TCM     c1  698   2.942   1.356   2.584
    1TCM    cl1  699   2.845   1.253   2.476
    1TCM    cl2  700   3.014   1.255   2.712
    1TCM     h1  701   3.023   1.406   2.526
    1TCM    cl3  702   2.837   1.479   2.658
    1TCM     c1  703   3.165   0.483   2.779
    1TCM    cl1  704   3.038   0.472   2.902
    1TCM    cl2  705   3.092   0.473   2.617
    1TCM     h1  706   3.218   0.580   2.789
    1TCM    cl3  707   3.281   0.350   2.800
    1TCM     c1  708   2.390   4.663   1.112
    1TCM    cl1  709   2.268   4.612   1.231
    1TCM    cl2  710   2.309   4.729   0.969
    1TCM     h1  711   2.456   4.741   1.157
    1TCM    cl3  712   2.489   4.523   1.064
    1TCM     c1  713   0.560   3.432   4.066
    1TCM    cl1  714   0.550   3.290   4.172
    1TCM    cl2  715   0.686   3.542   4.126
    1TCM     h1  716   0.585   3.399   3.963
    1TCM    cl3  717   0.404   3.516   4.066
    1TCM     c1  718   2.503   0.120   1.712
    1TCM    cl1  719   2.394   0.003   1.790
    1TCM    cl2  720   2.422   0.190   1.569
    1TCM     h1  721   2.528   0.201   1.783
    1TCM    cl3  722   2.652   0.038   1.660
    1TCM     c1  723   2.792   4.818   3.727
    1TCM    cl1  724   2.766   4.646   3.690
    1TCM    cl2  725   2.850   4.834   3.894
    1TCM     h1  726   2.867   4.860   3.657
    1TCM    cl3  727   2.638   4.906   3.708
    1TCM     c1  728   3.710   3.606   4.910
    1TCM    cl1  729   3.874   3.568   4.967
    1TCM    cl2  730   3.679   3.523   4.756
    1TCM     h1  731   3.636   3.573   4.985
    1TCM    cl3  732   3.695   3.782   4.886
    1TCM     c1  733   1.884   0.240   4.817
    1TCM    cl1  734   1.832   0.079   4.870
    1TCM    cl2  735   1.812   0.276   4.658
    1TCM     h1  736   1.850   0.316   4.890
    1TCM    cl3  737   2.061   0.244   4.804
    1TCM     c1  738   3.434   3.816   1.954
    1TCM    cl1  739   3.394   3.987   1.926
    1TCM    cl2  740   3.492   3.796   2.121
    1TCM     h1  741   3.344   3.754   1.939
    1TCM    cl3  742   3.562   3.766   1.841
    1TCM     c1  743   0.155   2.729   2.142
    1TCM    cl1  744   0.000   2.724   2.228
    1TCM    cl2  745   0.255   2.862   2.206
    1TCM     h1  746   0.209   2.633   2.156
    1TCM    cl3  747   0.126   2.755   1.968
    1TCM     c1  748   1.901   0.907   3.598
    1TCM    cl1  749   1.861   0.784   3.719
    1TCM    cl2  750   2.033   0.848   3.495
    1TCM     h1  751   1.812   0.927   3.535
    1TCM    cl3  752   1.952   1.057   3.680
    1TCM     c1  753   1.445   4.577   3.674
    1TCM    cl1  754   1.618   4.555   3.637
    1TCM    cl2  755   1.411   4.512   3.836
    1TCM     h1  756   1.420   4.685   3.671
    1TCM    cl3  757   1.347   4.490   3.554
    1TCM     c1  758   1.268   3.284   3.526
    1TCM    cl1  759   1.433   3.254   3.467
    1TCM    cl2  760   1.276   3.378   3.677
    1TCM     h1  761   1.211   3.340   3.450
    1TCM    cl3  762   1.188   3.128   3.557
    1TCM     c1  763   4.851   2.346   2.479
    1TCM    cl1  764   4.757   2.350   2.630
    1TCM    cl2  765   4.932   2.189   2.463
    1TCM     h1  766   4.783   2.362   2.392
    1TCM    cl3  767   4.973   2.476   2.482
    1TCM     c1  768   2.346   1.441   1.845
    1TCM    cl1  769   2.346   1.263   1.857
    1TCM    cl2  770   2.399   1.490   1.683
    1TCM     h1  771   2.243   1.479   1.864
    1TCM    cl3  772   2.457   1.508   1.967
    1TCM     c1  773   1.250   0.146   3.671
    1TCM    cl1  774   1.092   0.148   3.750
    1TCM    cl2  775   1.228   0.140   3.494
    1TCM     h1  776   1.306   0.238   3.698
    1TCM    cl3  777   1.342   0.003   3.724
    1TCM     c1  778   4.379   3.833   2.724
    1TCM    cl1  779   4.379   3.984   2.818
    1TCM    cl2  780   4.357   3.871   2.551
    1TCM     h1  781   4.475   3.780   2.738
    1TCM    cl3  782   4.245   3.729   2.779
    1TCM     c1  783   4.419   1.347   4.066
    1TCM    cl1  784   4.254   1.329   4.002
    1TCM    cl2  785   4.415   1.337   4.244
    1TCM     h1  786   4.484   1.265   4.026
    1TCM    cl3  787   4.486   1.504   4.017
    1TCM     c1  788   3.817   1.969   2.656
    1TCM    cl1  789   3.868   2.106   2.555
    1TCM    cl2  790   3.806   2.021   2.825
    1TCM     h1  791   3.718   1.933   2.622
    1TCM    cl3  792   3.936   1.838   2.642
    1TCM     c1  793   5.008   4.051   3.288
    1TCM    cl1  794   4.871   4.007   3.392
    1TCM    cl2  795   4.949   4.093   3.126
    1TCM     h1  796   5.061   4.138   3.332
    1TCM    cl3  797   5.120   3.913   3.277
    1TCM     c1  798   0.462   1.826   0.600
    1TCM    cl1  799   0.456   2.003   0.605
    1TCM    cl2  800   0.438   1.761   0.763
    1TCM     h1  801   0.382   1.788   0.533
    1TCM    cl3  802   0.620   1.773   0.537
    1TCM     c1  803   3.658   1.809   3.643
    1TCM    cl1  804   3.701   1.661   3.733
    1TCM    cl2  805   3.637   1.770   3.471
    1TCM     h1  806   3.564   1.850   3.684
    1TCM    cl3  807   3.789   1.929   3.661
    1TCM     c1  808   1.449   2.437   2.980
    1TCM    cl1  809   1.620   2.408   3.020
    1TCM    cl2  810   1.437   2.516   2.821
    1TCM     h1  811   1.394   2.340   2.977
    1TCM    cl3  812   1.376   2.542   3.104
    1TCM     c1  813   0.318   3.037   0.158
    1TCM    cl1  814   0.380   3.152   0.278
    1TCM    cl2  815   0.397   3.067   0.001
    1TCM     h1  816   0.340   2.933   0.191
    1TCM    cl3  817   0.142   3.058   0.141
    1TCM     c1  818   0.831   4.628   5.015
    1TCM    cl1  819   0.794   4.478   4.928
    1TCM    cl2  820   0.851   4.594   5.188
    1TCM     h1  821   0.924   4.673   4.975
    1TCM    cl3  822   0.697   4.743   4.993
    1TCM     c1  823   4.703   4.846   0.186
    1TCM    cl1  824   4.858   4.760   0.173
    1TCM    cl2  825   4.685   4.910   0.350
    1TCM     h1  826   4.701   4.930   0.113
    1TCM    cl3  827   4.570   4.734   0.151
    1TCM     c1  828   0.662   1.470   0.617
    1TCM    cl1  829   0.639   1.522   0.786
    1TCM    cl2  830   0.512   1.495   0.526
    1TCM     h1  831   0.744   1.530   0.571
    1TCM    cl3  832   0.706   1.298   0.614
    1TCM     c1  833   2.384   0.332   3.563
    1TCM    cl1  834   2.529   0.298   3.467
    1TCM    cl2  835   2.427   0.341   3.735
    1TCM     h1  836   2.340   0.429   3.531
    1TCM    cl3  837   2.264   0.202   3.539
    1TCM     c1  838   0.507   1.531   3.342
    1TCM    cl1  839   0.652   1.633   3.331
    1TCM    cl2  840   0.472   1.495   3.513
    1TCM     h1  841   0.421   1.585   3.297
    1TCM    cl3  842   0.534   1.379   3.254
    1TCM     c1  843   0.390   4.474   5.030
    1TCM    cl1  844   0.397   4.414   4.863
    1TCM    cl2  845   0.251   4.402   5.114
    1TCM     h1  846   0.484   4.446   5.084
    1TCM    cl3  847   0.374   4.651   5.029
    1TCM     c1  848   4.338   1.368   2.184
    1TCM    cl1  849   4.296   1.258   2.051
    1TCM    cl2  850   4.269   1.306   2.336
    1TCM     h1  851   4.449   1.374   2.193
    1TCM    cl3  852   4.273   1.530   2.151
    1TCM     c1  853   1.539   0.668   1.761
    1TCM    cl1  854   1.663   0.711   1.640
    1TCM    cl2  855   1.474   0.506   1.724
    1TCM     h1  856   1.584   0.668   1.862
    1TCM    cl3  857   1.407   0.787   1.754
    1TCM     c1  858   0.124   5.166   3.539
    1TCM    cl1  859   0.234   5.297   3.490
    1TCM    cl2  860   0.216   5.016   3.561
    1TCM     h1  861   0.074   5.193   3.634
    1TCM    cl3  862   0.001   5.142   3.412
    1TCM     c1  863   2.205   1.847   3.540
    1TCM    cl1  864   2.235   1.959   3.406
    1TCM    cl2  865   2.095   1.922   3.657
    1TCM     h1  866   2.159   1.754   3.501
    1TCM    cl3  867   2.359   1.808   3.620
    1TCM     c1  868   2.672   3.564   3.802
    1TCM    cl1  869   2.529   3.551   3.907
    1TCM    cl2  870   2.619   3.590   3.634
    1TCM     h1  871   2.734   3.650   3.835
    1TCM    cl3  872   2.767   3.414   3.811
    1TCM     c1  873   0.877   1.423   3.704
    1TCM    cl1  874   0.969   1.366   3.562
    1TCM    cl2  875   0.988   1.447   3.841
    1TCM     h1  876   0.828   1.520   3.679
    1TCM    cl3  877   0.754   1.303   3.747
    1TCM     c1  878   0.758   4.416   1.915
    1TCM    cl1  879   0.935   4.438   1.910
    1TCM    cl2  880   0.680   4.573   1.944
    1TCM     h1  881   0.723   4.374   1.819
    1TCM    cl3  882   0.716   4.304   2.047
    1TCM     c1  883   3.740   4.214   2.544
    1TCM    cl1  884   3.691   4.343   2.431
    1TCM    cl2  885   3.715   4.056   2.468
    1TCM     h1  886   3.848   4.227   2.569
    1TCM    cl3  887   3.643   4.225   2.692
    1TCM     c1  888   0.650   2.550   3.481
    1TCM    cl1  889   0.589   2.457   3.620
    1TCM    cl2  890   0.662   2.443   3.339
    1TCM     h1  891   0.581   2.633   3.458
    1TCM    cl3  892   0.811   2.615   3.519
    1TCM     c1  893   1.830   3.934   1.836
    1TCM    cl1  894   1.895   3.922   2.001
    1TCM    cl2  895   1.822   3.772   1.764
    1TCM     h1  896   1.729   3.978   1.840
    1TCM    cl3  897   1.936   4.038   1.738
    1TCM     c1  898   1.709   1.555   2.592
    1TCM    cl1  899   1.782   1.685   2.689
    1TCM    cl2  900   1.744   1.581   2.420
    1TCM     h1  901   1.750   1.457   2.624
    1TCM    cl3  902   1.533   1.555   2.617
    1TCM     c1  903   3.948   0.156   4.028
    1TCM    cl1  904   3.957   0.280   4.154
    1TCM    cl2  905   3.856   0.016   4.089
    1TCM     h1  906   3.897   0.198   3.938
    1TCM    cl3  907   4.112   0.104   3.984
    1TCM     c1  908   0.169   4.527   4.553
    1TCM    cl1  909   0.060   4.437   4.445
    1TCM    cl2  910   0.154   4.463   4.718
    1TCM     h1  911   0.273   4.516   4.518
    1TCM    cl3  912   0.124   4.699   4.553
    1TCM     c1  913   1.190   1.873   0.719
    1TCM    cl1  914   1.165   1.991   0.850
    1TCM    cl2  915   1.038   1.849   0.630
    1TCM     h1  916   1.268   1.910   0.650
    1TCM    cl3  917   1.242   1.718   0.789
    1TCM     c1  918   2.665   2.811   0.257
    1TCM    cl1  919   2.839   2.819   0.226
    1TCM    cl2  920   2.636   2.723   0.409
    1TCM     h1  921   2.624   2.913   0.266
    1TCM    cl3  922   2.584   2.725   0.124
    1TCM     c1  923   3.658   1.393   3.443
    1TCM    cl1  924   3.819   1.448   3.390
    1TCM    cl2  925   3.673   1.240   3.531
    1TCM     h1  926   3.613   1.470   3.509
    1TCM    cl3  927   3.554   1.370   3.301
    1TCM     c1  928   3.481   0.279   1.919
    1TCM    cl1  929   3.386   0.429   1.931
    1TCM    cl2  930   3.602   0.275   2.049
    1TCM     h1  931   3.413   0.192   1.928
    1TCM    cl3  932   3.563   0.274   1.761
    1TCM     c1  933   4.121   2.685   1.517
    1TCM    cl1  934   4.222   2.734   1.655
    1TCM    cl2  935   4.105   2.508   1.516
    1TCM     h1  936   4.021   2.731   1.527
    1TCM    cl3  937   4.196   2.739   1.366
    1TCM     c1  938   3.013   4.282   2.698
    1TCM    cl1  939   2.909   4.415   2.755
    1TCM    cl2  940   3.108   4.337   2.558
    1TCM     h1  941   3.082   4.252   2.780
    1TCM    cl3  942   2.912   4.143   2.651
    1TCM     c1  943   4.442   1.101   2.767
    1TCM    cl1  944   4.495   1.071   2.935
    1TCM    cl2  945   4.584   1.122   2.663
    1TCM     h1  946   4.382   1.014   2.732
    1TCM    cl3  947   4.342   1.248   2.762
    1TCM     c1  948   1.084   2.039   4.956
    1TCM    cl1  949   1.129   1.940   5.097
    1TCM    cl2  950   1.228   2.070   4.857
    1TCM     h1  951   1.008   1.984   4.896
    1TCM    cl3  952   1.015   2.193   5.011
    1TCM     c1  953   2.542   4.704   4.494
    1TCM    cl1  954   2.473   4.862   4.539
    1TCM    cl2  955   2.616   4.717   4.333
    1TCM     h1  956   2.619   4.675   4.568
    1TCM    cl3  957   2.413   4.582   4.491
    1TCM     c1  958   2.288   5.157   5.161
    1TCM    cl1  959   2.236   5.076   5.311
    1TCM    cl2  960   2.291   5.038   5.028
    1TCM     h1  961   2.217   5.238   5.136
    1TCM    cl3  962   2.451   5.224   5.184
    1TCM     c1  963   2.003   1.263   3.034
    1TCM    cl1  964   2.177   1.246   3.065
    1TCM    cl2  965   1.963   1.435   3.013
    1TCM     h1  966   1.976   1.207   2.942
    1TCM    cl3  967   1.912   1.198   3.172
    1TCM     c1  968   1.944   2.217   5.135
    1TCM    cl1  969   1.914   2.042   5.138
    1TCM    cl2  970   2.025   2.266   5.285
    1TCM     h1  971   2.007   2.242   5.048
    1TCM    cl3  972   1.788   2.303   5.121
    1TCM     c1  973   2.292   1.836   1.692
    1TCM    cl1  974   2.138   1.919   1.720
    1TCM    cl2  975   2.403   1.872   1.827
    1TCM     h1  976   2.274   1.727   1.687
    1TCM    cl3  977   2.364   1.892   1.540
    1TCM     c1  978   2.677   2.763   0.790
    1TCM    cl1  979   2.748   2.849   0.929
    1TCM    cl2  980   2.502   2.746   0.814
    1TCM     h1  981   2.697   2.820   0.697
    1TCM    cl3  982   2.751   2.602   0.777
    1TCM     c1  983   3.074   1.872   2.010
    1TCM    cl1  984   2.996   1.994   2.113
    1TCM    cl2  985   3.080   1.931   1.842
    1TCM     h1  986   3.177   1.853   2.046
    1TCM    cl3  987   2.981   1.720   2.016
    1TCM     c1  988   4.635   4.598   2.802
    1TCM    cl1  989   4.470   4.666   2.812
    1TCM    cl2  990   4.751   4.717   2.866
    1TCM     h1  991   4.640   4.505   2.862
    1TCM    cl3  992   4.674   4.562   2.633
    1TCM     c1  993   3.282   0.429   4.923
    1TCM    cl1  994   3.129   0.426   4.832
    1TCM    cl2  995   3.341   0.262   4.944
    1TCM     h1  996   3.357   0.488   4.867
    1TCM    cl3  997   3.255   0.503   5.082
    1TCM     c1  998   3.971   3.976   4.136
    1TCM    cl1  999   3.851   3.998   4.007
    1TCM    cl2 1000   3.898   4.015   4.293
    1TCM     h1 1001   4.006   3.870   4.137
    1TCM    cl3 1002   4.110   4.083   4.108
    1TCM     c1 1003   2.071   1.382   2.576
    1TCM    cl1 1004   1.979   1.237   2.526
    1TCM    cl2 1005   2.216   1.331   2.665
    1TCM     h1 1006   2.101   1.439   2.486
    1TCM    cl3 1007   1.969   1.483   2.681
    1TCM     c1 1008   2.686   0.483   0.138
    1TCM    cl1 1009   2.722   0.534   0.305
    1TCM    cl2 1010   2.592   0.610   0.056
    1TCM     h1 1011   2.781   0.466   0.083
    1TCM    cl3 1012   2.591   0.333   0.141
    1TCM     c1 1013   2.468   2.912   1.991
    1TCM    cl1 1014   2.530   2.761   1.919
    1TCM    cl2 1015   2.588   3.042   1.967
    1TCM     h1 1016   2.373   2.940   1.942
    1TCM    cl3 1017   2.441   2.888   2.165
    1TCM     c1 1018   1.098   4.958   1.620
    1TCM    cl1 1019   1.227   4.836   1.632
    1TCM    cl2 1020   0.942   4.882   1.660
    1TCM     h1 1021   1.118   5.040   1.692
    1TCM    cl3 1022   1.092   5.023   1.455
    1TCM     c1 1023   4.244   2.310   4.424
    1TCM    cl1 1024   4.179   2.461   4.355
    1TCM    cl2 1025   4.393   2.345   4.514
    1TCM     h1 1026   4.169   2.266   4.493
    1TCM    cl3 1027   4.279   2.195   4.293
    1TCM     c1 1028   1.917   5.110   5.118
    1TCM    cl1 1029   2.037   5.006   5.198
    1TCM    cl2 1030   1.969   5.280   5.130
    1TCM     h1 1031   1.908   5.082   5.011
    1TCM    cl3 1032   1.759   5.091   5.199
    1TCM     c1 1033   3.451   3.868   0.627
    1TCM    cl1 1034   3.278   3.830   0.617
    1TCM    cl2 1035   3.514   3.899   0.463
    1TCM     h1 1036   3.466   3.958   0.689
    1TCM    cl3 1037   3.538   3.731   0.699
    1TCM     c1 1038   4.651   0.986   1.068
    1TCM    cl1 1039   4.706   1.135   1.147
    1TCM    cl2 1040   4.504   0.927   1.148
    1TCM     h1 1041   4.630   1.006   0.961
    1TCM    cl3 1042   4.778   0.862   1.080
    1TCM     c1 1043   4.214   1.826   1.974
    1TCM    cl1 1044   4.219   1.864   1.800
    1TCM    cl2 1045   4.047   1.836   2.032
    1TCM     h1 1046   4.253   1.724   1.990
    1TCM    cl3 1047   4.315   1.943   2.062
    1TCM     c1 1048   4.117   1.737   0.116
    1TCM    cl1 1049   4.121   1.564   0.074
    1TCM    cl2 1050   4.220   1.827   0.002
    1TCM     h1 1051   4.013   1.774   0.110
    1TCM    cl3 1052   4.179   1.758   0.282
    1TCM     c1 1053   0.134   0.065   4.441
    1TCM    cl1 1054   0.296   0.007   4.489
    1TCM    cl2 1055   0.013   0.002   4.556
    1TCM     h1 1056   0.132   0.176   4.443
    1TCM    cl3 1057   0.096   0.007   4.277
    1TCM     c1 1058   3.998   3.214   4.802
    1TCM    cl1 1059   3.977   3.351   4.912
    1TCM    cl2 1060   4.145   3.124   4.847
    1TCM     h1 1061   3.910   3.147   4.809
    1TCM    cl3 1062   4.014   3.273   4.635
    1TCM     c1 1063   1.301   0.524   3.801
    1TCM    cl1 1064   1.471   0.473   3.802
    1TCM    cl2 1065   1.242   0.530   3.633
    1TCM     h1 1066   1.240   0.452   3.859
    1TCM    cl3 1067   1.288   0.686   3.874
    1TCM     c1 1068   3.588   0.348   1.408
    1TCM    cl1 1069   3.564   0.521   1.444
    1TCM    cl2 1070   3.551   0.317   1.237
    1TCM     h1 1071   3.694   0.321   1.429
    1TCM    cl3 1072   3.480   0.251   1.511
    1TCM     c1 1073   1.228   0.508   4.221
    1TCM    cl1 1074   1.270   0.339   4.188
    1TCM    cl2 1075   1.363   0.588   4.305
    1TCM     h1 1076   1.207   0.561   4.126
    1TCM    cl3 1077   1.083   0.514   4.324
    1TCM     c1 1078   3.165   5.232   3.670
    1TCM    cl1 1079   3.289   5.294   3.782
    1TCM    cl2 1080   3.227   5.242   3.503
    1TCM     h1 1081   3.142   5.126   3.694
    1TCM    cl3 1082   3.017   5.330   3.684
    1TCM     c1 1083   2.197   1.187   4.194
    1TCM    cl1 1084   2.310   1.294   4.279
    1TCM    cl2 1085   2.152   1.052   4.301
    1TCM     h1 1086   2.107   1.243   4.165
    1TCM    cl3 1087   2.276   1.122   4.048
    1TCM     c1 1088   3.339   0.783   0.335
    1TCM    cl1 1089   3.203   0.672   0.365
    1TCM    cl2 1090   3.430   0.728   0.193
    1TCM     h1 1091   3.300   0.885   0.317
    1TCM    cl3 1092   3.446   0.785   0.477
    1TCM     c1 1093   1.691   2.126   2.688
    1TCM    cl1 1094   1.804   2.022   2.778
    1TCM    cl2 1095   1.683   2.072   2.519
    1TCM     h1 1096   1.590   2.119   2.733
    1TCM    cl3 1097   1.747   2.294   2.694
    1TCM     c1 1098   4.954   3.997   4.705
    1TCM    cl1 1099   4.891   4.117   4.590
    1TCM    cl2 1100   4.897   4.037   4.869
    1TCM     h1 1101   4.917   3.896   4.677
    1TCM    cl3 1102   5.131   3.999   4.701
    1TCM     c1 1103   0.808   0.924   2.818
    1TCM    cl1 1104   0.794   0.870   2.649
    1TCM    cl2 1105   0.756   1.094   2.830
    1TCM     h1 1106   0.743   0.861   2.882
    1TCM    cl3 1107   0.977   0.910   2.871
    1TCM     c1 1108   4.725   0.975   3.645
    1TCM    cl1 1109   4.704   0.870   3.787
    1TCM    cl2 1110   4.852   1.095   3.678
    1TCM     h1 1111   4.754   0.914   3.557
    1TCM    cl3 1112   4.572   1.059   3.610
    1TCM     c1 1113   5.044   4.813   0.664
    1TCM    cl1 1114   5.210   4.763   0.622
    1TCM    cl2 1115   5.018   4.789   0.838
    1TCM     h1 1116   5.030   4.920   0.638
    1TCM    cl3 1117   4.928   4.714   0.572
    1TCM     c1 1118   0.672   3.369   0.274
    1TCM    cl1 1119   0.643   3.209   0.347
    1TCM    cl2 1120   0.745   3.348   0.113
    1TCM     h1 1121   0.576   3.423   0.264
    1TCM    cl3 1122   0.782   3.462   0.378
    1TCM     c1 1123   1.216   2.473   4.781
    1TCM    cl1 1124   1.271   2.518   4.944
    1TCM    cl2 1125   1.298   2.576   4.661
    1TCM     h1 1126   1.242   2.367   4.762
    1TCM    cl3 1127   1.040   2.496   4.769
    1TCM     c1 1128   1.655   4.166   0.126
    1TCM    cl1 1129   1.703   4.100   0.284
    1TCM    cl2 1130   1.489   4.115   0.087
    1TCM     h1 1131   1.660   4.277   0.130
    1TCM    cl3 1132   1.766   4.106   0.001
    1TCM     c1 1133   0.700   3.185   0.702
    1TCM    cl1 1134   0.659   3.358   0.695
    1TCM    cl2 1135   0.759   3.145   0.865
    1TCM     h1 1136   0.610   3.125   0.679
    1TCM    cl3 1137   0.828   3.150   0.583
    1TCM     c1 1138   4.265   1.697   2.629
    1TCM    cl1 1139   4.184   1.602   2.503
    1TCM    cl2 1140   4.345   1.838   2.555
    1TCM     h1 1141   4.191   1.732   2.704
    1TCM    cl3 1142   4.387   1.596   2.710
    1TCM     c1 1143   2.159   0.627   4.371
    1TCM    cl1 1144   2.109   0.567   4.530
    1TCM    cl2 1145   2.149   0.495   4.252
    1TCM     h1 1146   2.092   0.710   4.340
    1TCM    cl3 1147   2.327   0.686   4.380
    1TCM     c1 1148   0.741   0.330   2.976
    1TCM    cl1 1149   0.789   0.388   2.815
    1TCM    cl2 1150   0.593   0.414   3.028
    1TCM     h1 1151   0.722   0.221   2.972
    1TCM    cl3 1152   0.872   0.363   3.092
    1TCM     c1 1153   1.871   4.548   4.426
    1TCM    cl1 1154   1.866   4.555   4.248
    1TCM    cl2 1155   1.836   4.382   4.480
    1TCM     h1 1156   1.971   4.578   4.461
    1TCM    cl3 1157   1.748   4.659   4.492
    1TCM     c1 1158   4.328   4.591   1.516
    1TCM    cl1 1159   4.487   4.640   1.454
    1TCM    cl2 1160   4.200   4.671   1.422
    1TCM     h1 1161   4.317   4.481   1.507
    1TCM    cl3 1162   4.314   4.638   1.687
    1TCM     c1 1163   1.007   2.544   0.578
    1TCM    cl1 1164   1.028   2.492   0.747
    1TCM    cl2 1165   0.929   2.414   0.486
    1TCM     h1 1166   0.944   2.635   0.575
    1TCM    cl3 1167   1.166   2.580   0.507
    1TCM     c1 1168   1.353   0.948   4.304
    1TCM    cl1 1169   1.510   0.885   4.250
    1TCM    cl2 1170   1.263   1.011   4.163
    1TCM     h1 1171   1.294   0.867   4.352
    1TCM    cl3 1172   1.378   1.080   4.421
    1TCM     c1 1173   1.949   1.533   0.909
    1TCM    cl1 1174   2.032   1.388   0.970
    1TCM    cl2 1175   1.823   1.582   1.025
    1TCM     h1 1176   2.022   1.615   0.896
    1TCM    cl3 1177   1.873   1.496   0.752
    1TCM     c1 1178   1.283   4.590   1.458
    1TCM    cl1 1179   1.124   4.658   1.417
    1TCM    cl2 1180   1.317   4.619   1.630
    1TCM     h1 1181   1.283   4.481   1.438
    1TCM    cl3 1182   1.409   4.669   1.360
    1TCM     c1 1183   5.153   2.741   2.641
    1TCM    cl1 1184   5.190   2.820   2.486
    1TCM    cl2 1185   4.983   2.771   2.684
    1TCM     h1 1186   5.171   2.632   2.632
    1TCM    cl3 1187   5.259   2.809   2.767
    1TCM     c1 1188   0.977   2.497   0.175
    1TCM    cl1 1189   1.102   2.549   0.060
    1TCM    cl2 1190   1.050   2.395   0.302
    1TCM     h1 1191   0.930   2.586   0.222
    1TCM    cl3 1192   0.852   2.403   0.089
    1TCM     c1 1193   3.689   4.745   3.430
    1TCM    cl1 1194   3.565   4.715   3.305
    1TCM    cl2 1195   3.709   4.920   3.453
    1TCM     h1 1196   3.657   4.699   3.525
    1TCM    cl3 1197   3.843   4.674   3.378
    1TCM     c1 1198   2.190   1.073   2.451
    1TCM    cl1 1199   2.260   1.224   2.390
    1TCM    cl2 1200   2.301   0.938   2.417
    1TCM     h1 1201   2.173   1.081   2.560
    1TCM    cl3 1202   2.035   1.043   2.369
    1TCM     c1 1203   0.691   4.584   4.491
    1TCM    cl1 1204   0.807   4.603   4.624
    1TCM    cl2 1205   0.526   4.602   4.553
    1TCM     h1 1206   0.711   4.662   4.414
    1TCM    cl3 1207   0.710   4.423   4.418
    1TCM     c1 1208   2.045   4.851   3.931
    1TCM    cl1 1209   2.043   4.700   4.025
    1TCM    cl2 1210   1.984   4.819   3.767
    1TCM     h1 1211   1.980   4.926   3.981
    1TCM    cl3 1212   2.211   4.914   3.922
    1TCM     c1 1213   1.202   0.236   1.364
    1TCM    cl1 1214   1.179   0.079   1.284
    1TCM    cl2 1215   1.246   0.209   1.535
    1TCM     h1 1216   1.283   0.292   1.313
    1TCM    cl3 1217   1.051   0.329   1.357
    1TCM     c1 1218   2.501   3.266   1.159
    1TCM    cl1 1219   2.515   3.410   1.055
    1TCM    cl2 1220   2.570   3.302   1.319
    1TCM     h1 1221   2.394   3.239   1.170
    1TCM    cl3 1222   2.589   3.131   1.085
    1TCM     c1 1223   1.016   3.626   1.090
    1TCM    cl1 1224   1.057   3.456   1.125
    1TCM    cl2 1225   1.105   3.732   1.202
    1TCM     h1 1226   1.043   3.650   0.986
    1TCM    cl3 1227   0.841   3.650   1.113
    1TCM     c1 1228   3.748   2.422   2.027
    1TCM    cl1 1229   3.814   2.323   1.895
    1TCM    cl2 1230   3.822   2.584   2.023
    1TCM     h1 1231   3.638   2.431   2.015
    1TCM    cl3 1232   3.783   2.345   2.183
    1TCM     c1 1233   2.819   2.397   1.203
    1TCM    cl1 1234   2.673   2.394   1.101
    1TCM    cl2 1235   2.774   2.356   1.370
    1TCM     h1 1236   2.892   2.323   1.165
    1TCM    cl3 1237   2.891   2.559   1.199
    1TCM     c1 1238   2.790   3.467   4.272
    1TCM    cl1 1239   2.647   3.490   4.375
    1TCM    cl2 1240   2.794   3.593   4.146
    1TCM     h1 1241   2.882   3.474   4.334
    1TCM    cl3 1242   2.783   3.307   4.195
    1TCM     c1 1243   1.165   2.787   4.156
    1TCM    cl1 1244   1.271   2.758   4.016
    1TCM    cl2 1245   1.000   2.821   4.100
    1TCM     h1 1246   1.164   2.698   4.222
    1TCM    cl3 1247   1.226   2.928   4.248
    1TCM     c1 1248   1.540   2.911   3.490
    1TCM    cl1 1249   1.635   3.018   3.385
    1TCM    cl2 1250   1.558   2.962   3.659
    1TCM     h1 1251   1.433   2.916   3.461
    1TCM    cl3 1252   1.598   2.744   3.472
    1TCM     c1 1253   3.766   4.766   3.896
    1TCM    cl1 1254   3.623   4.743   3.999
    1TCM    cl2 1255   3.897   4.839   3.991
    1TCM     h1 1256   3.800   4.668   3.856
    1TCM    cl3 1257   3.725   4.874   3.760
    1TCM     c1 1258   0.182   3.221   0.508
    1TCM    cl1 1259   0.077   3.358   0.552
    1TCM    cl2 1260   0.085   3.095   0.428
    1TCM     h1 1261   0.261   3.257   0.439
    1TCM    cl3 1262   0.257   3.155   0.655
    1TCM     c1 1263   1.469   2.302   5.116
    1TCM    cl1 1264   1.549   2.232   4.974
    1TCM    cl2 1265   1.296   2.263   5.111
    1TCM     h1 1266   1.514   2.260   5.208
    1TCM    cl3 1267   1.490   2.479   5.115
    1TCM     c1 1268   0.296   1.858   3.043
    1TCM    cl1 1269   0.258   1.758   3.185
    1TCM    cl2 1270   0.472   1.860   3.016
    1TCM     h1 1271   0.245   1.816   2.954
    1TCM    cl3 1272   0.238   2.024   3.071
    1TCM     c1 1273   3.622   0.255   4.938
    1TCM    cl1 1274   3.570   0.184   4.784
    1TCM    cl2 1275   3.790   0.206   4.972
    1TCM     h1 1276   3.617   0.366   4.932
    1TCM    cl3 1277   3.516   0.198   5.069
    1TCM     c1 1278   1.721   2.797   2.178
    1TCM    cl1 1279   1.562   2.877   2.182
    1TCM    cl2 1280   1.766   2.765   2.009
    1TCM     h1 1281   1.797   2.862   2.225
    1TCM    cl3 1282   1.712   2.643   2.267
    1TCM     c1 1283   4.143   0.668   4.241
    1TCM    cl1 1284   4.006   0.724   4.339
    1TCM    cl2 1285   4.121   0.719   4.073
    1TCM     h1 1286   4.237   0.713   4.281
    1TCM    cl3 1287   4.154   0.491   4.249
    1TCM     c1 1288   0.297   3.801   1.607
    1TCM    cl1 1289   0.330   3.866   1.446
    1TCM    cl2 1290   0.122   3.810   1.641
    1TCM     h1 1291   0.329   3.695   1.612
    1TCM    cl3 1292   0.386   3.895   1.729
    1TCM     c1 1293   0.270   1.625   0.899
    1TCM    cl1 1294   0.377   1.645   1.040
    1TCM    cl2 1295   0.227   1.784   0.834
    1TCM     h1 1296   0.323   1.566   0.821
    1TCM    cl3 1297   0.123   1.539   0.948
    1TCM     c1 1298   3.679   2.507   2.878
    1TCM    cl1 1299   3.615   2.610   2.748
    1TCM    cl2 1300   3.546   2.411   2.948
    1TCM     h1 1301   3.756   2.439   2.837
    1TCM    cl3 1302   3.751   2.609   3.005
    1TCM     c1 1303   0.299   4.823   2.841
    1TCM    cl1 1304   0.367   4.919   2.974
    1TCM    cl2 1305   0.386   4.862   2.690
    1TCM     h1 1306   0.311   4.715   2.863
    1TCM    cl3 1307   0.127   4.861   2.821
    1TCM     c1 1308   0.060   4.653   2.498
    1TCM    cl1 1309   0.234   4.679   2.472
    1TCM    cl2 1310   0.012   4.724   2.654
    1TCM     h1 1311   0.002   4.701   2.416
    1TCM    cl3 1312   0.025   4.479   2.500
    1TCM     c1 1313   0.579   2.475   2.418
    1TCM    cl1 1314   0.709   2.504   2.536
    1TCM    cl2 1315   0.533   2.629   2.342
    1TCM     h1 1316   0.616   2.405   2.340
    1TCM    cl3 1317   0.438   2.405   2.500
    1TCM     c1 1318   0.592   4.026   2.855
    1TCM    cl1 1319   0.470   4.054   2.981
    1TCM    cl2 1320   0.513   4.029   2.695
    1TCM     h1 1321   0.669   4.105   2.859
    1TCM    cl3 1322   0.668   3.867   2.880
    1TCM     c1 1323   2.343   0.684   4.021
    1TCM    cl1 1324   2.173   0.672   4.071
    1TCM    cl2 1325   2.354   0.783   3.874
    1TCM     h1 1326   2.402   0.732   4.102
    1TCM    cl3 1327   2.407   0.522   3.988
    1TCM     c1 1328   1.884   2.036   2.178
    1TCM    cl1 1329   1.939   1.955   2.029
    1TCM    cl2 1330   1.737   1.956   2.238
    1TCM     h1 1331   1.964   2.030   2.255
    1TCM    cl3 1332   1.849   2.206   2.142
    1TCM     c1 1333   0.923   3.233   2.325
    1TCM    cl1 1334   0.973   3.106   2.440
    1TCM    cl2 1335   1.047   3.250   2.198
    1TCM     h1 1336   0.826   3.204   2.279
    1TCM    cl3 1337   0.905   3.387   2.411
    1TCM     c1 1338   4.754   3.774   3.187
    1TCM    cl1 1339   4.692   3.719   3.345
    1TCM    cl2 1340   4.668   3.688   3.057
    1TCM     h1 1341   4.737   3.883   3.177
    1TCM    cl3 1342   4.928   3.739   3.176
    1TCM     c1 1343   4.226   1.030   4.553
    1TCM    cl1 1344   4.061   0.964   4.556
    1TCM    cl2 1345   4.308   0.989   4.705
    1TCM     h1 1346   4.281   0.986   4.468
    1TCM    cl3 1347   4.218   1.207   4.535
    1TCM     c1 1348   0.167   3.081   4.619
    1TCM    cl1 1349   0.193   2.935   4.717
    1TCM    cl2 1350   0.318   3.126   4.537
    1TCM     h1 1351   0.088   3.061   4.543
    1TCM    cl3 1352   0.114   3.214   4.724
    1TCM     c1 1353   1.049   1.804   0.295
    1TCM    cl1 1354   1.158   1.867   0.169
    1TCM    cl2 1355   1.011   1.934   0.410
    1TCM     h1 1356   0.955   1.768   0.247
    1TCM    cl3 1357   1.128   1.670   0.380
    1TCM     c1 1358   1.942   2.141   1.771
    1TCM    cl1 1359   2.100   2.168   1.848
    1TCM    cl2 1360   1.813   2.201   1.877
    1TCM     h1 1361   1.939   2.194   1.674
    1TCM    cl3 1362   1.919   1.966   1.743
    1TCM     c1 1363   2.654   4.492   3.836
    1TCM    cl1 1364   2.693   4.654   3.897
    1TCM    cl2 1365   2.583   4.394   3.967
    1TCM     h1 1366   2.580   4.500   3.753
    1TCM    cl3 1367   2.801   4.413   3.776
    1TCM     c1 1368   3.252   0.543   1.641
    1TCM    cl1 1369   3.196   0.440   1.774
    1TCM    cl2 1370   3.430   0.541   1.635
    1TCM     h1 1371   3.212   0.505   1.544
    1TCM    cl3 1372   3.195   0.710   1.667
    1TCM     c1 1373   2.452   4.826   4.875
    1TCM    cl1 1374   2.572   4.890   4.760
    1TCM    cl2 1375   2.519   4.832   5.040
    1TCM     h1 1376   2.360   4.887   4.870
    1TCM    cl3 1377   2.414   4.658   4.833
    1TCM     c1 1378   2.667   1.925   3.397
    1TCM    cl1 1379   2.810   1.882   3.494
    1TCM    cl2 1380   2.640   1.801   3.273
    1TCM     h1 1381   2.578   1.932   3.463
    1TCM    cl3 1382   2.694   2.082   3.318
    1TCM     c1 1383   0.828   1.797   5.039
    1TCM    cl1 1384   0.944   1.743   4.915
    1TCM    cl2 1385   0.876   1.958   5.098
    1TCM     h1 1386   0.727   1.802   4.994
    1TCM    cl3 1387   0.828   1.682   5.174
    1TCM     c1 1388   3.159   1.151   3.115
    1TCM    cl1 1389   3.257   1.242   3.233
    1TCM    cl2 1390   3.058   1.264   3.022
    1TCM     h1 1391   3.226   1.096   3.046
    1TCM    cl3 1392   3.055   1.036   3.201
    1TCM     c1 1393   3.727   0.785   1.651
    1TCM    cl1 1394   3.594   0.737   1.758
    1TCM    cl2 1395   3.869   0.828   1.748
    1TCM     h1 1396   3.753   0.700   1.584
    1TCM    cl3 1397   3.677   0.924   1.553
    1TCM     c1 1398   0.514   0.486   0.617
    1TCM    cl1 1399   0.395   0.588   0.700
    1TCM    cl2 1400   0.532   0.541   0.449
    1TCM     h1 1401   0.612   0.493   0.669
    1TCM    cl3 1402   0.458   0.317   0.618
    1TCM     c1 1403   0.856   3.816   3.734
    1TCM    cl1 1404   0.853   3.937   3.603
    1TCM    cl2 1405   0.766   3.878   3.874
    1TCM     h1 1406   0.808   3.722   3.698
    1TCM    cl3 1407   1.024   3.783   3.781
    1TCM     c1 1408   5.206   4.232   4.414
    1TCM    cl1 1409   5.107   4.297   4.547
    1TCM    cl2 1410   5.272   4.074   4.461
    1TCM     h1 1411   5.143   4.220   4.323
    1TCM    cl3 1412   5.340   4.344   4.379
    1TCM     c1 1413   3.764   1.800   0.950
    1TCM    cl1 1414   3.767   1.638   0.878
    1TCM    cl2 1415   3.597   1.840   0.998
    1TCM     h1 1416   3.830   1.803   1.039
    1TCM    cl3 1417   3.820   1.919   0.830
    1TCM     c1 1418   3.495   4.501   3.795
    1TCM    cl1 1419   3.654   4.440   3.744
    1TCM    cl2 1420   3.504   4.559   3.963
    1TCM     h1 1421   3.464   4.584   3.728
    1TCM    cl3 1422   3.375   4.369   3.784
    1TCM     c1 1423   1.684   4.740   3.254
    1TCM    cl1 1424   1.533   4.764   3.345
    1TCM    cl2 1425   1.712   4.566   3.232
    1TCM     h1 1426   1.674   4.788   3.154
    1TCM    cl3 1427   1.820   4.812   3.342
    1TCM     c1 1428   2.652   0.531   2.655
    1TCM    cl1 1429   2.508   0.607   2.726
    1TCM    cl2 1430   2.602   0.421   2.524
    1TCM     h1 1431   2.719   0.609   2.613
    1TCM    cl3 1432   2.739   0.439   2.780
    1TCM     c1 1433   3.329   2.159   4.233
    1TCM    cl1 1434   3.152   2.155   4.211
    1TCM    cl2 1435   3.408   2.162   4.073
    1TCM     h1 1436   3.357   2.250   4.289
    1TCM    cl3 1437   3.381   2.015   4.322
    1TCM     c1 1438   2.974   2.294   0.580
    1TCM    cl1 1439   3.129   2.362   0.635
    1TCM    cl2 1440   2.899   2.203   0.713
    1TCM     h1 1441   2.907   2.376   0.549
    1TCM    cl3 1442   3.002   2.185   0.442
    1TCM     c1 1443   1.452   0.446   4.983
    1TCM    cl1 1444   1.311   0.511   5.069
    1TCM    cl2 1445   1.497   0.289   5.053
    1TCM     h1 1446   1.427   0.432   4.876
    1TCM    cl3 1447   1.588   0.559   4.998
    1TCM     c1 1448   0.758   1.646   1.693
    1TCM    cl1 1449   0.818   1.573   1.843
    1TCM    cl2 1450   0.595   1.585   1.658
    1TCM     h1 1451   0.754   1.757   1.704
    1TCM    cl3 1452   0.867   1.605   1.558
    1TCM     c1 1453   4.983   3.154   0.316
    1TCM    cl1 1454   4.999   3.237   0.159
    1TCM    cl2 1455   4.992   3.274   0.447
    1TCM     h1 1456   4.885   3.102   0.320
    1TCM    cl3 1457   5.115   3.036   0.334
    1TCM     c1 1458   0.676   1.688   4.025
    1TCM    cl1 1459   0.607   1.586   3.897
    1TCM    cl2 1460   0.553   1.717   4.150
    1TCM     h1 1461   0.763   1.636   4.070
    1TCM    cl3 1462   0.728   1.843   3.956
    1TCM     c1 1463   0.935   0.776   0.453
    1TCM    cl1 1464   1.030   0.635   0.507
    1TCM    cl2 1465   0.899   0.761   0.280
    1TCM     h1 1466   0.840   0.780   0.511
    1TCM    cl3 1467   1.028   0.925   0.482
    1TCM     c1 1468   3.475   4.906   4.936
    1TCM    cl1 1469   3.592   5.037   4.913
    1TCM    cl2 1470   3.559   4.761   4.997
    1TCM     h1 1471   3.397   4.937   5.008
    1TCM    cl3 1472   3.398   4.867   4.780
    1TCM     c1 1473   3.137   3.878   3.629
    1TCM    cl1 1474   3.154   3.936   3.797
    1TCM    cl2 1475   3.274   3.774   3.588
    1TCM     h1 1476   3.042   3.821   3.620
    1TCM    cl3 1477   3.132   4.017   3.519
    1TCM     c1 1478   2.887   4.313   3.273
    1TCM    cl1 1479   2.795   4.196   3.176
    1TCM    cl2 1480   2.939   4.237   3.425
    1TCM     h1 1481   2.976   4.346   3.216
    1TCM    cl3 1482   2.784   4.454   3.309
    1TCM     c1 1483   3.514   1.376   2.770
    1TCM    cl1 1484   3.638   1.354   2.645
    1TCM    cl2 1485   3.574   1.311   2.925
    1TCM     h1 1486   3.493   1.485   2.782
    1TCM    cl3 1487   3.366   1.291   2.723
    1TCM     c1 1488   4.604   2.089   5.143
    1TCM    cl1 1489   4.452   1.999   5.163
    1TCM    cl2 1490   4.695   2.086   5.295
    1TCM     h1 1491   4.664   2.042   5.062
    1TCM    cl3 1492   4.567   2.257   5.099
    1TCM     c1 1493   3.213   2.207   0.819
    1TCM    cl1 1494   3.194   2.374   0.877
    1TCM    cl2 1495   3.229   2.097   0.958
    1TCM     h1 1496   3.125   2.178   0.759
    1TCM    cl3 1497   3.359   2.195   0.718
    1TCM     c1 1498   4.558   4.842   1.582
    1TCM    cl1 1499   4.662   4.818   1.439
    1TCM    cl2 1500   4.591   5.002   1.652
    1TCM     h1 1501   4.452   4.836   1.551
    1TCM    cl3 1502   4.593   4.716   1.702
    1TCM     c1 1503   4.657   0.705   3.229
    1TCM    cl1 1504   4.792   0.819   3.207
    1TCM    cl2 1505   4.646   0.659   3.400
    1TCM     h1 1506   4.563   0.753   3.197
    1TCM    cl3 1507   4.686   0.560   3.130
    1TCM     c1 1508   3.570   2.216   0.448
    1TCM    cl1 1509   3.450   2.304   0.351
    1TCM    cl2 1510   3.696   2.151   0.340
    1TCM     h1 1511   3.617   2.285   0.521
    1TCM    cl3 1512   3.491   2.082   0.535
    1TCM     c1 1513   1.242   4.692   5.088
    1TCM    cl1 1514   1.310   4.633   4.935
    1TCM    cl2 1515   1.113   4.581   5.141
    1TCM     h1 1516   1.321   4.696   5.165
    1TCM    cl3 1517   1.174   4.854   5.064
    1TCM     c1 1518   5.110   0.278   4.506
    1TCM    cl1 1519   5.066   0.372   4.651
    1TCM    cl2 1520   5.227   0.152   4.551
    1TCM     h1 1521   5.019   0.231   4.464
    1TCM    cl3 1522   5.183   0.386   4.385
    1TCM     c1 1523   4.360   4.875   0.253
    1TCM    cl1 1524   4.465   4.776   0.357
    1TCM    cl2 1525   4.253   4.769   0.159
    1TCM     h1 1526   4.299   4.943   0.316
    1TCM    cl3 1527   4.461   4.971   0.142
    1TCM     c1 1528   0.749   2.660   3.826
    1TCM    cl1 1529   0.623   2.535   3.832
    1TCM    cl2 1530   0.823   2.677   3.987
    1TCM     h1 1531   0.826   2.631   3.753
    1TCM    cl3 1532   0.677   2.815   3.777
    1TCM     c1 1533   4.093   1.344   1.622
    1TCM    cl1 1534   4.043   1.514   1.623
    1TCM    cl2 1535   3.956   1.242   1.673
    1TCM     h1 1536   4.124   1.315   1.519
    1TCM    cl3 1537   4.229   1.321   1.734
    1TCM     c1 1538   1.439   4.895   0.406
    1TCM    cl1 1539   1.490   4.748   0.493
    1TCM    cl2 1540   1.327   4.849   0.275
    1TCM     h1 1541   1.387   4.963   0.476
    1TCM    cl3 1542   1.581   4.976   0.337
    1TCM     c1 1543   3.293   1.073   3.971
    1TCM    cl1 1544   3.305   1.151   4.130
    1TCM    cl2 1545   3.152   0.965   3.968
    1TCM     h1 1546   3.282   1.151   3.892
    1TCM    cl3 1547   3.441   0.979   3.940
    1TCM     c1 1548   4.627   3.507   3.720
    1TCM    cl1 1549   4.484   3.614   3.722
    1TCM    cl2 1550   4.696   3.498   3.884
    1TCM     h1 1551   4.596   3.406   3.687
    1TCM    cl3 1552   4.748   3.572   3.608
    1TCM     c1 1553   1.347   0.816   0.571
    1TCM    cl1 1554   1.521   0.843   0.595
    1TCM    cl2 1555   1.266   0.804   0.728
    1TCM     h1 1556   1.304   0.901   0.513
    1TCM    cl3 1557   1.323   0.665   0.480
    1TCM     c1 1558   1.163   1.994   1.149
    1TCM    cl1 1559   1.245   1.945   1.299
    1TCM    cl2 1560   1.194   2.166   1.118
    1TCM     h1 1561   1.201   1.933   1.064
    1TCM    cl3 1562   0.988   1.967   1.167
    1TCM     c1 1563   3.474   3.065   2.422
    1TCM    cl1 1564   3.611   3.177   2.406
    1TCM    cl2 1565   3.467   3.004   2.589
    1TCM     h1 1566   3.380   3.117   2.398
    1TCM    cl3 1567   3.496   2.928   2.310
    1TCM     c1 1568   3.236   3.551   2.855
    1TCM    cl1 1569   3.147   3.659   2.744
    1TCM    cl2 1570   3.365   3.642   2.935
    1TCM     h1 1571   3.166   3.511   2.931
    1TCM    cl3 1572   3.306   3.417   2.762
    1TCM     c1 1573   1.294   1.076   0.223
    1TCM    cl1 1574   1.117   1.067   0.224
    1TCM    cl2 1575   1.349   1.136   0.065
    1TCM     h1 1576   1.328   1.144   0.303
    1TCM    cl3 1577   1.362   0.914   0.251
    1TCM     c1 1578   3.045   0.236   0.883
    1TCM    cl1 1579   3.047   0.125   0.745
    1TCM    cl2 1580   3.110   0.394   0.833
    1TCM     h1 1581   2.941   0.249   0.919
    1TCM    cl3 1582   3.146   0.170   1.014
    1TCM     c1 1583   1.969   3.392   1.029
    1TCM    cl1 1584   2.000   3.566   1.046
    1TCM    cl2 1585   2.100   3.301   1.108
    1TCM     h1 1586   1.873   3.367   1.077
    1TCM    cl3 1587   1.963   3.349   0.857
    1TCM     c1 1588   2.946   3.774   1.985
    1TCM    cl1 1589   2.961   3.805   1.810
    1TCM    cl2 1590   2.797   3.848   2.046
    1TCM     h1 1591   2.943   3.664   2.002
    1TCM    cl3 1592   3.086   3.844   2.069
    1TCM     c1 1593   4.695   0.487   4.107
    1TCM    cl1 1594   4.529   0.513   4.165
    1TCM    cl2 1595   4.701   0.511   3.931
    1TCM     h1 1596   4.763   0.559   4.156
    1TCM    cl3 1597   4.746   0.321   4.146
    1TCM     c1 1598   4.665   3.004   4.780
    1TCM    cl1 1599   4.591   3.125   4.672
    1TCM    cl2 1600   4.606   3.030   4.946
    1TCM     h1 1601   4.636   2.902   4.746
    1TCM    cl3 1602   4.842   3.021   4.776
    1TCM     c1 1603   1.080   4.685   2.391
    1TCM    cl1 1604   1.188   4.826   2.400
    1TCM    cl2 1605   1.123   4.585   2.250
    1TCM     h1 1606   1.090   4.624   2.484
    1TCM    cl3 1607   0.911   4.740   2.375
    1TCM     c1 1608   5.141   0.224   0.350
    1TCM    cl1 1609   5.045   0.359   0.284
    1TCM    cl2 1610   5.032   0.091   0.396
    1TCM     h1 1611   5.212   0.188   0.273
    1TCM    cl3 1612   5.231   0.279   0.493
    1TCM     c1 1613   4.584   0.475   3.658
    1TCM    cl1 1614   4.541   0.429   3.491
    1TCM    cl2 1615   4.458   0.416   3.769
    1TCM     h1 1616   4.681   0.429   3.685
    1TCM    cl3 1617   4.595   0.652   3.669
    1TCM     c1 1618   3.609   5.120   4.451
    1TCM    cl1 1619   3.745   5.111   4.337
    1TCM    cl2 1620   3.668   5.088   4.616
    1TCM     h1 1621   3.564   5.221   4.447
    1TCM    cl3 1622   3.487   4.998   4.407
    1TCM     c1 1623   1.405   1.882   1.601
    1TCM    cl1 1624   1.569   1.867   1.668
    1TCM    cl2 1625   1.412   1.872   1.424
    1TCM     h1 1626   1.341   1.799   1.640
    1TCM    cl3 1627   1.335   2.038   1.650
    1TCM     c1 1628   3.306   1.778   2.799
    1TCM    cl1 1629   3.474   1.811   2.848
    1TCM    cl2 1630   3.232   1.667   2.916
    1TCM     h1 1631   3.249   1.873   2.798
    1TCM    cl3 1632   3.305   1.705   2.638
    1TCM     c1 1633   3.636   0.406   0.538
    1TCM    cl1 1634   3.586   0.383   0.369
    1TCM    cl2 1635   3.560   0.282   0.640
    1TCM     h1 1636   3.746   0.397   0.545
    1TCM    cl3 1637   3.586   0.568   0.593
    1TCM     c1 1638   0.625   1.363   1.984
    1TCM    cl1 1639   0.514   1.433   2.104
    1TCM    cl2 1640   0.578   1.417   1.821
    1TCM     h1 1641   0.729   1.396   2.006
    1TCM    cl3 1642   0.616   1.185   1.993
    1TCM     c1 1643   2.822   3.910   1.364
    1TCM    cl1 1644   2.674   3.949   1.273
    1TCM    cl2 1645   2.809   3.974   1.529
    1TCM     h1 1646   2.835   3.799   1.369
    1TCM    cl3 1647   2.963   3.982   1.283
    1TCM     c1 1648   2.430   2.531   4.404
    1TCM    cl1 1649   2.382   2.685   4.328
    1TCM    cl2 1650   2.466   2.411   4.278
    1TCM     h1 1651   2.519   2.547   4.467
    1TCM    cl3 1652   2.296   2.471   4.505
    1TCM     c1 1653   0.612   2.330   0.908
    1TCM    cl1 1654   0.773   2.385   0.856
    1TCM    cl2 1655   0.549   2.441   1.033
    1TCM     h1 1656   0.543   2.330   0.821
    1TCM    cl3 1657   0.624   2.166   0.976
    1TCM     c1 1658   2.544   0.428   1.647
    1TCM    cl1 1659   2.393   0.358   1.709
    1TCM    cl2 1660   2.520   0.479   1.478
    1TCM     h1 1661   2.572   0.515   1.709
    1TCM    cl3 1662   2.673   0.306   1.654
    1TCM     c1 1663   2.467   3.627   0.104
    1TCM    cl1 1664   2.317   3.569   0.027
    1TCM    cl2 1665   2.479   3.557   0.267
    1TCM     h1 1666   2.554   3.595   0.044
    1TCM    cl3 1667   2.463   3.804   0.116
    1TCM     c1 1668   0.174   3.454   4.963
    1TCM    cl1 1669   0.260   3.358   4.840
    1TCM    cl2 1670   0.238   3.414   5.124
    1TCM     h1 1671   0.190   3.562   4.943
    1TCM    cl3 1672   0.001   3.417   4.958
    1TCM     c1 1673   3.899   1.927   1.832
    1TCM    cl1 1674   3.865   1.766   1.899
    1TCM    cl2 1675   3.941   2.039   1.965
    1TCM     h1 1676   3.985   1.921   1.762
    1TCM    cl3 1677   3.756   1.988   1.747
    1TCM     c1 1678   2.238   2.829   2.741
    1TCM    cl1 1679   2.386   2.887   2.820
    1TCM    cl2 1680   2.097   2.873   2.838
    1TCM     h1 1681   2.230   2.875   2.640
    1TCM    cl3 1682   2.246   2.652   2.724
    1TCM     c1 1683   4.557   2.857   0.679
    1TCM    cl1 1684   4.683   2.733   0.695
    1TCM    cl2 1685   4.609   3.005   0.763
    1TCM     h1 1686   4.541   2.879   0.572
    1TCM    cl3 1687   4.406   2.797   0.752
    1TCM     c1 1688   5.122   4.281   1.776
    1TCM    cl1 1689   5.017   4.138   1.781
    1TCM    cl2 1690   5.125   4.347   1.611
    1TCM     h1 1691   5.083   4.359   1.846
    1TCM    cl3 1692   5.287   4.235   1.824
    1TCM     c1 1693   3.276   1.698   3.856
    1TCM    cl1 1694   3.187   1.587   3.963
    1TCM    cl2 1695   3.449   1.692   3.895
    1TCM     h1 1696   3.260   1.668   3.750
    1TCM    cl3 1697   3.216   1.864   3.879
    1TCM     c1 1698   0.901   3.769   2.389
    1TCM    cl1 1699   0.996   3.919   2.398
    1TCM    cl2 1700   0.987   3.639   2.476
    1TCM     h1 1701   0.802   3.785   2.435
    1TCM    cl3 1702   0.880   3.721   2.219
    1TCM     c1 1703   3.047   4.151   2.308
    1TCM    cl1 1704   3.016   3.992   2.234
    1TCM    cl2 1705   3.072   4.131   2.483
    1TCM     h1 1706   3.138   4.195   2.263
    1TCM    cl3 1707   2.908   4.257   2.280
    1TCM     c1 1708   1.355   3.016   2.371
    1TCM    cl1 1709   1.401   3.181   2.323
    1TCM    cl2 1710   1.237   2.952   2.254
    1TCM     h1 1711   1.445   2.951   2.371
    1TCM    cl3 1712   1.283   3.019   2.533
    1TCM     c1 1713   4.581   0.131   5.268
    1TCM    cl1 1714   4.594   0.170   5.095
    1TCM    cl2 1715   4.735   0.060   5.324
    1TCM     h1 1716   4.560   0.223   5.326
    1TCM    cl3 1717   4.450   0.013   5.293
    1TCM     c1 1718   4.127   4.943   2.370
    1TCM    cl1 1719   4.249   4.892   2.489
    1TCM    cl2 1720   4.166   4.873   2.211
    1TCM     h1 1721   4.027   4.908   2.403
    1TCM    cl3 1722   4.127   5.120   2.358
    1TCM     c1 1723   1.431   5.030   3.079
    1TCM    cl1 1724   1.502   4.909   2.969
    1TCM    cl2 1725   1.507   5.188   3.050
    1TCM     h1 1726   1.322   5.037   3.060
    1TCM    cl3 1727   1.459   4.980   3.247
    1TCM     c1 1728   3.404   4.971   3.730
    1TCM    cl1 1729   3.384   5.134   3.661
    1TCM    cl2 1730   3.247   4.888   3.731
    1TCM     h1 1731   3.476   4.913   3.668
    1TCM    cl3 1732   3.466   4.984   3.896
    1TCM     c1 1733   3.645   2.203   4.864
    1TCM    cl1 1734   3.696   2.047   4.795
    1TCM    cl2 1735   3.693   2.210   5.035
    1TCM     h1 1736   3.694   2.286   4.808
    1TCM    cl3 1737   3.468   2.219   4.851
    1TCM     c1 1738   4.818   4.243   2.540
    1TCM    cl1 1739   4.942   4.214   2.416
    1TCM    cl2 1740   4.895   4.249   2.700
    1TCM     h1 1741   4.767   4.339   2.520
    1TCM    cl3 1742   4.699   4.111   2.537
    1TCM     c1 1743   5.000   3.147   2.466
    1TCM    cl1 1744   5.044   3.315   2.427
    1TCM    cl2 1745   5.129   3.037   2.411
    1TCM     h1 1746   4.987   3.137   2.576
    1TCM    cl3 1747   4.848   3.105   2.385
    1TCM     c1 1748   1.486   2.364   0.924
    1TCM    cl1 1749   1.334   2.444   0.968
    1TCM    cl2 1750   1.596   2.364   1.064
    1TCM     h1 1751   1.466   2.260   0.893
    1TCM    cl3 1752   1.562   2.452   0.789
    1TCM     c1 1753   1.129   1.970   4.078
    1TCM    cl1 1754   1.021   2.043   4.199
    1TCM    cl2 1755   1.202   2.098   3.978
    1TCM     h1 1756   1.209   1.913   4.129
    1TCM    cl3 1757   1.036   1.860   3.974
    1TCM     c1 1758   4.097   3.591   1.348
    1TCM    cl1 1759   4.113   3.754   1.419
    1TCM    cl2 1760   4.163   3.592   1.183
    1TCM     h1 1761   4.154   3.519   1.410
    1TCM    cl3 1762   3.926   3.544   1.344
    1TCM     c1 1763   0.258   5.149   2.131
    1TCM    cl1 1764   0.147   5.257   2.044
    1TCM    cl2 1765   0.186   5.102   2.286
    1TCM     h1 1766   0.277   5.058   2.069
    1TCM    cl3 1767   0.412   5.234   2.160
    1TCM     c1 1768   1.336   2.524   1.753
    1TCM    cl1 1769   1.241   2.570   1.609
    1TCM    cl2 1770   1.226   2.462   1.878
    1TCM     h1 1771   1.409   2.446   1.725
    1TCM    cl3 1772   1.422   2.667   1.815
    1TCM     c1 1773   0.701   2.246   4.320
    1TCM    cl1 1774   0.839   2.206   4.424
    1TCM    cl2 1775   0.759   2.322   4.170
    1TCM     h1 1776   0.646   2.153   4.295
    1TCM    cl3 1777   0.592   2.358   4.405
    1TCM     c1 1778   1.114   0.891   5.179
    1TCM    cl1 1779   1.128   0.979   5.333
    1TCM    cl2 1780   1.114   1.008   5.045
    1TCM     h1 1781   1.200   0.822   5.168
    1TCM    cl3 1782   0.963   0.798   5.178
    1TCM     c1 1783   3.656   2.941   1.001
    1TCM    cl1 1784   3.734   3.020   1.140
    1TCM    cl2 1785   3.655   3.053   0.862
    1TCM     h1 1786   3.713   2.850   0.974
    1TCM    cl3 1787   3.489   2.898   1.043
    1TCM     c1 1788   3.688   4.987   3.010
    1TCM    cl1 1789   3.681   5.164   2.990
    1TCM    cl2 1790   3.534   4.915   2.959
    1TCM     h1 1791   3.770   4.946   2.947
    1TCM    cl3 1792   3.719   4.948   3.181
    1TCM     c1 1793   4.632   3.192   5.165
    1TCM    cl1 1794   4.503   3.255   5.060
    1TCM    cl2 1795   4.579   3.040   5.240
    1TCM     h1 1796   4.724   3.174   5.104
    1TCM    cl3 1797   4.668   3.311   5.292
    1TCM     c1 1798   4.446   2.815   2.966
    1TCM    cl1 1799   4.311   2.725   3.039
    1TCM    cl2 1800   4.590   2.798   3.069
    1TCM     h1 1801   4.467   2.775   2.865
    1TCM    cl3 1802   4.402   2.987   2.954
    1TCM     c1 1803   2.139   4.444   3.583
    1TCM    cl1 1804   1.967   4.424   3.622
    1TCM    cl2 1805   2.174   4.365   3.428
    1TCM     h1 1806   2.163   4.552   3.576
    1TCM    cl3 1807   2.237   4.369   3.711
    1TCM     c1 1808   3.545   2.249   0.957
    1TCM    cl1 1809   3.676   2.279   0.840
    1TCM    cl2 1810   3.464   2.403   0.996
    1TCM     h1 1811   3.472   2.179   0.913
    1TCM    cl3 1812   3.613   2.179   1.105
    1TCM     c1 1813   2.469   2.066   2.614
    1TCM    cl1 1814   2.563   2.199   2.545
    1TCM    cl2 1815   2.381   1.982   2.484
    1TCM     h1 1816   2.537   1.994   2.664
    1TCM    cl3 1817   2.353   2.130   2.733
    1TCM     c1 1818   2.928   2.905   3.474
    1TCM    cl1 1819   3.001   3.003   3.603
    1TCM    cl2 1820   3.055   2.806   3.396
    1TCM     h1 1821   2.851   2.838   3.518
    1TCM    cl3 1822   2.853   3.011   3.353
    1TCM     c1 1823   5.009   1.907   1.652
    1TCM    cl1 1824   5.155   1.962   1.735
    1TCM    cl2 1825   4.865   1.972   1.735
    1TCM     h1 1826   5.010   1.944   1.547
    1TCM    cl3 1827   5.002   1.730   1.653
    1TCM     c1 1828   1.659   1.378   3.605
    1TCM    cl1 1829   1.520   1.305   3.690
    1TCM    cl2 1830   1.603   1.451   3.453
    1TCM     h1 1831   1.705   1.456   3.669
    1TCM    cl3 1832   1.779   1.252   3.569
    1TCM     c1 1833   3.424   4.191   2.232
    1TCM    cl1 1834   3.576   4.253   2.163
    1TCM    cl2 1835   3.424   4.216   2.408
    1TCM     h1 1836   3.338   4.245   2.187
    1TCM    cl3 1837   3.410   4.017   2.197
    1TCM     c1 1838   2.082   3.564   0.483
    1TCM    cl1 1839   2.091   3.704   0.593
    1TCM    cl2 1840   2.125   3.615   0.318
    1TCM     h1 1841   2.153   3.486   0.517
    1TCM    cl3 1842   1.917   3.499   0.484
    1TCM     c1 1843   4.624   2.150   3.220
    1TCM    cl1 1844   4.621   2.048   3.365
    1TCM    cl2 1845   4.740   2.283   3.243
    1TCM     h1 1846   4.655   2.089   3.132
    1TCM    cl3 1847   4.462   2.217   3.191
    1TCM     c1 1848   2.422   3.885   1.492
    1TCM    cl1 1849   2.538   4.015   1.457
    1TCM    cl2 1850   2.283   3.952   1.581
    1TCM     h1 1851   2.387   3.840   1.397
    1TCM    cl3 1852   2.501   3.761   1.592
    1TCM     c1 1853   1.079   4.890   4.760
    1TCM    cl1 1854   1.252   4.927   4.747
    1TCM    cl2 1855   0.991   4.972   4.629
    1TCM     h1 1856   1.063   4.780   4.751
    1TCM    cl3 1857   1.018   4.947   4.917
    1TCM     c1 1858   3.652   3.221   3.709
    1TCM    cl1 1859   3.624   3.150   3.548
    1TCM    cl2 1860   3.499   3.282   3.775
    1TCM     h1 1861   3.694   3.143   3.777
    1TCM    cl3 1862   3.768   3.355   3.695
    1TCM     c1 1863   3.766   3.838   1.251
    1TCM    cl1 1864   3.661   3.749   1.363
    1TCM    cl2 1865   3.705   3.820   1.085
    1TCM     h1 1866   3.766   3.946   1.278
    1TCM    cl3 1867   3.932   3.774   1.260
    1TCM     c1 1868   2.544   1.223   3.937
    1TCM    cl1 1869   2.484   1.365   4.027
    1TCM    cl2 1870   2.642   1.122   4.045
    1TCM     h1 1871   2.458   1.165   3.899
    1TCM    cl3 1872   2.643   1.278   3.800
    1TCM     c1 1873   2.122   3.599   4.882
    1TCM    cl1 1874   2.280   3.532   4.928
    1TCM    cl2 1875   2.080   3.544   4.719
    1TCM     h1 1876   2.045   3.564   4.954
    1TCM    cl3 1877   2.129   3.776   4.885
    1TCM     c1 1878   4.446   3.876   3.247
    1TCM    cl1 1879   4.299   3.975   3.267
    1TCM    cl2 1880   4.584   3.959   3.322
    1TCM     h1 1881   4.431   3.778   3.296
    1TCM    cl3 1882   4.477   3.851   3.074
    1TCM     c1 1883   3.077   1.569   5.005
    1TCM    cl1 1884   3.246   1.544   4.956
    1TCM    cl2 1885   2.968   1.503   4.881
    1TCM     h1 1886   3.059   1.518   5.102
    1TCM    cl3 1887   3.046   1.743   5.024
    1TCM     c1 1888   0.586   0.646   4.137
    1TCM    cl1 1889   0.434   0.600   4.216
    1TCM    cl2 1890   0.553   0.696   3.970
    1TCM     h1 1891   0.632   0.730   4.192
    1TCM    cl3 1892   0.697   0.507   4.136
    1TCM     c1 1893   3.575   0.930   2.008
    1TCM    cl1 1894   3.676   0.796   2.066
    1TCM    cl2 1895   3.455   0.868   1.892
    1TCM     h1 1896   3.523   0.977   2.093
    1TCM    cl3 1897   3.678   1.051   1.927
    1TCM     c1 1898   2.690   4.526   2.468
    1TCM    cl1 1899   2.623   4.691   2.456
    1TCM    cl2 1900   2.842   4.530   2.561
    1TCM     h1 1901   2.617   4.461   2.520
    1TCM    cl3 1902   2.722   4.463   2.305
    1TCM     c1 1903   0.880   1.120   2.175
    1TCM    cl1 1904   0.832   0.994   2.059
    1TCM    cl2 1905   0.883   1.051   2.339
    1TCM     h1 1906   0.980   1.159   2.149
    1TCM    cl3 1907   0.762   1.253   2.170
    1TCM     c1 1908   2.427   4.371   3.156
    1TCM    cl1 1909   2.398   4.277   3.007
    1TCM    cl2 1910   2.483   4.534   3.113
    1TCM     h1 1911   2.333   4.378   3.214
    1TCM    cl3 1912   2.552   4.289   3.253
    1TCM     c1 1913   4.230   1.856   4.782
    1TCM    cl1 1914   4.200   1.908   4.615
    1TCM    cl2 1915   4.301   1.990   4.875
    1TCM     h1 1916   4.135   1.825   4.830
    1TCM    cl3 1917   4.343   1.718   4.782
    1TCM     c1 1918   0.306   0.492   0.193
    1TCM    cl1 1919   0.447   0.563   0.112
    1TCM    cl2 1920   0.347   0.456   0.362
    1TCM     h1 1921   0.221   0.563   0.190
    1TCM    cl3 1922   0.260   0.341   0.110
    1TCM     c1 1923   3.958   3.895   5.159
    1TCM    cl1 1924   3.802   3.945   5.089
    1TCM    cl2 1925   3.939   3.874   5.334
    1TCM     h1 1926   3.990   3.799   5.113
    1TCM    cl3 1927   4.080   4.019   5.127
    1TCM     c1 1928   2.045   2.339   2.740
    1TCM    cl1 1929   2.155   2.241   2.641
    1TCM    cl2 1930   1.922   2.414   2.634
    1TCM     h1 1931   1.995   2.275   2.815
    1TCM    cl3 1932   2.137   2.467   2.823
    1TCM     c1 1933   2.099   4.124   1.530
    1TCM    cl1 1934   2.063   3.968   1.453
    1TCM    cl2 1935   2.147   4.097   1.699
    1TCM     h1 1936   2.182   4.174   1.476
    1TCM    cl3 1937   1.955   4.228   1.525
    1TCM     c1 1938   4.106   3.618   1.903
    1TCM    cl1 1939   4.168   3.596   2.068
    1TCM    cl2 1940   4.137   3.470   1.808
    1TCM     h1 1941   3.997   3.638   1.906
    1TCM    cl3 1942   4.189   3.755   1.827
    1TCM     c1 1943   2.569   4.659   0.626
    1TCM    cl1 1944   2.461   4.647   0.766
    1TCM    cl2 1945   2.568   4.826   0.565
    1TCM     h1 1946   2.673   4.632   0.656
    1TCM    cl3 1947   2.514   4.549   0.498
    1TCM     c1 1948   2.776   2.372   4.674
    1TCM    cl1 1949   2.889   2.237   4.699
    1TCM    cl2 1950   2.699   2.415   4.828
    1TCM     h1 1951   2.831   2.459   4.634
    1TCM    cl3 1952   2.651   2.322   4.557
    1TCM     c1 1953   1.560   3.349   2.679
    1TCM    cl1 1954   1.512   3.213   2.577
    1TCM    cl2 1955   1.585   3.293   2.846
    1TCM     h1 1956   1.655   3.393   2.641
    1TCM    cl3 1957   1.433   3.474   2.677
    1TCM     c1 1958   0.640   4.203   4.907
    1TCM    cl1 1959   0.640   4.180   5.083
    1TCM    cl2 1960   0.525   4.090   4.832
    1TCM     h1 1961   0.609   4.307   4.884
    1TCM    cl3 1962   0.803   4.174   4.843
    1TCM     c1 1963   0.252   2.387   1.717
    1TCM    cl1 1964   0.387   2.503   1.721
    1TCM    cl2 1965   0.187   2.367   1.881
    1TCM     h1 1966   0.173   2.425   1.649
    1TCM    cl3 1967   0.311   2.230   1.657
    1TCM     c1 1968   4.507   1.036   4.216
    1TCM    cl1 1969   4.531   0.860   4.205
    1TCM    cl2 1970   4.648   1.120   4.149
    1TCM     h1 1971   4.416   1.064   4.159
    1TCM    cl3 1972   4.486   1.081   4.387
    1TCM     c1 1973   3.963   1.141   0.468
    1TCM    cl1 1974   3.937   1.274   0.352
    1TCM    cl2 1975   4.001   0.992   0.379
    1TCM     h1 1976   4.047   1.167   0.535
    1TCM    cl3 1977   3.815   1.117   0.564
    1TCM     c1 1978   1.760   1.817   3.962
    1TCM    cl1 1979   1.705   1.667   4.042
    1TCM    cl2 1980   1.696   1.822   3.796
    1TCM     h1 1981   1.723   1.905   4.019
    1TCM    cl3 1982   1.938   1.820   3.958
    1TCM     c1 1983   0.346   1.814   2.073
    1TCM    cl1 1984   0.227   1.859   1.949
    1TCM    cl2 1985   0.262   1.771   2.224
    1TCM     h1 1986   0.406   1.728   2.038
    1TCM    cl3 1987   0.455   1.952   2.104
    1TCM     c1 1988   1.632   0.601   3.462
    1TCM    cl1 1989   1.553   0.495   3.344
    1TCM    cl2 1990   1.602   0.540   3.626
    1TCM     h1 1991   1.742   0.602   3.443
    1TCM    cl3 1992   1.567   0.766   3.447
    1TCM     c1 1993   2.271   4.202   1.207
    1TCM    cl1 1994   2.339   4.323   1.319
    1TCM    cl2 1995   2.269   4.268   1.042
    1TCM     h1 1996   2.333   4.111   1.210
    1TCM    cl3 1997   2.105   4.162   1.257
    1TCM     c1 1998   3.471   1.745   4.314
    1TCM    cl1 1999   3.572   1.790   4.174
    1TCM    cl2 2000   3.504   1.855   4.449
    1TCM     h1 2001   3.364   1.752   4.286
    1TCM    cl3 2002   3.509   1.578   4.363
    1TCM     c1 2003   2.206   3.741   4.196
    1TCM    cl1 2004   2.115   3.731   4.044
    1TCM    cl2 2005   2.283   3.901   4.209
    1TCM     h1 2006   2.136   3.727   4.281
    1TCM    cl3 2007   2.331   3.615   4.199
    1TCM     c1 2008   3.154   0.980   4.949
    1TCM    cl1 2009   3.213   1.134   4.881
    1TCM    cl2 2010   3.190   0.974   5.123
    1TCM     h1 2011   3.044   0.973   4.934
    1TCM    cl3 2012   3.234   0.844   4.866
    1TCM     c1 2013   3.162   2.852   2.435
    1TCM    cl1 2014   3.272   2.903   2.305
    1TCM    cl2 2015   3.236   2.885   2.593
    1TCM     h1 2016   3.066   2.907   2.427
    1TCM    cl3 2017   3.130   2.677   2.421
    1TCM     c1 2018   4.714   4.244   0.902
    1TCM    cl1 2019   4.762   4.221   0.732
    1TCM    cl2 2020   4.859   4.268   1.002
    1TCM     h1 2021   4.649   4.333   0.909
    1TCM    cl3 2022   4.626   4.101   0.959
    1TCM     c1 2023   2.151   2.901   4.443
    1TCM    cl1 2024   2.172   2.897   4.620
    1TCM    cl2 2025   2.136   2.736   4.381
    1TCM     h1 2026   2.059   2.959   4.418
    1TCM    cl3 2027   2.292   2.980   4.368
    1TCM     c1 2028   2.738   4.152   4.399
    1TCM    cl1 2029   2.674   4.293   4.487
    1TCM    cl2 2030   2.755   4.015   4.511
    1TCM     h1 2031   2.668   4.125   4.317
    1TCM    cl3 2032   2.897   4.192   4.331
    1TCM     c1 2033   4.452   5.156   2.685
    1TCM    cl1 2034   4.493   5.107   2.851
    1TCM    cl2 2035   4.294   5.238   2.685
    1TCM     h1 2036   4.529   5.226   2.647
    1TCM    cl3 2037   4.445   5.012   2.581
    1TCM     c1 2038   1.752   3.554   2.090
    1TCM    cl1 2039   1.705   3.395   2.155
    1TCM    cl2 2040   1.926   3.555   2.057
    1TCM     h1 2041   1.696   3.573   1.996
    1TCM    cl3 2042   1.713   3.681   2.208
    1TCM     c1 2043   3.478   0.803   1.040
    1TCM    cl1 2044   3.539   0.840   0.877
    1TCM    cl2 2045   3.523   0.636   1.084
    1TCM     h1 2046   3.522   0.873   1.113
    1TCM    cl3 2047   3.301   0.818   1.041
    1TCM     c1 2048   0.349   3.733   3.049
    1TCM    cl1 2049   0.415   3.830   2.915
    1TCM    cl2 2050   0.182   3.784   3.083
    1TCM     h1 2051   0.350   3.626   3.022
    1TCM    cl3 2052   0.449   3.758   3.195
    1TCM     c1 2053   2.953   2.678   4.868
    1TCM    cl1 2054   3.059   2.756   4.987
    1TCM    cl2 2055   2.869   2.541   4.945
    1TCM     h1 2056   2.878   2.751   4.832
    1TCM    cl3 2057   3.049   2.619   4.731
    1TCM     c1 2058   2.262   0.674   0.697
    1TCM    cl1 2059   2.394   0.781   0.645
    1TCM    cl2 2060   2.321   0.563   0.822
    1TCM     h1 2061   2.178   0.735   0.738
    1TCM    cl3 2062   2.204   0.580   0.557
    1TCM     c1 2063   2.917   0.247   2.292
    1TCM    cl1 2064   3.079   0.267   2.224
    1TCM    cl2 2065   2.832   0.404   2.291
    1TCM     h1 2066   2.860   0.174   2.231
    1TCM    cl3 2067   2.930   0.188   2.459
    1TCM     c1 2068   1.810   3.554   4.653
    1TCM    cl1 2069   1.699   3.592   4.786
    1TCM    cl2 2070   1.906   3.410   4.694
    1TCM     h1 2071   1.751   3.534   4.561
    1TCM    cl3 2072   1.918   3.692   4.625
    1TCM     c1 2073   0.835   2.884   0.808
    1TCM    cl1 2074   0.922   2.730   0.826
    1TCM    cl2 2075   0.667   2.864   0.863
    1TCM     h1 2076   0.885   2.962   0.868
    1TCM    cl3 2077   0.835   2.932   0.637
    1TCM     c1 2078   2.988   0.211   3.452
    1TCM    cl1 2079   3.153   0.200   3.518
    1TCM    cl2 2080   2.977   0.112   3.305
    1TCM     h1 2081   2.915   0.175   3.527
    1TCM    cl3 2082   2.952   0.381   3.411
    1TCM     c1 2083   2.077   3.021   1.143
    1TCM    cl1 2084   1.942   2.949   1.053
    1TCM    cl2 2085   2.182   3.111   1.031
    1TCM     h1 2086   2.037   3.091   1.220
    1TCM    cl3 2087   2.171   2.893   1.222
    1TCM     c1 2088   3.111   5.150   4.005
    1TCM    cl1 2089   2.989   5.025   3.974
    1TCM    cl2 2090   3.139   5.163   4.181
    1TCM     h1 2091   3.206   5.122   3.955
    1TCM    cl3 2092   3.054   5.306   3.942
    1TCM     c1 2093   0.246   0.361   4.227
    1TCM    cl1 2094   0.198   0.508   4.139
    1TCM    cl2 2095   0.333   0.408   4.375
    1TCM     h1 2096   0.155   0.303   4.255
    1TCM    cl3 2097   0.352   0.262   4.125
    1TCM     c1 2098   2.460   2.664   4.019
    1TCM    cl1 2099   2.345   2.537   4.068
    1TCM    cl2 2100   2.378   2.822   4.024
    1TCM     h1 2101   2.546   2.666   4.089
    1TCM    cl3 2102   2.517   2.632   3.854
    1TCM     c1 2103   0.790   1.478   0.264
    1TCM    cl1 2104   0.898   1.531   0.132
    1TCM    cl2 2105   0.750   1.307   0.243
    1TCM     h1 2106   0.842   1.492   0.361
    1TCM    cl3 2107   0.641   1.575   0.261
    1TCM     c1 2108   4.655   2.979   1.942
    1TCM    cl1 2109   4.604   3.136   2.008
    1TCM    cl2 2110   4.805   2.927   2.023
    1TCM     h1 2111   4.576   2.904   1.960
    1TCM    cl3 2112   4.684   2.994   1.768
    1TCM     c1 2113   3.131   3.240   0.591
    1TCM    cl1 2114   3.069   3.132   0.718
    1TCM    cl2 2115   3.184   3.393   0.663
    1TCM     h1 2116   3.216   3.191   0.539
    1TCM    cl3 2117   3.001   3.272   0.473
    1TCM     c1 2118   2.580   4.890   1.595
    1TCM    cl1 2119   2.520   4.757   1.492
    1TCM    cl2 2120   2.458   4.928   1.719
    1TCM     h1 2121   2.674   4.859   1.644
    1TCM    cl3 2122   2.609   5.034   1.495
    1TCM     c1 2123   2.768   3.906   4.936
    1TCM    cl1 2124   2.886   3.777   4.907
    1TCM    cl2 2125   2.621   3.837   5.008
    1TCM     h1 2126   2.811   3.981   5.005
    1TCM    cl3 2127   2.727   3.984   4.781
    1TCM     c1 2128   3.891   3.954   2.787
    1TCM    cl1 2129   3.830   3.833   2.902
    1TCM    cl2 2130   3.913   3.879   2.627
    1TCM     h1 2131   3.818   4.038   2.779
    1TCM    cl3 2132   4.047   4.017   2.844
    1TCM     c1 2133   2.326   1.566   2.493
    1TCM    cl1 2134   2.194   1.682   2.464
    1TCM    cl2 2135   2.482   1.650   2.486
    1TCM     h1 2136   2.313   1.520   2.594
    1TCM    cl3 2137   2.320   1.438   2.369
    1TCM     c1 2138   4.905   2.332   0.673
    1TCM    cl1 2139   4.795   2.398   0.550
    1TCM    cl2 2140   4.842   2.369   0.835
    1TCM     h1 2141   4.914   2.222   0.661
    1TCM    cl3 2142   5.066   2.406   0.654
    1TCM     c1 2143   4.203   0.591   3.235
    1TCM    cl1 2144   4.339   0.562   3.346
    1TCM    cl2 2145   4.201   0.465   3.110
    1TCM     h1 2146   4.108   0.587   3.292
    1TCM    cl3 2147   4.221   0.750   3.158
    1TCM     c1 2148   4.857   2.344   0.153
    1TCM    cl1 2149   4.914   2.470   0.265
    1TCM    cl2 2150   4.753   2.230   0.241
    1TCM     h1 2151   4.798   2.391   0.071
    1TCM    cl3 2152   4.996   2.257   0.085
    1TCM     c1 2153   3.412   1.221   1.050
    1TCM    cl1 2154   3.270   1.219   1.157
    1TCM    cl2 2155   3.380   1.120   0.907
    1TCM     h1 2156   3.433   1.325   1.018
    1TCM    cl3 2157   3.553   1.155   1.137
    1TCM     c1 2158   2.726   4.511   4.808
    1TCM    cl1 2159   2.572   4.437   4.857
    1TCM    cl2 2160   2.847   4.488   4.937
    1TCM     h1 2161   2.762   4.463   4.715
    1TCM    cl3 2162   2.703   4.685   4.780
    1TCM     c1 2163   1.542   5.258   0.606
    1TCM    cl1 2164   1.614   5.335   0.749
    1TCM    cl2 2165   1.601   5.339   0.459
    1TCM     h1 2166   1.570   5.151   0.603
    1TCM    cl3 2167   1.365   5.272   0.614
    1TCM     c1 2168   1.423   3.308   4.508
    1TCM    cl1 2169   1.561   3.411   4.552
    1TCM    cl2 2170   1.471   3.195   4.380
    1TCM     h1 2171   1.389   3.251   4.597
    1TCM    cl3 2172   1.289   3.410   4.450
    1TCM     c1 2173   1.237   2.409   2.435
    1TCM    cl1 2174   1.251   2.233   2.457
    1TCM    cl2 2175   1.190   2.445   2.267
    1TCM     h1 2176   1.160   2.449   2.504
    1TCM    cl3 2177   1.394   2.486   2.469
    1TCM     c1 2178   1.538   1.569   0.647
    1TCM    cl1 2179   1.430   1.584   0.507
    1TCM    cl2 2180   1.703   1.614   0.600
    1TCM     h1 2181   1.503   1.635   0.728
    1TCM    cl3 2182   1.537   1.400   0.704
    1TCM     c1 2183   0.385   5.171   3.236
    1TCM    cl1 2184   0.226   5.105   3.191
    1TCM    cl2 2185   0.396   5.340   3.183
    1TCM     h1 2186   0.397   5.166   3.346
    1TCM    cl3 2187   0.513   5.075   3.158
    1TCM     c1 2188   2.770   3.943   0.290
    1TCM    cl1 2189   2.855   3.942   0.446
    1TCM    cl2 2190   2.713   3.779   0.252
    1TCM     h1 2191   2.684   4.012   0.295
    1TCM    cl3 2192   2.882   3.997   0.162
    1TCM     c1 2193   5.179   1.816   0.828
    1TCM    cl1 2194   5.312   1.876   0.727
    1TCM    cl2 2195   5.091   1.688   0.742
    1TCM     h1 2196   5.220   1.775   0.923
    1TCM    cl3 2197   5.068   1.950   0.865
    1TCM     c1 2198   3.239   4.793   4.112
    1TCM    cl1 2199   3.286   4.653   4.211
    1TCM    cl2 2200   3.188   4.737   3.951
    1TCM     h1 2201   3.156   4.847   4.161
    1TCM    cl3 2202   3.378   4.902   4.094
    1TCM     c1 2203   0.359   3.222   3.461
    1TCM    cl1 2204   0.368   3.357   3.576
    1TCM    cl2 2205   0.275   3.085   3.538
    1TCM     h1 2206   0.303   3.253   3.371
    1TCM    cl3 2207   0.523   3.172   3.415
    1TCM     c1 2208   2.836   0.528   2.046
    1TCM    cl1 2209   2.745   0.599   2.181
    1TCM    cl2 2210   2.781   0.361   2.018
    1TCM     h1 2211   2.819   0.588   1.954
    1TCM    cl3 2212   3.009   0.527   2.085
    1TCM     c1 2213   4.850   5.005   4.336
    1TCM    cl1 2214   4.873   4.904   4.481
    1TCM    cl2 2215   4.807   5.170   4.386
    1TCM     h1 2216   4.944   5.007   4.278
    1TCM    cl3 2217   4.719   4.937   4.237
    1TCM     c1 2218   4.043   1.013   2.044
    1TCM    cl1 2219   4.094   0.861   1.967
    1TCM    cl2 2220   3.987   0.980   2.209
    1TCM     h1 2221   4.130   1.083   2.048
    1TCM    cl3 2222   3.912   1.086   1.949
    1TCM     c1 2223   2.333   4.796   2.472
    1TCM    cl1 2224   2.205   4.706   2.388
    1TCM    cl2 2225   2.392   4.700   2.610
    1TCM     h1 2226   2.417   4.815   2.402
    1TCM    cl3 2227   2.268   4.950   2.531
    1TCM     c1 2228   2.235   2.613   0.936
    1TCM    cl1 2229   2.395   2.579   1.007
    1TCM    cl2 2230   2.245   2.599   0.759
    1TCM     h1 2231   2.161   2.541   0.975
    1TCM    cl3 2232   2.185   2.778   0.979
    1TCM     c1 2233   2.179   4.735   0.421
    1TCM    cl1 2234   2.310   4.632   0.482
    1TCM    cl2 2235   2.105   4.659   0.278
    1TCM     h1 2236   2.102   4.747   0.500
    1TCM    cl3 2237   2.244   4.894   0.376
    1TCM     c1 2238   3.697   1.188   2.353
    1TCM    cl1 2239   3.862   1.147   2.301
    1TCM    cl2 2240   3.589   1.049   2.324
    1TCM     h1 2241   3.698   1.212   2.462
    1TCM    cl3 2242   3.639   1.329   2.261
    1TCM     c1 2243   3.705   3.997   0.786
    1TCM    cl1 2244   3.872   4.047   0.821
    1TCM    cl2 2245   3.592   4.108   0.866
    1TCM     h1 2246   3.688   4.000   0.676
    1TCM    cl3 2247   3.679   3.831   0.845
    1TCM     c1 2248   1.700   4.331   2.145
    1TCM    cl1 2249   1.640   4.235   2.008
    1TCM    cl2 2250   1.816   4.235   2.239
    1TCM     h1 2251   1.750   4.423   2.107
    1TCM    cl3 2252   1.563   4.377   2.249
    1TCM     c1 2253   4.959   2.757   3.001
    1TCM    cl1 2254   5.111   2.847   2.978
    1TCM    cl2 2255   4.826   2.845   2.922
    1TCM     h1 2256   4.969   2.657   2.956
    1TCM    cl3 2257   4.925   2.742   3.174
    1TCM     c1 2258   1.700   1.312   2.194
    1TCM    cl1 2259   1.804   1.401   2.307
    1TCM    cl2 2260   1.689   1.402   2.041
    1TCM     h1 2261   1.743   1.211   2.175
    1TCM    cl3 2262   1.537   1.295   2.264
    1TCM     c1 2263   1.062   4.268   0.227
    1TCM    cl1 2264   1.192   4.197   0.325
    1TCM    cl2 2265   0.917   4.167   0.239
    1TCM     h1 2266   1.040   4.370   0.264
    1TCM    cl3 2267   1.115   4.276   0.057
    1TCM     c1 2268   3.198   2.694   0.978
    1TCM    cl1 2269   3.040   2.671   1.056
    1TCM    cl2 2270   3.310   2.567   1.031
    1TCM     h1 2271   3.186   2.690   0.868
    1TCM    cl3 2272   3.263   2.853   1.024
    1TCM     c1 2273   0.586   1.988   2.551
    1TCM    cl1 2274   0.555   2.035   2.382
    1TCM    cl2 2275   0.720   2.086   2.616
    1TCM     h1 2276   0.495   2.005   2.611
    1TCM    cl3 2277   0.630   1.816   2.557
    1TCM     c1 2278   2.624   0.765   4.984
    1TCM    cl1 2279   2.719   0.902   4.924
    1TCM    cl2 2280   2.453   0.812   4.997
    1TCM     h1 2281   2.634   0.679   4.913
    1TCM    cl3 2282   2.685   0.716   5.144
    1TCM     c1 2283   0.426   4.325   4.241
    1TCM    cl1 2284   0.508   4.329   4.399
    1TCM    cl2 2285   0.509   4.210   4.134
    1TCM     h1 2286   0.320   4.293   4.254
    1TCM    cl3 2287   0.430   4.488   4.168
    1TCM     c1 2288   4.998   4.025   1.535
    1TCM    cl1 2289   5.008   3.867   1.615
    1TCM    cl2 2290   4.995   4.003   1.359
    1TCM     h1 2291   4.906   4.078   1.568
    1TCM    cl3 2292   5.140   4.123   1.580
    1TCM     c1 2293   2.578   2.318   0.424
    1TCM    cl1 2294   2.557   2.455   0.312
    1TCM    cl2 2295   2.571   2.377   0.592
    1TCM     h1 2296   2.497   2.244   0.407
    1TCM    cl3 2297   2.736   2.241   0.395
    1TCM     c1 2298   3.344   2.467   2.153
    1TCM    cl1 2299   3.466   2.595   2.168
    1TCM    cl2 2300   3.186   2.528   2.206
    1TCM     h1 2301   3.337   2.435   2.047
    1TCM    cl3 2302   3.391   2.328   2.253
    1TCM     c1 2303   4.061   1.259   5.229
    1TCM    cl1 2304   3.998   1.123   5.133
    1TCM    cl2 2305   4.202   1.205   5.323
    1TCM     h1 2306   4.091   1.341   5.161
    1TCM    cl3 2307   3.934   1.316   5.340
    1TCM     c1 2308   1.153   2.077   4.465
    1TCM    cl1 2309   1.249   2.069   4.614
    1TCM    cl2 2310   1.033   1.946   4.464
    1TCM     h1 2311   1.100   2.175   4.460
    1TCM    cl3 2312   1.260   2.060   4.324
    1TCM     c1 2313   0.341   0.304   2.142
    1TCM    cl1 2314   0.230   0.438   2.178
    1TCM    cl2 2315   0.334   0.265   1.969
    1TCM     h1 2316   0.445   0.334   2.169
    1TCM    cl3 2317   0.294   0.161   2.237
    1TCM     c1 2318   3.810   0.442   1.107
    1TCM    cl1 2319   3.709   0.297   1.085
    1TCM    cl2 2320   3.823   0.529   0.953
    1TCM     h1 2321   3.763   0.508   1.183
    1TCM    cl3 2322   3.972   0.394   1.162
    1TCM     c1 2323   3.143   2.294   3.629
    1TCM    cl1 2324   3.314   2.246   3.629
    1TCM    cl2 2325   3.043   2.163   3.562
    1TCM     h1 2326   3.111   2.315   3.734
    1TCM    cl3 2327   3.122   2.441   3.531
    1TCM     c1 2328   3.761   2.865   3.553
    1TCM    cl1 2329   3.845   2.709   3.539
    1TCM    cl2 2330   3.835   2.981   3.440
    1TCM     h1 2331   3.654   2.852   3.528
    1TCM    cl3 2332   3.777   2.927   3.719
    1TCM     c1 2333   3.252   4.428   1.846
    1TCM    cl1 2334   3.093   4.484   1.903
    1TCM    cl2 2335   3.238   4.369   1.679
    1TCM     h1 2336   3.324   4.512   1.849
    1TCM    cl3 2337   3.311   4.297   1.950
    1TCM     c1 2338   0.536   1.326   4.199
    1TCM    cl1 2339   0.362   1.306   4.232
    1TCM    cl2 2340   0.627   1.198   4.282
    1TCM     h1 2341   0.553   1.320   4.090
    1TCM    cl3 2342   0.589   1.485   4.259
    1TCM     c1 2343   0.370   1.848   1.620
    1TCM    cl1 2344   0.371   1.778   1.783
    1TCM    cl2 2345   0.537   1.859   1.559
    1TCM     h1 2346   0.310   1.784   1.552
    1TCM    cl3 2347   0.299   2.011   1.626
    1TCM     c1 2348   0.078   2.904   1.389
    1TCM    cl1 2349   0.100   3.073   1.439
    1TCM    cl2 2350   0.234   2.820   1.395
    1TCM     h1 2351   0.006   2.854   1.457
    1TCM    cl3 2352   0.014   2.899   1.222
    1TCM     c1 2353   0.892   3.675   0.105
    1TCM    cl1 2354   0.909   3.526   0.008
    1TCM    cl2 2355   0.783   3.644   0.242
    1TCM     h1 2356   0.992   3.705   0.143
    1TCM    cl3 2357   0.825   3.804   0.004
    1TCM     c1 2358   3.640   1.249   1.548
    1TCM    cl1 2359   3.539   1.122   1.474
    1TCM    cl2 2360   3.801   1.249   1.472
    1TCM     h1 2361   3.592   1.348   1.533
    1TCM    cl3 2362   3.657   1.217   1.722
    1TCM     c1 2363   3.482   1.724   4.806
    1TCM    cl1 2364   3.442   1.714   4.978
    1TCM    cl2 2365   3.652   1.772   4.787
    1TCM     h1 2366   3.466   1.625   4.758
    1TCM    cl3 2367   3.378   1.846   4.727
    1TCM     c1 2368   0.716   3.968   4.302
    1TCM    cl1 2369   0.551   3.911   4.268
    1TCM    cl2 2370   0.784   3.875   4.438
    1TCM     h1 2371   0.779   3.954   4.212
    1TCM    cl3 2372   0.711   4.141   4.345
    1TCM     c1 2373   3.599   3.219   5.183
    1TCM    cl1 2374   3.611   3.250   5.008
    1TCM    cl2 2375   3.706   3.332   5.270
    1TCM     h1 2376   3.494   3.234   5.216
    1TCM    cl3 2377   3.649   3.052   5.217
    1TCM     c1 2378   0.977   2.595   1.549
    1TCM    cl1 2379   0.976   2.444   1.642
    1TCM    cl2 2380   1.091   2.581   1.413
    1TCM     h1 2381   0.875   2.615   1.510
    1TCM    cl3 2382   1.027   2.729   1.655
    1TCM     c1 2383   4.402   5.086   5.217
    1TCM    cl1 2384   4.306   4.936   5.216
    1TCM    cl2 2385   4.319   5.210   5.121
    1TCM     h1 2386   4.413   5.122   5.322
    1TCM    cl3 2387   4.562   5.055   5.148
    1TCM     c1 2388   4.436   1.119   0.300
    1TCM    cl1 2389   4.302   1.126   0.183
    1TCM    cl2 2390   4.481   0.949   0.329
    1TCM     h1 2391   4.523   1.174   0.259
    1TCM    cl3 2392   4.385   1.193   0.453
    1TCM     c1 2393   3.109   0.848   3.515
    1TCM    cl1 2394   2.968   0.881   3.411
    1TCM    cl2 2395   3.239   0.776   3.417
    1TCM     h1 2396   3.145   0.942   3.560
    1TCM    cl3 2397   3.062   0.734   3.643
    1TCM     c1 2398   4.381   1.368   4.890
    1TCM    cl1 2399   4.408   1.406   5.062
    1TCM    cl2 2400   4.297   1.212   4.877
    1TCM     h1 2401   4.318   1.447   4.844
    1TCM    cl3 2402   4.537   1.359   4.806
    1TCM     c1 2403   4.762   2.168   3.815
    1TCM    cl1 2404   4.884   2.054   3.874
    1TCM    cl2 2405   4.626   2.079   3.744
    1TCM     h1 2406   4.726   2.231   3.899
    1TCM    cl3 2407   4.835   2.273   3.690
    1TCM     c1 2408   0.092   4.826   3.721
    1TCM    cl1 2409   0.137   4.931   3.857
    1TCM    cl2 2410   0.239   4.748   3.657
    1TCM     h1 2411   0.022   4.748   3.757
    1TCM    cl3 2412   0.015   4.922   3.594
    1TCM     c1 2413   3.367   0.752   3.800
    1TCM    cl1 2414   3.394   0.727   3.974
    1TCM    cl2 2415   3.502   0.846   3.733
    1TCM     h1 2416   3.361   0.653   3.749
    1TCM    cl3 2417   3.214   0.840   3.776
    1TCM     c1 2418   3.867   3.757   1.593
    1TCM    cl1 2419   3.707   3.836   1.601
    1TCM    cl2 2420   3.864   3.608   1.689
    1TCM     h1 2421   3.891   3.733   1.488
    1TCM    cl3 2422   3.990   3.867   1.659
    1TCM     c1 2423   0.554   0.166   1.367
    1TCM    cl1 2424   0.404   0.252   1.407
    1TCM    cl2 2425   0.533   0.078   1.213
    1TCM     h1 2426   0.637   0.239   1.357
    1TCM    cl3 2427   0.593   0.050   1.496
    1TCM     c1 2428   2.166   3.966   3.660
    1TCM    cl1 2429   2.139   4.128   3.729
    1TCM    cl2 2430   2.205   3.852   3.791
    1TCM     h1 2431   2.075   3.933   3.608
    1TCM    cl3 2432   2.302   3.972   3.545
    1TCM     c1 2433   4.515   3.949   1.353
    1TCM    cl1 2434   4.648   3.943   1.471
    1TCM    cl2 2435   4.580   3.926   1.189
    1TCM     h1 2436   4.442   3.868   1.375
    1TCM    cl3 2437   4.434   4.107   1.363
    1TCM     c1 2438   3.162   4.344   4.567
    1TCM    cl1 2439   2.990   4.299   4.576
    1TCM    cl2 2440   3.250   4.269   4.702
    1TCM     h1 2441   3.205   4.308   4.470
    1TCM    cl3 2442   3.178   4.521   4.576
    1TCM     c1 2443   2.070   1.872   4.795
    1TCM    cl1 2444   2.117   1.814   4.634
    1TCM    cl2 2445   2.113   1.749   4.917
    1TCM     h1 2446   2.124   1.966   4.818
    1TCM    cl3 2447   1.895   1.901   4.800
    1TCM     c1 2448   1.438   3.501   1.832
    1TCM    cl1 2449   1.563   3.625   1.811
    1TCM    cl2 2450   1.353   3.528   1.986
    1TCM     h1 2451   1.365   3.507   1.748
    1TCM    cl3 2452   1.514   3.340   1.833
    1TCM     c1 2453   1.827   0.153   1.540
    1TCM    cl1 2454   1.794   0.009   1.640
    1TCM    cl2 2455   1.768   0.124   1.375
    1TCM     h1 2456   1.776   0.241   1.583
    1TCM    cl3 2457   2.002   0.183   1.536
    1TCM     c1 2458   4.203   4.400   3.756
    1TCM    cl1 2459   4.272   4.394   3.592
    1TCM    cl2 2460   4.331   4.436   3.873
    1TCM     h1 2461   4.126   4.480   3.760
    1TCM    cl3 2462   4.128   4.244   3.795
    1TCM     c1 2463   0.734   0.992   3.749
    1TCM    cl1 2464   0.840   0.877   3.664
    1TCM    cl2 2465   0.814   1.046   3.898
    1TCM     h1 2466   0.715   1.079   3.684
    1TCM    cl3 2467   0.580   0.913   3.789
    1TCM     c1 2468   1.705   4.448   0.718
    1TCM    cl1 2469   1.700   4.601   0.808
    1TCM    cl2 2470   1.711   4.483   0.543
    1TCM     h1 2471   1.796   4.391   0.747
    1TCM    cl3 2472   1.560   4.352   0.754
    1TCM     c1 2473   3.257   0.388   0.137
    1TCM    cl1 2474   3.268   0.516   0.014
    1TCM    cl2 2475   3.117   0.284   0.101
    1TCM     h1 2476   3.350   0.327   0.134
    1TCM    cl3 2477   3.238   0.461   0.298
    1TCM     c1 2478   3.772   0.956   3.292
    1TCM    cl1 2479   3.609   0.891   3.262
    1TCM    cl2 2480   3.819   1.061   3.156
    1TCM     h1 2481   3.771   1.015   3.386
    1TCM    cl3 2482   3.888   0.822   3.307
    1TCM     c1 2483   0.127   4.572   4.005
    1TCM    cl1 2484   0.052   4.524   3.851
    1TCM    cl2 2485   0.279   4.657   3.972
    1TCM     h1 2486   0.058   4.639   4.060
    1TCM    cl3 2487   0.160   4.427   4.103
    1TCM     c1 2488   4.379   1.723   5.184
    1TCM    cl1 2489   4.304   1.840   5.073
    1TCM    cl2 2490   4.412   1.801   5.340
    1TCM     h1 2491   4.311   1.637   5.199
    1TCM    cl3 2492   4.532   1.665   5.113
    1TCM     c1 2493   0.548   0.824   2.744
    1TCM    cl1 2494   0.601   0.973   2.662
    1TCM    cl2 2495   0.526   0.857   2.917
    1TCM     h1 2496   0.451   0.790   2.700
    1TCM    cl3 2497   0.671   0.697   2.722
    1TCM     c1 2498   0.409   2.234   2.167
    1TCM    cl1 2499   0.384   2.379   2.267
    1TCM    cl2 2500   0.466   2.283   2.006
    1TCM     h1 2501   0.484   2.169   2.215
    1TCM    cl3 2502   0.255   2.146   2.151
    1TCM     c1 2503   3.641   2.228   1.672
    1TCM    cl1 2504   3.587   2.214   1.503
    1TCM    cl2 2505   3.609   2.392   1.732
    1TCM     h1 2506   3.587   2.154   1.735
    1TCM    cl3 2507   3.816   2.195   1.681
    1TCM     c1 2508   2.672   0.940   4.404
    1TCM    cl1 2509   2.797   0.983   4.285
    1TCM    cl2 2510   2.732   0.976   4.568
    1TCM     h1 2511   2.580   0.998   4.385
    1TCM    cl3 2512   2.636   0.766   4.392
    1TCM     c1 2513   4.671   2.543   4.937
    1TCM    cl1 2514   4.522   2.635   4.969
    1TCM    cl2 2515   4.647   2.440   4.794
    1TCM     h1 2516   4.754   2.614   4.918
    1TCM    cl3 2517   4.709   2.442   5.078
    1TCM     c1 2518   3.840   0.775   2.854
    1TCM    cl1 2519   3.755   0.661   2.960
    1TCM    cl2 2520   3.801   0.942   2.903
    1TCM     h1 2521   3.950   0.759   2.862
    1TCM    cl3 2522   3.789   0.749   2.686
    1TCM     c1 2523   3.302   2.080   3.318
    1TCM    cl1 2524   3.446   2.018   3.402
    1TCM    cl2 2525   3.308   2.031   3.147
    1TCM     h1 2526   3.211   2.039   3.365
    1TCM    cl3 2527   3.300   2.258   3.328
    1TCM     c1 2528   3.809   1.712   1.351
    1TCM    cl1 2529   3.827   1.574   1.240
    1TCM    cl2 2530   3.820   1.655   1.519
    1TCM     h1 2531   3.890   1.786   1.332
    1TCM    cl3 2532   3.651   1.789   1.325
    1TCM     c1 2533   0.465   3.444   1.590
    1TCM    cl1 2534   0.297   3.462   1.535
    1TCM    cl2 2535   0.513   3.273   1.578
    1TCM     h1 2536   0.532   3.506   1.527
    1TCM    cl3 2537   0.477   3.497   1.760
    1TCM     c1 2538   2.427   3.692   4.646
    1TCM    cl1 2539   2.313   3.763   4.764
    1TCM    cl2 2540   2.410   3.515   4.647
    1TCM     h1 2541   2.404   3.731   4.545
    1TCM    cl3 2542   2.593   3.736   4.691
    1TCM     c1 2543   1.918   1.640   1.963
    1TCM    cl1 2544   1.750   1.663   1.908
    1TCM    cl2 2545   1.997   1.516   1.863
    1TCM     h1 2546   1.973   1.735   1.955
    1TCM    cl3 2547   1.917   1.587   2.133
    1TCM     c1 2548   4.541   2.604   0.301
    1TCM    cl1 2549   4.470   2.766   0.318
    1TCM    cl2 2550   4.416   2.490   0.249
    1TCM     h1 2551   4.622   2.607   0.226
    1TCM    cl3 2552   4.607   2.553   0.458
    1TCM     c1 2553   3.076   4.595   3.575
    1TCM    cl1 2554   3.244   4.554   3.533
    1TCM    cl2 2555   2.966   4.529   3.452
    1TCM     h1 2556   3.051   4.552   3.674
    1TCM    cl3 2557   3.058   4.772   3.582
    1TCM     c1 2558   4.989   3.889   5.164
    1TCM    cl1 2559   5.072   3.755   5.082
    1TCM    cl2 2560   5.014   3.875   5.340
    1TCM     h1 2561   5.031   3.986   5.129
    1TCM    cl3 2562   4.815   3.883   5.129
    1TCM     c1 2563   1.193   2.659   3.322
    1TCM    cl1 2564   1.369   2.685   3.322
    1TCM    cl2 2565   1.111   2.817   3.332
    1TCM     h1 2566   1.163   2.608   3.229
    1TCM    cl3 2567   1.148   2.560   3.462
    1TCM     c1 2568   2.530   2.709   1.312
    1TCM    cl1 2569   2.502   2.728   1.138
    1TCM    cl2 2570   2.608   2.552   1.342
    1TCM     h1 2571   2.596   2.790   1.348
    1TCM    cl3 2572   2.375   2.714   1.398
    1TCM     c1 2573   0.146   3.561   3.564
    1TCM    cl1 2574   0.200   3.487   3.716
    1TCM    cl2 2575   0.110   3.733   3.592
    1TCM     h1 2576   0.227   3.552   3.488
    1TCM    cl3 2577   0.000   3.478   3.506
    1TCM     c1 2578   2.504   4.838   3.306
    1TCM    cl1 2579   2.459   4.996   3.374
    1TCM    cl2 2580   2.518   4.851   3.129
    1TCM     h1 2581   2.602   4.806   3.348
    1TCM    cl3 2582   2.379   4.718   3.347
    1TCM     c1 2583   4.997   2.720   4.197
    1TCM    cl1 2584   4.877   2.851   4.197
    1TCM    cl2 2585   5.024   2.665   4.364
    1TCM     h1 2586   4.960   2.636   4.136
    1TCM    cl3 2587   5.150   2.780   4.129
    1TCM     c1 2588   2.596   2.233   3.602
    1TCM    cl1 2589   2.721   2.108   3.584
    1TCM    cl2 2590   2.476   2.181   3.721
    1TCM     h1 2591   2.643   2.328   3.635
    1TCM    cl3 2592   2.516   2.260   3.445
    1TCM     c1 2593   1.971   0.910   4.097
    1TCM    cl1 2594   1.952   0.751   4.021
    1TCM    cl2 2595   1.915   0.902   4.266
    1TCM     h1 2596   2.078   0.939   4.096
    1TCM    cl3 2597   1.876   1.031   4.008
    1TCM     c1 2598   0.777   0.275   0.778
    1TCM    cl1 2599   0.793   0.439   0.844
    1TCM    cl2 2600   0.675   0.280   0.632
    1TCM     h1 2601   0.877   0.235   0.752
    1TCM    cl3 2602   0.701   0.169   0.900
    1TCM     c1 2603   4.151   1.431   3.664
    1TCM    cl1 2604   4.181   1.574   3.563
    1TCM    cl2 2605   4.118   1.481   3.831
    1TCM     h1 2606   4.064   1.375   3.624
    1TCM    cl3 2607   4.294   1.325   3.661
    1TCM     c1 2608   3.215   4.935   3.372
    1TCM    cl1 2609   3.299   5.070   3.293
    1TCM    cl2 2610   3.092   4.998   3.484
    1TCM     h1 2611   3.165   4.872   3.294
    1TCM    cl3 2612   3.332   4.836   3.461
    1TCM     c1 2613   2.203   2.537   3.081
    1TCM    cl1 2614   2.202   2.680   2.976
    1TCM    cl2 2615   2.195   2.589   3.251
    1TCM     h1 2616   2.115   2.474   3.058
    1TCM    cl3 2617   2.352   2.444   3.055
    1TCM     c1 2618   1.504   0.763   5.240
    1TCM    cl1 2619   1.503   0.928   5.308
    1TCM    cl2 2620   1.500   0.773   5.062
    1TCM     h1 2621   1.596   0.711   5.272
    1TCM    cl3 2622   1.361   0.674   5.298
    1TCM     c1 2623   2.221   4.413   4.448
    1TCM    cl1 2624   2.337   4.328   4.344
    1TCM    cl2 2625   2.284   4.421   4.614
    1TCM     h1 2626   2.205   4.516   4.410
    1TCM    cl3 2627   2.066   4.325   4.448
    1TCM     c1 2628   0.777   3.739   5.077
    1TCM    cl1 2629   0.649   3.641   5.002
    1TCM    cl2 2630   0.936   3.677   5.027
    1TCM     h1 2631   0.767   3.845   5.044
    1TCM    cl3 2632   0.763   3.730   5.254
    1TCM     c1 2633   5.094   3.053   1.866
    1TCM    cl1 2634   5.170   2.935   1.976
    1TCM    cl2 2635   5.220   3.151   1.788
    1TCM     h1 2636   5.037   2.999   1.788
    1TCM    cl3 2637   4.985   3.158   1.958
    1TCM     c1 2638   3.334   1.197   3.602
    1TCM    cl1 2639   3.276   1.298   3.468
    1TCM    cl2 2640   3.195   1.130   3.690
    1TCM     h1 2641   3.396   1.114   3.563
    1TCM    cl3 2642   3.432   1.296   3.713
    1TCM     c1 2643   1.538   0.124   1.267
    1TCM    cl1 2644   1.380   0.086   1.194
    1TCM    cl2 2645   1.663   0.018   1.197
    1TCM     h1 2646   1.563   0.230   1.247
    1TCM    cl3 2647   1.530   0.098   1.443
    1TCM     c1 2648   2.764   2.943   3.885
    1TCM    cl1 2649   2.725   2.772   3.857
    1TCM    cl2 2650   2.926   2.955   3.956
    1TCM     h1 2651   2.761   2.998   3.789
    1TCM    cl3 2652   2.645   3.013   3.997
    1TCM     c1 2653   5.066   3.343   1.248
    1TCM    cl1 2654   5.142   3.445   1.124
    1TCM    cl2 2655   4.977   3.446   1.363
    1TCM     h1 2656   4.996   3.272   1.200
    1TCM    cl3 2657   5.192   3.252   1.335
    1TCM     c1 2658   1.884   0.267   0.188
    1TCM    cl1 2659   1.845   0.426   0.117
    1TCM    cl2 2660   1.866   0.275   0.364
    1TCM     h1 2661   1.815   0.191   0.147
    1TCM    cl3 2662   2.052   0.224   0.147
    1TCM     c1 2663   1.084   1.870   3.018
    1TCM    cl1 2664   0.963   1.909   2.894
    1TCM    cl2 2665   1.009   1.772   3.146
    1TCM     h1 2666   1.167   1.812   2.972
    1TCM    cl3 2667   1.148   2.020   3.088
    1TCM     c1 2668   2.671   3.845   2.461
    1TCM    cl1 2669   2.536   3.847   2.578
    1TCM    cl2 2670   2.620   3.757   2.316
    1TCM     h1 2671   2.698   3.949   2.434
    1TCM    cl3 2672   2.811   3.763   2.534
    1TCM     c1 2673   1.556   0.552   2.932
    1TCM    cl1 2674   1.637   0.708   2.954
    1TCM    cl2 2675   1.406   0.575   2.840
    1TCM     h1 2676   1.623   0.483   2.876
    1TCM    cl3 2677   1.518   0.481   3.091
    1TCM     c1 2678   5.103   5.047   2.760
    1TCM    cl1 2679   4.962   4.992   2.667
    1TCM    cl2 2680   5.250   5.023   2.662
    1TCM     h1 2681   5.092   5.154   2.785
    1TCM    cl3 2682   5.116   4.952   2.910
    1TCM     c1 2683   2.600   3.885   3.190
    1TCM    cl1 2684   2.548   3.926   3.025
    1TCM    cl2 2685   2.576   3.711   3.218
    1TCM     h1 2686   2.707   3.910   3.203
    1TCM    cl3 2687   2.503   3.977   3.308
    1TCM     c1 2688   5.025   5.008   0.232
    1TCM    cl1 2689   5.018   4.869   0.343
    1TCM    cl2 2690   4.949   4.964   0.078
    1TCM     h1 2691   4.971   5.094   0.277
    1TCM    cl3 2692   5.195   5.053   0.203
    1TCM     c1 2693   1.535   4.043   5.170
    1TCM    cl1 2694   1.410   3.987   5.283
    1TCM    cl2 2695   1.686   4.071   5.259
    1TCM     h1 2696   1.551   3.966   5.092
    1TCM    cl3 2697   1.482   4.194   5.093
    1TCM     c1 2698   0.476   1.941   3.500
    1TCM    cl1 2699   0.461   1.791   3.404
    1TCM    cl2 2700   0.646   1.967   3.542
    1TCM     h1 2701   0.438   2.026   3.440
    1TCM    cl3 2702   0.379   1.925   3.648
    1TCM     c1 2703   4.597   0.495   4.776
    1TCM    cl1 2704   4.551   0.632   4.879
    1TCM    cl2 2705   4.465   0.375   4.774
    1TCM     h1 2706   4.615   0.530   4.672
    1TCM    cl3 2707   4.745   0.419   4.840
    1TCM     c1 2708   4.286   2.427   2.494
    1TCM    cl1 2709   4.346   2.379   2.654
    1TCM    cl2 2710   4.423   2.477   2.392
    1TCM     h1 2711   4.234   2.342   2.446
    1TCM    cl3 2712   4.173   2.563   2.511
    1TCM     c1 2713   3.496   4.698   1.635
    1TCM    cl1 2714   3.443   4.831   1.740
    1TCM    cl2 2715   3.536   4.761   1.474
    1TCM     h1 2716   3.586   4.649   1.679
    1TCM    cl3 2717   3.366   4.577   1.621
    1TCM     c1 2718   5.214   5.237   0.739
    1TCM    cl1 2719   5.059   5.209   0.657
    1TCM    cl2 2720   5.339   5.273   0.618
    1TCM     h1 2721   5.203   5.323   0.809
    1TCM    cl3 2722   5.260   5.092   0.831
    1TCM     c1 2723   3.987   5.140   0.260
    1TCM    cl1 2724   3.848   5.146   0.149
    1TCM    cl2 2725   3.929   5.154   0.428
    1TCM     h1 2726   4.040   5.044   0.247
    1TCM    cl3 2727   4.097   5.274   0.224
    1TCM     c1 2728   0.638   5.083   2.477
    1TCM    cl1 2729   0.492   5.028   2.563
    1TCM    cl2 2730   0.592   5.151   2.320
    1TCM     h1 2731   0.689   5.160   2.537
    1TCM    cl3 2732   0.747   4.944   2.452
    1TCM     c1 2733   2.851   5.212   4.399
    1TCM    cl1 2734   2.909   5.061   4.473
    1TCM    cl2 2735   2.798   5.179   4.232
    1TCM     h1 2736   2.766   5.252   4.457
    1TCM    cl3 2737   2.982   5.332   4.397
    1TCM     c1 2738   4.393   4.204   1.830
    1TCM    cl1 2739   4.536   4.289   1.766
    1TCM    cl2 2740   4.376   4.239   2.004
    1TCM     h1 2741   4.302   4.239   1.777
    1TCM    cl3 2742   4.412   4.029   1.806
    1TCM     c1 2743   3.219   3.657   4.794
    1TCM    cl1 2744   3.113   3.634   4.653
    1TCM    cl2 2745   3.178   3.538   4.920
    1TCM     h1 2746   3.325   3.643   4.764
    1TCM    cl3 2747   3.197   3.821   4.858
    1TCM     c1 2748   2.758   0.519   4.347
    1TCM    cl1 2749   2.851   0.595   4.479
    1TCM    cl2 2750   2.799   0.598   4.193
    1TCM     h1 2751   2.783   0.411   4.342
    1TCM    cl3 2752   2.584   0.538   4.379
    1TCM     c1 2753   3.370   3.260   1.774
    1TCM    cl1 2754   3.235   3.166   1.841
    1TCM    cl2 2755   3.457   3.341   1.906
    1TCM     h1 2756   3.439   3.192   1.720
    1TCM    cl3 2757   3.307   3.382   1.660
    1TCM     c1 2758   1.501   3.859   3.112
    1TCM    cl1 2759   1.438   3.819   2.951
    1TCM    cl2 2760   1.678   3.842   3.113
    1TCM     h1 2761   1.474   3.964   3.137
    1TCM    cl3 2762   1.430   3.749   3.233
    1TCM     c1 2763   2.860   4.240   1.767
    1TCM    cl1 2764   2.925   4.074   1.758
    1TCM    cl2 2765   2.702   4.237   1.848
    1TCM     h1 2766   2.930   4.304   1.824
    1TCM    cl3 2767   2.840   4.305   1.602
    1TCM     c1 2768   5.149   1.668   2.946
    1TCM    cl1 2769   5.284   1.602   2.851
    1TCM    cl2 2770   5.201   1.695   3.113
    1TCM     h1 2771   5.116   1.764   2.901
    1TCM    cl3 2772   5.013   1.553   2.944
    1TCM     c1 2773   4.273   3.359   2.961
    1TCM    cl1 2774   4.302   3.185   2.941
    1TCM    cl2 2775   4.417   3.436   3.031
    1TCM     h1 2776   4.252   3.405   2.862
    1TCM    cl3 2777   4.134   3.385   3.068
    1TCM     c1 2778   2.705   4.915   2.656
    1TCM    cl1 2779   2.741   5.056   2.554
    1TCM    cl2 2780   2.671   4.969   2.822
    1TCM     h1 2781   2.616   4.861   2.615
    1TCM    cl3 2782   2.845   4.805   2.656
    1TCM     c1 2783   2.977   3.194   2.461
    1TCM    cl1 2784   3.020   3.174   2.290
    1TCM    cl2 2785   2.799   3.197   2.477
    1TCM     h1 2786   3.017   3.109   2.520
    1TCM    cl3 2787   3.045   3.346   2.522
    1TCM     c1 2788   1.916   3.500   4.160
    1TCM    cl1 2789   1.792   3.584   4.257
    1TCM    cl2 2790   1.912   3.561   3.993
    1TCM     h1 2791   2.016   3.519   4.204
    1TCM    cl3 2792   1.883   3.326   4.161
    1TCM     c1 2793   4.827   1.885   0.665
    1TCM    cl1 2794   4.807   2.042   0.584
    1TCM    cl2 2795   4.950   1.790   0.579
    1TCM     h1 2796   4.859   1.901   0.770
    1TCM    cl3 2797   4.672   1.797   0.662
    1TCM     c1 2798   2.097   3.093   2.122
    1TCM    cl1 2799   2.092   3.243   2.218
    1TCM    cl2 2800   2.147   3.131   1.956
    1TCM     h1 2801   2.170   3.023   2.168
    1TCM    cl3 2802   1.936   3.019   2.120
    1TCM     c1 2803   1.984   0.953   4.966
    1TCM    cl1 2804   1.975   1.087   4.850
    1TCM    cl2 2805   2.151   0.936   5.025
    1TCM     h1 2806   1.917   0.973   5.052
    1TCM    cl3 2807   1.935   0.802   4.886
    1TCM     c1 2808   0.320   5.164   4.117
    1TCM    cl1 2809   0.182   5.265   4.166
    1TCM    cl2 2810   0.410   5.246   3.987
    1TCM     h1 2811   0.386   5.148   4.204
    1TCM    cl3 2812   0.260   5.007   4.057
    1TCM     c1 2813   1.656   4.484   1.711
    1TCM    cl1 2814   1.739   4.582   1.588
    1TCM    cl2 2815   1.636   4.580   1.859
    1TCM     h1 2816   1.556   4.454   1.672
    1TCM    cl3 2817   1.752   4.338   1.746
    1TCM     c1 2818   4.900   0.979   4.160
    1TCM    cl1 2819   5.022   0.939   4.037
    1TCM    cl2 2820   4.740   0.924   4.104
    1TCM     h1 2821   4.925   0.929   4.255
    1TCM    cl3 2822   4.896   1.155   4.185
    1TCM     c1 2823   2.339   3.258   0.264
    1TCM    cl1 2824   2.478   3.199   0.170
    1TCM    cl2 2825   2.252   3.381   0.170
    1TCM     h1 2826   2.271   3.174   0.287
    1TCM    cl3 2827   2.397   3.330   0.416
    1TCM     c1 2828   2.645   4.335   1.307
    1TCM    cl1 2829   2.573   4.256   1.165
    1TCM    cl2 2830   2.605   4.242   1.453
    1TCM     h1 2831   2.756   4.339   1.295
    1TCM    cl3 2832   2.582   4.500   1.322
    1TCM     c1 2833   1.571   0.904   3.932
    1TCM    cl1 2834   1.496   0.810   3.801
    1TCM    cl2 2835   1.648   1.049   3.863
    1TCM     h1 2836   1.494   0.934   4.005
    1TCM    cl3 2837   1.694   0.804   4.013
    1TCM     c1 2838   1.641   1.151   2.801
    1TCM    cl1 2839   1.590   0.993   2.866
    1TCM    cl2 2840   1.571   1.281   2.899
    1TCM     h1 2841   1.752   1.158   2.803
    1TCM    cl3 2842   1.585   1.167   2.633
    1TCM     c1 2843   1.995   3.194   3.460
    1TCM    cl1 2844   2.166   3.164   3.426
    1TCM    cl2 2845   1.977   3.349   3.545
    1TCM     h1 2846   1.938   3.197   3.365
    1TCM    cl3 2847   1.931   3.063   3.563
    1TCM     c1 2848   3.801   4.311   3.066
    1TCM    cl1 2849   3.962   4.380   3.035
    1TCM    cl2 2850   3.818   4.169   3.171
    1TCM     h1 2851   3.737   4.387   3.116
    1TCM    cl3 2852   3.727   4.262   2.912
    1TCM     c1 2853   2.727   5.160   0.493
    1TCM    cl1 2854   2.861   5.240   0.579
    1TCM    cl2 2855   2.576   5.246   0.525
    1TCM     h1 2856   2.748   5.160   0.384
    1TCM    cl3 2857   2.713   4.992   0.550
    1TCM     c1 2858   1.673   3.792   4.102
    1TCM    cl1 2859   1.730   3.849   4.261
    1TCM    cl2 2860   1.611   3.930   4.009
    1TCM     h1 2861   1.756   3.744   4.048
    1TCM    cl3 2862   1.542   3.674   4.126
    1TCM     c1 2863   2.359   2.235   1.329
    1TCM    cl1 2864   2.416   2.364   1.222
    1TCM    cl2 2865   2.247   2.303   1.450
    1TCM     h1 2866   2.306   2.158   1.269
    1TCM    cl3 2867   2.497   2.160   1.412
    1TCM     c1 2868   2.133   1.236   2.119
    1TCM    cl1 2869   2.288   1.322   2.108
    1TCM    cl2 2870   2.040   1.261   1.970
    1TCM     h1 2871   2.152   1.128   2.133
    1TCM    cl3 2872   2.040   1.298   2.258
    1TCM     c1 2873   2.301   2.832   0.457
    1TCM    cl1 2874   2.319   2.988   0.541
    1TCM    cl2 2875   2.428   2.720   0.511
    1TCM     h1 2876   2.201   2.789   0.481
    1TCM    cl3 2877   2.314   2.857   0.282
    1TCM     c1 2878   3.592   2.525   4.348
    1TCM    cl1 2879   3.444   2.504   4.251
    1TCM    cl2 2880   3.584   2.418   4.491
    1TCM     h1 2881   3.680   2.499   4.287
    1TCM    cl3 2882   3.604   2.694   4.402
    1TCM     c1 2883   0.673   0.330   1.941
    1TCM    cl1 2884   0.714   0.404   2.097
    1TCM    cl2 2885   0.616   0.163   1.967
    1TCM     h1 2886   0.592   0.389   1.892
    1TCM    cl3 2887   0.816   0.327   1.836
    1TCM     c1 2888   4.293   4.855   0.794
    1TCM    cl1 2889   4.325   4.854   0.969
    1TCM    cl2 2890   4.331   5.015   0.727
    1TCM     h1 2891   4.356   4.778   0.744
    1TCM    cl3 2892   4.122   4.818   0.764
    1TCM     c1 2893   0.294   4.299   1.104
    1TCM    cl1 2894   0.188   4.157   1.118
    1TCM    cl2 2895   0.200   4.436   1.039
    1TCM     h1 2896   0.334   4.326   1.203
    1TCM    cl3 2897   0.428   4.262   0.993
    1TCM     c1 2898   2.205   2.361   3.809
    1TCM    cl1 2899   2.310   2.366   3.665
    1TCM    cl2 2900   2.306   2.349   3.955
    1TCM     h1 2901   2.144   2.454   3.814
    1TCM    cl3 2902   2.098   2.220   3.800
    1TCM     c1 2903   0.586   4.091   1.291
    1TCM    cl1 2904   0.478   4.115   1.151
    1TCM    cl2 2905   0.519   4.174   1.432
    1TCM     h1 2906   0.594   3.982   1.312
    1TCM    cl3 2907   0.746   4.157   1.253
    1TCM     c1 2908   1.359   3.887   0.499
    1TCM    cl1 2909   1.305   3.741   0.586
    1TCM    cl2 2910   1.433   3.840   0.344
    1TCM     h1 2911   1.271   3.953   0.479
    1TCM    cl3 2912   1.478   3.974   0.598
    1TCM     c1 2913   3.179   2.118   2.541
    1TCM    cl1 2914   3.327   2.030   2.494
    1TCM    cl2 2915   3.154   2.255   2.431
    1TCM     h1 2916   3.092   2.049   2.535
    1TCM    cl3 2917   3.196   2.178   2.707
    1TCM     c1 2918   1.929   2.779   2.520
    1TCM    cl1 2919   2.005   2.899   2.627
    1TCM    cl2 2920   1.798   2.697   2.607
    1TCM     h1 2921   1.888   2.830   2.431
    1TCM    cl3 2922   2.051   2.659   2.470
    1TCM     c1 2923   3.413   5.122   2.095
    1TCM    cl1 2924   3.348   5.240   1.980
    1TCM    cl2 2925   3.279   5.036   2.175
    1TCM     h1 2926   3.477   5.048   2.042
    1TCM    cl3 2927   3.510   5.207   2.218
    1TCM     c1 2928   1.013   2.564   4.427
    1TCM    cl1 2929   1.121   2.682   4.504
    1TCM    cl2 2930   1.096   2.489   4.289
    1TCM     h1 2931   0.985   2.486   4.501
    1TCM    cl3 2932   0.866   2.646   4.370
    1TCM     c1 2933   4.624   3.896   4.931
    1TCM    cl1 2934   4.679   3.751   5.017
    1TCM    cl2 2935   4.719   3.917   4.782
    1TCM     h1 2936   4.516   3.885   4.905
    1TCM    cl3 2937   4.645   4.039   5.035
    1TCM     c1 2938   4.919   1.865   4.171
    1TCM    cl1 2939   5.087   1.814   4.201
    1TCM    cl2 2940   4.877   1.832   4.001
    1TCM     h1 2941   4.851   1.809   4.237
    1TCM    cl3 2942   4.903   2.039   4.203
    1TCM     c1 2943   4.124   2.294   2.840
    1TCM    cl1 2944   3.960   2.304   2.908
    1TCM    cl2 2945   4.116   2.226   2.676
    1TCM     h1 2946   4.168   2.395   2.836
    1TCM    cl3 2947   4.224   2.189   2.943
    1TCM     c1 2948   1.467   2.826   5.169
    1TCM    cl1 2949   1.450   2.996   5.221
    1TCM    cl2 2950   1.311   2.743   5.185
    1TCM     h1 2951   1.500   2.824   5.063
    1TCM    cl3 2952   1.588   2.745   5.271
    1TCM     c1 2953   3.664   2.144   3.132
    1TCM    cl1 2954   3.510   2.229   3.106
    1TCM    cl2 2955   3.723   2.177   3.297
    1TCM     h1 2956   3.649   2.035   3.119
    1TCM    cl3 2957   3.784   2.202   3.014
    1TCM     c1 2958   2.767   4.839   0.985
    1TCM    cl1 2959   2.779   5.016   0.996
    1TCM    cl2 2960   2.612   4.795   0.909
    1TCM     h1 2961   2.850   4.800   0.924
    1TCM    cl3 2962   2.775   4.769   1.148
    1TCM     c1 2963   1.658   3.842   0.889
    1TCM    cl1 2964   1.821   3.788   0.935
    1TCM    cl2 2965   1.619   3.781   0.727
    1TCM     h1 2966   1.584   3.803   0.962
    1TCM    cl3 2967   1.653   4.019   0.888
    1TCM     c1 2968   5.070   3.217   5.124
    1TCM    cl1 2969   5.003   3.340   5.234
    1TCM    cl2 2970   4.955   3.083   5.107
    1TCM     h1 2971   5.089   3.263   5.025
    1TCM    cl3 2972   5.223   3.156   5.191
    1TCM     c1 2973   2.976   5.029   3.124
    1TCM    cl1 2974   3.086   5.146   3.200
    1TCM    cl2 2975   3.004   5.027   2.949
    1TCM     h1 2976   2.995   4.928   3.166
    1TCM    cl3 2977   2.808   5.076   3.156
    1TCM     c1 2978   4.816   3.850   3.648
    1TCM    cl1 2979   4.713   3.821   3.789
    1TCM    cl2 2980   4.714   3.872   3.504
    1TCM     h1 2981   4.877   3.941   3.665
    1TCM    cl3 2982   4.923   3.710   3.623
    1TCM     c1 2983   1.670   0.950   3.254
    1TCM    cl1 2984   1.788   0.831   3.316
    1TCM    cl2 2985   1.642   1.074   3.378
    1TCM     h1 2986   1.711   0.997   3.163
    1TCM    cl3 2987   1.517   0.868   3.216
    1TCM     c1 2988   3.316   2.686   4.625
    1TCM    cl1 2989   3.175   2.787   4.589
    1TCM    cl2 2990   3.365   2.598   4.478
    1TCM     h1 2991   3.400   2.750   4.659
    1TCM    cl3 2992   3.275   2.569   4.753
    1TCM     c1 2993   2.396   4.282   0.638
    1TCM    cl1 2994   2.328   4.157   0.532
    1TCM    cl2 2995   2.449   4.208   0.791
    1TCM     h1 2996   2.482   4.330   0.588
    1TCM    cl3 2997   2.271   4.405   0.672
    1TCM     c1 2998   3.239   1.591   0.297
    1TCM    cl1 2999   3.355   1.685   0.200
    1TCM    cl2 3000   3.156   1.473   0.193
    1TCM     h1 3001   3.294   1.537   0.377
    1TCM    cl3 3002   3.120   1.700   0.370
    1TCM     c1 3003   2.376   1.721   4.049
    1TCM    cl1 3004   2.398   1.870   4.143
    1TCM    cl2 3005   2.203   1.694   4.020
    1TCM     h1 3006   2.428   1.731   3.951
    1TCM    cl3 3007   2.444   1.584   4.138
    1TCM     c1 3008   1.364   1.064   2.669
    1TCM    cl1 3009   1.403   1.199   2.778
    1TCM    cl2 3010   1.500   0.949   2.668
    1TCM     h1 3011   1.272   1.013   2.704
    1TCM    cl3 3012   1.339   1.127   2.505
    1TCM     c1 3013   2.822   4.340   5.159
    1TCM    cl1 3014   2.799   4.252   5.312
    1TCM    cl2 3015   2.665   4.360   5.078
    1TCM     h1 3016   2.867   4.439   5.180
    1TCM    cl3 3017   2.932   4.247   5.054
    1TCM     c1 3018   2.361   4.563   1.617
    1TCM    cl1 3019   2.263   4.461   1.725
    1TCM    cl2 3020   2.296   4.554   1.452
    1TCM     h1 3021   2.358   4.668   1.653
    1TCM    cl3 3022   2.529   4.506   1.618
    1TCM     c1 3023   0.981   2.545   5.124
    1TCM    cl1 3024   0.829   2.502   5.205
    1TCM    cl2 3025   1.002   2.443   4.979
    1TCM     h1 3026   0.978   2.652   5.093
    1TCM    cl3 3027   1.117   2.520   5.235
    1TCM     c1 3028   1.695   1.169   1.815
    1TCM    cl1 3029   1.666   1.328   1.741
    1TCM    cl2 3030   1.540   1.098   1.866
    1TCM     h1 3031   1.743   1.102   1.740
    1TCM    cl3 3032   1.801   1.187   1.956
    1TCM     c1 3033   0.522   3.615   3.664
    1TCM    cl1 3034   0.359   3.685   3.646
    1TCM    cl2 3035   0.593   3.588   3.503
    1TCM     h1 3036   0.586   3.686   3.721
    1TCM    cl3 3037   0.511   3.461   3.752
    1TCM     c1 3038   0.284   0.190   3.785
    1TCM    cl1 3039   0.296   0.368   3.783
    1TCM    cl2 3040   0.417   0.121   3.690
    1TCM     h1 3041   0.290   0.154   3.890
    1TCM    cl3 3042   0.129   0.140   3.715
    1TCM     c1 3043   4.261   5.194   3.310
    1TCM    cl1 3044   4.406   5.217   3.410
    1TCM    cl2 3045   4.286   5.055   3.202
    1TCM     h1 3046   4.174   5.174   3.376
    1TCM    cl3 3047   4.231   5.340   3.214
    1TCM     c1 3048   3.258   4.037   1.532
    1TCM    cl1 3049   3.370   4.171   1.565
    1TCM    cl2 3050   3.326   3.886   1.597
    1TCM     h1 3051   3.160   4.057   1.580
    1TCM    cl3 3052   3.236   4.021   1.356
    1TCM     c1 3053   4.634   4.306   3.895
    1TCM    cl1 3054   4.730   4.445   3.842
    1TCM    cl2 3055   4.737   4.197   3.992
    1TCM     h1 3056   4.549   4.341   3.957
    1TCM    cl3 3057   4.573   4.218   3.753
    1TCM     c1 3058   1.003   3.863   0.428
    1TCM    cl1 3059   1.036   3.688   0.435
    1TCM    cl2 3060   0.827   3.889   0.428
    1TCM     h1 3061   1.048   3.912   0.517
    1TCM    cl3 3062   1.074   3.931   0.280
    1TCM     c1 3063   5.107   2.332   5.087
    1TCM    cl1 3064   5.058   2.273   5.248
    1TCM    cl2 3065   5.274   2.394   5.095
    1TCM     h1 3066   5.102   2.249   5.014
    1TCM    cl3 3067   4.998   2.463   5.037
    1TCM     c1 3068   1.036   5.183   2.440
    1TCM    cl1 3069   1.158   5.168   2.568
    1TCM    cl2 3070   1.117   5.193   2.282
    1TCM     h1 3071   0.969   5.094   2.442
    1TCM    cl3 3072   0.939   5.330   2.466
    1TCM     c1 3073   1.014   1.237   4.209
    1TCM    cl1 3074   0.928   1.315   4.343
    1TCM    cl2 3075   0.925   1.263   4.058
    1TCM     h1 3076   1.116   1.281   4.200
    1TCM    cl3 3077   1.028   1.063   4.241
    1TCM     c1 3078   3.909   2.704   4.202
    1TCM    cl1 3079   3.773   2.664   4.095
    1TCM    cl2 3080   3.891   2.620   4.357
    1TCM     h1 3081   4.004   2.672   4.154
    1TCM    cl3 3082   3.913   2.880   4.230
    1TCM     c1 3083   2.297   3.514   5.214
    1TCM    cl1 3084   2.442   3.461   5.126
    1TCM    cl2 3085   2.163   3.403   5.180
    1TCM     h1 3086   2.319   3.513   5.323
    1TCM    cl3 3087   2.254   3.678   5.163
    1TCM     c1 3088   1.301   0.621   0.914
    1TCM    cl1 3089   1.342   0.598   0.742
    1TCM    cl2 3090   1.329   0.790   0.959
    1TCM     h1 3091   1.195   0.595   0.930
    1TCM    cl3 3092   1.404   0.515   1.013
    1TCM     c1 3093   0.401   3.670   0.568
    1TCM    cl1 3094   0.450   3.666   0.397
    1TCM    cl2 3095   0.396   3.504   0.632
    1TCM     h1 3096   0.474   3.730   0.626
    1TCM    cl3 3097   0.240   3.743   0.581
    1TCM     c1 3098   3.182   1.653   3.392
    1TCM    cl1 3099   3.246   1.783   3.289
    1TCM    cl2 3100   3.033   1.588   3.320
    1TCM     h1 3101   3.257   1.572   3.400
    1TCM    cl3 3102   3.146   1.717   3.554
    1TCM     c1 3103   2.818   4.716   0.192
    1TCM    cl1 3104   2.832   4.580   0.306
    1TCM    cl2 3105   2.707   4.671   0.060
    1TCM     h1 3106   2.777   4.805   0.245
    1TCM    cl3 3107   2.978   4.754   0.125
    1TCM     c1 3108   3.712   3.496   3.407
    1TCM    cl1 3109   3.835   3.367   3.406
    1TCM    cl2 3110   3.769   3.632   3.307
    1TCM     h1 3111   3.617   3.456   3.365
    1TCM    cl3 3112   3.685   3.551   3.574
    1TCM     c1 3113   2.932   3.857   1.019
    1TCM    cl1 3114   2.927   4.028   0.970
    1TCM    cl2 3115   2.806   3.828   1.141
    1TCM     h1 3116   2.913   3.793   0.931
    1TCM    cl3 3117   3.091   3.820   1.088
    1TCM     c1 3118   4.483   4.327   1.166
    1TCM    cl1 3119   4.459   4.444   1.035
    1TCM    cl2 3120   4.631   4.233   1.136
    1TCM     h1 3121   4.493   4.381   1.263
    1TCM    cl3 3122   4.344   4.217   1.174
    1TCM     c1 3123   4.566   3.065   0.308
    1TCM    cl1 3124   4.393   3.091   0.343
    1TCM    cl2 3125   4.659   3.072   0.459
    1TCM     h1 3126   4.580   2.966   0.260
    1TCM    cl3 3127   4.623   3.192   0.197
    1TCM     c1 3128   2.900   1.023   2.201
    1TCM    cl1 3129   2.755   0.942   2.266
    1TCM    cl2 3130   2.851   1.149   2.086
    1TCM     h1 3131   2.956   1.070   2.285
    1TCM    cl3 3132   3.003   0.904   2.119
    1TCM     c1 3133   3.448   4.598   2.996
    1TCM    cl1 3134   3.374   4.707   2.876
    1TCM    cl2 3135   3.345   4.590   3.140
    1TCM     h1 3136   3.458   4.497   2.951
    1TCM    cl3 3137   3.609   4.660   3.040
    1TCM     c1 3138   3.732   3.503   3.940
    1TCM    cl1 3139   3.818   3.598   4.063
    1TCM    cl2 3140   3.772   3.331   3.958
    1TCM     h1 3141   3.622   3.517   3.953
    1TCM    cl3 3142   3.780   3.559   3.778
    1TCM     c1 3143   4.169   0.314   0.213
    1TCM    cl1 3144   4.317   0.303   0.310
    1TCM    cl2 3145   4.199   0.248   0.051
    1TCM     h1 3146   4.088   0.256   0.263
    1TCM    cl3 3147   4.120   0.484   0.199
    1TCM     c1 3148   3.222   3.176   3.480
    1TCM    cl1 3149   3.283   3.060   3.601
    1TCM    cl2 3150   3.323   3.168   3.334
    1TCM     h1 3151   3.117   3.150   3.454
    1TCM    cl3 3152   3.228   3.340   3.548
    1TCM     c1 3153   0.614   2.674   1.848
    1TCM    cl1 3154   0.732   2.773   1.760
    1TCM    cl2 3155   0.603   2.513   1.772
    1TCM     h1 3156   0.646   2.663   1.953
    1TCM    cl3 3157   0.454   2.752   1.843
    1TCM     c1 3158   5.197   4.281   3.039
    1TCM    cl1 3159   5.220   4.441   2.963
    1TCM    cl2 3160   5.256   4.287   3.207
    1TCM     h1 3161   5.089   4.255   3.039
    1TCM    cl3 3162   5.288   4.159   2.948
    1TCM     c1 3163   2.381   3.467   1.526
    1TCM    cl1 3164   2.314   3.305   1.495
    1TCM    cl2 3165   2.427   3.480   1.697
    1TCM     h1 3166   2.470   3.482   1.462
    1TCM    cl3 3167   2.259   3.590   1.487
    1TCM     c1 3168   5.081   1.399   2.450
    1TCM    cl1 3169   5.148   1.521   2.340
    1TCM    cl2 3170   5.213   1.298   2.513
    1TCM     h1 3171   5.030   1.449   2.534
    1TCM    cl3 3172   4.965   1.297   2.362
    1TCM     c1 3173   4.191   3.117   3.999
    1TCM    cl1 3174   4.034   3.059   4.059
    1TCM    cl2 3175   4.313   2.990   4.019
    1TCM     h1 3176   4.182   3.143   3.891
    1TCM    cl3 3177   4.239   3.261   4.091
    1TCM     c1 3178   1.602   3.548   3.474
    1TCM    cl1 3179   1.669   3.649   3.345
    1TCM    cl2 3180   1.619   3.376   3.431
    1TCM     h1 3181   1.656   3.567   3.569
    1TCM    cl3 3182   1.429   3.586   3.496
    1TCM     c1 3183   2.538   3.262   2.604
    1TCM    cl1 3184   2.446   3.210   2.747
    1TCM    cl2 3185   2.704   3.304   2.653
    1TCM     h1 3186   2.541   3.180   2.530
    1TCM    cl3 3187   2.460   3.405   2.532
    1TCM     c1 3188   1.928   2.884   0.173
    1TCM    cl1 3189   1.824   2.778   0.272
    1TCM    cl2 3190   1.893   2.857   0.001
    1TCM     h1 3191   1.908   2.990   0.199
    1TCM    cl3 3192   2.099   2.846   0.206
    1TCM     c1 3193   4.820   0.835   2.890
    1TCM    cl1 3194   4.774   0.670   2.938
    1TCM    cl2 3195   4.721   0.887   2.753
    1TCM     h1 3196   4.804   0.904   2.976
    1TCM    cl3 3197   4.992   0.838   2.844
    1TCM     c1 3198   4.886   2.046   1.276
    1TCM    cl1 3199   4.759   2.016   1.155
    1TCM    cl2 3200   4.842   2.188   1.374
    1TCM     h1 3201   4.896   1.957   1.342
    1TCM    cl3 3202   5.041   2.077   1.193
    1TCM     c1 3203   3.236   4.038   0.387
    1TCM    cl1 3204   3.284   4.104   0.545
    1TCM    cl2 3205   3.131   4.155   0.303
    1TCM     h1 3206   3.326   4.019   0.326
    1TCM    cl3 3207   3.147   3.886   0.412
    1TCM     c1 3208   2.697   4.073   3.648
    1TCM    cl1 3209   2.818   4.086   3.778
    1TCM    cl2 3210   2.779   4.043   3.493
    1TCM     h1 3211   2.628   3.989   3.670
    1TCM    cl3 3212   2.605   4.225   3.638
    1TCM     c1 3213   2.086   4.481   2.157
    1TCM    cl1 3214   2.232   4.397   2.215
    1TCM    cl2 3215   2.006   4.561   2.294
    1TCM     h1 3216   2.115   4.556   2.081
    1TCM    cl3 3217   1.975   4.362   2.085
    1TCM     c1 3218   1.675   1.843   0.673
    1TCM    cl1 3219   1.728   1.724   0.793
    1TCM    cl2 3220   1.756   1.811   0.518
    1TCM     h1 3221   1.565   1.835   0.659
    1TCM    cl3 3222   1.716   2.007   0.729
    1TCM     c1 3223   0.245   2.854   4.396
    1TCM    cl1 3224   0.305   2.976   4.282
    1TCM    cl2 3225   0.303   2.693   4.346
    1TCM     h1 3226   0.282   2.876   4.498
    1TCM    cl3 3227   0.067   2.855   4.397
    1TCM     c1 3228   0.516   1.593   4.735
    1TCM    cl1 3229   0.596   1.749   4.764
    1TCM    cl2 3230   0.607   1.463   4.816
    1TCM     h1 3231   0.412   1.596   4.775
    1TCM    cl3 3232   0.510   1.560   4.560
    1TCM     c1 3233   4.930   2.884   0.652
    1TCM    cl1 3234   4.870   2.904   0.819
    1TCM    cl2 3235   4.979   2.715   0.626
    1TCM     h1 3236   4.850   2.911   0.581
    1TCM    cl3 3237   5.070   2.991   0.627
    1TCM     c1 3238   2.160   4.210   4.815
    1TCM    cl1 3239   2.320   4.283   4.783
    1TCM    cl2 3240   2.066   4.318   4.921
    1TCM     h1 3241   2.106   4.196   4.720
    1TCM    cl3 3242   2.182   4.053   4.895
    1TCM     c1 3243   3.061   3.478   3.269
    1TCM    cl1 3244   2.897   3.517   3.215
    1TCM    cl2 3245   3.170   3.613   3.229
    1TCM     h1 3246   3.061   3.461   3.378
    1TCM    cl3 3247   3.117   3.331   3.185
    1TCM     c1 3248   2.992   4.442   0.527
    1TCM    cl1 3249   2.961   4.295   0.621
    1TCM    cl2 3250   3.058   4.398   0.368
    1TCM     h1 3251   2.898   4.498   0.514
    1TCM    cl3 3252   3.110   4.544   0.613
    1TCM     c1 3253   3.438   4.479   0.479
    1TCM    cl1 3254   3.506   4.392   0.340
    1TCM    cl2 3255   3.520   4.429   0.628
    1TCM     h1 3256   3.451   4.589   0.464
    1TCM    cl3 3257   3.264   4.443   0.492
    1TCM     c1 3258   2.362   3.760   1.013
    1TCM    cl1 3259   2.526   3.828   0.999
    1TCM    cl2 3260   2.334   3.707   1.181
    1TCM     h1 3261   2.287   3.838   0.986
    1TCM    cl3 3262   2.345   3.622   0.904
    1TCM     c1 3263   4.089   3.938   3.760
    1TCM    cl1 3264   4.191   3.895   3.622
    1TCM    cl2 3265   4.192   3.975   3.901
    1TCM     h1 3266   4.028   4.027   3.735
    1TCM    cl3 3267   3.982   3.802   3.800
    1TCM     c1 3268   5.216   4.778   4.201
    1TCM    cl1 3269   5.062   4.740   4.122
    1TCM    cl2 3270   5.184   4.837   4.366
    1TCM     h1 3271   5.279   4.687   4.206
    1TCM    cl3 3272   5.301   4.904   4.109
    1TCM     c1 3273   4.215   0.360   3.567
    1TCM    cl1 3274   4.240   0.222   3.676
    1TCM    cl2 3275   4.057   0.435   3.600
    1TCM     h1 3276   4.296   0.435   3.583
    1TCM    cl3 3277   4.219   0.303   3.398
    1TCM     c1 3278   2.442   2.643   3.362
    1TCM    cl1 3279   2.358   2.787   3.299
    1TCM    cl2 3280   2.377   2.601   3.522
    1TCM     h1 3281   2.426   2.558   3.292
    1TCM    cl3 3282   2.616   2.678   3.375
    1TCM     c1 3283   5.050   4.608   2.642
    1TCM    cl1 3284   5.143   4.572   2.789
    1TCM    cl2 3285   4.945   4.470   2.603
    1TCM     h1 3286   4.988   4.699   2.658
    1TCM    cl3 3287   5.162   4.637   2.506
    1TCM     c1 3288   2.387   0.837   2.064
    1TCM    cl1 3289   2.287   0.727   1.966
    1TCM    cl2 3290   2.389   0.780   2.233
    1TCM     h1 3291   2.490   0.838   2.024
    1TCM    cl3 3292   2.318   1.001   2.058
    1TCM     c1 3293   0.252   2.451   3.044
    1TCM    cl1 3294   0.126   2.481   2.922
    1TCM    cl2 3295   0.242   2.282   3.099
    1TCM     h1 3296   0.352   2.469   2.999
    1TCM    cl3 3297   0.228   2.560   3.182
    1TCM     c1 3298   1.098   4.053   1.113
    1TCM    cl1 3299   1.101   4.054   0.936
    1TCM    cl2 3300   1.231   3.952   1.174
    1TCM     h1 3301   1.110   4.157   1.151
    1TCM    cl3 3302   0.943   3.987   1.170
    1TCM     c1 3303   2.624   3.076   0.680
    1TCM    cl1 3304   2.770   3.017   0.598
    1TCM    cl2 3305   2.556   3.213   0.590
    1TCM     h1 3306   2.549   2.995   0.685
    1TCM    cl3 3307   2.666   3.128   0.845
    1TCM     c1 3308   0.609   0.736   0.968
    1TCM    cl1 3309   0.562   0.614   0.848
    1TCM    cl2 3310   0.596   0.667   1.131
    1TCM     h1 3311   0.714   0.768   0.949
    1TCM    cl3 3312   0.501   0.877   0.954
    1TCM     c1 3313   5.136   2.223   3.299
    1TCM    cl1 3314   5.203   2.191   3.461
    1TCM    cl2 3315   4.978   2.302   3.315
    1TCM     h1 3316   5.206   2.288   3.243
    1TCM    cl3 3317   5.117   2.069   3.212
    1TCM     c1 3318   2.503   1.015   3.497
    1TCM    cl1 3319   2.644   1.037   3.391
    1TCM    cl2 3320   2.544   1.067   3.662
    1TCM     h1 3321   2.418   1.076   3.459
    1TCM    cl3 3322   2.457   0.843   3.499
    1TCM     c1 3323   5.080   1.014   2.239
    1TCM    cl1 3324   5.177   1.162   2.224
    1TCM    cl2 3325   5.164   0.879   2.159
    1TCM     h1 3326   5.066   0.990   2.347
    1TCM    cl3 3327   4.921   1.039   2.162
    1TCM     c1 3328   3.900   0.488   4.606
    1TCM    cl1 3329   3.837   0.323   4.629
    1TCM    cl2 3330   3.845   0.592   4.740
    1TCM     h1 3331   4.011   0.485   4.605
    1TCM    cl3 3332   3.840   0.553   4.452
    1TCM     c1 3333   5.107   0.884   5.066
    1TCM    cl1 3334   5.202   0.802   4.940
    1TCM    cl2 3335   5.185   0.860   5.224
    1TCM     h1 3336   5.102   0.992   5.043
    1TCM    cl3 3337   4.943   0.816   5.070
    1TCM     c1 3338   2.912   0.517   1.538
    1TCM    cl1 3339   3.010   0.389   1.463
    1TCM    cl2 3340   2.948   0.524   1.712
    1TCM     h1 3341   2.935   0.614   1.492
    1TCM    cl3 3342   2.739   0.480   1.515
    1TCM     c1 3343   2.125   1.412   3.836
    1TCM    cl1 3344   2.095   1.438   4.010
    1TCM    cl2 3345   2.026   1.275   3.779
    1TCM     h1 3346   2.097   1.503   3.780
    1TCM    cl3 3347   2.297   1.376   3.811
    1TCM     c1 3348   3.393   1.398   2.153
    1TCM    cl1 3349   3.379   1.505   2.011
    1TCM    cl2 3350   3.475   1.485   2.285
    1TCM     h1 3351   3.292   1.367   2.186
    1TCM    cl3 3352   3.488   1.254   2.109
    1TCM     c1 3353   3.873   2.154   4.335
    1TCM    cl1 3354   4.024   2.114   4.250
    1TCM    cl2 3355   3.908   2.189   4.506
    1TCM     h1 3356   3.826   2.243   4.288
    1TCM    cl3 3357   3.761   2.016   4.325
    1TCM     c1 3358   1.435   2.305   4.289
    1TCM    cl1 3359   1.278   2.281   4.369
    1TCM    cl2 3360   1.420   2.432   4.165
    1TCM     h1 3361   1.510   2.336   4.364
    1TCM    cl3 3362   1.487   2.153   4.212
    1TCM     c1 3363   1.235   0.405   1.973
    1TCM    cl1 3364   1.221   0.419   2.150
    1TCM    cl2 3365   1.197   0.238   1.924
    1TCM     h1 3366   1.163   0.475   1.925
    1TCM    cl3 3367   1.400   0.446   1.923
   5.54000   5.54000   5.54000
