;
;   File mom_tetramer_system_openff_hmr.top  was generated
;   By user: tlf3 (1000)
;   On host:647TRCJM3 
;   At date:Fri. September  5 15:21:12 2025 
;
;   This is a standalone topology file
;
;   Created by:
;   ParmEd:       hmr_topology, VERSION4.3.0 
;   Executable:   hmr_topology
;   Library dir:  /home/tlf3/miniforge3/envs/terphenyl/share/gromacs/top
;   Command line:
;     hmr_topology -t mom_tetramer_system_openff.top -o mom_tetramer_system_openff_hmr.top --hmr_ratio 3
;

[ defaults ]
; nbfunc        comb-rule       gen-pairs       fudgeLJ fudgeQQ
1               2               yes             0.5          0.833333    

[ atomtypes ]
; name    at.num    mass    charge ptype  sigma      epsilon
em_mom_tetramer_0        6  12.010780  0.00000000  A     0.33996695      0.4577296
em_mom_tetramer_1        8  15.999430  0.00000000  A     0.30251065     0.70485815
em_mom_tetramer_2        6  12.010780  0.00000000  A     0.34806469     0.36350306
em_mom_tetramer_3        6  12.010780  0.00000000  A     0.34806469     0.36350306
em_mom_tetramer_4        6  12.010780  0.00000000  A     0.34806469     0.36350306
em_mom_tetramer_5        6  12.010780  0.00000000  A     0.34806469     0.36350306
em_mom_tetramer_6        6  12.010780  0.00000000  A     0.34806469     0.36350306
em_mom_tetramer_7        6  12.010780  0.00000000  A     0.34806469     0.36350306
em_mom_tetramer_8        6  12.010780  0.00000000  A     0.34806469     0.36350306
em_mom_tetramer_9        6  12.010780  0.00000000  A     0.34806469     0.36350306
em_mom_tetramer_10        8  15.999430  0.00000000  A     0.30398122     0.87950233
em_mom_tetramer_11        6  12.010780  0.00000000  A     0.34806469     0.36350306
em_mom_tetramer_12        6  12.010780  0.00000000  A     0.34806469     0.36350306
em_mom_tetramer_13        6  12.010780  0.00000000  A     0.34806469     0.36350306
em_mom_tetramer_14        6  12.010780  0.00000000  A     0.34806469     0.36350306
em_mom_tetramer_15        6  12.010780  0.00000000  A     0.34806469     0.36350306
em_mom_tetramer_16        6  12.010780  0.00000000  A     0.34806469     0.36350306
em_mom_tetramer_17        6  12.010780  0.00000000  A     0.34806469     0.36350306
em_mom_tetramer_18        6  12.010780  0.00000000  A     0.33996695      0.4577296
em_mom_tetramer_19        6  12.010780  0.00000000  A     0.33996695      0.4577296
em_mom_tetramer_20        7  14.006720  0.00000000  A      0.3206876      0.7016213
em_mom_tetramer_21        6  12.010780  0.00000000  A     0.34806469     0.36350306
em_mom_tetramer_22        6  12.010780  0.00000000  A     0.34806469     0.36350306
em_mom_tetramer_23        6  12.010780  0.00000000  A     0.34806469     0.36350306
em_mom_tetramer_24        6  12.010780  0.00000000  A     0.34806469     0.36350306
em_mom_tetramer_25        1   1.007947  0.00000000  A     0.25832257    0.068656285
em_mom_tetramer_26        1   1.007947  0.00000000  A     0.25832257    0.068656285
em_mom_tetramer_27        1   1.007947  0.00000000  A     0.25832257    0.068656285
em_mom_tetramer_28        1   1.007947  0.00000000  A     0.25725815     0.06531786
em_mom_tetramer_29        1   1.007947  0.00000000  A     0.25725815     0.06531786
em_mom_tetramer_30        1   1.007947  0.00000000  A     0.25725815     0.06531786
em_mom_tetramer_31        1   1.007947  0.00000000  A     0.25725815     0.06531786
em_mom_tetramer_32        1   1.007947  0.00000000  A     0.25725815     0.06531786
em_mom_tetramer_33        1   1.007947  0.00000000  A     0.25725815     0.06531786
em_mom_tetramer_34        1   1.007947  0.00000000  A     0.25725815     0.06531786
em_mom_tetramer_35        1   1.007947  0.00000000  A     0.25832257    0.068656285
em_mom_tetramer_36        1   1.007947  0.00000000  A     0.26445434    0.066021356
em_mom_tetramer_37        1   1.007947  0.00000000  A     0.26445434    0.066021356
em_mom_tetramer_38        1   1.007947  0.00000000  A     0.26445434    0.066021356
em_mom_tetramer_39        1   1.007947  0.00000000  A     0.11034277    0.058955969
em_mom_tetramer_40        1   1.007947  0.00000000  A     0.25725815     0.06531786
em_mom_tetramer_41        1   1.007947  0.00000000  A     0.25725815     0.06531786
em_mom_tetramer_42        1   1.007947  0.00000000  A     0.25725815     0.06531786
em_mom_tetramer_43        1   1.007947  0.00000000  A     0.25725815     0.06531786
em_mom_tetramer_44        6  12.010780  0.00000000  A     0.33996695      0.4577296
em_mom_tetramer_45        8  15.999430  0.00000000  A     0.30251065     0.70485815
em_mom_tetramer_46        6  12.010780  0.00000000  A     0.34806469     0.36350306
em_mom_tetramer_47        6  12.010780  0.00000000  A     0.34806469     0.36350306
em_mom_tetramer_48        6  12.010780  0.00000000  A     0.34806469     0.36350306
em_mom_tetramer_49        6  12.010780  0.00000000  A     0.34806469     0.36350306
em_mom_tetramer_50        6  12.010780  0.00000000  A     0.34806469     0.36350306
em_mom_tetramer_51        6  12.010780  0.00000000  A     0.34806469     0.36350306
em_mom_tetramer_52        6  12.010780  0.00000000  A     0.34806469     0.36350306
em_mom_tetramer_53        6  12.010780  0.00000000  A     0.34806469     0.36350306
em_mom_tetramer_54        8  15.999430  0.00000000  A     0.30398122     0.87950233
em_mom_tetramer_55        6  12.010780  0.00000000  A     0.34806469     0.36350306
em_mom_tetramer_56        6  12.010780  0.00000000  A     0.34806469     0.36350306
em_mom_tetramer_57        6  12.010780  0.00000000  A     0.34806469     0.36350306
em_mom_tetramer_58        6  12.010780  0.00000000  A     0.34806469     0.36350306
em_mom_tetramer_59        6  12.010780  0.00000000  A     0.34806469     0.36350306
em_mom_tetramer_60        6  12.010780  0.00000000  A     0.34806469     0.36350306
em_mom_tetramer_61        6  12.010780  0.00000000  A     0.34806469     0.36350306
em_mom_tetramer_62        6  12.010780  0.00000000  A     0.33996695      0.4577296
em_mom_tetramer_63        6  12.010780  0.00000000  A     0.33996695      0.4577296
em_mom_tetramer_64        7  14.006720  0.00000000  A      0.3206876      0.7016213
em_mom_tetramer_65        6  12.010780  0.00000000  A     0.34806469     0.36350306
em_mom_tetramer_66        6  12.010780  0.00000000  A     0.34806469     0.36350306
em_mom_tetramer_67        6  12.010780  0.00000000  A     0.34806469     0.36350306
em_mom_tetramer_68        6  12.010780  0.00000000  A     0.34806469     0.36350306
em_mom_tetramer_69        1   1.007947  0.00000000  A     0.25832257    0.068656285
em_mom_tetramer_70        1   1.007947  0.00000000  A     0.25832257    0.068656285
em_mom_tetramer_71        1   1.007947  0.00000000  A     0.25832257    0.068656285
em_mom_tetramer_72        1   1.007947  0.00000000  A     0.25725815     0.06531786
em_mom_tetramer_73        1   1.007947  0.00000000  A     0.25725815     0.06531786
em_mom_tetramer_74        1   1.007947  0.00000000  A     0.25725815     0.06531786
em_mom_tetramer_75        1   1.007947  0.00000000  A     0.25725815     0.06531786
em_mom_tetramer_76        1   1.007947  0.00000000  A     0.25725815     0.06531786
em_mom_tetramer_77        1   1.007947  0.00000000  A     0.25725815     0.06531786
em_mom_tetramer_78        1   1.007947  0.00000000  A     0.25725815     0.06531786
em_mom_tetramer_79        1   1.007947  0.00000000  A     0.25832257    0.068656285
em_mom_tetramer_80        1   1.007947  0.00000000  A     0.26445434    0.066021356
em_mom_tetramer_81        1   1.007947  0.00000000  A     0.26445434    0.066021356
em_mom_tetramer_82        1   1.007947  0.00000000  A     0.26445434    0.066021356
em_mom_tetramer_83        1   1.007947  0.00000000  A     0.11034277    0.058955969
em_mom_tetramer_84        1   1.007947  0.00000000  A     0.25725815     0.06531786
em_mom_tetramer_85        1   1.007947  0.00000000  A     0.25725815     0.06531786
em_mom_tetramer_86        1   1.007947  0.00000000  A     0.25725815     0.06531786
em_mom_tetramer_87        1   1.007947  0.00000000  A     0.25725815     0.06531786
em_mom_tetramer_88        6  12.010780  0.00000000  A     0.33996695      0.4577296
em_mom_tetramer_89        8  15.999430  0.00000000  A     0.30251065     0.70485815
em_mom_tetramer_90        6  12.010780  0.00000000  A     0.34806469     0.36350306
em_mom_tetramer_91        6  12.010780  0.00000000  A     0.34806469     0.36350306
em_mom_tetramer_92        6  12.010780  0.00000000  A     0.34806469     0.36350306
em_mom_tetramer_93        6  12.010780  0.00000000  A     0.34806469     0.36350306
em_mom_tetramer_94        6  12.010780  0.00000000  A     0.34806469     0.36350306
em_mom_tetramer_95        6  12.010780  0.00000000  A     0.34806469     0.36350306
em_mom_tetramer_96        6  12.010780  0.00000000  A     0.34806469     0.36350306
em_mom_tetramer_97        6  12.010780  0.00000000  A     0.34806469     0.36350306
em_mom_tetramer_98        8  15.999430  0.00000000  A     0.30398122     0.87950233
em_mom_tetramer_99        6  12.010780  0.00000000  A     0.34806469     0.36350306
em_mom_tetramer_100        6  12.010780  0.00000000  A     0.34806469     0.36350306
em_mom_tetramer_101        6  12.010780  0.00000000  A     0.34806469     0.36350306
em_mom_tetramer_102        6  12.010780  0.00000000  A     0.34806469     0.36350306
em_mom_tetramer_103        6  12.010780  0.00000000  A     0.34806469     0.36350306
em_mom_tetramer_104        6  12.010780  0.00000000  A     0.34806469     0.36350306
em_mom_tetramer_105        6  12.010780  0.00000000  A     0.34806469     0.36350306
em_mom_tetramer_106        6  12.010780  0.00000000  A     0.33996695      0.4577296
em_mom_tetramer_107        6  12.010780  0.00000000  A     0.33996695      0.4577296
em_mom_tetramer_108        7  14.006720  0.00000000  A      0.3206876      0.7016213
em_mom_tetramer_109        6  12.010780  0.00000000  A     0.34806469     0.36350306
em_mom_tetramer_110        6  12.010780  0.00000000  A     0.34806469     0.36350306
em_mom_tetramer_111        6  12.010780  0.00000000  A     0.34806469     0.36350306
em_mom_tetramer_112        6  12.010780  0.00000000  A     0.34806469     0.36350306
em_mom_tetramer_113        1   1.007947  0.00000000  A     0.25832257    0.068656285
em_mom_tetramer_114        1   1.007947  0.00000000  A     0.25832257    0.068656285
em_mom_tetramer_115        1   1.007947  0.00000000  A     0.25832257    0.068656285
em_mom_tetramer_116        1   1.007947  0.00000000  A     0.25725815     0.06531786
em_mom_tetramer_117        1   1.007947  0.00000000  A     0.25725815     0.06531786
em_mom_tetramer_118        1   1.007947  0.00000000  A     0.25725815     0.06531786
em_mom_tetramer_119        1   1.007947  0.00000000  A     0.25725815     0.06531786
em_mom_tetramer_120        1   1.007947  0.00000000  A     0.25725815     0.06531786
em_mom_tetramer_121        1   1.007947  0.00000000  A     0.25725815     0.06531786
em_mom_tetramer_122        1   1.007947  0.00000000  A     0.25725815     0.06531786
em_mom_tetramer_123        1   1.007947  0.00000000  A     0.25832257    0.068656285
em_mom_tetramer_124        1   1.007947  0.00000000  A     0.26445434    0.066021356
em_mom_tetramer_125        1   1.007947  0.00000000  A     0.26445434    0.066021356
em_mom_tetramer_126        1   1.007947  0.00000000  A     0.26445434    0.066021356
em_mom_tetramer_127        1   1.007947  0.00000000  A     0.11034277    0.058955969
em_mom_tetramer_128        1   1.007947  0.00000000  A     0.25725815     0.06531786
em_mom_tetramer_129        1   1.007947  0.00000000  A     0.25725815     0.06531786
em_mom_tetramer_130        1   1.007947  0.00000000  A     0.25725815     0.06531786
em_mom_tetramer_131        1   1.007947  0.00000000  A     0.25725815     0.06531786
em_mom_tetramer_132        6  12.010780  0.00000000  A     0.33996695      0.4577296
em_mom_tetramer_133        8  15.999430  0.00000000  A     0.30251065     0.70485815
em_mom_tetramer_134        6  12.010780  0.00000000  A     0.34806469     0.36350306
em_mom_tetramer_135        6  12.010780  0.00000000  A     0.34806469     0.36350306
em_mom_tetramer_136        6  12.010780  0.00000000  A     0.34806469     0.36350306
em_mom_tetramer_137        6  12.010780  0.00000000  A     0.34806469     0.36350306
em_mom_tetramer_138        6  12.010780  0.00000000  A     0.34806469     0.36350306
em_mom_tetramer_139        6  12.010780  0.00000000  A     0.34806469     0.36350306
em_mom_tetramer_140        6  12.010780  0.00000000  A     0.34806469     0.36350306
em_mom_tetramer_141        6  12.010780  0.00000000  A     0.34806469     0.36350306
em_mom_tetramer_142        8  15.999430  0.00000000  A     0.30398122     0.87950233
em_mom_tetramer_143        6  12.010780  0.00000000  A     0.34806469     0.36350306
em_mom_tetramer_144        6  12.010780  0.00000000  A     0.34806469     0.36350306
em_mom_tetramer_145        6  12.010780  0.00000000  A     0.34806469     0.36350306
em_mom_tetramer_146        6  12.010780  0.00000000  A     0.34806469     0.36350306
em_mom_tetramer_147        6  12.010780  0.00000000  A     0.34806469     0.36350306
em_mom_tetramer_148        6  12.010780  0.00000000  A     0.34806469     0.36350306
em_mom_tetramer_149        6  12.010780  0.00000000  A     0.34806469     0.36350306
em_mom_tetramer_150        6  12.010780  0.00000000  A     0.33996695      0.4577296
em_mom_tetramer_151        6  12.010780  0.00000000  A     0.33996695      0.4577296
em_mom_tetramer_152        7  14.006720  0.00000000  A      0.3206876      0.7016213
em_mom_tetramer_153        6  12.010780  0.00000000  A     0.34806469     0.36350306
em_mom_tetramer_154        6  12.010780  0.00000000  A     0.34806469     0.36350306
em_mom_tetramer_155        6  12.010780  0.00000000  A     0.34806469     0.36350306
em_mom_tetramer_156        6  12.010780  0.00000000  A     0.34806469     0.36350306
em_mom_tetramer_157        1   1.007947  0.00000000  A     0.25832257    0.068656285
em_mom_tetramer_158        1   1.007947  0.00000000  A     0.25832257    0.068656285
em_mom_tetramer_159        1   1.007947  0.00000000  A     0.25832257    0.068656285
em_mom_tetramer_160        1   1.007947  0.00000000  A     0.25725815     0.06531786
em_mom_tetramer_161        1   1.007947  0.00000000  A     0.25725815     0.06531786
em_mom_tetramer_162        1   1.007947  0.00000000  A     0.25725815     0.06531786
em_mom_tetramer_163        1   1.007947  0.00000000  A     0.25725815     0.06531786
em_mom_tetramer_164        1   1.007947  0.00000000  A     0.25725815     0.06531786
em_mom_tetramer_165        1   1.007947  0.00000000  A     0.25725815     0.06531786
em_mom_tetramer_166        1   1.007947  0.00000000  A     0.25725815     0.06531786
em_mom_tetramer_167        1   1.007947  0.00000000  A     0.25832257    0.068656285
em_mom_tetramer_168        1   1.007947  0.00000000  A     0.26445434    0.066021356
em_mom_tetramer_169        1   1.007947  0.00000000  A     0.26445434    0.066021356
em_mom_tetramer_170        1   1.007947  0.00000000  A     0.26445434    0.066021356
em_mom_tetramer_171        1   1.007947  0.00000000  A     0.11034277    0.058955969
em_mom_tetramer_172        1   1.007947  0.00000000  A     0.25725815     0.06531786
em_mom_tetramer_173        1   1.007947  0.00000000  A     0.25725815     0.06531786
em_mom_tetramer_174        1   1.007947  0.00000000  A     0.25725815     0.06531786
em_mom_tetramer_175        1   1.007947  0.00000000  A     0.25725815     0.06531786
em_mom_tetramer_176        6  12.010780  0.00000000  A     0.33996695      0.4577296
em_mom_tetramer_177        8  15.999430  0.00000000  A     0.30251065     0.70485815
em_mom_tetramer_178        1   1.007947  0.00000000  A     0.25832257    0.068656285
em_mom_tetramer_179        1   1.007947  0.00000000  A     0.25832257    0.068656285
em_mom_tetramer_180        1   1.007947  0.00000000  A     0.25832257    0.068656285
em_mom_tetramer_181        6  12.010780  0.00000000  A     0.33996695      0.4577296
em_mom_tetramer_182        6  12.010780  0.00000000  A     0.33996695      0.4577296
em_mom_tetramer_183        6  12.010780  0.00000000  A     0.33996695      0.4577296
em_mom_tetramer_184        6  12.010780  0.00000000  A     0.33996695      0.4577296
em_mom_tetramer_185        8  15.999430  0.00000000  A     0.30251065     0.70485815
em_mom_tetramer_186        6  12.010780  0.00000000  A     0.34806469     0.36350306
em_mom_tetramer_187        8  15.999430  0.00000000  A     0.30398122     0.87950233
em_mom_tetramer_188        1   1.007947  0.00000000  A     0.26445434    0.066021356
em_mom_tetramer_189        1   1.007947  0.00000000  A     0.26445434    0.066021356
em_mom_tetramer_190        1   1.007947  0.00000000  A     0.26445434    0.066021356
em_mom_tetramer_191        1   1.007947  0.00000000  A     0.26445434    0.066021356
em_mom_tetramer_192        1   1.007947  0.00000000  A     0.26445434    0.066021356
em_mom_tetramer_193        1   1.007947  0.00000000  A     0.26445434    0.066021356
em_mom_tetramer_194        1   1.007947  0.00000000  A     0.26445434    0.066021356
em_mom_tetramer_195        1   1.007947  0.00000000  A     0.26445434    0.066021356
em_mom_tetramer_196        1   1.007947  0.00000000  A     0.26445434    0.066021356
TCM_0          6  12.010780  0.00000000  A     0.33996695      0.4577296
TCM_1         17  35.453200  0.00000000  A     0.34709414        1.10876
TCM_2         17  35.453200  0.00000000  A     0.34709414        1.10876
TCM_3          1   1.007947  0.00000000  A     0.21149936      0.0656888
TCM_4         17  35.453200  0.00000000  A     0.34709414        1.10876


[ moleculetype ]
; Name            nrexcl
system1          3

[ atoms ]
;   nr       type  resnr residue  atom   cgnr    charge       mass  typeB    chargeB      massB
; residue    1 MOM rtp MOM q 0.1
    1 em_mom_tetramer_0      1    MOM     C1      1 0.10744000   5.963098   ; qtot 0.107440
    2 em_mom_tetramer_1      1    MOM     O2      2 -0.31729001  15.999430   ; qtot -0.209850
    3 em_mom_tetramer_2      1    MOM     C3      3 0.12246000  12.010780   ; qtot -0.087390
    4 em_mom_tetramer_3      1    MOM     C4      4 -0.20649000   9.994886   ; qtot -0.293880
    5 em_mom_tetramer_4      1    MOM     C5      5 -0.08910000   9.994886   ; qtot -0.382980
    6 em_mom_tetramer_5      1    MOM     C6      6 -0.06943000  12.010780   ; qtot -0.452410
    7 em_mom_tetramer_6      1    MOM     C7      7 -0.05151000  12.010780   ; qtot -0.503920
    8 em_mom_tetramer_7      1    MOM     C8      8 -0.05929000   9.994886   ; qtot -0.563210
    9 em_mom_tetramer_8      1    MOM     C9      9 -0.12986000  12.010780   ; qtot -0.693070
   10 em_mom_tetramer_9      1    MOM    C10     10 0.64366001  12.010780   ; qtot -0.049410
   11 em_mom_tetramer_10      1    MOM    O11     11 -0.53925002  15.999430   ; qtot -0.588660
   12 em_mom_tetramer_11      1    MOM    C12     12 -0.07211000   9.994886   ; qtot -0.660770
   13 em_mom_tetramer_12      1    MOM    C13     13 -0.14546999   9.994886   ; qtot -0.806240
   14 em_mom_tetramer_13      1    MOM    C14     14 -0.08379000   9.994886   ; qtot -0.890030
   15 em_mom_tetramer_14      1    MOM    C15     15 0.01098000  12.010780   ; qtot -0.879050
   16 em_mom_tetramer_15      1    MOM    C16     16 -0.04878000  12.010780   ; qtot -0.927830
   17 em_mom_tetramer_16      1    MOM    C17     17 -0.10563000   9.994886   ; qtot -1.033460
   18 em_mom_tetramer_17      1    MOM    C18     18 -0.09126000  12.010780   ; qtot -1.124720
   19 em_mom_tetramer_18      1    MOM    C19     19 0.15026000   9.994886   ; qtot -0.974460
   20 em_mom_tetramer_19      1    MOM    C20     20 -0.11546000   5.963098   ; qtot -1.089920
   21 em_mom_tetramer_20      1    MOM    N21     21 -0.56217998  11.990826   ; qtot -1.652100
   22 em_mom_tetramer_21      1    MOM    C22     22 -0.10835000   9.994886   ; qtot -1.760450
   23 em_mom_tetramer_22      1    MOM    C23     23 -0.13241000   9.994886   ; qtot -1.892860
   24 em_mom_tetramer_23      1    MOM    C24     24 -0.10932000   9.994886   ; qtot -2.002180
   25 em_mom_tetramer_24      1    MOM    C25     25 -0.14989001   9.994886   ; qtot -2.152070
   26 em_mom_tetramer_25      1    MOM    H26     26 0.04592000   3.023841   ; qtot -2.106150
   27 em_mom_tetramer_26      1    MOM    H27     27 0.04592000   3.023841   ; qtot -2.060230
   28 em_mom_tetramer_27      1    MOM    H28     28 0.04592000   3.023841   ; qtot -2.014310
   29 em_mom_tetramer_28      1    MOM    H29     29 0.14144000   3.023841   ; qtot -1.872870
   30 em_mom_tetramer_29      1    MOM    H30     30 0.13901000   3.023841   ; qtot -1.733860
   31 em_mom_tetramer_30      1    MOM    H31     31 0.15493000   3.023841   ; qtot -1.578930
   32 em_mom_tetramer_31      1    MOM    H32     32 0.15458000   3.023841   ; qtot -1.424350
   33 em_mom_tetramer_32      1    MOM    H33     33 0.14001000   3.023841   ; qtot -1.284340
   34 em_mom_tetramer_33      1    MOM    H34     34 0.14016999   3.023841   ; qtot -1.144170
   35 em_mom_tetramer_34      1    MOM    H35     35 0.13991000   3.023841   ; qtot -1.004260
   36 em_mom_tetramer_35      1    MOM    H36     36 0.08350000   3.023841   ; qtot -0.920760
   37 em_mom_tetramer_36      1    MOM    H37     37 0.04839000   3.023841   ; qtot -0.872370
   38 em_mom_tetramer_37      1    MOM    H38     38 0.04839000   3.023841   ; qtot -0.823980
   39 em_mom_tetramer_38      1    MOM    H39     39 0.04839000   3.023841   ; qtot -0.775590
   40 em_mom_tetramer_39      1    MOM    H40     40 0.31327000   3.023841   ; qtot -0.462320
   41 em_mom_tetramer_40      1    MOM    H41     41 0.13891999   3.023841   ; qtot -0.323400
   42 em_mom_tetramer_41      1    MOM    H42     42 0.13364001   3.023841   ; qtot -0.189760
   43 em_mom_tetramer_42      1    MOM    H43     43 0.13537000   3.023841   ; qtot -0.054390
   44 em_mom_tetramer_43      1    MOM    H44     44 0.15819000   3.023841   ; qtot 0.103800
; residue    2 MOM rtp MOM q -0.0
   45 em_mom_tetramer_44      2    MOM    C45     45 0.11353000   5.963098   ; qtot 0.217330
   46 em_mom_tetramer_45      2    MOM    O46     46 -0.32699001  15.999430   ; qtot -0.109660
   47 em_mom_tetramer_46      2    MOM    C47     47 0.12769000  12.010780   ; qtot 0.018030
   48 em_mom_tetramer_47      2    MOM    C48     48 -0.20502999   9.994886   ; qtot -0.187000
   49 em_mom_tetramer_48      2    MOM    C49     49 -0.08470000   9.994886   ; qtot -0.271700
   50 em_mom_tetramer_49      2    MOM    C50     50 -0.06983000  12.010780   ; qtot -0.341530
   51 em_mom_tetramer_50      2    MOM    C51     51 -0.04422000  12.010780   ; qtot -0.385750
   52 em_mom_tetramer_51      2    MOM    C52     52 -0.08292000   9.994886   ; qtot -0.468670
   53 em_mom_tetramer_52      2    MOM    C53     53 -0.13860001  12.010780   ; qtot -0.607270
   54 em_mom_tetramer_53      2    MOM    C54     54 0.67493999  12.010780   ; qtot 0.067670
   55 em_mom_tetramer_54      2    MOM    O55     55 -0.61171001  15.999430   ; qtot -0.544040
   56 em_mom_tetramer_55      2    MOM    C56     56 -0.07428000   9.994886   ; qtot -0.618320
   57 em_mom_tetramer_56      2    MOM    C57     57 -0.14802000   9.994886   ; qtot -0.766340
   58 em_mom_tetramer_57      2    MOM    C58     58 -0.10591000   9.994886   ; qtot -0.872250
   59 em_mom_tetramer_58      2    MOM    C59     59 0.01187000  12.010780   ; qtot -0.860380
   60 em_mom_tetramer_59      2    MOM    C60     60 -0.05119000  12.010780   ; qtot -0.911570
   61 em_mom_tetramer_60      2    MOM    C61     61 -0.09900000   9.994886   ; qtot -1.010570
   62 em_mom_tetramer_61      2    MOM    C62     62 -0.10688000  12.010780   ; qtot -1.117450
   63 em_mom_tetramer_62      2    MOM    C63     63 0.15414000   9.994886   ; qtot -0.963310
   64 em_mom_tetramer_63      2    MOM    C64     64 -0.10602000   5.963098   ; qtot -1.069330
   65 em_mom_tetramer_64      2    MOM    N65     65 -0.56142998  11.990826   ; qtot -1.630760
   66 em_mom_tetramer_65      2    MOM    C66     66 -0.10722000   9.994886   ; qtot -1.737980
   67 em_mom_tetramer_66      2    MOM    C67     67 -0.14489000   9.994886   ; qtot -1.882870
   68 em_mom_tetramer_67      2    MOM    C68     68 -0.11674000   9.994886   ; qtot -1.999610
   69 em_mom_tetramer_68      2    MOM    C69     69 -0.14665000   9.994886   ; qtot -2.146260
   70 em_mom_tetramer_69      2    MOM    H70     70 0.04505000   3.023841   ; qtot -2.101210
   71 em_mom_tetramer_70      2    MOM    H71     71 0.04505000   3.023841   ; qtot -2.056160
   72 em_mom_tetramer_71      2    MOM    H72     72 0.04505000   3.023841   ; qtot -2.011110
   73 em_mom_tetramer_72      2    MOM    H73     73 0.14004999   3.023841   ; qtot -1.871060
   74 em_mom_tetramer_73      2    MOM    H74     74 0.13846000   3.023841   ; qtot -1.732600
   75 em_mom_tetramer_74      2    MOM    H75     75 0.14779000   3.023841   ; qtot -1.584810
   76 em_mom_tetramer_75      2    MOM    H76     76 0.15910000   3.023841   ; qtot -1.425710
   77 em_mom_tetramer_76      2    MOM    H77     77 0.13278000   3.023841   ; qtot -1.292930
   78 em_mom_tetramer_77      2    MOM    H78     78 0.13670000   3.023841   ; qtot -1.156230
   79 em_mom_tetramer_78      2    MOM    H79     79 0.13594000   3.023841   ; qtot -1.020290
   80 em_mom_tetramer_79      2    MOM    H80     80 0.08849000   3.023841   ; qtot -0.931800
   81 em_mom_tetramer_80      2    MOM    H81     81 0.04670000   3.023841   ; qtot -0.885100
   82 em_mom_tetramer_81      2    MOM    H82     82 0.04670000   3.023841   ; qtot -0.838400
   83 em_mom_tetramer_82      2    MOM    H83     83 0.04670000   3.023841   ; qtot -0.791700
   84 em_mom_tetramer_83      2    MOM    H84     84 0.30868000   3.023841   ; qtot -0.483020
   85 em_mom_tetramer_84      2    MOM    H85     85 0.14293000   3.023841   ; qtot -0.340090
   86 em_mom_tetramer_85      2    MOM    H86     86 0.13754000   3.023841   ; qtot -0.202550
   87 em_mom_tetramer_86      2    MOM    H87     87 0.13906001   3.023841   ; qtot -0.063490
   88 em_mom_tetramer_87      2    MOM    H88     88 0.15668000   3.023841   ; qtot 0.093190
; residue    3 MOM rtp MOM q -0.0
   89 em_mom_tetramer_88      3    MOM    C89     89 0.11314000   5.963098   ; qtot 0.206330
   90 em_mom_tetramer_89      3    MOM    O90     90 -0.32655001  15.999430   ; qtot -0.120220
   91 em_mom_tetramer_90      3    MOM    C91     91 0.12540001  12.010780   ; qtot 0.005180
   92 em_mom_tetramer_91      3    MOM    C92     92 -0.20397000   9.994886   ; qtot -0.198790
   93 em_mom_tetramer_92      3    MOM    C93     93 -0.08807000   9.994886   ; qtot -0.286860
   94 em_mom_tetramer_93      3    MOM    C94     94 -0.06358000  12.010780   ; qtot -0.350440
   95 em_mom_tetramer_94      3    MOM    C95     95 -0.05073000  12.010780   ; qtot -0.401170
   96 em_mom_tetramer_95      3    MOM    C96     96 -0.08677000   9.994886   ; qtot -0.487940
   97 em_mom_tetramer_96      3    MOM    C97     97 -0.13963000  12.010780   ; qtot -0.627570
   98 em_mom_tetramer_97      3    MOM    C98     98 0.68844002  12.010780   ; qtot 0.060870
   99 em_mom_tetramer_98      3    MOM    O99     99 -0.61719000  15.999430   ; qtot -0.556320
  100 em_mom_tetramer_99      3    MOM   C100    100 -0.07227000   9.994886   ; qtot -0.628590
  101 em_mom_tetramer_100      3    MOM   C101    101 -0.13868000   9.994886   ; qtot -0.767270
  102 em_mom_tetramer_101      3    MOM   C102    102 -0.09641000   9.994886   ; qtot -0.863680
  103 em_mom_tetramer_102      3    MOM   C103    103 0.00835000  12.010780   ; qtot -0.855330
  104 em_mom_tetramer_103      3    MOM   C104    104 -0.04356000  12.010780   ; qtot -0.898890
  105 em_mom_tetramer_104      3    MOM   C105    105 -0.09135000   9.994886   ; qtot -0.990240
  106 em_mom_tetramer_105      3    MOM   C106    106 -0.10925000  12.010780   ; qtot -1.099490
  107 em_mom_tetramer_106      3    MOM   C107    107 0.15067001   9.994886   ; qtot -0.948820
  108 em_mom_tetramer_107      3    MOM   C108    108 -0.10317000   5.963098   ; qtot -1.051990
  109 em_mom_tetramer_108      3    MOM   N109    109 -0.56744999  11.990826   ; qtot -1.619440
  110 em_mom_tetramer_109      3    MOM   C110    110 -0.11700000   9.994886   ; qtot -1.736440
  111 em_mom_tetramer_110      3    MOM   C111    111 -0.13237000   9.994886   ; qtot -1.868810
  112 em_mom_tetramer_111      3    MOM   C112    112 -0.10772000   9.994886   ; qtot -1.976530
  113 em_mom_tetramer_112      3    MOM   C113    113 -0.14562000   9.994886   ; qtot -2.122150
  114 em_mom_tetramer_113      3    MOM   H114    114 0.04507000   3.023841   ; qtot -2.077080
  115 em_mom_tetramer_114      3    MOM   H115    115 0.04507000   3.023841   ; qtot -2.032010
  116 em_mom_tetramer_115      3    MOM   H116    116 0.04507000   3.023841   ; qtot -1.986940
  117 em_mom_tetramer_116      3    MOM   H117    117 0.13926999   3.023841   ; qtot -1.847670
  118 em_mom_tetramer_117      3    MOM   H118    118 0.13471000   3.023841   ; qtot -1.712960
  119 em_mom_tetramer_118      3    MOM   H119    119 0.14178000   3.023841   ; qtot -1.571180
  120 em_mom_tetramer_119      3    MOM   H120    120 0.15612000   3.023841   ; qtot -1.415060
  121 em_mom_tetramer_120      3    MOM   H121    121 0.14131001   3.023841   ; qtot -1.273750
  122 em_mom_tetramer_121      3    MOM   H122    122 0.13778000   3.023841   ; qtot -1.135970
  123 em_mom_tetramer_122      3    MOM   H123    123 0.14388999   3.023841   ; qtot -0.992080
  124 em_mom_tetramer_123      3    MOM   H124    124 0.08784000   3.023841   ; qtot -0.904240
  125 em_mom_tetramer_124      3    MOM   H125    125 0.04384000   3.023841   ; qtot -0.860400
  126 em_mom_tetramer_125      3    MOM   H126    126 0.04384000   3.023841   ; qtot -0.816560
  127 em_mom_tetramer_126      3    MOM   H127    127 0.04384000   3.023841   ; qtot -0.772720
  128 em_mom_tetramer_127      3    MOM   H128    128 0.30395001   3.023841   ; qtot -0.468770
  129 em_mom_tetramer_128      3    MOM   H129    129 0.12597001   3.023841   ; qtot -0.342800
  130 em_mom_tetramer_129      3    MOM   H130    130 0.13222000   3.023841   ; qtot -0.210580
  131 em_mom_tetramer_130      3    MOM   H131    131 0.13607000   3.023841   ; qtot -0.074510
  132 em_mom_tetramer_131      3    MOM   H132    132 0.15576001   3.023841   ; qtot 0.081250
; residue    4 MOM rtp MOM q 0.1
  133 em_mom_tetramer_132      4    MOM   C133    133 0.11196000   5.963098   ; qtot 0.193210
  134 em_mom_tetramer_133      4    MOM   O134    134 -0.32793000  15.999430   ; qtot -0.134720
  135 em_mom_tetramer_134      4    MOM   C135    135 0.12396000  12.010780   ; qtot -0.010760
  136 em_mom_tetramer_135      4    MOM   C136    136 -0.20328000   9.994886   ; qtot -0.214040
  137 em_mom_tetramer_136      4    MOM   C137    137 -0.08270000   9.994886   ; qtot -0.296740
  138 em_mom_tetramer_137      4    MOM   C138    138 -0.06554000  12.010780   ; qtot -0.362280
  139 em_mom_tetramer_138      4    MOM   C139    139 -0.04536000  12.010780   ; qtot -0.407640
  140 em_mom_tetramer_139      4    MOM   C140    140 -0.05277000   9.994886   ; qtot -0.460410
  141 em_mom_tetramer_140      4    MOM   C141    141 -0.13926999  12.010780   ; qtot -0.599680
  142 em_mom_tetramer_141      4    MOM   C142    142 0.68277001  12.010780   ; qtot 0.083090
  143 em_mom_tetramer_142      4    MOM   O143    143 -0.61287999  15.999430   ; qtot -0.529790
  144 em_mom_tetramer_143      4    MOM   C144    144 -0.10230000   9.994886   ; qtot -0.632090
  145 em_mom_tetramer_144      4    MOM   C145    145 -0.14042000   9.994886   ; qtot -0.772510
  146 em_mom_tetramer_145      4    MOM   C146    146 -0.08650000   9.994886   ; qtot -0.859010
  147 em_mom_tetramer_146      4    MOM   C147    147 0.00405000  12.010780   ; qtot -0.854960
  148 em_mom_tetramer_147      4    MOM   C148    148 -0.04091000  12.010780   ; qtot -0.895870
  149 em_mom_tetramer_148      4    MOM   C149    149 -0.08866000   9.994886   ; qtot -0.984530
  150 em_mom_tetramer_149      4    MOM   C150    150 -0.12028000  12.010780   ; qtot -1.104810
  151 em_mom_tetramer_150      4    MOM   C151    151 0.15494999   9.994886   ; qtot -0.949860
  152 em_mom_tetramer_151      4    MOM   C152    152 -0.09940000   5.963098   ; qtot -1.049260
  153 em_mom_tetramer_152      4    MOM   N153    153 -0.54304999  11.990826   ; qtot -1.592310
  154 em_mom_tetramer_153      4    MOM   C154    154 -0.11884000   9.994886   ; qtot -1.711150
  155 em_mom_tetramer_154      4    MOM   C155    155 -0.13288000   9.994886   ; qtot -1.844030
  156 em_mom_tetramer_155      4    MOM   C156    156 -0.10445000   9.994886   ; qtot -1.948480
  157 em_mom_tetramer_156      4    MOM   C157    157 -0.14725000   9.994886   ; qtot -2.095730
  158 em_mom_tetramer_157      4    MOM   H158    158 0.04428000   3.023841   ; qtot -2.051450
  159 em_mom_tetramer_158      4    MOM   H159    159 0.04428000   3.023841   ; qtot -2.007170
  160 em_mom_tetramer_159      4    MOM   H160    160 0.04428000   3.023841   ; qtot -1.962890
  161 em_mom_tetramer_160      4    MOM   H161    161 0.14015999   3.023841   ; qtot -1.822730
  162 em_mom_tetramer_161      4    MOM   H162    162 0.15218000   3.023841   ; qtot -1.670550
  163 em_mom_tetramer_162      4    MOM   H163    163 0.15910000   3.023841   ; qtot -1.511450
  164 em_mom_tetramer_163      4    MOM   H164    164 0.12571999   3.023841   ; qtot -1.385730
  165 em_mom_tetramer_164      4    MOM   H165    165 0.13898000   3.023841   ; qtot -1.246750
  166 em_mom_tetramer_165      4    MOM   H166    166 0.14552000   3.023841   ; qtot -1.101230
  167 em_mom_tetramer_166      4    MOM   H167    167 0.14605001   3.023841   ; qtot -0.955180
  168 em_mom_tetramer_167      4    MOM   H168    168 0.08899000   3.023841   ; qtot -0.866190
  169 em_mom_tetramer_168      4    MOM   H169    169 0.04633000   3.023841   ; qtot -0.819860
  170 em_mom_tetramer_169      4    MOM   H170    170 0.04633000   3.023841   ; qtot -0.773530
  171 em_mom_tetramer_170      4    MOM   H171    171 0.04633000   3.023841   ; qtot -0.727200
  172 em_mom_tetramer_171      4    MOM   H172    172 0.32014999   3.023841   ; qtot -0.407050
  173 em_mom_tetramer_172      4    MOM   H173    173 0.12673999   3.023841   ; qtot -0.280310
  174 em_mom_tetramer_173      4    MOM   H174    174 0.13324000   3.023841   ; qtot -0.147070
  175 em_mom_tetramer_174      4    MOM   H175    175 0.13985001   3.023841   ; qtot -0.007220
  176 em_mom_tetramer_175      4    MOM   H176    176 0.15370999   3.023841   ; qtot 0.146490
; residue    5 CAP rtp CAP q -0.2
  177 em_mom_tetramer_176      5    CAP   C177    177 0.12137000   5.963098   ; qtot 0.267860
  178 em_mom_tetramer_177      5    CAP   O178    178 -0.43844000  15.999430   ; qtot -0.170580
  179 em_mom_tetramer_178      5    CAP   H179    179 0.05520000   3.023841   ; qtot -0.115380
  180 em_mom_tetramer_179      5    CAP   H180    180 0.05520000   3.023841   ; qtot -0.060180
  181 em_mom_tetramer_180      5    CAP   H181    181 0.05520000   3.023841   ; qtot -0.004980
; residue    6 CAP rtp CAP q 0.0
  182 em_mom_tetramer_181      6    CAP   C182    182 -0.11409000   5.963098   ; qtot -0.119070
  183 em_mom_tetramer_182      6    CAP   C183    183 0.18911999  12.010780   ; qtot 0.070050
  184 em_mom_tetramer_183      6    CAP   C184    184 -0.11409000   5.963098   ; qtot -0.044040
  185 em_mom_tetramer_184      6    CAP   C185    185 -0.11409000   5.963098   ; qtot -0.158130
  186 em_mom_tetramer_185      6    CAP   O186    186 -0.45019999  15.999430   ; qtot -0.608330
  187 em_mom_tetramer_186      6    CAP   C187    187 0.74963999  12.010780   ; qtot 0.141310
  188 em_mom_tetramer_187      6    CAP   O188    188 -0.60031003  15.999430   ; qtot -0.459000
  189 em_mom_tetramer_188      6    CAP   H189    189 0.05100000   3.023841   ; qtot -0.408000
  190 em_mom_tetramer_189      6    CAP   H190    190 0.05100000   3.023841   ; qtot -0.357000
  191 em_mom_tetramer_190      6    CAP   H191    191 0.05100000   3.023841   ; qtot -0.306000
  192 em_mom_tetramer_191      6    CAP   H192    192 0.05100000   3.023841   ; qtot -0.255000
  193 em_mom_tetramer_192      6    CAP   H193    193 0.05100000   3.023841   ; qtot -0.204000
  194 em_mom_tetramer_193      6    CAP   H194    194 0.05100000   3.023841   ; qtot -0.153000
  195 em_mom_tetramer_194      6    CAP   H195    195 0.05100000   3.023841   ; qtot -0.102000
  196 em_mom_tetramer_195      6    CAP   H196    196 0.05100000   3.023841   ; qtot -0.051000
  197 em_mom_tetramer_196      6    CAP   H197    197 0.05100000   3.023841   ; qtot -0.000000

[ bonds ]
;    ai     aj funct         c0         c1         c2         c3
      1      2     1   0.14259 306888.771877
      1     26     1   0.10929 317186.185379
      1     27     1   0.10929 317186.185379
      1     28     1   0.10929 317186.185379
      2      3     1   0.13629 356218.264001
      3      4     1   0.13872 301905.092579
      3     25     1   0.13872 301905.092579
      4      5     1   0.13872 301905.092579
      4     29     1   0.10854 332422.631675
      5      6     1   0.13872 301905.092579
      5     30     1   0.10854 332422.631675
      6      7     1   0.14546 233580.248618
      6     15     1   0.13872 301905.092579
      7      8     1   0.13872 301905.092579
      7     14     1   0.13872 301905.092579
      8      9     1   0.13872 301905.092579
      8     31     1   0.10854 332422.631675
      9     10     1   0.14546 233580.248618
      9     12     1   0.13872 301905.092579
     10     11     1   0.12252 487602.327766
     10    178     1   0.13457 252005.673257
     12     13     1   0.13872 301905.092579
     12     32     1   0.10854 332422.631675
     13     14     1   0.13872 301905.092579
     13     33     1   0.10854 332422.631675
     14     34     1   0.10854 332422.631675
     15     16     1   0.14546 233580.248618
     15     25     1   0.13872 301905.092579
     16     17     1   0.13872 301905.092579
     16     24     1   0.13872 301905.092579
     17     18     1   0.13872 301905.092579
     17     35     1   0.10854 332422.631675
     18     19     1   0.14986 242452.869388
     18     22     1   0.13872 301905.092579
     19     20     1   0.15219 221435.259290
     19     21     1   0.14501 294600.927776
     19     36     1   0.10929 317186.185379
     20     37     1   0.10929 317186.185379
     20     38     1   0.10929 317186.185379
     20     39     1   0.10929 317186.185379
     21     40     1   0.10195 422704.914414
     21     54     1   0.13819 412347.817359
     22     23     1   0.13872 301905.092579
     22     41     1   0.10854 332422.631675
     23     24     1   0.13872 301905.092579
     23     42     1   0.10854 332422.631675
     24     43     1   0.10854 332422.631675
     25     44     1   0.10854 332422.631675
     45     46     1   0.14259 306888.771877
     45     70     1   0.10929 317186.185379
     45     71     1   0.10929 317186.185379
     45     72     1   0.10929 317186.185379
     46     47     1   0.13629 356218.264001
     47     48     1   0.13872 301905.092579
     47     69     1   0.13872 301905.092579
     48     49     1   0.13872 301905.092579
     48     73     1   0.10854 332422.631675
     49     50     1   0.13872 301905.092579
     49     74     1   0.10854 332422.631675
     50     51     1   0.14546 233580.248618
     50     59     1   0.13872 301905.092579
     51     52     1   0.13872 301905.092579
     51     58     1   0.13872 301905.092579
     52     53     1   0.13872 301905.092579
     52     75     1   0.10854 332422.631675
     53     54     1   0.14546 233580.248618
     53     56     1   0.13872 301905.092579
     54     55     1   0.12252 487602.327766
     56     57     1   0.13872 301905.092579
     56     76     1   0.10854 332422.631675
     57     58     1   0.13872 301905.092579
     57     77     1   0.10854 332422.631675
     58     78     1   0.10854 332422.631675
     59     60     1   0.14546 233580.248618
     59     69     1   0.13872 301905.092579
     60     61     1   0.13872 301905.092579
     60     68     1   0.13872 301905.092579
     61     62     1   0.13872 301905.092579
     61     79     1   0.10854 332422.631675
     62     63     1   0.14986 242452.869388
     62     66     1   0.13872 301905.092579
     63     64     1   0.15219 221435.259290
     63     65     1   0.14501 294600.927776
     63     80     1   0.10929 317186.185379
     64     81     1   0.10929 317186.185379
     64     82     1   0.10929 317186.185379
     64     83     1   0.10929 317186.185379
     65     84     1   0.10195 422704.914414
     65     98     1   0.13819 412347.817359
     66     67     1   0.13872 301905.092579
     66     85     1   0.10854 332422.631675
     67     68     1   0.13872 301905.092579
     67     86     1   0.10854 332422.631675
     68     87     1   0.10854 332422.631675
     69     88     1   0.10854 332422.631675
     89     90     1   0.14259 306888.771877
     89    114     1   0.10929 317186.185379
     89    115     1   0.10929 317186.185379
     89    116     1   0.10929 317186.185379
     90     91     1   0.13629 356218.264001
     91     92     1   0.13872 301905.092579
     91    113     1   0.13872 301905.092579
     92     93     1   0.13872 301905.092579
     92    117     1   0.10854 332422.631675
     93     94     1   0.13872 301905.092579
     93    118     1   0.10854 332422.631675
     94     95     1   0.14546 233580.248618
     94    103     1   0.13872 301905.092579
     95     96     1   0.13872 301905.092579
     95    102     1   0.13872 301905.092579
     96     97     1   0.13872 301905.092579
     96    119     1   0.10854 332422.631675
     97     98     1   0.14546 233580.248618
     97    100     1   0.13872 301905.092579
     98     99     1   0.12252 487602.327766
    100    101     1   0.13872 301905.092579
    100    120     1   0.10854 332422.631675
    101    102     1   0.13872 301905.092579
    101    121     1   0.10854 332422.631675
    102    122     1   0.10854 332422.631675
    103    104     1   0.14546 233580.248618
    103    113     1   0.13872 301905.092579
    104    105     1   0.13872 301905.092579
    104    112     1   0.13872 301905.092579
    105    106     1   0.13872 301905.092579
    105    123     1   0.10854 332422.631675
    106    107     1   0.14986 242452.869388
    106    110     1   0.13872 301905.092579
    107    108     1   0.15219 221435.259290
    107    109     1   0.14501 294600.927776
    107    124     1   0.10929 317186.185379
    108    125     1   0.10929 317186.185379
    108    126     1   0.10929 317186.185379
    108    127     1   0.10929 317186.185379
    109    128     1   0.10195 422704.914414
    109    142     1   0.13819 412347.817359
    110    111     1   0.13872 301905.092579
    110    129     1   0.10854 332422.631675
    111    112     1   0.13872 301905.092579
    111    130     1   0.10854 332422.631675
    112    131     1   0.10854 332422.631675
    113    132     1   0.10854 332422.631675
    133    134     1   0.14259 306888.771877
    133    158     1   0.10929 317186.185379
    133    159     1   0.10929 317186.185379
    133    160     1   0.10929 317186.185379
    134    135     1   0.13629 356218.264001
    135    136     1   0.13872 301905.092579
    135    157     1   0.13872 301905.092579
    136    137     1   0.13872 301905.092579
    136    161     1   0.10854 332422.631675
    137    138     1   0.13872 301905.092579
    137    162     1   0.10854 332422.631675
    138    139     1   0.14546 233580.248618
    138    147     1   0.13872 301905.092579
    139    140     1   0.13872 301905.092579
    139    146     1   0.13872 301905.092579
    140    141     1   0.13872 301905.092579
    140    163     1   0.10854 332422.631675
    141    142     1   0.14546 233580.248618
    141    144     1   0.13872 301905.092579
    142    143     1   0.12252 487602.327766
    144    145     1   0.13872 301905.092579
    144    164     1   0.10854 332422.631675
    145    146     1   0.13872 301905.092579
    145    165     1   0.10854 332422.631675
    146    166     1   0.10854 332422.631675
    147    148     1   0.14546 233580.248618
    147    157     1   0.13872 301905.092579
    148    149     1   0.13872 301905.092579
    148    156     1   0.13872 301905.092579
    149    150     1   0.13872 301905.092579
    149    167     1   0.10854 332422.631675
    150    151     1   0.14986 242452.869388
    150    154     1   0.13872 301905.092579
    151    152     1   0.15219 221435.259290
    151    153     1   0.14501 294600.927776
    151    168     1   0.10929 317186.185379
    152    169     1   0.10929 317186.185379
    152    170     1   0.10929 317186.185379
    152    171     1   0.10929 317186.185379
    153    172     1   0.10195 422704.914414
    153    187     1   0.13819 412347.817359
    154    155     1   0.13872 301905.092579
    154    173     1   0.10854 332422.631675
    155    156     1   0.13872 301905.092579
    155    174     1   0.10854 332422.631675
    156    175     1   0.10854 332422.631675
    157    176     1   0.10854 332422.631675
    177    178     1   0.14259 306888.771877
    177    179     1   0.10929 317186.185379
    177    180     1   0.10929 317186.185379
    177    181     1   0.10929 317186.185379
    182    183     1   0.15219 221435.259290
    182    189     1   0.10929 317186.185379
    182    190     1   0.10929 317186.185379
    182    191     1   0.10929 317186.185379
    183    184     1   0.15219 221435.259290
    183    185     1   0.15219 221435.259290
    183    186     1   0.14259 306888.771877
    184    192     1   0.10929 317186.185379
    184    193     1   0.10929 317186.185379
    184    194     1   0.10929 317186.185379
    185    195     1   0.10929 317186.185379
    185    196     1   0.10929 317186.185379
    185    197     1   0.10929 317186.185379
    186    187     1   0.13457 252005.673257
    187    188     1   0.12252 487602.327766

[ pairs ]
;    ai     aj funct         c0         c1         c2         c3
    117    118     1
    124    125     1
     47     71     1
    107    143     1
     80     98     1
    128    141     1
     62     82     1
     24     25     1
     51     56     1
     53     58     1
     65    100     1
    182    196     1
     52     78     1
      9     14     1
    129    130     1
    139    142     1
     60     66     1
     61     80     1
     68     69     1
     17     25     1
    185    193     1
    133    157     1
     50     88     1
     64     66     1
      2     44     1
    135    148     1
     52     57     1
     15     30     1
    144    166     1
      8     32     1
     62     81     1
    157    161     1
    185    192     1
     15     43     1
     62     86     1
     51     74     1
      9    177     1
      8     13     1
     19     55     1
      5     16     1
     63     99     1
    172    186     1
    135    158     1
     50     61     1
    103    118     1
     49     52     1
     18     24     1
      6     34     1
     63     85     1
    135    162     1
     80     83     1
     65     82     1
     66     80     1
    108    128     1
      6      9     1
     21     37     1
    150    171     1
    139    157     1
    104    130     1
    100    122     1
    103    111     1
     93    104     1
    153    183     1
    154    168     1
    142    145     1
    185    191     1
     61     64     1
    102    119     1
    107    111     1
    113    117     1
    186    189     1
     45     69     1
      3     27     1
    134    137     1
     21     52     1
    137    140     1
    110    124     1
    106    112     1
     52     76     1
      2     29     1
     95     98     1
    136    176     1
    103    106     1
     99    100     1
    148    176     1
     90    117     1
    110    131     1
     97    121     1
     10     32     1
    151    188     1
    120    121     1
    151    173     1
    151    155     1
     10    181     1
    156    167     1
    104    110     1
     95    121     1
    137    157     1
    148    154     1
    182    187     1
     29     30     1
     10     13     1
    186    196     1
     18     40     1
     36     54     1
    153    171     1
     48     51     1
     98    119     1
    138    163     1
    150    172     1
     21     38     1
     68     79     1
    140    166     1
      8    178     1
    105    109     1
    148    151     1
      3     30     1
     61     69     1
      7     30     1
     64     84     1
    168    170     1
    148    174     1
     48     59     1
     62     98     1
     17     21     1
     14     32     1
     73     74     1
    184    187     1
     47     60     1
     24     35     1
      9     33     1
     49     69     1
    112    129     1
      2      5     1
    152    154     1
    102    120     1
      3      6     1
    184    190     1
     90    103     1
     12     31     1
      6     29     1
    146    147     1
     61     67     1
    105    108     1
     58     75     1
     80     84     1
      8     34     1
     50     75     1
     95    113     1
    184    195     1
    104    132     1
    108    142     1
      6     24     1
      3     16     1
    168    187     1
     47     70     1
      7     16     1
    147    162     1
    134    161     1
     91    118     1
    143    144     1
     21     56     1
    105    111     1
    135    160     1
    139    148     1
     22     43     1
    153    154     1
    151    167     1
     63     97     1
    124    142     1
     14     31     1
    156    173     1
     62     68     1
    184    197     1
    102    103     1
     91    104     1
    105    129     1
     20     54     1
     98    120     1
    138    149     1
     10    180     1
     62     83     1
     47     74     1
    142    163     1
    128    143     1
    150    156     1
     94    105     1
    135    159     1
     21     39     1
      7     25     1
     50     78     1
     12    178     1
    109    144     1
     68     85     1
    139    162     1
    138    161     1
    141    165     1
    137    148     1
    110    123     1
    173    174     1
     22     35     1
     50     57     1
    136    139     1
     96    101     1
     96    122     1
     19     53     1
     17     23     1
    161    162     1
     36     40     1
    182    194     1
      4     15     1
      5     25     1
    124    128     1
    151    186     1
      8     11     1
     12     34     1
     15     35     1
    106    142     1
    139    165     1
    134    176     1
    150    170     1
     65     81     1
    146    163     1
     95    100     1
    168    169     1
     94    112     1
    147    167     1
    107    129     1
      6     44     1
    149    173     1
    149    155     1
     59     79     1
     94    132     1
     89    113     1
    149    152     1
    184    191     1
    133    136     1
    154    167     1
     24     41     1
     93    113     1
    103    131     1
    149    153     1
     89     92     1
     16     42     1
     17     41     1
     54     75     1
     92    103     1
    140    145     1
    142    164     1
    150    187     1
     40     55     1
     58     76     1
    138    176     1
     18     37     1
    182    195     1
    112    123     1
     66     79     1
     62     84     1
    153    170     1
      4     44     1
    147    150     1
      8     15     1
     17     36     1
    152    187     1
     46     59     1
    106    128     1
    108    110     1
     69     73     1
    107    141     1
    144    163     1
     33     34     1
    109    127     1
     11    177     1
    140    147     1
    182    197     1
     91     94     1
      6     31     1
     15     23     1
    150    174     1
     64     98     1
     48     88     1
    121    122     1
     86     87     1
     61     87     1
    112    113     1
     53     77     1
    109    110     1
    182    193     1
     42     43     1
     84     99     1
    185    189     1
     93     96     1
    146    164     1
     11     12     1
     96     99     1
    147    155     1
    135    138     1
     15     18     1
     59     67     1
    104    107     1
     59     74     1
     58     59     1
     59     87     1
    136    147     1
    186    194     1
     19     35     1
    165    166     1
    138    166     1
     18     38     1
     54     57     1
     60     63     1
    182    192     1
    106    130     1
      1     25     1
     50     73     1
     47     50     1
    168    172     1
    109    125     1
     51     69     1
      5     14     1
     41     42     1
    184    189     1
    183    188     1
     50     53     1
      5      8     1
     60     86     1
    105    124     1
     22     36     1
    106    127     1
     96    120     1
     91    116     1
    138    156     1
      7     10     1
    150    169     1
      4      7     1
     85     86     1
     90    132     1
    105    113     1
    139    144     1
     25     29     1
     80     82     1
    105    131     1
     94    101     1
      7     12     1
    124    126     1
    149    175     1
     94    122     1
     32     33     1
     66     87     1
     97    102     1
    109    126     1
     47     72     1
    140    143     1
    156    157     1
     49     58     1
     36     39     1
    184    196     1
    186    190     1
     61     65     1
    109    140     1
     60     88     1
    103    123     1
     90     93     1
      1      4     1
    186    195     1
     63     67     1
     98    101     1
    107    123     1
     17     20     1
     96    103     1
     80     81     1
    138    141     1
    106    125     1
     46     49     1
     36     37     1
     54     76     1
     14     15     1
     51     77     1
     65     66     1
    172    188     1
     65     83     1
     21     22     1
      3     28     1
    153    169     1
     19     23     1
    186    197     1
     56     75     1
    141    146     1
     18     39     1
    130    131     1
      6     17     1
    185    194     1
    186    193     1
    106    126     1
     94    119     1
     45     48     1
     91    115     1
      6     13     1
     49     60     1
     76     77     1
    164    165     1
     16     22     1
    186    192     1
    147    175     1
     51     54     1
    149    157     1
     77     78     1
     95    118     1
     91    114     1
      7     33     1
    168    171     1
     17     43     1
     56     78     1
     94     97     1
     16     44     1
     36     38     1
    124    127     1
    154    175     1
    185    187     1
     19     41     1
     18     42     1
     46     73     1
     20     40     1
     59     62     1
     84     97     1
      2     15     1
     95    104     1
     16     19     1
     55     56     1
     40     53     1
     52     55     1
    185    190     1
      3     26     1
     63     79     1
     92     95     1
    100    119     1
    152    172     1
     61     85     1
     46     88     1
     50     68     1
     10    179     1
     20     22     1
     65     96     1
     51     60     1
    140    164     1
     52     59     1
     94    117     1
     93    102     1
    134    147     1
    137    146     1
    149    168     1
     10     31     1
    186    191     1
    174    175     1
     92    132     1
     18     54     1
    138    145     1

[ angles ]
;    ai     aj     ak funct         c0         c1         c2         c3
      1      2      3     1   110.3538806 544.678275
      2      1     26     1   107.6607822 425.669015
      2      1     27     1   107.6607822 425.669015
      2      1     28     1   107.6607822 425.669015
      2      3      4     1   126.8062420 484.492885
      2      3     25     1   126.8062420 484.492885
      3      4      5     1   126.8062420 484.492885
      3      4     29     1   129.1835930 285.070775
      3     25     15     1   126.8062420 484.492885
      3     25     44     1   129.1835930 285.070775
      4      3     25     1   126.8062420 484.492885
      4      5      6     1   126.8062420 484.492885
      4      5     30     1   129.1835930 285.070775
      5      4     29     1   129.1835930 285.070775
      5      6      7     1   126.8062420 484.492885
      5      6     15     1   126.8062420 484.492885
      6      5     30     1   129.1835930 285.070775
      6      7      8     1   126.8062420 484.492885
      6      7     14     1   126.8062420 484.492885
      6     15     16     1   126.8062420 484.492885
      6     15     25     1   126.8062420 484.492885
      7      6     15     1   126.8062420 484.492885
      7      8      9     1   126.8062420 484.492885
      7      8     31     1   129.1835930 285.070775
      7     14     13     1   126.8062420 484.492885
      7     14     34     1   129.1835930 285.070775
      8      7     14     1   126.8062420 484.492885
      8      9     10     1   126.8062420 484.492885
      8      9     12     1   126.8062420 484.492885
      9      8     31     1   129.1835930 285.070775
      9     10     11     1   126.8062420 484.492885
      9     10    178     1   126.8062420 484.492885
      9     12     13     1   126.8062420 484.492885
      9     12     32     1   129.1835930 285.070775
     10      9     12     1   126.8062420 484.492885
     10    178    177     1   110.3538806 544.678275
     11     10    178     1   127.4691416 1685.413543
     12     13     14     1   126.8062420 484.492885
     12     13     33     1   129.1835930 285.070775
     13     12     32     1   129.1835930 285.070775
     13     14     34     1   129.1835930 285.070775
     14     13     33     1   129.1835930 285.070775
     15     16     17     1   126.8062420 484.492885
     15     16     24     1   126.8062420 484.492885
     15     25     44     1   129.1835930 285.070775
     16     15     25     1   126.8062420 484.492885
     16     17     18     1   126.8062420 484.492885
     16     17     35     1   129.1835930 285.070775
     16     24     23     1   126.8062420 484.492885
     16     24     43     1   129.1835930 285.070775
     17     16     24     1   126.8062420 484.492885
     17     18     19     1   126.8062420 484.492885
     17     18     22     1   126.8062420 484.492885
     18     17     35     1   129.1835930 285.070775
     18     19     20     1   107.6607822 425.669015
     18     19     21     1   107.6607822 425.669015
     18     19     36     1   107.6607822 425.669015
     18     22     23     1   126.8062420 484.492885
     18     22     41     1   129.1835930 285.070775
     19     18     22     1   126.8062420 484.492885
     19     20     37     1   107.6607822 425.669015
     19     20     38     1   107.6607822 425.669015
     19     20     39     1   107.6607822 425.669015
     19     21     40     1   115.5071328 530.901283
     19     21     54     1   117.3465571 463.769802
     20     19     21     1   107.6607822 425.669015
     20     19     36     1   107.6607822 425.669015
     21     19     36     1   107.6607822 425.669015
     21     54     53     1   126.8062420 484.492885
     21     54     55     1   126.8062420 484.492885
     22     23     24     1   126.8062420 484.492885
     22     23     42     1   129.1835930 285.070775
     23     22     41     1   129.1835930 285.070775
     23     24     43     1   129.1835930 285.070775
     24     23     42     1   129.1835930 285.070775
     26      1     27     1   115.6031000 408.161690
     26      1     28     1   115.6031000 408.161690
     27      1     28     1   115.6031000 408.161690
     37     20     38     1   115.6031000 408.161690
     37     20     39     1   115.6031000 408.161690
     38     20     39     1   115.6031000 408.161690
     40     21     54     1   115.5071328 530.901283
     45     46     47     1   110.3538806 544.678275
     46     45     70     1   107.6607822 425.669015
     46     45     71     1   107.6607822 425.669015
     46     45     72     1   107.6607822 425.669015
     46     47     48     1   126.8062420 484.492885
     46     47     69     1   126.8062420 484.492885
     47     48     49     1   126.8062420 484.492885
     47     48     73     1   129.1835930 285.070775
     47     69     59     1   126.8062420 484.492885
     47     69     88     1   129.1835930 285.070775
     48     47     69     1   126.8062420 484.492885
     48     49     50     1   126.8062420 484.492885
     48     49     74     1   129.1835930 285.070775
     49     48     73     1   129.1835930 285.070775
     49     50     51     1   126.8062420 484.492885
     49     50     59     1   126.8062420 484.492885
     50     49     74     1   129.1835930 285.070775
     50     51     52     1   126.8062420 484.492885
     50     51     58     1   126.8062420 484.492885
     50     59     60     1   126.8062420 484.492885
     50     59     69     1   126.8062420 484.492885
     51     50     59     1   126.8062420 484.492885
     51     52     53     1   126.8062420 484.492885
     51     52     75     1   129.1835930 285.070775
     51     58     57     1   126.8062420 484.492885
     51     58     78     1   129.1835930 285.070775
     52     51     58     1   126.8062420 484.492885
     52     53     54     1   126.8062420 484.492885
     52     53     56     1   126.8062420 484.492885
     53     52     75     1   129.1835930 285.070775
     53     54     55     1   126.8062420 484.492885
     53     56     57     1   126.8062420 484.492885
     53     56     76     1   129.1835930 285.070775
     54     53     56     1   126.8062420 484.492885
     56     57     58     1   126.8062420 484.492885
     56     57     77     1   129.1835930 285.070775
     57     56     76     1   129.1835930 285.070775
     57     58     78     1   129.1835930 285.070775
     58     57     77     1   129.1835930 285.070775
     59     60     61     1   126.8062420 484.492885
     59     60     68     1   126.8062420 484.492885
     59     69     88     1   129.1835930 285.070775
     60     59     69     1   126.8062420 484.492885
     60     61     62     1   126.8062420 484.492885
     60     61     79     1   129.1835930 285.070775
     60     68     67     1   126.8062420 484.492885
     60     68     87     1   129.1835930 285.070775
     61     60     68     1   126.8062420 484.492885
     61     62     63     1   126.8062420 484.492885
     61     62     66     1   126.8062420 484.492885
     62     61     79     1   129.1835930 285.070775
     62     63     64     1   107.6607822 425.669015
     62     63     65     1   107.6607822 425.669015
     62     63     80     1   107.6607822 425.669015
     62     66     67     1   126.8062420 484.492885
     62     66     85     1   129.1835930 285.070775
     63     62     66     1   126.8062420 484.492885
     63     64     81     1   107.6607822 425.669015
     63     64     82     1   107.6607822 425.669015
     63     64     83     1   107.6607822 425.669015
     63     65     84     1   115.5071328 530.901283
     63     65     98     1   117.3465571 463.769802
     64     63     65     1   107.6607822 425.669015
     64     63     80     1   107.6607822 425.669015
     65     63     80     1   107.6607822 425.669015
     65     98     97     1   126.8062420 484.492885
     65     98     99     1   126.8062420 484.492885
     66     67     68     1   126.8062420 484.492885
     66     67     86     1   129.1835930 285.070775
     67     66     85     1   129.1835930 285.070775
     67     68     87     1   129.1835930 285.070775
     68     67     86     1   129.1835930 285.070775
     70     45     71     1   115.6031000 408.161690
     70     45     72     1   115.6031000 408.161690
     71     45     72     1   115.6031000 408.161690
     81     64     82     1   115.6031000 408.161690
     81     64     83     1   115.6031000 408.161690
     82     64     83     1   115.6031000 408.161690
     84     65     98     1   115.5071328 530.901283
     89     90     91     1   110.3538806 544.678275
     90     89    114     1   107.6607822 425.669015
     90     89    115     1   107.6607822 425.669015
     90     89    116     1   107.6607822 425.669015
     90     91     92     1   126.8062420 484.492885
     90     91    113     1   126.8062420 484.492885
     91     92     93     1   126.8062420 484.492885
     91     92    117     1   129.1835930 285.070775
     91    113    103     1   126.8062420 484.492885
     91    113    132     1   129.1835930 285.070775
     92     91    113     1   126.8062420 484.492885
     92     93     94     1   126.8062420 484.492885
     92     93    118     1   129.1835930 285.070775
     93     92    117     1   129.1835930 285.070775
     93     94     95     1   126.8062420 484.492885
     93     94    103     1   126.8062420 484.492885
     94     93    118     1   129.1835930 285.070775
     94     95     96     1   126.8062420 484.492885
     94     95    102     1   126.8062420 484.492885
     94    103    104     1   126.8062420 484.492885
     94    103    113     1   126.8062420 484.492885
     95     94    103     1   126.8062420 484.492885
     95     96     97     1   126.8062420 484.492885
     95     96    119     1   129.1835930 285.070775
     95    102    101     1   126.8062420 484.492885
     95    102    122     1   129.1835930 285.070775
     96     95    102     1   126.8062420 484.492885
     96     97     98     1   126.8062420 484.492885
     96     97    100     1   126.8062420 484.492885
     97     96    119     1   129.1835930 285.070775
     97     98     99     1   126.8062420 484.492885
     97    100    101     1   126.8062420 484.492885
     97    100    120     1   129.1835930 285.070775
     98     97    100     1   126.8062420 484.492885
    100    101    102     1   126.8062420 484.492885
    100    101    121     1   129.1835930 285.070775
    101    100    120     1   129.1835930 285.070775
    101    102    122     1   129.1835930 285.070775
    102    101    121     1   129.1835930 285.070775
    103    104    105     1   126.8062420 484.492885
    103    104    112     1   126.8062420 484.492885
    103    113    132     1   129.1835930 285.070775
    104    103    113     1   126.8062420 484.492885
    104    105    106     1   126.8062420 484.492885
    104    105    123     1   129.1835930 285.070775
    104    112    111     1   126.8062420 484.492885
    104    112    131     1   129.1835930 285.070775
    105    104    112     1   126.8062420 484.492885
    105    106    107     1   126.8062420 484.492885
    105    106    110     1   126.8062420 484.492885
    106    105    123     1   129.1835930 285.070775
    106    107    108     1   107.6607822 425.669015
    106    107    109     1   107.6607822 425.669015
    106    107    124     1   107.6607822 425.669015
    106    110    111     1   126.8062420 484.492885
    106    110    129     1   129.1835930 285.070775
    107    106    110     1   126.8062420 484.492885
    107    108    125     1   107.6607822 425.669015
    107    108    126     1   107.6607822 425.669015
    107    108    127     1   107.6607822 425.669015
    107    109    128     1   115.5071328 530.901283
    107    109    142     1   117.3465571 463.769802
    108    107    109     1   107.6607822 425.669015
    108    107    124     1   107.6607822 425.669015
    109    107    124     1   107.6607822 425.669015
    109    142    141     1   126.8062420 484.492885
    109    142    143     1   126.8062420 484.492885
    110    111    112     1   126.8062420 484.492885
    110    111    130     1   129.1835930 285.070775
    111    110    129     1   129.1835930 285.070775
    111    112    131     1   129.1835930 285.070775
    112    111    130     1   129.1835930 285.070775
    114     89    115     1   115.6031000 408.161690
    114     89    116     1   115.6031000 408.161690
    115     89    116     1   115.6031000 408.161690
    125    108    126     1   115.6031000 408.161690
    125    108    127     1   115.6031000 408.161690
    126    108    127     1   115.6031000 408.161690
    128    109    142     1   115.5071328 530.901283
    133    134    135     1   110.3538806 544.678275
    134    133    158     1   107.6607822 425.669015
    134    133    159     1   107.6607822 425.669015
    134    133    160     1   107.6607822 425.669015
    134    135    136     1   126.8062420 484.492885
    134    135    157     1   126.8062420 484.492885
    135    136    137     1   126.8062420 484.492885
    135    136    161     1   129.1835930 285.070775
    135    157    147     1   126.8062420 484.492885
    135    157    176     1   129.1835930 285.070775
    136    135    157     1   126.8062420 484.492885
    136    137    138     1   126.8062420 484.492885
    136    137    162     1   129.1835930 285.070775
    137    136    161     1   129.1835930 285.070775
    137    138    139     1   126.8062420 484.492885
    137    138    147     1   126.8062420 484.492885
    138    137    162     1   129.1835930 285.070775
    138    139    140     1   126.8062420 484.492885
    138    139    146     1   126.8062420 484.492885
    138    147    148     1   126.8062420 484.492885
    138    147    157     1   126.8062420 484.492885
    139    138    147     1   126.8062420 484.492885
    139    140    141     1   126.8062420 484.492885
    139    140    163     1   129.1835930 285.070775
    139    146    145     1   126.8062420 484.492885
    139    146    166     1   129.1835930 285.070775
    140    139    146     1   126.8062420 484.492885
    140    141    142     1   126.8062420 484.492885
    140    141    144     1   126.8062420 484.492885
    141    140    163     1   129.1835930 285.070775
    141    142    143     1   126.8062420 484.492885
    141    144    145     1   126.8062420 484.492885
    141    144    164     1   129.1835930 285.070775
    142    141    144     1   126.8062420 484.492885
    144    145    146     1   126.8062420 484.492885
    144    145    165     1   129.1835930 285.070775
    145    144    164     1   129.1835930 285.070775
    145    146    166     1   129.1835930 285.070775
    146    145    165     1   129.1835930 285.070775
    147    148    149     1   126.8062420 484.492885
    147    148    156     1   126.8062420 484.492885
    147    157    176     1   129.1835930 285.070775
    148    147    157     1   126.8062420 484.492885
    148    149    150     1   126.8062420 484.492885
    148    149    167     1   129.1835930 285.070775
    148    156    155     1   126.8062420 484.492885
    148    156    175     1   129.1835930 285.070775
    149    148    156     1   126.8062420 484.492885
    149    150    151     1   126.8062420 484.492885
    149    150    154     1   126.8062420 484.492885
    150    149    167     1   129.1835930 285.070775
    150    151    152     1   107.6607822 425.669015
    150    151    153     1   107.6607822 425.669015
    150    151    168     1   107.6607822 425.669015
    150    154    155     1   126.8062420 484.492885
    150    154    173     1   129.1835930 285.070775
    151    150    154     1   126.8062420 484.492885
    151    152    169     1   107.6607822 425.669015
    151    152    170     1   107.6607822 425.669015
    151    152    171     1   107.6607822 425.669015
    151    153    172     1   115.5071328 530.901283
    151    153    187     1   117.3465571 463.769802
    152    151    153     1   107.6607822 425.669015
    152    151    168     1   107.6607822 425.669015
    153    151    168     1   107.6607822 425.669015
    153    187    186     1   126.8062420 484.492885
    153    187    188     1   126.8062420 484.492885
    154    155    156     1   126.8062420 484.492885
    154    155    174     1   129.1835930 285.070775
    155    154    173     1   129.1835930 285.070775
    155    156    175     1   129.1835930 285.070775
    156    155    174     1   129.1835930 285.070775
    158    133    159     1   115.6031000 408.161690
    158    133    160     1   115.6031000 408.161690
    159    133    160     1   115.6031000 408.161690
    169    152    170     1   115.6031000 408.161690
    169    152    171     1   115.6031000 408.161690
    170    152    171     1   115.6031000 408.161690
    172    153    187     1   115.5071328 530.901283
    178    177    179     1   107.6607822 425.669015
    178    177    180     1   107.6607822 425.669015
    178    177    181     1   107.6607822 425.669015
    179    177    180     1   115.6031000 408.161690
    179    177    181     1   115.6031000 408.161690
    180    177    181     1   115.6031000 408.161690
    182    183    184     1   107.6607822 425.669015
    182    183    185     1   107.6607822 425.669015
    182    183    186     1   107.6607822 425.669015
    183    182    189     1   107.6607822 425.669015
    183    182    190     1   107.6607822 425.669015
    183    182    191     1   107.6607822 425.669015
    183    184    192     1   107.6607822 425.669015
    183    184    193     1   107.6607822 425.669015
    183    184    194     1   107.6607822 425.669015
    183    185    195     1   107.6607822 425.669015
    183    185    196     1   107.6607822 425.669015
    183    185    197     1   107.6607822 425.669015
    183    186    187     1   110.3538806 544.678275
    184    183    185     1   107.6607822 425.669015
    184    183    186     1   107.6607822 425.669015
    185    183    186     1   107.6607822 425.669015
    186    187    188     1   127.4691416 1685.413543
    189    182    190     1   115.6031000 408.161690
    189    182    191     1   115.6031000 408.161690
    190    182    191     1   115.6031000 408.161690
    192    184    193     1   115.6031000 408.161690
    192    184    194     1   115.6031000 408.161690
    193    184    194     1   115.6031000 408.161690
    195    185    196     1   115.6031000 408.161690
    195    185    197     1   115.6031000 408.161690
    196    185    197     1   115.6031000 408.161690

[ dihedrals ]
;    ai     aj     ak     al funct         c0         c1         c2         c3         c4         c5
      1      2      3      4     1  180.0000000  6.4108617  2
      1      2      3     25     1  180.0000000  6.4108617  2
      2      3      4      5     1  180.0000000  15.3215155  2
      2      3      4     29     1  180.0000000  15.3215155  2
      2      3     25     15     1  180.0000000  15.3215155  2
      2      3     25     44     1  180.0000000  15.3215155  2
      3      2      1     26     1  0.0000000  0.1982205  3
      3      2      1     27     1  0.0000000  0.1982205  3
      3      2      1     28     1  0.0000000  0.1982205  3
      3      4      5      6     1  180.0000000  15.3215155  2
      3      4      5     30     1  180.0000000  15.3215155  2
      3     25     15      6     1  180.0000000  15.3215155  2
      3     25     15     16     1  180.0000000  15.3215155  2
      4      3     25     15     1  180.0000000  15.3215155  2
      4      3     25     44     1  180.0000000  15.3215155  2
      4      5      6      7     1  180.0000000  15.3215155  2
      4      5      6     15     1  180.0000000  15.3215155  2
      5      4      3     25     1  180.0000000  15.3215155  2
      5      6      7      8     1  180.0000000  4.8669776  2
      5      6      7     14     1  180.0000000  4.8669776  2
      5      6     15     16     1  180.0000000  15.3215155  2
      5      6     15     25     1  180.0000000  15.3215155  2
      6      5      4     29     1  180.0000000  15.3215155  2
      6      7      8      9     1  180.0000000  15.3215155  2
      6      7      8     31     1  180.0000000  15.3215155  2
      6      7     14     13     1  180.0000000  15.3215155  2
      6      7     14     34     1  180.0000000  15.3215155  2
      6     15     16     17     1  180.0000000  4.8669776  2
      6     15     16     24     1  180.0000000  4.8669776  2
      6     15     25     44     1  180.0000000  15.3215155  2
      7      6      5     30     1  180.0000000  15.3215155  2
      7      6     15     16     1  180.0000000  15.3215155  2
      7      6     15     25     1  180.0000000  15.3215155  2
      7      8      9     10     1  180.0000000  15.3215155  2
      7      8      9     12     1  180.0000000  15.3215155  2
      7     14     13     12     1  180.0000000  15.3215155  2
      7     14     13     33     1  180.0000000  15.3215155  2
      8      7      6     15     1  180.0000000  4.8669776  2
      8      7     14     13     1  180.0000000  15.3215155  2
      8      7     14     34     1  180.0000000  15.3215155  2
      8      9     10     11     1  180.0000000  4.1731909  2
      8      9     10    178     1  180.0000000  4.1731909  2
      8      9     12     13     1  180.0000000  15.3215155  2
      8      9     12     32     1  180.0000000  15.3215155  2
      9      8      7     14     1  180.0000000  15.3215155  2
      9     10    178    177     1  180.0000000  11.6309081  2
      9     12     13     14     1  180.0000000  15.3215155  2
      9     12     13     33     1  180.0000000  15.3215155  2
     10      9      8     31     1  180.0000000  15.3215155  2
     10      9     12     13     1  180.0000000  15.3215155  2
     10      9     12     32     1  180.0000000  15.3215155  2
     10    178    177    179     1  0.0000000  0.1982205  3
     10    178    177    180     1  0.0000000  0.1982205  3
     10    178    177    181     1  0.0000000  0.1982205  3
     11     10      9     12     1  180.0000000  4.1731909  2
     11     10    178    177     1  180.0000000  4.8693776  2
     11     10    178    177     1  180.0000000  0.7025718  1
     12      9      8     31     1  180.0000000  15.3215155  2
     12      9     10    178     1  180.0000000  4.1731909  2
     12     13     14     34     1  180.0000000  15.3215155  2
     14      7      6     15     1  180.0000000  4.8669776  2
     14      7      8     31     1  180.0000000  15.3215155  2
     14     13     12     32     1  180.0000000  15.3215155  2
     15      6      5     30     1  180.0000000  15.3215155  2
     15     16     17     18     1  180.0000000  15.3215155  2
     15     16     17     35     1  180.0000000  15.3215155  2
     15     16     24     23     1  180.0000000  15.3215155  2
     15     16     24     43     1  180.0000000  15.3215155  2
     16     15     25     44     1  180.0000000  15.3215155  2
     16     17     18     19     1  180.0000000  15.3215155  2
     16     17     18     22     1  180.0000000  15.3215155  2
     16     24     23     22     1  180.0000000  15.3215155  2
     16     24     23     42     1  180.0000000  15.3215155  2
     17     16     15     25     1  180.0000000  4.8669776  2
     17     16     24     23     1  180.0000000  15.3215155  2
     17     16     24     43     1  180.0000000  15.3215155  2
     17     18     19     20     1  0.0000000  0.1115010  3
     17     18     19     21     1  0.0000000  0.1115010  3
     17     18     19     36     1  0.0000000  0.1115010  3
     17     18     22     23     1  180.0000000  15.3215155  2
     17     18     22     41     1  180.0000000  15.3215155  2
     18     17     16     24     1  180.0000000  15.3215155  2
     18     19     20     37     1  0.0000000  0.4834079  3
     18     19     20     38     1  0.0000000  0.4834079  3
     18     19     20     39     1  0.0000000  0.4834079  3
     18     19     21     40     1  0.0000000  0.7624859  2
     18     19     21     40     1  0.0000000  0.1243628  3
     18     19     21     54     1  180.0000000  -2.8834993  2
     18     19     21     54     1  0.0000000  1.1413309  1
     18     22     23     24     1  180.0000000  15.3215155  2
     18     22     23     42     1  180.0000000  15.3215155  2
     19     18     17     35     1  180.0000000  15.3215155  2
     19     18     22     23     1  180.0000000  15.3215155  2
     19     18     22     41     1  180.0000000  15.3215155  2
     19     21     54     53     1  180.0000000  7.5690543  2
     19     21     54     53     1  0.0000000  -0.2015131  1
     19     21     54     55     1  180.0000000  12.9785537  2
     19     21     54     55     1  0.0000000  -1.7791009  1
     20     19     18     22     1  0.0000000  0.1115010  3
     20     19     21     40     1  0.0000000  0.7624859  2
     20     19     21     40     1  0.0000000  0.1243628  3
     20     19     21     54     1  180.0000000  -0.6228629  4
     20     19     21     54     1  180.0000000  -0.5147696  3
     20     19     21     54     1  0.0000000  1.2298012  2
     20     19     21     54     1  0.0000000  -1.2652947  1
     21     19     18     22     1  0.0000000  0.1115010  3
     21     19     20     37     1  0.0000000  0.4834079  3
     21     19     20     38     1  0.0000000  0.4834079  3
     21     19     20     39     1  0.0000000  0.4834079  3
     21     54     53     52     1  180.0000000  4.1731909  2
     21     54     53     56     1  180.0000000  4.1731909  2
     22     18     17     35     1  180.0000000  15.3215155  2
     22     18     19     36     1  0.0000000  0.1115010  3
     22     23     24     43     1  180.0000000  15.3215155  2
     24     16     15     25     1  180.0000000  4.8669776  2
     24     16     17     35     1  180.0000000  15.3215155  2
     24     23     22     41     1  180.0000000  15.3215155  2
     25      3      4     29     1  180.0000000  15.3215155  2
     29      4      5     30     1  180.0000000  15.3215155  2
     32     12     13     33     1  180.0000000  15.3215155  2
     33     13     14     34     1  180.0000000  15.3215155  2
     36     19     20     37     1  0.0000000  0.7999501  3
     36     19     20     38     1  0.0000000  0.7999501  3
     36     19     20     39     1  0.0000000  0.7999501  3
     36     19     21     40     1  0.0000000  0.7624859  2
     36     19     21     40     1  0.0000000  0.1243628  3
     36     19     21     54     1  0.0000000  0.7624859  2
     36     19     21     54     1  0.0000000  0.1243628  3
     40     21     54     53     1  180.0000000  7.5690543  2
     40     21     54     53     1  0.0000000  -0.2015131  1
     40     21     54     55     1  180.0000000  9.8256037  2
     40     21     54     55     1  0.0000000  5.2557574  1
     41     22     23     42     1  180.0000000  15.3215155  2
     42     23     24     43     1  180.0000000  15.3215155  2
     45     46     47     48     1  180.0000000  6.4108617  2
     45     46     47     69     1  180.0000000  6.4108617  2
     46     47     48     49     1  180.0000000  15.3215155  2
     46     47     48     73     1  180.0000000  15.3215155  2
     46     47     69     59     1  180.0000000  15.3215155  2
     46     47     69     88     1  180.0000000  15.3215155  2
     47     46     45     70     1  0.0000000  0.1982205  3
     47     46     45     71     1  0.0000000  0.1982205  3
     47     46     45     72     1  0.0000000  0.1982205  3
     47     48     49     50     1  180.0000000  15.3215155  2
     47     48     49     74     1  180.0000000  15.3215155  2
     47     69     59     50     1  180.0000000  15.3215155  2
     47     69     59     60     1  180.0000000  15.3215155  2
     48     47     69     59     1  180.0000000  15.3215155  2
     48     47     69     88     1  180.0000000  15.3215155  2
     48     49     50     51     1  180.0000000  15.3215155  2
     48     49     50     59     1  180.0000000  15.3215155  2
     49     48     47     69     1  180.0000000  15.3215155  2
     49     50     51     52     1  180.0000000  4.8669776  2
     49     50     51     58     1  180.0000000  4.8669776  2
     49     50     59     60     1  180.0000000  15.3215155  2
     49     50     59     69     1  180.0000000  15.3215155  2
     50     49     48     73     1  180.0000000  15.3215155  2
     50     51     52     53     1  180.0000000  15.3215155  2
     50     51     52     75     1  180.0000000  15.3215155  2
     50     51     58     57     1  180.0000000  15.3215155  2
     50     51     58     78     1  180.0000000  15.3215155  2
     50     59     60     61     1  180.0000000  4.8669776  2
     50     59     60     68     1  180.0000000  4.8669776  2
     50     59     69     88     1  180.0000000  15.3215155  2
     51     50     49     74     1  180.0000000  15.3215155  2
     51     50     59     60     1  180.0000000  15.3215155  2
     51     50     59     69     1  180.0000000  15.3215155  2
     51     52     53     54     1  180.0000000  15.3215155  2
     51     52     53     56     1  180.0000000  15.3215155  2
     51     58     57     56     1  180.0000000  15.3215155  2
     51     58     57     77     1  180.0000000  15.3215155  2
     52     51     50     59     1  180.0000000  4.8669776  2
     52     51     58     57     1  180.0000000  15.3215155  2
     52     51     58     78     1  180.0000000  15.3215155  2
     52     53     54     55     1  180.0000000  4.1731909  2
     52     53     56     57     1  180.0000000  15.3215155  2
     52     53     56     76     1  180.0000000  15.3215155  2
     53     52     51     58     1  180.0000000  15.3215155  2
     53     56     57     58     1  180.0000000  15.3215155  2
     53     56     57     77     1  180.0000000  15.3215155  2
     54     53     52     75     1  180.0000000  15.3215155  2
     54     53     56     57     1  180.0000000  15.3215155  2
     54     53     56     76     1  180.0000000  15.3215155  2
     55     54     53     56     1  180.0000000  4.1731909  2
     56     53     52     75     1  180.0000000  15.3215155  2
     56     57     58     78     1  180.0000000  15.3215155  2
     58     51     50     59     1  180.0000000  4.8669776  2
     58     51     52     75     1  180.0000000  15.3215155  2
     58     57     56     76     1  180.0000000  15.3215155  2
     59     50     49     74     1  180.0000000  15.3215155  2
     59     60     61     62     1  180.0000000  15.3215155  2
     59     60     61     79     1  180.0000000  15.3215155  2
     59     60     68     67     1  180.0000000  15.3215155  2
     59     60     68     87     1  180.0000000  15.3215155  2
     60     59     69     88     1  180.0000000  15.3215155  2
     60     61     62     63     1  180.0000000  15.3215155  2
     60     61     62     66     1  180.0000000  15.3215155  2
     60     68     67     66     1  180.0000000  15.3215155  2
     60     68     67     86     1  180.0000000  15.3215155  2
     61     60     59     69     1  180.0000000  4.8669776  2
     61     60     68     67     1  180.0000000  15.3215155  2
     61     60     68     87     1  180.0000000  15.3215155  2
     61     62     63     64     1  0.0000000  0.1115010  3
     61     62     63     65     1  0.0000000  0.1115010  3
     61     62     63     80     1  0.0000000  0.1115010  3
     61     62     66     67     1  180.0000000  15.3215155  2
     61     62     66     85     1  180.0000000  15.3215155  2
     62     61     60     68     1  180.0000000  15.3215155  2
     62     63     64     81     1  0.0000000  0.4834079  3
     62     63     64     82     1  0.0000000  0.4834079  3
     62     63     64     83     1  0.0000000  0.4834079  3
     62     63     65     84     1  0.0000000  0.7624859  2
     62     63     65     84     1  0.0000000  0.1243628  3
     62     63     65     98     1  180.0000000  -2.8834993  2
     62     63     65     98     1  0.0000000  1.1413309  1
     62     66     67     68     1  180.0000000  15.3215155  2
     62     66     67     86     1  180.0000000  15.3215155  2
     63     62     61     79     1  180.0000000  15.3215155  2
     63     62     66     67     1  180.0000000  15.3215155  2
     63     62     66     85     1  180.0000000  15.3215155  2
     63     65     98     97     1  180.0000000  7.5690543  2
     63     65     98     97     1  0.0000000  -0.2015131  1
     63     65     98     99     1  180.0000000  12.9785537  2
     63     65     98     99     1  0.0000000  -1.7791009  1
     64     63     62     66     1  0.0000000  0.1115010  3
     64     63     65     84     1  0.0000000  0.7624859  2
     64     63     65     84     1  0.0000000  0.1243628  3
     64     63     65     98     1  180.0000000  -0.6228629  4
     64     63     65     98     1  180.0000000  -0.5147696  3
     64     63     65     98     1  0.0000000  1.2298012  2
     64     63     65     98     1  0.0000000  -1.2652947  1
     65     63     62     66     1  0.0000000  0.1115010  3
     65     63     64     81     1  0.0000000  0.4834079  3
     65     63     64     82     1  0.0000000  0.4834079  3
     65     63     64     83     1  0.0000000  0.4834079  3
     65     98     97     96     1  180.0000000  4.1731909  2
     65     98     97    100     1  180.0000000  4.1731909  2
     66     62     61     79     1  180.0000000  15.3215155  2
     66     62     63     80     1  0.0000000  0.1115010  3
     66     67     68     87     1  180.0000000  15.3215155  2
     68     60     59     69     1  180.0000000  4.8669776  2
     68     60     61     79     1  180.0000000  15.3215155  2
     68     67     66     85     1  180.0000000  15.3215155  2
     69     47     48     73     1  180.0000000  15.3215155  2
     73     48     49     74     1  180.0000000  15.3215155  2
     76     56     57     77     1  180.0000000  15.3215155  2
     77     57     58     78     1  180.0000000  15.3215155  2
     80     63     64     81     1  0.0000000  0.7999501  3
     80     63     64     82     1  0.0000000  0.7999501  3
     80     63     64     83     1  0.0000000  0.7999501  3
     80     63     65     84     1  0.0000000  0.7624859  2
     80     63     65     84     1  0.0000000  0.1243628  3
     80     63     65     98     1  0.0000000  0.7624859  2
     80     63     65     98     1  0.0000000  0.1243628  3
     84     65     98     97     1  180.0000000  7.5690543  2
     84     65     98     97     1  0.0000000  -0.2015131  1
     84     65     98     99     1  180.0000000  9.8256037  2
     84     65     98     99     1  0.0000000  5.2557574  1
     85     66     67     86     1  180.0000000  15.3215155  2
     86     67     68     87     1  180.0000000  15.3215155  2
     89     90     91     92     1  180.0000000  6.4108617  2
     89     90     91    113     1  180.0000000  6.4108617  2
     90     91     92     93     1  180.0000000  15.3215155  2
     90     91     92    117     1  180.0000000  15.3215155  2
     90     91    113    103     1  180.0000000  15.3215155  2
     90     91    113    132     1  180.0000000  15.3215155  2
     91     90     89    114     1  0.0000000  0.1982205  3
     91     90     89    115     1  0.0000000  0.1982205  3
     91     90     89    116     1  0.0000000  0.1982205  3
     91     92     93     94     1  180.0000000  15.3215155  2
     91     92     93    118     1  180.0000000  15.3215155  2
     91    113    103     94     1  180.0000000  15.3215155  2
     91    113    103    104     1  180.0000000  15.3215155  2
     92     91    113    103     1  180.0000000  15.3215155  2
     92     91    113    132     1  180.0000000  15.3215155  2
     92     93     94     95     1  180.0000000  15.3215155  2
     92     93     94    103     1  180.0000000  15.3215155  2
     93     92     91    113     1  180.0000000  15.3215155  2
     93     94     95     96     1  180.0000000  4.8669776  2
     93     94     95    102     1  180.0000000  4.8669776  2
     93     94    103    104     1  180.0000000  15.3215155  2
     93     94    103    113     1  180.0000000  15.3215155  2
     94     93     92    117     1  180.0000000  15.3215155  2
     94     95     96     97     1  180.0000000  15.3215155  2
     94     95     96    119     1  180.0000000  15.3215155  2
     94     95    102    101     1  180.0000000  15.3215155  2
     94     95    102    122     1  180.0000000  15.3215155  2
     94    103    104    105     1  180.0000000  4.8669776  2
     94    103    104    112     1  180.0000000  4.8669776  2
     94    103    113    132     1  180.0000000  15.3215155  2
     95     94     93    118     1  180.0000000  15.3215155  2
     95     94    103    104     1  180.0000000  15.3215155  2
     95     94    103    113     1  180.0000000  15.3215155  2
     95     96     97     98     1  180.0000000  15.3215155  2
     95     96     97    100     1  180.0000000  15.3215155  2
     95    102    101    100     1  180.0000000  15.3215155  2
     95    102    101    121     1  180.0000000  15.3215155  2
     96     95     94    103     1  180.0000000  4.8669776  2
     96     95    102    101     1  180.0000000  15.3215155  2
     96     95    102    122     1  180.0000000  15.3215155  2
     96     97     98     99     1  180.0000000  4.1731909  2
     96     97    100    101     1  180.0000000  15.3215155  2
     96     97    100    120     1  180.0000000  15.3215155  2
     97     96     95    102     1  180.0000000  15.3215155  2
     97    100    101    102     1  180.0000000  15.3215155  2
     97    100    101    121     1  180.0000000  15.3215155  2
     98     97     96    119     1  180.0000000  15.3215155  2
     98     97    100    101     1  180.0000000  15.3215155  2
     98     97    100    120     1  180.0000000  15.3215155  2
     99     98     97    100     1  180.0000000  4.1731909  2
    100     97     96    119     1  180.0000000  15.3215155  2
    100    101    102    122     1  180.0000000  15.3215155  2
    102     95     94    103     1  180.0000000  4.8669776  2
    102     95     96    119     1  180.0000000  15.3215155  2
    102    101    100    120     1  180.0000000  15.3215155  2
    103     94     93    118     1  180.0000000  15.3215155  2
    103    104    105    106     1  180.0000000  15.3215155  2
    103    104    105    123     1  180.0000000  15.3215155  2
    103    104    112    111     1  180.0000000  15.3215155  2
    103    104    112    131     1  180.0000000  15.3215155  2
    104    103    113    132     1  180.0000000  15.3215155  2
    104    105    106    107     1  180.0000000  15.3215155  2
    104    105    106    110     1  180.0000000  15.3215155  2
    104    112    111    110     1  180.0000000  15.3215155  2
    104    112    111    130     1  180.0000000  15.3215155  2
    105    104    103    113     1  180.0000000  4.8669776  2
    105    104    112    111     1  180.0000000  15.3215155  2
    105    104    112    131     1  180.0000000  15.3215155  2
    105    106    107    108     1  0.0000000  0.1115010  3
    105    106    107    109     1  0.0000000  0.1115010  3
    105    106    107    124     1  0.0000000  0.1115010  3
    105    106    110    111     1  180.0000000  15.3215155  2
    105    106    110    129     1  180.0000000  15.3215155  2
    106    105    104    112     1  180.0000000  15.3215155  2
    106    107    108    125     1  0.0000000  0.4834079  3
    106    107    108    126     1  0.0000000  0.4834079  3
    106    107    108    127     1  0.0000000  0.4834079  3
    106    107    109    128     1  0.0000000  0.7624859  2
    106    107    109    128     1  0.0000000  0.1243628  3
    106    107    109    142     1  180.0000000  -2.8834993  2
    106    107    109    142     1  0.0000000  1.1413309  1
    106    110    111    112     1  180.0000000  15.3215155  2
    106    110    111    130     1  180.0000000  15.3215155  2
    107    106    105    123     1  180.0000000  15.3215155  2
    107    106    110    111     1  180.0000000  15.3215155  2
    107    106    110    129     1  180.0000000  15.3215155  2
    107    109    142    141     1  180.0000000  7.5690543  2
    107    109    142    141     1  0.0000000  -0.2015131  1
    107    109    142    143     1  180.0000000  12.9785537  2
    107    109    142    143     1  0.0000000  -1.7791009  1
    108    107    106    110     1  0.0000000  0.1115010  3
    108    107    109    128     1  0.0000000  0.7624859  2
    108    107    109    128     1  0.0000000  0.1243628  3
    108    107    109    142     1  180.0000000  -0.6228629  4
    108    107    109    142     1  180.0000000  -0.5147696  3
    108    107    109    142     1  0.0000000  1.2298012  2
    108    107    109    142     1  0.0000000  -1.2652947  1
    109    107    106    110     1  0.0000000  0.1115010  3
    109    107    108    125     1  0.0000000  0.4834079  3
    109    107    108    126     1  0.0000000  0.4834079  3
    109    107    108    127     1  0.0000000  0.4834079  3
    109    142    141    140     1  180.0000000  4.1731909  2
    109    142    141    144     1  180.0000000  4.1731909  2
    110    106    105    123     1  180.0000000  15.3215155  2
    110    106    107    124     1  0.0000000  0.1115010  3
    110    111    112    131     1  180.0000000  15.3215155  2
    112    104    103    113     1  180.0000000  4.8669776  2
    112    104    105    123     1  180.0000000  15.3215155  2
    112    111    110    129     1  180.0000000  15.3215155  2
    113     91     92    117     1  180.0000000  15.3215155  2
    117     92     93    118     1  180.0000000  15.3215155  2
    120    100    101    121     1  180.0000000  15.3215155  2
    121    101    102    122     1  180.0000000  15.3215155  2
    124    107    108    125     1  0.0000000  0.7999501  3
    124    107    108    126     1  0.0000000  0.7999501  3
    124    107    108    127     1  0.0000000  0.7999501  3
    124    107    109    128     1  0.0000000  0.7624859  2
    124    107    109    128     1  0.0000000  0.1243628  3
    124    107    109    142     1  0.0000000  0.7624859  2
    124    107    109    142     1  0.0000000  0.1243628  3
    128    109    142    141     1  180.0000000  7.5690543  2
    128    109    142    141     1  0.0000000  -0.2015131  1
    128    109    142    143     1  180.0000000  9.8256037  2
    128    109    142    143     1  0.0000000  5.2557574  1
    129    110    111    130     1  180.0000000  15.3215155  2
    130    111    112    131     1  180.0000000  15.3215155  2
    133    134    135    136     1  180.0000000  6.4108617  2
    133    134    135    157     1  180.0000000  6.4108617  2
    134    135    136    137     1  180.0000000  15.3215155  2
    134    135    136    161     1  180.0000000  15.3215155  2
    134    135    157    147     1  180.0000000  15.3215155  2
    134    135    157    176     1  180.0000000  15.3215155  2
    135    134    133    158     1  0.0000000  0.1982205  3
    135    134    133    159     1  0.0000000  0.1982205  3
    135    134    133    160     1  0.0000000  0.1982205  3
    135    136    137    138     1  180.0000000  15.3215155  2
    135    136    137    162     1  180.0000000  15.3215155  2
    135    157    147    138     1  180.0000000  15.3215155  2
    135    157    147    148     1  180.0000000  15.3215155  2
    136    135    157    147     1  180.0000000  15.3215155  2
    136    135    157    176     1  180.0000000  15.3215155  2
    136    137    138    139     1  180.0000000  15.3215155  2
    136    137    138    147     1  180.0000000  15.3215155  2
    137    136    135    157     1  180.0000000  15.3215155  2
    137    138    139    140     1  180.0000000  4.8669776  2
    137    138    139    146     1  180.0000000  4.8669776  2
    137    138    147    148     1  180.0000000  15.3215155  2
    137    138    147    157     1  180.0000000  15.3215155  2
    138    137    136    161     1  180.0000000  15.3215155  2
    138    139    140    141     1  180.0000000  15.3215155  2
    138    139    140    163     1  180.0000000  15.3215155  2
    138    139    146    145     1  180.0000000  15.3215155  2
    138    139    146    166     1  180.0000000  15.3215155  2
    138    147    148    149     1  180.0000000  4.8669776  2
    138    147    148    156     1  180.0000000  4.8669776  2
    138    147    157    176     1  180.0000000  15.3215155  2
    139    138    137    162     1  180.0000000  15.3215155  2
    139    138    147    148     1  180.0000000  15.3215155  2
    139    138    147    157     1  180.0000000  15.3215155  2
    139    140    141    142     1  180.0000000  15.3215155  2
    139    140    141    144     1  180.0000000  15.3215155  2
    139    146    145    144     1  180.0000000  15.3215155  2
    139    146    145    165     1  180.0000000  15.3215155  2
    140    139    138    147     1  180.0000000  4.8669776  2
    140    139    146    145     1  180.0000000  15.3215155  2
    140    139    146    166     1  180.0000000  15.3215155  2
    140    141    142    143     1  180.0000000  4.1731909  2
    140    141    144    145     1  180.0000000  15.3215155  2
    140    141    144    164     1  180.0000000  15.3215155  2
    141    140    139    146     1  180.0000000  15.3215155  2
    141    144    145    146     1  180.0000000  15.3215155  2
    141    144    145    165     1  180.0000000  15.3215155  2
    142    141    140    163     1  180.0000000  15.3215155  2
    142    141    144    145     1  180.0000000  15.3215155  2
    142    141    144    164     1  180.0000000  15.3215155  2
    143    142    141    144     1  180.0000000  4.1731909  2
    144    141    140    163     1  180.0000000  15.3215155  2
    144    145    146    166     1  180.0000000  15.3215155  2
    146    139    138    147     1  180.0000000  4.8669776  2
    146    139    140    163     1  180.0000000  15.3215155  2
    146    145    144    164     1  180.0000000  15.3215155  2
    147    138    137    162     1  180.0000000  15.3215155  2
    147    148    149    150     1  180.0000000  15.3215155  2
    147    148    149    167     1  180.0000000  15.3215155  2
    147    148    156    155     1  180.0000000  15.3215155  2
    147    148    156    175     1  180.0000000  15.3215155  2
    148    147    157    176     1  180.0000000  15.3215155  2
    148    149    150    151     1  180.0000000  15.3215155  2
    148    149    150    154     1  180.0000000  15.3215155  2
    148    156    155    154     1  180.0000000  15.3215155  2
    148    156    155    174     1  180.0000000  15.3215155  2
    149    148    147    157     1  180.0000000  4.8669776  2
    149    148    156    155     1  180.0000000  15.3215155  2
    149    148    156    175     1  180.0000000  15.3215155  2
    149    150    151    152     1  0.0000000  0.1115010  3
    149    150    151    153     1  0.0000000  0.1115010  3
    149    150    151    168     1  0.0000000  0.1115010  3
    149    150    154    155     1  180.0000000  15.3215155  2
    149    150    154    173     1  180.0000000  15.3215155  2
    150    149    148    156     1  180.0000000  15.3215155  2
    150    151    152    169     1  0.0000000  0.4834079  3
    150    151    152    170     1  0.0000000  0.4834079  3
    150    151    152    171     1  0.0000000  0.4834079  3
    150    151    153    172     1  0.0000000  0.7624859  2
    150    151    153    172     1  0.0000000  0.1243628  3
    150    151    153    187     1  180.0000000  -2.8834993  2
    150    151    153    187     1  0.0000000  1.1413309  1
    150    154    155    156     1  180.0000000  15.3215155  2
    150    154    155    174     1  180.0000000  15.3215155  2
    151    150    149    167     1  180.0000000  15.3215155  2
    151    150    154    155     1  180.0000000  15.3215155  2
    151    150    154    173     1  180.0000000  15.3215155  2
    151    153    187    186     1  180.0000000  7.5690543  2
    151    153    187    186     1  0.0000000  -0.2015131  1
    151    153    187    188     1  180.0000000  7.5690543  2
    151    153    187    188     1  0.0000000  -0.2015131  1
    152    151    150    154     1  0.0000000  0.1115010  3
    152    151    153    172     1  0.0000000  0.7624859  2
    152    151    153    172     1  0.0000000  0.1243628  3
    152    151    153    187     1  180.0000000  -0.6228629  4
    152    151    153    187     1  180.0000000  -0.5147696  3
    152    151    153    187     1  0.0000000  1.2298012  2
    152    151    153    187     1  0.0000000  -1.2652947  1
    153    151    150    154     1  0.0000000  0.1115010  3
    153    151    152    169     1  0.0000000  0.4834079  3
    153    151    152    170     1  0.0000000  0.4834079  3
    153    151    152    171     1  0.0000000  0.4834079  3
    153    187    186    183     1  180.0000000  11.6309081  2
    154    150    149    167     1  180.0000000  15.3215155  2
    154    150    151    168     1  0.0000000  0.1115010  3
    154    155    156    175     1  180.0000000  15.3215155  2
    156    148    147    157     1  180.0000000  4.8669776  2
    156    148    149    167     1  180.0000000  15.3215155  2
    156    155    154    173     1  180.0000000  15.3215155  2
    157    135    136    161     1  180.0000000  15.3215155  2
    161    136    137    162     1  180.0000000  15.3215155  2
    164    144    145    165     1  180.0000000  15.3215155  2
    165    145    146    166     1  180.0000000  15.3215155  2
    168    151    152    169     1  0.0000000  0.7999501  3
    168    151    152    170     1  0.0000000  0.7999501  3
    168    151    152    171     1  0.0000000  0.7999501  3
    168    151    153    172     1  0.0000000  0.7624859  2
    168    151    153    172     1  0.0000000  0.1243628  3
    168    151    153    187     1  0.0000000  0.7624859  2
    168    151    153    187     1  0.0000000  0.1243628  3
    172    153    187    186     1  180.0000000  7.5690543  2
    172    153    187    186     1  0.0000000  -0.2015131  1
    172    153    187    188     1  180.0000000  2.0338395  2
    172    153    187    188     1  0.0000000  3.7308670  1
    173    154    155    174     1  180.0000000  15.3215155  2
    174    155    156    175     1  180.0000000  15.3215155  2
    182    183    184    192     1  0.0000000  0.4354138  3
    182    183    184    193     1  0.0000000  0.4354138  3
    182    183    184    194     1  0.0000000  0.4354138  3
    182    183    185    195     1  0.0000000  0.4354138  3
    182    183    185    196     1  0.0000000  0.4354138  3
    182    183    185    197     1  0.0000000  0.4354138  3
    182    183    186    187     1  0.0000000  0.8026052  3
    182    183    186    187     1  180.0000000  3.8501921  1
    183    186    187    188     1  180.0000000  4.8693776  2
    183    186    187    188     1  180.0000000  0.7025718  1
    184    183    182    189     1  0.0000000  0.4354138  3
    184    183    182    190     1  0.0000000  0.4354138  3
    184    183    182    191     1  0.0000000  0.4354138  3
    184    183    185    195     1  0.0000000  0.4354138  3
    184    183    185    196     1  0.0000000  0.4354138  3
    184    183    185    197     1  0.0000000  0.4354138  3
    184    183    186    187     1  0.0000000  0.8026052  3
    184    183    186    187     1  180.0000000  3.8501921  1
    185    183    182    189     1  0.0000000  0.4354138  3
    185    183    182    190     1  0.0000000  0.4354138  3
    185    183    182    191     1  0.0000000  0.4354138  3
    185    183    184    192     1  0.0000000  0.4354138  3
    185    183    184    193     1  0.0000000  0.4354138  3
    185    183    184    194     1  0.0000000  0.4354138  3
    185    183    186    187     1  0.0000000  0.8026052  3
    185    183    186    187     1  180.0000000  3.8501921  1
    186    183    182    189     1  0.0000000  0.4667359  3
    186    183    182    189     1  0.0000000  1.4361539  1
    186    183    182    190     1  0.0000000  0.4667359  3
    186    183    182    190     1  0.0000000  1.4361539  1
    186    183    182    191     1  0.0000000  0.4667359  3
    186    183    182    191     1  0.0000000  1.4361539  1
    186    183    184    192     1  0.0000000  0.4667359  3
    186    183    184    192     1  0.0000000  1.4361539  1
    186    183    184    193     1  0.0000000  0.4667359  3
    186    183    184    193     1  0.0000000  1.4361539  1
    186    183    184    194     1  0.0000000  0.4667359  3
    186    183    184    194     1  0.0000000  1.4361539  1
    186    183    185    195     1  0.0000000  0.4667359  3
    186    183    185    195     1  0.0000000  1.4361539  1
    186    183    185    196     1  0.0000000  0.4667359  3
    186    183    185    196     1  0.0000000  1.4361539  1
    186    183    185    197     1  0.0000000  0.4667359  3
    186    183    185    197     1  0.0000000  1.4361539  1
    103     94    104    113     4  180.0000000  1.5341333  2
    138    147    137    139     4  180.0000000  1.5341333  2
     62     63     66     61     4  180.0000000  1.5341333  2
     52     51     53     75     4  180.0000000  1.5341333  2
      8     31      7      9     4  180.0000000  1.5341333  2
     24     23     43     16     4  180.0000000  1.5341333  2
     61     60     62     79     4  180.0000000  1.5341333  2
      6     15      5      7     4  180.0000000  1.5341333  2
     49     48     50     74     4  180.0000000  1.5341333  2
     10      9     11    178     4  180.0000000  14.6440000  2
    135    157    134    136     4  180.0000000  1.5341333  2
    110    111    129    106     4  180.0000000  1.5341333  2
    136    135    137    161     4  180.0000000  1.5341333  2
    102    101    122     95     4  180.0000000  1.5341333  2
    137    136    138    162     4  180.0000000  1.5341333  2
    137    138    162    136     4  180.0000000  1.5341333  2
     13     33     12     14     4  180.0000000  1.5341333  2
    140    139    141    163     4  180.0000000  1.5341333  2
    101    102    121    100     4  180.0000000  1.5341333  2
     91     90     92    113     4  180.0000000  1.5341333  2
     69     59     88     47     4  180.0000000  1.5341333  2
     51     58     50     52     4  180.0000000  1.5341333  2
     96     95     97    119     4  180.0000000  1.5341333  2
    104    105    112    103     4  180.0000000  1.5341333  2
    109    107    128    142     4  180.0000000  1.3946667  2
      3      2      4     25     4  180.0000000  1.5341333  2
     96     97    119     95     4  180.0000000  1.5341333  2
    106    110    105    107     4  180.0000000  1.5341333  2
      8      7      9     31     4  180.0000000  1.5341333  2
     25     15     44      3     4  180.0000000  1.5341333  2
     62     66     61     63     4  180.0000000  1.5341333  2
     15      6     16     25     4  180.0000000  1.5341333  2
     60     61     68     59     4  180.0000000  1.5341333  2
    145    144    146    165     4  180.0000000  1.5341333  2
    101    121    100    102     4  180.0000000  1.5341333  2
     49     74     48     50     4  180.0000000  1.5341333  2
    142    109    141    143     4  180.0000000  1.5341333  2
     94     93     95    103     4  180.0000000  1.5341333  2
     18     22     17     19     4  180.0000000  1.5341333  2
    150    151    154    149     4  180.0000000  1.5341333  2
    112    111    131    104     4  180.0000000  1.5341333  2
     57     77     56     58     4  180.0000000  1.5341333  2
    141    144    140    142     4  180.0000000  1.5341333  2
    147    148    157    138     4  180.0000000  1.5341333  2
     60     68     59     61     4  180.0000000  1.5341333  2
    105    123    104    106     4  180.0000000  1.5341333  2
     17     35     16     18     4  180.0000000  1.5341333  2
    150    149    151    154     4  180.0000000  1.5341333  2
     92     93    117     91     4  180.0000000  1.5341333  2
    113    132     91    103     4  180.0000000  1.5341333  2
    142    141    143    109     4  180.0000000  1.5341333  2
    148    156    147    149     4  180.0000000  1.5341333  2
     95     96    102     94     4  180.0000000  1.5341333  2
      5     30      4      6     4  180.0000000  1.5341333  2
     15     16     25      6     4  180.0000000  1.5341333  2
     23     22     24     42     4  180.0000000  1.5341333  2
    139    138    140    146     4  180.0000000  1.5341333  2
     25      3     15     44     4  180.0000000  1.5341333  2
      9     12      8     10     4  180.0000000  1.5341333  2
    111    130    110    112     4  180.0000000  1.5341333  2
     61     79     60     62     4  180.0000000  1.5341333  2
    105    106    123    104     4  180.0000000  1.5341333  2
    149    148    150    167     4  180.0000000  1.5341333  2
     47     69     46     48     4  180.0000000  1.5341333  2
     69     47     59     88     4  180.0000000  1.5341333  2
     22     41     18     23     4  180.0000000  1.5341333  2
     68     67     87     60     4  180.0000000  1.5341333  2
     97     96     98    100     4  180.0000000  1.5341333  2
    135    136    157    134     4  180.0000000  1.5341333  2
     51     50     52     58     4  180.0000000  1.5341333  2
     98     99     65     97     4  180.0000000  1.5341333  2
     61     62     79     60     4  180.0000000  1.5341333  2
     58     51     57     78     4  180.0000000  1.5341333  2
     58     57     78     51     4  180.0000000  1.5341333  2
    157    176    135    147     4  180.0000000  1.5341333  2
      3      4     25      2     4  180.0000000  1.5341333  2
     48     73     47     49     4  180.0000000  1.5341333  2
     59     69     50     60     4  180.0000000  1.5341333  2
     95    102     94     96     4  180.0000000  1.5341333  2
    153    172    187    151     4  180.0000000  1.3946667  2
    144    145    164    141     4  180.0000000  1.5341333  2
    155    156    174    154     4  180.0000000  1.5341333  2
     21     19     40     54     4  180.0000000  1.3946667  2
     12     32      9     13     4  180.0000000  1.5341333  2
      5      4      6     30     4  180.0000000  1.5341333  2
     95     94     96    102     4  180.0000000  1.5341333  2
     65     98     63     84     4  180.0000000  1.3946667  2
    109    142    107    128     4  180.0000000  1.3946667  2
      4      3      5     29     4  180.0000000  1.5341333  2
    157    147    176    135     4  180.0000000  1.5341333  2
     24     43     16     23     4  180.0000000  1.5341333  2
     93     94    118     92     4  180.0000000  1.5341333  2
     68     87     60     67     4  180.0000000  1.5341333  2
     52     53     75     51     4  180.0000000  1.5341333  2
    148    147    149    156     4  180.0000000  1.5341333  2
    153    151    172    187     4  180.0000000  1.3946667  2
     93     92     94    118     4  180.0000000  1.5341333  2
     10     11    178      9     4  180.0000000  14.6440000  2
    138    137    139    147     4  180.0000000  1.5341333  2
     93    118     92     94     4  180.0000000  1.5341333  2
     91    113     90     92     4  180.0000000  1.5341333  2
    102    122     95    101     4  180.0000000  1.5341333  2
     14     34      7     13     4  180.0000000  1.5341333  2
     56     76     53     57     4  180.0000000  1.5341333  2
    187    188    153    186     4  180.0000000  14.6440000  2
    138    139    147    137     4  180.0000000  1.5341333  2
      9     10     12      8     4  180.0000000  1.5341333  2
     65     84     98     63     4  180.0000000  1.3946667  2
    102     95    101    122     4  180.0000000  1.5341333  2
    149    167    148    150     4  180.0000000  1.5341333  2
     50     49     51     59     4  180.0000000  1.5341333  2
    154    155    173    150     4  180.0000000  1.5341333  2
    100    101    120     97     4  180.0000000  1.5341333  2
    145    165    144    146     4  180.0000000  1.5341333  2
     12      9     13     32     4  180.0000000  1.5341333  2
     65     63     84     98     4  180.0000000  1.3946667  2
    136    161    135    137     4  180.0000000  1.5341333  2
    136    137    161    135     4  180.0000000  1.5341333  2
    100    120     97    101     4  180.0000000  1.5341333  2
     92    117     91     93     4  180.0000000  1.5341333  2
    146    145    166    139     4  180.0000000  1.5341333  2
     53     54     56     52     4  180.0000000  1.5341333  2
     54     53     55     21     4  180.0000000  1.5341333  2
    142    143    109    141     4  180.0000000  1.5341333  2
    139    140    146    138     4  180.0000000  1.5341333  2
    148    149    156    147     4  180.0000000  1.5341333  2
     13     12     14     33     4  180.0000000  1.5341333  2
    135    134    136    157     4  180.0000000  1.5341333  2
     48     49     73     47     4  180.0000000  1.5341333  2
    149    150    167    148     4  180.0000000  1.5341333  2
     98     65     97     99     4  180.0000000  1.5341333  2
     47     48     69     46     4  180.0000000  1.5341333  2
     48     47     49     73     4  180.0000000  1.5341333  2
    156    148    155    175     4  180.0000000  1.5341333  2
      6      7     15      5     4  180.0000000  1.5341333  2
     62     61     63     66     4  180.0000000  1.5341333  2
    112    131    104    111     4  180.0000000  1.5341333  2
     56     57     76     53     4  180.0000000  1.5341333  2
    146    166    139    145     4  180.0000000  1.5341333  2
    109    128    142    107     4  180.0000000  1.3946667  2
    144    141    145    164     4  180.0000000  1.5341333  2
     67     66     68     86     4  180.0000000  1.5341333  2
     56     53     57     76     4  180.0000000  1.5341333  2
    156    155    175    148     4  180.0000000  1.5341333  2
     57     56     58     77     4  180.0000000  1.5341333  2
      7      8     14      6     4  180.0000000  1.5341333  2
     12     13     32      9     4  180.0000000  1.5341333  2
    139    146    138    140     4  180.0000000  1.5341333  2
      7      6      8     14     4  180.0000000  1.5341333  2
     17     16     18     35     4  180.0000000  1.5341333  2
     18     19     22     17     4  180.0000000  1.5341333  2
     52     75     51     53     4  180.0000000  1.5341333  2
      3     25      2      4     4  180.0000000  1.5341333  2
     54     21     53     55     4  180.0000000  1.5341333  2
    187    153    186    188     4  180.0000000  14.6440000  2
    104    103    105    112     4  180.0000000  1.5341333  2
     50     51     59     49     4  180.0000000  1.5341333  2
     22     18     23     41     4  180.0000000  1.5341333  2
    187    186    188    153     4  180.0000000  14.6440000  2
    154    150    155    173     4  180.0000000  1.5341333  2
     16     15     17     24     4  180.0000000  1.5341333  2
     96    119     95     97     4  180.0000000  1.5341333  2
     15     25      6     16     4  180.0000000  1.5341333  2
     67     86     66     68     4  180.0000000  1.5341333  2
    154    173    150    155     4  180.0000000  1.5341333  2
    104    112    103    105     4  180.0000000  1.5341333  2
    110    106    111    129     4  180.0000000  1.5341333  2
      9      8     10     12     4  180.0000000  1.5341333  2
    106    107    110    105     4  180.0000000  1.5341333  2
     49     50     74     48     4  180.0000000  1.5341333  2
      4     29      3      5     4  180.0000000  1.5341333  2
    140    141    163    139     4  180.0000000  1.5341333  2
    137    162    136    138     4  180.0000000  1.5341333  2
     94     95    103     93     4  180.0000000  1.5341333  2
     53     52     54     56     4  180.0000000  1.5341333  2
     14      7     13     34     4  180.0000000  1.5341333  2
    150    154    149    151     4  180.0000000  1.5341333  2
    103    113     94    104     4  180.0000000  1.5341333  2
     24     16     23     43     4  180.0000000  1.5341333  2
    145    146    165    144     4  180.0000000  1.5341333  2
     69     88     47     59     4  180.0000000  1.5341333  2
    156    175    148    155     4  180.0000000  1.5341333  2
     25     44      3     15     4  180.0000000  1.5341333  2
     66     62     67     85     4  180.0000000  1.5341333  2
    146    139    145    166     4  180.0000000  1.5341333  2
    144    164    141    145     4  180.0000000  1.5341333  2
     58     78     51     57     4  180.0000000  1.5341333  2
     57     58     77     56     4  180.0000000  1.5341333  2
     59     50     60     69     4  180.0000000  1.5341333  2
     60     59     61     68     4  180.0000000  1.5341333  2
    157    135    147    176     4  180.0000000  1.5341333  2
    153    187    151    172     4  180.0000000  1.3946667  2
     91     92    113     90     4  180.0000000  1.5341333  2
     21     54     19     40     4  180.0000000  1.3946667  2
     47     46     48     69     4  180.0000000  1.5341333  2
     66     67     85     62     4  180.0000000  1.5341333  2
      7     14      6      8     4  180.0000000  1.5341333  2
    111    110    112    130     4  180.0000000  1.5341333  2
    111    112    130    110     4  180.0000000  1.5341333  2
      6      5      7     15     4  180.0000000  1.5341333  2
     68     60     67     87     4  180.0000000  1.5341333  2
     13     14     33     12     4  180.0000000  1.5341333  2
    155    174    154    156     4  180.0000000  1.5341333  2
     10    178      9     11     4  180.0000000  14.6440000  2
    141    142    144    140     4  180.0000000  1.5341333  2
     14     13     34      7     4  180.0000000  1.5341333  2
     59     60     69     50     4  180.0000000  1.5341333  2
     50     59     49     51     4  180.0000000  1.5341333  2
    147    138    148    157     4  180.0000000  1.5341333  2
    101    100    102    121     4  180.0000000  1.5341333  2
     66     85     62     67     4  180.0000000  1.5341333  2
     23     42     22     24     4  180.0000000  1.5341333  2
     22     23     41     18     4  180.0000000  1.5341333  2
    140    163    139    141     4  180.0000000  1.5341333  2
    100     97    101    120     4  180.0000000  1.5341333  2
    141    140    142    144     4  180.0000000  1.5341333  2
    112    104    111    131     4  180.0000000  1.5341333  2
     16     24     15     17     4  180.0000000  1.5341333  2
     92     91     93    117     4  180.0000000  1.5341333  2
    113    103    132     91     4  180.0000000  1.5341333  2
      8      9     31      7     4  180.0000000  1.5341333  2
    155    154    156    174     4  180.0000000  1.5341333  2
     97    100     96     98     4  180.0000000  1.5341333  2
     94    103     93     95     4  180.0000000  1.5341333  2
    105    104    106    123     4  180.0000000  1.5341333  2
     23     24     42     22     4  180.0000000  1.5341333  2
     21     40     54     19     4  180.0000000  1.3946667  2
    110    129    106    111     4  180.0000000  1.5341333  2
    106    105    107    110     4  180.0000000  1.5341333  2
     98     97     99     65     4  180.0000000  1.5341333  2
    103    104    113     94     4  180.0000000  1.5341333  2
     54     55     21     53     4  180.0000000  1.5341333  2
    113     91    103    132     4  180.0000000  1.5341333  2
      4      5     29      3     4  180.0000000  1.5341333  2
     53     56     52     54     4  180.0000000  1.5341333  2
    147    157    138    148     4  180.0000000  1.5341333  2
     51     52     58     50     4  180.0000000  1.5341333  2
     18     17     19     22     4  180.0000000  1.5341333  2
      5      6     30      4     4  180.0000000  1.5341333  2
     67     68     86     66     4  180.0000000  1.5341333  2
     97     98    100     96     4  180.0000000  1.5341333  2
     17     18     35     16     4  180.0000000  1.5341333  2
     16     17     24     15     4  180.0000000  1.5341333  2


[ moleculetype ]
; Name            nrexcl
TCM          3

[ atoms ]
;   nr       type  resnr residue  atom   cgnr    charge       mass  typeB    chargeB      massB
; residue    1 TCM rtp TCM q 0.0
    1      TCM_0      1    TCM     c1      1 0.22438000   9.994886   ; qtot 0.224380
    2      TCM_1      1    TCM    cl1      2 -0.11463000  35.453200   ; qtot 0.109750
    3      TCM_2      1    TCM    cl2      3 -0.11463000  35.453200   ; qtot -0.004880
    4      TCM_3      1    TCM     h1      4 0.11951000   3.023841   ; qtot 0.114630
    5      TCM_4      1    TCM    cl3      5 -0.11463000  35.453200   ; qtot 0.000000

[ bonds ]
;    ai     aj funct         c0         c1         c2         c3
      1      2     1   0.17948 173885.040698
      1      3     1   0.17948 173885.040698
      1      4     1   0.10929 317186.185379
      1      5     1   0.17948 173885.040698

[ angles ]
;    ai     aj     ak funct         c0         c1         c2         c3
      2      1      3     1   107.6607822 425.669015
      2      1      4     1   107.6607822 425.669015
      2      1      5     1   107.6607822 425.669015
      3      1      4     1   107.6607822 425.669015
      3      1      5     1   107.6607822 425.669015
      4      1      5     1   107.6607822 425.669015

[ system ]
; Name
FOO

[ molecules ]
; Compound       #mols
system1              1
TCM                634
