S  C  A  M  O  R  G
 3367
    1MOM     C1    1   0.660   1.088   3.235
    1MOM     O2    2   0.677   0.976   3.148
    1MOM     C3    3   0.758   0.875   3.191
    1MOM     C4    4   0.827   0.869   3.312
    1MOM     C5    5   0.908   0.759   3.340
    1MOM     C6    6   0.922   0.651   3.252
    1MOM     C7    7   1.016   0.541   3.285
    1MOM     C8    8   1.005   0.466   3.407
    1MOM     C9    9   1.096   0.364   3.436
    1MOM    C10   10   1.077   0.287   3.563
    1MOM    O11   11   0.998   0.320   3.651
    1MOM    C12   12   1.200   0.337   3.347
    1MOM    C13   13   1.209   0.404   3.226
    1MOM    C14   14   1.119   0.506   3.197
    1MOM    C15   15   0.848   0.653   3.130
    1MOM    C16   16   0.848   0.541   3.033
    1MOM    C17   17   0.881   0.562   2.899
    1MOM    C18   18   0.882   0.457   2.807
    1MOM    C19   19   0.925   0.482   2.664
    1MOM    C20   20   0.804   0.474   2.572
    1MOM    N21   21   1.036   0.398   2.620
    1MOM    C22   22   0.850   0.327   2.849
    1MOM    C23   23   0.817   0.304   2.983
    1MOM    C24   24   0.815   0.410   3.073
    1MOM    C25   25   0.770   0.767   3.102
    1MOM    H26   26   0.754   1.139   3.254
    1MOM    H27   27   0.613   1.058   3.330
    1MOM    H28   28   0.592   1.158   3.186
    1MOM    H29   29   0.820   0.949   3.385
    1MOM    H30   30   0.963   0.759   3.434
    1MOM    H31   31   0.924   0.489   3.475
    1MOM    H32   32   1.277   0.264   3.370
    1MOM    H33   33   1.285   0.375   3.154
    1MOM    H34   34   1.131   0.559   3.102
    1MOM    H35   35   0.911   0.661   2.867
    1MOM    H36   36   0.965   0.585   2.656
    1MOM    H37   37   0.759   0.374   2.571
    1MOM    H38   38   0.727   0.545   2.603
    1MOM    H39   39   0.831   0.498   2.469
    1MOM    H40   40   1.048   0.402   2.520
    1MOM    H41   41   0.855   0.243   2.780
    1MOM    H42   42   0.795   0.203   3.016
    1MOM    H43   43   0.789   0.390   3.176
    1MOM    H44   44   0.714   0.772   3.008
    2MOM    C45   45   2.047   0.442   3.033
    2MOM    O46   46   1.995   0.548   2.954
    2MOM    C47   47   1.878   0.528   2.888
    2MOM    C48   48   1.802   0.412   2.888
    2MOM    C49   49   1.684   0.405   2.813
    2MOM    C50   50   1.637   0.514   2.738
    2MOM    C51   51   1.516   0.495   2.654
    2MOM    C52   52   1.394   0.454   2.709
    2MOM    C53   53   1.279   0.439   2.629
    2MOM    C54   54   1.152   0.398   2.696
    2MOM    O55   55   1.155   0.372   2.816
    2MOM    C56   56   1.286   0.468   2.492
    2MOM    C57   57   1.407   0.507   2.436
    2MOM    C58   58   1.520   0.520   2.516
    2MOM    C59   59   1.712   0.635   2.741
    2MOM    C60   60   1.666   0.758   2.672
    2MOM    C61   61   1.750   0.821   2.580
    2MOM    C62   62   1.708   0.936   2.511
    2MOM    C63   63   1.798   0.999   2.408
    2MOM    C64   64   1.853   1.131   2.463
    2MOM    N65   65   1.735   1.014   2.278
    2MOM    C66   66   1.580   0.988   2.536
    2MOM    C67   67   1.495   0.926   2.626
    2MOM    C68   68   1.539   0.812   2.693
    2MOM    C69   69   1.831   0.638   2.815
    2MOM    H70   70   2.070   0.354   2.972
    2MOM    H71   71   1.979   0.417   3.115
    2MOM    H72   72   2.141   0.475   3.078
    2MOM    H73   73   1.834   0.323   2.942
    2MOM    H74   74   1.628   0.311   2.813
    2MOM    H75   75   1.386   0.438   2.817
    2MOM    H76   76   1.201   0.463   2.426
    2MOM    H77   77   1.412   0.532   2.331
    2MOM    H78   78   1.612   0.553   2.468
    2MOM    H79   79   1.848   0.780   2.558
    2MOM    H80   80   1.884   0.933   2.390
    2MOM    H81   81   1.774   1.203   2.481
    2MOM    H82   82   1.905   1.114   2.558
    2MOM    H83   83   1.924   1.176   2.393
    2MOM    H84   84   1.788   1.075   2.219
    2MOM    H85   85   1.545   1.074   2.479
    2MOM    H86   86   1.395   0.964   2.641
    2MOM    H87   87   1.471   0.764   2.763
    2MOM    H88   88   1.890   0.729   2.817
    3MOM    C89   89   1.441   0.178   1.638
    3MOM    O90   90   1.578   0.206   1.663
    3MOM    C91   91   1.609   0.323   1.725
    3MOM    C92   92   1.519   0.420   1.768
    3MOM    C93   93   1.565   0.537   1.830
    3MOM    C94   94   1.702   0.561   1.852
    3MOM    C95   95   1.744   0.691   1.908
    3MOM    C96   96   1.693   0.737   2.031
    3MOM    C97   97   1.734   0.860   2.084
    3MOM    C98   98   1.682   0.900   2.218
    3MOM    O99   99   1.597   0.828   2.271
    3MOM   C100  100   1.829   0.937   2.017
    3MOM   C101  101   1.880   0.893   1.895
    3MOM   C102  102   1.837   0.772   1.841
    3MOM   C103  103   1.794   0.460   1.814
    3MOM   C104  104   1.939   0.470   1.839
    3MOM   C105  105   2.032   0.458   1.735
    3MOM   C106  106   2.169   0.468   1.760
    3MOM   C107  107   2.265   0.461   1.644
    3MOM   C108  108   2.343   0.330   1.648
    3MOM   N109  109   2.354   0.577   1.639
    3MOM   C110  110   2.215   0.493   1.889
    3MOM   C111  111   2.125   0.507   1.993
    3MOM   C112  112   1.989   0.494   1.969
    3MOM   C113  113   1.745   0.345   1.749
    3MOM   H114  114   1.395   0.252   1.572
    3MOM   H115  115   1.385   0.169   1.732
    3MOM   H116  116   1.435   0.081   1.588
    3MOM   H117  117   1.412   0.409   1.753
    3MOM   H118  118   1.492   0.613   1.860
    3MOM   H119  119   1.623   0.675   2.087
    3MOM   H120  120   1.868   1.030   2.054
    3MOM   H121  121   1.956   0.951   1.843
    3MOM   H122  122   1.880   0.739   1.747
    3MOM   H123  123   1.996   0.446   1.633
    3MOM   H124  124   2.210   0.464   1.549
    3MOM   H125  125   2.406   0.324   1.738
    3MOM   H126  126   2.274   0.245   1.650
    3MOM   H127  127   2.408   0.319   1.561
    3MOM   H128  128   2.431   0.562   1.579
    3MOM   H129  129   2.322   0.507   1.907
    3MOM   H130  130   2.162   0.529   2.093
    3MOM   H131  131   1.920   0.505   2.052
    3MOM   H132  132   1.815   0.266   1.717
    4MOM   C133  133   2.012   1.592   1.404
    4MOM   O134  134   2.007   1.488   1.306
    4MOM   C135  135   2.070   1.370   1.334
    4MOM   C136  136   2.141   1.342   1.450
    4MOM   C137  137   2.202   1.216   1.465
    4MOM   C138  138   2.194   1.116   1.367
    4MOM   C139  139   2.268   0.990   1.389
    4MOM   C140  140   2.248   0.908   1.500
    4MOM   C141  141   2.321   0.787   1.516
    4MOM   C142  142   2.293   0.702   1.633
    4MOM   O143  143   2.211   0.745   1.716
    4MOM   C144  144   2.410   0.745   1.419
    4MOM   C145  145   2.433   0.827   1.312
    4MOM   C146  146   2.366   0.949   1.299
    4MOM   C147  147   2.120   1.144   1.248
    4MOM   C148  148   2.099   1.046   1.139
    4MOM   C149  149   2.132   1.077   1.005
    4MOM   C150  150   2.115   0.984   0.902
    4MOM   C151  151   2.157   1.021   0.760
    4MOM   C152  152   2.032   1.039   0.674
    4MOM   N153  153   2.250   0.922   0.707
    4MOM   C154  154   2.064   0.856   0.931
    4MOM   C155  155   2.029   0.825   1.062
    4MOM   C156  156   2.046   0.919   1.165
    4MOM   C157  157   2.061   1.272   1.234
    4MOM   H158  158   2.116   1.625   1.420
    4MOM   H159  159   1.966   1.561   1.497
    4MOM   H160  160   1.956   1.677   1.365
    4MOM   H161  161   2.153   1.414   1.530
    4MOM   H162  162   2.260   1.197   1.556
    4MOM   H163  163   2.175   0.936   1.574
    4MOM   H164  164   2.463   0.651   1.419
    4MOM   H165  165   2.504   0.789   1.240
    4MOM   H166  166   2.386   1.014   1.215
    4MOM   H167  167   2.175   1.174   0.981
    4MOM   H168  168   2.210   1.117   0.760
    4MOM   H169  169   1.974   0.947   0.664
    4MOM   H170  170   1.967   1.116   0.717
    4MOM   H171  171   2.059   1.072   0.572
    4MOM   H172  172   2.264   0.921   0.608
    4MOM   H173  173   2.053   0.781   0.853
    4MOM   H174  174   1.989   0.726   1.085
    4MOM   H175  175   2.018   0.891   1.265
    4MOM   H176  176   2.004   1.296   1.144
    5CAP   C177  177   1.143   0.070   3.493
    5CAP   O178  178   1.163   0.182   3.578
    5CAP   H179  179   1.040   0.034   3.500
    5CAP   H180  180   1.212  -0.010   3.523
    5CAP   H181  181   1.165   0.091   3.389
    6CAP   C182  182   2.528   1.136   1.002
    6CAP   C183  183   2.527   1.001   0.927
    6CAP   C184  184   2.654   0.988   0.845
    6CAP   C185  185   2.522   0.888   1.026
    6CAP   O186  186   2.407   1.004   0.846
    6CAP   C187  187   2.369   0.898   0.772
    6CAP   O188  188   2.431   0.794   0.756
    6CAP   H189  189   2.614   1.145   1.070
    6CAP   H190  190   2.530   1.219   0.932
    6CAP   H191  191   2.436   1.150   1.061
    6CAP   H192  192   2.655   1.063   0.764
    6CAP   H193  193   2.661   0.889   0.798
    6CAP   H194  194   2.743   1.002   0.907
    6CAP   H195  195   2.420   0.883   1.065
    6CAP   H196  196   2.538   0.788   0.982
    6CAP   H197  197   2.597   0.902   1.103
    1TCM     c1  198   4.338   0.335   2.675
    1TCM    cl1  199   4.463   0.360   2.551
    1TCM    cl2  200   4.242   0.484   2.693
    1TCM     h1  201   4.272   0.252   2.645
    1TCM    cl3  202   4.416   0.296   2.831
    1TCM     c1  203   1.694   2.480   4.345
    1TCM    cl1  204   1.602   2.328   4.354
    1TCM    cl2  205   1.627   2.596   4.462
    1TCM     h1  206   1.800   2.461   4.369
    1TCM    cl3  207   1.681   2.547   4.181
    1TCM     c1  208   1.816   2.264   0.999
    1TCM    cl1  209   1.904   2.112   0.969
    1TCM    cl2  210   1.797   2.353   0.846
    1TCM     h1  211   1.716   2.241   1.042
    1TCM    cl3  212   1.909   2.364   1.114
    1TCM     c1  213   2.651   0.611   3.811
    1TCM    cl1  214   2.714   0.514   3.676
    1TCM    cl2  215   2.688   0.528   3.964
    1TCM     h1  216   2.700   0.711   3.811
    1TCM    cl3  217   2.476   0.630   3.794
    1TCM     c1  218   2.179   1.773   2.869
    1TCM    cl1  219   2.069   1.868   2.767
    1TCM    cl2  220   2.117   1.771   3.036
    1TCM     h1  221   2.185   1.669   2.831
    1TCM    cl3  222   2.341   1.847   2.867
    1TCM     c1  223   5.037   1.289   0.561
    1TCM    cl1  224   5.174   1.234   0.462
    1TCM    cl2  225   5.084   1.290   0.732
    1TCM     h1  226   5.008   1.392   0.530
    1TCM    cl3  227   4.899   1.180   0.537
    1TCM     c1  228   2.902   0.792   2.575
    1TCM    cl1  229   2.761   0.894   2.538
    1TCM    cl2  230   2.850   0.623   2.593
    1TCM     h1  231   2.976   0.800   2.493
    1TCM    cl3  232   2.976   0.847   2.727
    1TCM     c1  233   3.774   4.022   4.742
    1TCM    cl1  234   3.711   3.938   4.598
    1TCM    cl2  235   3.650   4.132   4.806
    1TCM     h1  236   3.801   3.947   4.819
    1TCM    cl3  237   3.919   4.116   4.697
    1TCM     c1  238   0.769   4.149   3.480
    1TCM    cl1  239   0.814   3.984   3.431
    1TCM    cl2  240   0.831   4.265   3.359
    1TCM     h1  241   0.659   4.157   3.486
    1TCM    cl3  242   0.841   4.185   3.638
    1TCM     c1  243   3.901   1.343   2.589
    1TCM    cl1  244   3.882   1.340   2.766
    1TCM    cl2  245   4.051   1.258   2.545
    1TCM     h1  246   3.815   1.292   2.542
    1TCM    cl3  247   3.909   1.511   2.533
    1TCM     c1  248   4.916   3.093   4.463
    1TCM    cl1  249   4.740   3.075   4.484
    1TCM    cl2  250   4.986   2.937   4.414
    1TCM     h1  251   4.937   3.169   4.385
    1TCM    cl3  252   4.989   3.144   4.617
    1TCM     c1  253   0.576   2.831   1.452
    1TCM    cl1  254   0.554   3.006   1.475
    1TCM    cl2  255   0.418   2.753   1.433
    1TCM     h1  256   0.638   2.813   1.361
    1TCM    cl3  257   0.659   2.763   1.594
    1TCM     c1  258   1.503   1.967   2.431
    1TCM    cl1  259   1.397   1.860   2.526
    1TCM    cl2  260   1.467   1.949   2.258
    1TCM     h1  261   1.486   2.072   2.462
    1TCM    cl3  262   1.673   1.923   2.461
    1TCM     c1  263   4.281   4.438   0.725
    1TCM    cl1  264   4.450   4.428   0.781
    1TCM    cl2  265   4.247   4.300   0.617
    1TCM     h1  266   4.213   4.434   0.812
    1TCM    cl3  267   4.257   4.590   0.637
    1TCM     c1  268   2.569   5.234   3.819
    1TCM    cl1  269   2.657   5.082   3.845
    1TCM    cl2  270   2.591   5.340   3.960
    1TCM     h1  271   2.609   5.284   3.728
    1TCM    cl3  272   2.396   5.199   3.797
    1TCM     c1  273   2.881   1.888   3.069
    1TCM    cl1  274   3.035   1.815   3.019
    1TCM    cl2  275   2.791   1.774   3.172
    1TCM     h1  276   2.901   1.982   3.125
    1TCM    cl3  277   2.784   1.926   2.924
    1TCM     c1  278   0.684   3.114   5.018
    1TCM    cl1  279   0.814   3.199   4.932
    1TCM    cl2  280   0.694   2.940   4.985
    1TCM     h1  281   0.694   3.132   5.127
    1TCM    cl3  282   0.526   3.176   4.963
    1TCM     c1  283   4.598   3.537   2.149
    1TCM    cl1  284   4.541   3.649   2.023
    1TCM    cl2  285   4.458   3.456   2.224
    1TCM     h1  286   4.665   3.461   2.104
    1TCM    cl3  287   4.687   3.628   2.273
    1TCM     c1  288   5.245   3.667   4.907
    1TCM    cl1  289   5.095   3.747   4.854
    1TCM    cl2  290   5.340   3.778   5.007
    1TCM     h1  291   5.219   3.576   4.966
    1TCM    cl3  292   5.340   3.619   4.764
    1TCM     c1  293   2.175   1.158   3.524
    1TCM    cl1  294   2.305   1.276   3.549
    1TCM    cl2  295   2.197   1.076   3.368
    1TCM     h1  296   2.177   1.082   3.606
    1TCM    cl3  297   2.018   1.241   3.525
    1TCM     c1  298   1.320   2.066   2.767
    1TCM    cl1  299   1.355   1.892   2.771
    1TCM    cl2  300   1.170   2.094   2.676
    1TCM     h1  301   1.308   2.104   2.870
    1TCM    cl3  302   1.454   2.152   2.687
    1TCM     c1  303   3.131   4.717   4.816
    1TCM    cl1  304   3.171   4.697   4.644
    1TCM    cl2  305   3.107   4.557   4.890
    1TCM     h1  306   3.214   4.769   4.867
    1TCM    cl3  307   2.982   4.812   4.831
    1TCM     c1  308   2.705   2.468   2.026
    1TCM    cl1  309   2.624   2.438   1.871
    1TCM    cl2  310   2.660   2.629   2.086
    1TCM     h1  311   2.674   2.391   2.100
    1TCM    cl3  312   2.881   2.461   2.003
    1TCM     c1  313   2.731   2.027   5.067
    1TCM    cl1  314   2.833   1.933   5.179
    1TCM    cl2  315   2.828   2.077   4.927
    1TCM     h1  316   2.647   1.963   5.033
    1TCM    cl3  317   2.668   2.170   5.151
    1TCM     c1  318   4.930   0.262   1.259
    1TCM    cl1  319   4.780   0.167   1.243
    1TCM    cl2  320   4.913   0.376   1.395
    1TCM     h1  321   5.015   0.193   1.279
    1TCM    cl3  322   4.960   0.352   1.109
    1TCM     c1  323   3.035   0.857   1.256
    1TCM    cl1  324   3.103   0.693   1.250
    1TCM    cl2  325   2.861   0.851   1.221
    1TCM     h1  326   3.051   0.900   1.357
    1TCM    cl3  327   3.117   0.959   1.136
    1TCM     c1  328   3.963   3.279   1.872
    1TCM    cl1  329   3.955   3.108   1.823
    1TCM    cl2  330   3.970   3.290   2.049
    1TCM     h1  331   4.053   3.326   1.828
    1TCM    cl3  332   3.818   3.364   1.813
    1TCM     c1  333   1.038   0.873   3.718
    1TCM    cl1  334   0.956   0.985   3.607
    1TCM    cl2  335   0.991   0.909   3.886
    1TCM     h1  336   1.009   0.768   3.694
    1TCM    cl3  337   1.214   0.891   3.701
    1TCM     c1  338   0.702   5.167   4.128
    1TCM    cl1  339   0.600   5.302   4.183
    1TCM    cl2  340   0.858   5.173   4.214
    1TCM     h1  341   0.651   5.071   4.150
    1TCM    cl3  342   0.730   5.181   3.953
    1TCM     c1  343   2.808   3.635   3.435
    1TCM    cl1  344   2.956   3.604   3.529
    1TCM    cl2  345   2.851   3.672   3.267
    1TCM     h1  346   2.743   3.546   3.438
    1TCM    cl3  347   2.722   3.774   3.506
    1TCM     c1  348   0.305   0.963   2.478
    1TCM    cl1  349   0.138   0.974   2.537
    1TCM    cl2  350   0.312   0.846   2.344
    1TCM     h1  351   0.338   1.062   2.442
    1TCM    cl3  352   0.411   0.908   2.610
    1TCM     c1  353   4.981   1.983   2.122
    1TCM    cl1  354   5.092   2.019   2.256
    1TCM    cl2  355   4.975   2.122   2.011
    1TCM     h1  356   5.016   1.893   2.068
    1TCM    cl3  357   4.818   1.952   2.187
    1TCM     c1  358   1.254   3.563   2.334
    1TCM    cl1  359   1.327   3.401   2.349
    1TCM    cl2  360   1.152   3.568   2.188
    1TCM     h1  361   1.192   3.584   2.423
    1TCM    cl3  362   1.382   3.685   2.320
    1TCM     c1  363   3.907   1.416   2.033
    1TCM    cl1  364   3.796   1.279   2.011
    1TCM    cl2  365   3.899   1.473   2.201
    1TCM     h1  366   4.011   1.383   2.010
    1TCM    cl3  367   3.861   1.547   1.922
    1TCM     c1  368   0.862   2.232   2.089
    1TCM    cl1  369   0.719   2.241   2.195
    1TCM    cl2  370   0.822   2.304   1.931
    1TCM     h1  371   0.946   2.288   2.135
    1TCM    cl3  372   0.909   2.062   2.066
    1TCM     c1  373   2.182   3.841   1.758
    1TCM    cl1  374   2.349   3.792   1.725
    1TCM    cl2  375   2.093   3.853   1.604
    1TCM     h1  376   2.133   3.766   1.823
    1TCM    cl3  377   2.181   3.999   1.839
    1TCM     c1  378   1.047   4.558   1.148
    1TCM    cl1  379   0.903   4.553   1.043
    1TCM    cl2  380   1.118   4.396   1.159
    1TCM     h1  381   1.121   4.629   1.105
    1TCM    cl3  382   0.999   4.614   1.310
    1TCM     c1  383   0.240   1.267   4.841
    1TCM    cl1  384   0.070   1.318   4.819
    1TCM    cl2  385   0.325   1.390   4.938
    1TCM     h1  386   0.242   1.170   4.894
    1TCM    cl3  387   0.318   1.251   4.683
    1TCM     c1  388   1.322   3.898   4.780
    1TCM    cl1  389   1.459   4.010   4.788
    1TCM    cl2  390   1.343   3.769   4.901
    1TCM     h1  391   1.228   3.953   4.801
    1TCM    cl3  392   1.314   3.826   4.617
    1TCM     c1  393   0.310   0.744   4.846
    1TCM    cl1  394   0.397   0.700   4.995
    1TCM    cl2  395   0.372   0.647   4.710
    1TCM     h1  396   0.202   0.724   4.859
    1TCM    cl3  397   0.335   0.917   4.812
    1TCM     c1  398   1.065   4.311   2.239
    1TCM    cl1  399   0.948   4.275   2.367
    1TCM    cl2  400   0.985   4.405   2.110
    1TCM     h1  401   1.149   4.370   2.281
    1TCM    cl3  402   1.127   4.159   2.171
    1TCM     c1  403   3.690   4.132   0.174
    1TCM    cl1  404   3.768   4.014   0.066
    1TCM    cl2  405   3.750   4.109   0.340
    1TCM     h1  406   3.714   4.234   0.139
    1TCM    cl3  407   3.513   4.108   0.170
    1TCM     c1  408   1.577   1.544   1.410
    1TCM    cl1  409   1.450   1.629   1.500
    1TCM    cl2  410   1.712   1.655   1.379
    1TCM     h1  411   1.613   1.457   1.470
    1TCM    cl3  412   1.512   1.485   1.255
    1TCM     c1  413   3.468   0.654   2.308
    1TCM    cl1  414   3.297   0.607   2.308
    1TCM    cl2  415   3.562   0.537   2.403
    1TCM     h1  416   3.506   0.656   2.204
    1TCM    cl3  417   3.485   0.816   2.381
    1TCM     c1  418   0.137   0.611   1.989
    1TCM    cl1  419   0.031   0.633   2.131
    1TCM    cl2  420   0.283   0.710   2.009
    1TCM     h1  421   0.165   0.504   1.981
    1TCM    cl3  422   0.050   0.661   1.842
    1TCM     c1  423   3.855   2.614   1.104
    1TCM    cl1  424   3.924   2.477   1.194
    1TCM    cl2  425   3.984   2.696   1.013
    1TCM     h1  426   3.778   2.577   1.033
    1TCM    cl3  427   3.781   2.729   1.218
    1TCM     c1  428   4.172   0.090   0.797
    1TCM    cl1  429   4.056   0.000   0.697
    1TCM    cl2  430   4.199   0.251   0.727
    1TCM     h1  431   4.132   0.100   0.900
    1TCM    cl3  432   4.326   0.001   0.802
    1TCM     c1  433   4.952   1.744   3.394
    1TCM    cl1  434   4.826   1.769   3.272
    1TCM    cl2  435   4.882   1.664   3.537
    1TCM     h1  436   5.032   1.679   3.352
    1TCM    cl3  437   5.021   1.901   3.442
    1TCM     c1  438   1.987   3.588   2.407
    1TCM    cl1  439   2.067   3.527   2.261
    1TCM    cl2  440   1.893   3.733   2.368
    1TCM     h1  441   1.918   3.510   2.447
    1TCM    cl3  442   2.109   3.627   2.530
    1TCM     c1  443   0.571   0.261   4.869
    1TCM    cl1  444   0.458   0.290   5.002
    1TCM    cl2  445   0.562   0.090   4.819
    1TCM     h1  446   0.545   0.326   4.783
    1TCM    cl3  447   0.737   0.297   4.923
    1TCM     c1  448   4.532   0.695   4.562
    1TCM    cl1  449   4.522   0.858   4.494
    1TCM    cl2  450   4.491   0.700   4.735
    1TCM     h1  451   4.461   0.628   4.510
    1TCM    cl3  452   4.698   0.632   4.543
    1TCM     c1  453   3.844   4.617   1.571
    1TCM    cl1  454   3.738   4.744   1.636
    1TCM    cl2  455   3.880   4.652   1.400
    1TCM     h1  456   3.939   4.614   1.629
    1TCM    cl3  457   3.762   4.459   1.583
    1TCM     c1  458   4.493   4.569   4.892
    1TCM    cl1  459   4.328   4.526   4.945
    1TCM    cl2  460   4.606   4.442   4.944
    1TCM     h1  461   4.495   4.578   4.781
    1TCM    cl3  462   4.540   4.724   4.965
    1TCM     c1  463   3.970   4.326   1.756
    1TCM    cl1  464   3.866   4.221   1.658
    1TCM    cl2  465   4.067   4.227   1.867
    1TCM     h1  466   4.037   4.384   1.690
    1TCM    cl3  467   3.868   4.438   1.850
    1TCM     c1  468   3.856   4.071   3.374
    1TCM    cl1  469   3.738   3.938   3.359
    1TCM    cl2  470   3.925   4.070   3.538
    1TCM     h1  471   3.937   4.057   3.299
    1TCM    cl3  472   3.774   4.226   3.345
    1TCM     c1  473   0.330   0.874   3.425
    1TCM    cl1  474   0.348   1.034   3.348
    1TCM    cl2  475   0.348   0.891   3.601
    1TCM     h1  476   0.229   0.834   3.401
    1TCM    cl3  477   0.455   0.764   3.363
    1TCM     c1  478   3.052   2.655   2.851
    1TCM    cl1  479   3.093   2.669   3.023
    1TCM    cl2  480   2.984   2.809   2.793
    1TCM     h1  481   3.142   2.630   2.793
    1TCM    cl3  482   2.931   2.526   2.830
    1TCM     c1  483   3.701   2.449   2.420
    1TCM    cl1  484   3.634   2.460   2.255
    1TCM    cl2  485   3.615   2.321   2.509
    1TCM     h1  486   3.809   2.425   2.414
    1TCM    cl3  487   3.678   2.604   2.503
    1TCM     c1  488   5.011   0.663   2.434
    1TCM    cl1  489   5.116   0.620   2.571
    1TCM    cl2  490   5.104   0.654   2.283
    1TCM     h1  491   4.925   0.593   2.430
    1TCM    cl3  492   4.950   0.829   2.457
    1TCM     c1  493   0.354   0.171   3.016
    1TCM    cl1  494   0.467   0.055   2.943
    1TCM    cl2  495   0.187   0.115   2.989
    1TCM     h1  496   0.373   0.178   3.125
    1TCM    cl3  497   0.375   0.331   2.941
    1TCM     c1  498   5.213   3.674   1.370
    1TCM    cl1  499   5.070   3.688   1.265
    1TCM    cl2  500   5.161   3.631   1.534
    1TCM     h1  501   5.281   3.596   1.330
    1TCM    cl3  502   5.299   3.830   1.374
    1TCM     c1  503   1.557   3.300   0.956
    1TCM    cl1  504   1.518   3.473   0.971
    1TCM    cl2  505   1.678   3.278   0.827
    1TCM     h1  506   1.599   3.262   1.052
    1TCM    cl3  507   1.410   3.209   0.915
    1TCM     c1  508   2.741   4.422   4.201
    1TCM    cl1  509   2.576   4.487   4.209
    1TCM    cl2  510   2.830   4.503   4.070
    1TCM     h1  511   2.793   4.440   4.297
    1TCM    cl3  512   2.735   4.247   4.168
    1TCM     c1  513   4.637   1.694   0.410
    1TCM    cl1  514   4.494   1.643   0.317
    1TCM    cl2  515   4.608   1.855   0.480
    1TCM     h1  516   4.657   1.622   0.491
    1TCM    cl3  517   4.778   1.702   0.302
    1TCM     c1  518   2.944   4.766   4.504
    1TCM    cl1  519   3.003   4.599   4.487
    1TCM    cl2  520   2.814   4.796   4.386
    1TCM     h1  521   2.906   4.782   4.607
    1TCM    cl3  522   3.079   4.879   4.473
    1TCM     c1  523   3.855   4.164   2.055
    1TCM    cl1  524   3.775   4.251   1.922
    1TCM    cl2  525   3.736   4.128   2.182
    1TCM     h1  526   3.898   4.069   2.017
    1TCM    cl3  527   3.985   4.266   2.122
    1TCM     c1  528   0.813   0.165   3.392
    1TCM    cl1  529   0.679   0.280   3.415
    1TCM    cl2  530   0.861   0.164   3.221
    1TCM     h1  531   0.899   0.195   3.454
    1TCM    cl3  532   0.759   0.002   3.439
    1TCM     c1  533   0.964   1.372   2.634
    1TCM    cl1  534   0.915   1.476   2.498
    1TCM    cl2  535   0.824   1.344   2.741
    1TCM     h1  536   1.000   1.275   2.595
    1TCM    cl3  537   1.094   1.452   2.726
    1TCM     c1  538   1.146   0.803   2.285
    1TCM    cl1  539   1.013   0.825   2.170
    1TCM    cl2  540   1.276   0.919   2.248
    1TCM     h1  541   1.109   0.821   2.388
    1TCM    cl3  542   1.209   0.637   2.273
    1TCM     c1  543   2.887   1.136   3.970
    1TCM    cl1  544   2.731   1.129   4.056
    1TCM    cl2  545   2.869   1.231   3.821
    1TCM     h1  546   2.963   1.184   4.035
    1TCM    cl3  547   2.940   0.971   3.929
    1TCM     c1  548   4.624   5.149   1.273
    1TCM    cl1  549   4.751   5.229   1.178
    1TCM    cl2  550   4.638   5.197   1.444
    1TCM     h1  551   4.524   5.179   1.235
    1TCM    cl3  552   4.642   4.972   1.260
    1TCM     c1  553   0.538   4.429   0.336
    1TCM    cl1  554   0.394   4.519   0.389
    1TCM    cl2  555   0.539   4.419   0.158
    1TCM     h1  556   0.629   4.482   0.370
    1TCM    cl3  557   0.534   4.265   0.404
    1TCM     c1  558   2.397   3.426   2.232
    1TCM    cl1  559   2.508   3.551   2.170
    1TCM    cl2  560   2.418   3.409   2.407
    1TCM     h1  561   2.292   3.455   2.210
    1TCM    cl3  562   2.432   3.271   2.152
    1TCM     c1  563   0.360   3.169   1.125
    1TCM    cl1  564   0.531   3.189   1.079
    1TCM    cl2  565   0.331   3.251   1.280
    1TCM     h1  566   0.295   3.214   1.047
    1TCM    cl3  567   0.323   2.996   1.141
    1TCM     c1  568   3.390   3.632   1.049
    1TCM    cl1  569   3.290   3.578   1.186
    1TCM    cl2  570   3.345   3.799   1.007
    1TCM     h1  571   3.497   3.628   1.078
    1TCM    cl3  572   3.362   3.526   0.910
    1TCM     c1  573   3.170   3.036   4.986
    1TCM    cl1  574   3.299   3.030   4.864
    1TCM    cl2  575   3.242   3.049   5.148
    1TCM     h1  576   3.105   3.124   4.967
    1TCM    cl3  577   3.072   2.888   4.976
    1TCM     c1  578   1.135   1.275   1.935
    1TCM    cl1  579   1.265   1.224   1.824
    1TCM    cl2  580   1.202   1.295   2.099
    1TCM     h1  581   1.093   1.371   1.901
    1TCM    cl3  582   1.008   1.151   1.938
    1TCM     c1  583   1.968   2.669   4.756
    1TCM    cl1  584   1.875   2.625   4.611
    1TCM    cl2  585   2.094   2.547   4.785
    1TCM     h1  586   2.015   2.768   4.742
    1TCM    cl3  587   1.858   2.675   4.896
    1TCM     c1  588   2.244   4.130   4.185
    1TCM    cl1  589   2.227   4.041   4.032
    1TCM    cl2  590   2.368   4.052   4.285
    1TCM     h1  591   2.274   4.235   4.163
    1TCM    cl3  592   2.089   4.130   4.271
    1TCM     c1  593   0.769   0.351   0.149
    1TCM    cl1  594   0.895   0.452   0.074
    1TCM    cl2  595   0.794   0.345   0.325
    1TCM     h1  596   0.669   0.394   0.127
    1TCM    cl3  597   0.779   0.186   0.082
    1TCM     c1  598   1.154   0.793   2.990
    1TCM    cl1  599   1.212   0.960   2.970
    1TCM    cl2  600   1.035   0.787   3.122
    1TCM     h1  601   1.107   0.758   2.895
    1TCM    cl3  602   1.291   0.687   3.029
    1TCM     c1  603   4.491   3.214   3.275
    1TCM    cl1  604   4.446   3.165   3.110
    1TCM    cl2  605   4.625   3.331   3.267
    1TCM     h1  606   4.404   3.261   3.325
    1TCM    cl3  607   4.543   3.071   3.367
    1TCM     c1  608   3.213   4.777   5.189
    1TCM    cl1  609   3.208   4.871   5.340
    1TCM    cl2  610   3.243   4.886   5.052
    1TCM     h1  611   3.294   4.702   5.195
    1TCM    cl3  612   3.057   4.694   5.166
    1TCM     c1  613   1.864   0.122   3.634
    1TCM    cl1  614   1.857   0.125   3.457
    1TCM    cl2  615   1.832   0.285   3.697
    1TCM     h1  616   1.788   0.052   3.673
    1TCM    cl3  617   2.026   0.070   3.686
    1TCM     c1  618   0.980   0.815   4.106
    1TCM    cl1  619   1.003   0.721   4.256
    1TCM    cl2  620   0.834   0.915   4.120
    1TCM     h1  621   1.068   0.881   4.090
    1TCM    cl3  622   0.963   0.704   3.968
    1TCM     c1  623   2.060   5.150   2.411
    1TCM    cl1  624   1.941   5.227   2.518
    1TCM    cl2  625   2.033   5.204   2.243
    1TCM     h1  626   2.162   5.178   2.443
    1TCM    cl3  627   2.041   4.973   2.419
    1TCM     c1  628   1.206   1.271   2.384
    1TCM    cl1  629   1.160   1.100   2.369
    1TCM    cl2  630   1.067   1.373   2.341
    1TCM     h1  631   1.237   1.292   2.489
    1TCM    cl3  632   1.342   1.306   2.274
    1TCM     c1  633   1.608   1.635   0.192
    1TCM    cl1  634   1.572   1.803   0.148
    1TCM    cl2  635   1.781   1.618   0.227
    1TCM     h1  636   1.549   1.607   0.282
    1TCM    cl3  637   1.565   1.528   0.057
    1TCM     c1  638   4.227   3.116   2.469
    1TCM    cl1  639   4.396   3.172   2.461
    1TCM    cl2  640   4.150   3.180   2.616
    1TCM     h1  641   4.172   3.153   2.380
    1TCM    cl3  642   4.223   2.939   2.471
    1TCM     c1  643   2.940   4.882   1.407
    1TCM    cl1  644   2.875   5.038   1.352
    1TCM    cl2  645   2.819   4.755   1.382
    1TCM     h1  646   3.032   4.858   1.350
    1TCM    cl3  647   2.980   4.893   1.580
    1TCM     c1  648   4.329   2.471   3.329
    1TCM    cl1  649   4.426   2.532   3.465
    1TCM    cl2  650   4.165   2.433   3.385
    1TCM     h1  651   4.324   2.549   3.250
    1TCM    cl3  652   4.405   2.325   3.263
    1TCM     c1  653   4.278   0.787   3.722
    1TCM    cl1  654   4.344   0.731   3.877
    1TCM    cl2  655   4.298   0.660   3.600
    1TCM     h1  656   4.170   0.811   3.734
    1TCM    cl3  657   4.365   0.933   3.670
    1TCM     c1  658   4.266   0.996   3.313
    1TCM    cl1  659   4.134   0.984   3.195
    1TCM    cl2  660   4.217   0.920   3.466
    1TCM     h1  661   4.356   0.944   3.273
    1TCM    cl3  662   4.305   1.167   3.341
    1TCM     c1  663   2.069   0.264   3.371
    1TCM    cl1  664   1.927   0.367   3.342
    1TCM    cl2  665   2.207   0.326   3.278
    1TCM     h1  666   2.094   0.265   3.479
    1TCM    cl3  667   2.033   0.097   3.320
    1TCM     c1  668   0.508   4.496   3.661
    1TCM    cl1  669   0.572   4.641   3.743
    1TCM    cl2  670   0.412   4.400   3.776
    1TCM     h1  671   0.444   4.528   3.577
    1TCM    cl3  672   0.643   4.398   3.600
    1TCM     c1  673   0.292   1.934   4.820
    1TCM    cl1  674   0.349   1.840   4.960
    1TCM    cl2  675   0.305   1.836   4.673
    1TCM     h1  676   0.186   1.964   4.836
    1TCM    cl3  677   0.392   2.080   4.802
    1TCM     c1  678   1.117   5.109   5.241
    1TCM    cl1  679   1.248   5.194   5.325
    1TCM    cl2  680   1.156   5.096   5.068
    1TCM     h1  681   1.105   5.008   5.284
    1TCM    cl3  682   0.965   5.200   5.261
    1TCM     c1  683   0.864   2.252   1.205
    1TCM    cl1  684   0.712   2.190   1.273
    1TCM    cl2  685   0.999   2.206   1.311
    1TCM     h1  686   0.879   2.209   1.104
    1TCM    cl3  687   0.856   2.430   1.194
    1TCM     c1  688   4.805   1.726   2.330
    1TCM    cl1  689   4.962   1.809   2.320
    1TCM    cl2  690   4.832   1.553   2.361
    1TCM     h1  691   4.745   1.770   2.412
    1TCM    cl3  692   4.718   1.745   2.176
    1TCM     c1  693   2.936   1.336   2.603
    1TCM    cl1  694   2.786   1.364   2.694
    1TCM    cl2  695   2.933   1.430   2.452
    1TCM     h1  696   3.023   1.367   2.664
    1TCM    cl3  697   2.951   1.163   2.565
    1TCM     c1  698   3.210   0.572   2.661
    1TCM    cl1  699   3.058   0.597   2.749
    1TCM    cl2  700   3.308   0.720   2.668
    1TCM     h1  701   3.267   0.488   2.707
    1TCM    cl3  702   3.175   0.532   2.491
    1TCM     c1  703   2.368   4.659   1.105
    1TCM    cl1  704   2.460   4.768   1.211
    1TCM    cl2  705   2.448   4.648   0.947
    1TCM     h1  706   2.363   4.558   1.151
    1TCM    cl3  707   2.203   4.721   1.084
    1TCM     c1  708   0.576   3.422   4.112
    1TCM    cl1  709   0.612   3.596   4.111
    1TCM    cl2  710   0.595   3.358   3.947
    1TCM     h1  711   0.646   3.370   4.180
    1TCM    cl3  712   0.409   3.396   4.167
    1TCM     c1  713   2.561   0.121   1.755
    1TCM    cl1  714   2.488   0.198   1.898
    1TCM    cl2  715   2.448   0.001   1.689
    1TCM     h1  716   2.582   0.198   1.678
    1TCM    cl3  717   2.713   0.041   1.802
    1TCM     c1  718   2.677   4.939   3.624
    1TCM    cl1  719   2.527   4.951   3.529
    1TCM    cl2  720   2.641   4.869   3.783
    1TCM     h1  721   2.749   4.875   3.570
    1TCM    cl3  722   2.746   5.102   3.645
    1TCM     c1  723   3.663   3.680   4.832
    1TCM    cl1  724   3.596   3.844   4.834
    1TCM    cl2  725   3.815   3.679   4.739
    1TCM     h1  726   3.684   3.647   4.936
    1TCM    cl3  727   3.546   3.569   4.756
    1TCM     c1  728   1.714   0.252   4.771
    1TCM    cl1  729   1.560   0.215   4.852
    1TCM    cl2  730   1.693   0.241   4.595
    1TCM     h1  731   1.746   0.355   4.799
    1TCM    cl3  732   1.838   0.135   4.823
    1TCM     c1  733   3.457   3.774   1.895
    1TCM    cl1  734   3.409   3.628   1.985
    1TCM    cl2  735   3.606   3.840   1.965
    1TCM     h1  736   3.474   3.747   1.789
    1TCM    cl3  737   3.328   3.895   1.907
    1TCM     c1  738   0.240   2.770   2.139
    1TCM    cl1  739   0.313   2.908   2.225
    1TCM    cl2  740   0.279   2.780   1.966
    1TCM     h1  741   0.281   2.675   2.181
    1TCM    cl3  742   0.064   2.773   2.161
    1TCM     c1  743   1.856   0.926   3.533
    1TCM    cl1  744   1.881   0.998   3.372
    1TCM    cl2  745   1.828   0.751   3.516
    1TCM     h1  746   1.947   0.942   3.595
    1TCM    cl3  747   1.716   1.001   3.612
    1TCM     c1  748   1.459   4.574   3.682
    1TCM    cl1  749   1.317   4.679   3.696
    1TCM    cl2  750   1.493   4.544   3.510
    1TCM     h1  751   1.547   4.623   3.729
    1TCM    cl3  752   1.428   4.419   3.763
    1TCM     c1  753   1.300   3.253   3.569
    1TCM    cl1  754   1.327   3.387   3.684
    1TCM    cl2  755   1.393   3.283   3.421
    1TCM     h1  756   1.333   3.158   3.616
    1TCM    cl3  757   1.127   3.244   3.530
    1TCM     c1  758   4.866   2.335   2.487
    1TCM    cl1  759   4.725   2.382   2.390
    1TCM    cl2  760   4.817   2.311   2.656
    1TCM     h1  761   4.909   2.241   2.447
    1TCM    cl3  762   4.989   2.464   2.479
    1TCM     c1  763   2.478   1.461   1.800
    1TCM    cl1  764   2.340   1.445   1.911
    1TCM    cl2  765   2.503   1.632   1.760
    1TCM     h1  766   2.569   1.420   1.848
    1TCM    cl3  767   2.444   1.370   1.651
    1TCM     c1  768   1.422   0.154   3.828
    1TCM    cl1  769   1.297   0.112   3.948
    1TCM    cl2  770   1.346   0.234   3.688
    1TCM     h1  771   1.496   0.223   3.874
    1TCM    cl3  772   1.505   0.006   3.774
    1TCM     c1  773   4.302   3.801   2.736
    1TCM    cl1  774   4.469   3.742   2.743
    1TCM    cl2  775   4.193   3.679   2.808
    1TCM     h1  776   4.293   3.896   2.793
    1TCM    cl3  777   4.256   3.829   2.567
    1TCM     c1  778   4.427   1.294   4.029
    1TCM    cl1  779   4.464   1.153   3.928
    1TCM    cl2  780   4.479   1.262   4.196
    1TCM     h1  781   4.481   1.383   3.990
    1TCM    cl3  782   4.252   1.325   4.027
    1TCM     c1  783   3.746   2.057   2.675
    1TCM    cl1  784   3.687   2.124   2.829
    1TCM    cl2  785   3.894   2.143   2.627
    1TCM     h1  786   3.768   1.949   2.688
    1TCM    cl3  787   3.622   2.078   2.550
    1TCM     c1  788   4.962   4.010   3.378
    1TCM    cl1  789   5.065   3.891   3.461
    1TCM    cl2  790   4.977   3.989   3.202
    1TCM     h1  791   4.856   3.995   3.408
    1TCM    cl3  792   5.013   4.175   3.422
    1TCM     c1  793   0.471   1.825   0.647
    1TCM    cl1  794   0.479   1.736   0.800
    1TCM    cl2  795   0.346   1.951   0.657
    1TCM     h1  796   0.570   1.872   0.627
    1TCM    cl3  797   0.431   1.712   0.515
    1TCM     c1  798   3.707   1.699   3.656
    1TCM    cl1  799   3.868   1.748   3.713
    1TCM    cl2  800   3.699   1.718   3.479
    1TCM     h1  801   3.689   1.593   3.682
    1TCM    cl3  802   3.583   1.801   3.732
    1TCM     c1  803   1.455   2.413   2.976
    1TCM    cl1  804   1.383   2.391   2.815
    1TCM    cl2  805   1.428   2.267   3.074
    1TCM     h1  806   1.564   2.431   2.966
    1TCM    cl3  807   1.380   2.553   3.056
    1TCM     c1  808   0.303   3.048   0.164
    1TCM    cl1  809   0.310   3.226   0.158
    1TCM    cl2  810   0.385   2.991   0.312
    1TCM     h1  811   0.197   3.015   0.166
    1TCM    cl3  812   0.384   2.980   0.022
    1TCM     c1  813   0.830   4.670   5.025
    1TCM    cl1  814   0.702   4.622   5.139
    1TCM    cl2  815   0.760   4.775   4.899
    1TCM     h1  816   0.909   4.726   5.080
    1TCM    cl3  817   0.900   4.526   4.950
    1TCM     c1  818   4.708   4.856   0.144
    1TCM    cl1  819   4.854   4.835   0.045
    1TCM    cl2  820   4.755   4.874   0.315
    1TCM     h1  821   4.654   4.946   0.111
    1TCM    cl3  822   4.604   4.713   0.126
    1TCM     c1  823   0.817   1.552   0.595
    1TCM    cl1  824   0.955   1.506   0.697
    1TCM    cl2  825   0.876   1.594   0.432
    1TCM     h1  826   0.747   1.466   0.587
    1TCM    cl3  827   0.734   1.691   0.666
    1TCM     c1  828   2.433   0.380   3.526
    1TCM    cl1  829   2.364   0.513   3.622
    1TCM    cl2  830   2.467   0.437   3.362
    1TCM     h1  831   2.527   0.345   3.574
    1TCM    cl3  832   2.317   0.245   3.519
    1TCM     c1  833   0.526   1.546   3.331
    1TCM    cl1  834   0.539   1.547   3.508
    1TCM    cl2  835   0.676   1.482   3.260
    1TCM     h1  836   0.441   1.481   3.300
    1TCM    cl3  837   0.499   1.712   3.272
    1TCM     c1  838   0.342   4.410   4.977
    1TCM    cl1  839   0.318   4.266   4.877
    1TCM    cl2  840   0.375   4.360   5.145
    1TCM     h1  841   0.428   4.468   4.939
    1TCM    cl3  842   0.195   4.510   4.973
    1TCM     c1  843   4.296   1.434   2.199
    1TCM    cl1  844   4.462   1.490   2.231
    1TCM    cl2  845   4.186   1.500   2.322
    1TCM     h1  846   4.265   1.469   2.098
    1TCM    cl3  847   4.292   1.256   2.204
    1TCM     c1  848   1.381   0.740   1.657
    1TCM    cl1  849   1.283   0.624   1.750
    1TCM    cl2  850   1.326   0.739   1.487
    1TCM     h1  851   1.368   0.842   1.699
    1TCM    cl3  852   1.552   0.693   1.664
    1TCM     c1  853   2.020   1.888   3.562
    1TCM    cl1  854   1.998   2.010   3.436
    1TCM    cl2  855   1.963   1.952   3.718
    1TCM     h1  856   1.962   1.797   3.536
    1TCM    cl3  857   2.193   1.846   3.576
    1TCM     c1  858   2.648   3.612   3.828
    1TCM    cl1  859   2.764   3.696   3.933
    1TCM    cl2  860   2.579   3.473   3.915
    1TCM     h1  861   2.567   3.682   3.800
    1TCM    cl3  862   2.731   3.556   3.681
    1TCM     c1  863   0.857   1.375   3.742
    1TCM    cl1  864   0.823   1.319   3.577
    1TCM    cl2  865   0.705   1.423   3.821
    1TCM     h1  866   0.905   1.293   3.800
    1TCM    cl3  867   0.967   1.514   3.736
    1TCM     c1  868   0.794   4.415   1.932
    1TCM    cl1  869   0.663   4.403   1.812
    1TCM    cl2  870   0.728   4.387   2.095
    1TCM     h1  871   0.871   4.339   1.910
    1TCM    cl3  872   0.866   4.578   1.924
    1TCM     c1  873   3.717   4.175   2.605
    1TCM    cl1  874   3.871   4.191   2.517
    1TCM    cl2  875   3.672   4.003   2.615
    1TCM     h1  876   3.729   4.216   2.707
    1TCM    cl3  877   3.590   4.265   2.520
    1TCM     c1  878   0.683   2.570   3.589
    1TCM    cl1  879   0.682   2.586   3.412
    1TCM    cl2  880   0.789   2.436   3.636
    1TCM     h1  881   0.720   2.665   3.634
    1TCM    cl3  882   0.518   2.539   3.647
    1TCM     c1  883   1.777   3.881   1.755
    1TCM    cl1  884   1.791   3.948   1.590
    1TCM    cl2  885   1.629   3.943   1.832
    1TCM     h1  886   1.772   3.770   1.749
    1TCM    cl3  887   1.919   3.929   1.850
    1TCM     c1  888   1.604   1.628   2.618
    1TCM    cl1  889   1.497   1.735   2.712
    1TCM    cl2  890   1.507   1.506   2.533
    1TCM     h1  891   1.661   1.688   2.545
    1TCM    cl3  892   1.717   1.547   2.729
    1TCM     c1  893   3.954   0.136   4.035
    1TCM    cl1  894   4.037   0.041   3.910
    1TCM    cl2  895   4.048   0.131   4.186
    1TCM     h1  896   3.945   0.241   4.001
    1TCM    cl3  897   3.792   0.068   4.064
    1TCM     c1  898   0.162   4.543   4.580
    1TCM    cl1  899   0.311   4.621   4.520
    1TCM    cl2  900   0.047   4.668   4.633
    1TCM     h1  901   0.117   4.483   4.498
    1TCM    cl3  902   0.201   4.437   4.717
    1TCM     c1  903   1.046   1.734   0.851
    1TCM    cl1  904   0.951   1.878   0.894
    1TCM    cl2  905   1.067   1.727   0.674
    1TCM     h1  906   1.145   1.739   0.900
    1TCM    cl3  907   0.961   1.588   0.906
    1TCM     c1  908   2.721   2.851   0.300
    1TCM    cl1  909   2.660   2.938   0.157
    1TCM    cl2  910   2.687   2.677   0.282
    1TCM     h1  911   2.830   2.867   0.309
    1TCM    cl3  912   2.640   2.912   0.446
    1TCM     c1  913   3.615   1.425   3.447
    1TCM    cl1  914   3.491   1.385   3.325
    1TCM    cl2  915   3.766   1.470   3.365
    1TCM     h1  916   3.579   1.510   3.508
    1TCM    cl3  917   3.643   1.284   3.551
    1TCM     c1  918   3.527   0.282   1.976
    1TCM    cl1  919   3.580   0.423   2.071
    1TCM    cl2  920   3.550   0.316   1.803
    1TCM     h1  921   3.588   0.194   2.005
    1TCM    cl3  922   3.356   0.250   2.008
    1TCM     c1  923   4.126   2.686   1.510
    1TCM    cl1  924   4.084   2.771   1.660
    1TCM    cl2  925   4.107   2.511   1.533
    1TCM     h1  926   4.059   2.720   1.428
    1TCM    cl3  927   4.295   2.722   1.467
    1TCM     c1  928   3.013   4.246   2.682
    1TCM    cl1  929   2.865   4.147   2.667
    1TCM    cl2  930   3.079   4.227   2.846
    1TCM     h1  931   3.088   4.212   2.608
    1TCM    cl3  932   2.973   4.417   2.653
    1TCM     c1  933   4.438   1.114   2.778
    1TCM    cl1  934   4.528   1.007   2.888
    1TCM    cl2  935   4.436   1.044   2.615
    1TCM     h1  936   4.333   1.124   2.815
    1TCM    cl3  937   4.516   1.273   2.774
    1TCM     c1  938   1.098   2.092   4.967
    1TCM    cl1  939   1.065   2.261   5.010
    1TCM    cl2  940   1.114   1.996   5.116
    1TCM     h1  941   1.015   2.052   4.906
    1TCM    cl3  942   1.249   2.082   4.874
    1TCM     c1  943   2.371   4.590   4.597
    1TCM    cl1  944   2.533   4.612   4.669
    1TCM    cl2  945   2.329   4.417   4.599
    1TCM     h1  946   2.296   4.647   4.656
    1TCM    cl3  947   2.372   4.649   4.430
    1TCM     c1  948   2.307   5.082   5.104
    1TCM    cl1  949   2.280   5.178   5.252
    1TCM    cl2  950   2.476   5.100   5.052
    1TCM     h1  951   2.287   4.975   5.126
    1TCM    cl3  952   2.198   5.138   4.976
    1TCM     c1  953   2.034   1.287   3.018
    1TCM    cl1  954   2.080   1.308   3.189
    1TCM    cl2  955   1.972   1.122   2.993
    1TCM     h1  956   1.955   1.361   2.992
    1TCM    cl3  957   2.176   1.314   2.915
    1TCM     c1  958   1.946   2.211   5.154
    1TCM    cl1  959   1.869   2.355   5.224
    1TCM    cl2  960   2.025   2.256   5.001
    1TCM     h1  961   2.021   2.171   5.224
    1TCM    cl3  962   1.822   2.087   5.122
    1TCM     c1  963   2.247   1.825   1.713
    1TCM    cl1  964   2.217   1.730   1.861
    1TCM    cl2  965   2.320   1.720   1.589
    1TCM     h1  966   2.151   1.865   1.675
    1TCM    cl3  967   2.357   1.959   1.749
    1TCM     c1  968   2.671   2.712   0.845
    1TCM    cl1  969   2.735   2.554   0.896
    1TCM    cl2  970   2.765   2.772   0.705
    1TCM     h1  971   2.565   2.701   0.815
    1TCM    cl3  972   2.685   2.828   0.979
    1TCM     c1  973   3.073   1.880   2.015
    1TCM    cl1  974   2.979   2.016   1.949
    1TCM    cl2  975   3.129   1.776   1.882
    1TCM     h1  976   3.161   1.920   2.070
    1TCM    cl3  977   2.972   1.786   2.126
    1TCM     c1  978   4.634   4.634   2.720
    1TCM    cl1  979   4.625   4.583   2.890
    1TCM    cl2  980   4.749   4.769   2.706
    1TCM     h1  981   4.669   4.549   2.658
    1TCM    cl3  982   4.474   4.687   2.665
    1TCM     c1  983   3.218   0.416   4.909
    1TCM    cl1  984   3.360   0.478   4.997
    1TCM    cl2  985   3.144   0.549   4.818
    1TCM     h1  986   3.250   0.337   4.839
    1TCM    cl3  987   3.101   0.350   5.025
    1TCM     c1  988   3.966   3.999   4.137
    1TCM    cl1  989   3.954   3.821   4.132
    1TCM    cl2  990   4.045   4.048   4.288
    1TCM     h1  991   4.025   4.035   4.051
    1TCM    cl3  992   3.803   4.069   4.131
    1TCM     c1  993   2.008   1.433   2.619
    1TCM    cl1  994   1.930   1.386   2.773
    1TCM    cl2  995   2.142   1.544   2.653
    1TCM     h1  996   2.046   1.343   2.568
    1TCM    cl3  997   1.888   1.515   2.515
    1TCM     c1  998   2.676   0.496   0.141
    1TCM    cl1  999   2.831   0.409   0.147
    1TCM    cl2 1000   2.640   0.564   0.301
    1TCM     h1 1001   2.683   0.578   0.066
    1TCM    cl3 1002   2.546   0.383   0.094
    1TCM     c1 1003   2.454   2.909   2.034
    1TCM    cl1 1004   2.486   3.057   2.127
    1TCM    cl2 1005   2.453   2.948   1.860
    1TCM     h1 1006   2.533   2.834   2.055
    1TCM    cl3 1007   2.296   2.842   2.081
    1TCM     c1 1008   1.115   4.965   1.642
    1TCM    cl1 1009   1.098   5.142   1.643
    1TCM    cl2 1010   1.287   4.922   1.653
    1TCM     h1 1011   1.061   4.922   1.729
    1TCM    cl3 1012   1.047   4.899   1.492
    1TCM     c1 1013   4.250   2.317   4.402
    1TCM    cl1 1014   4.124   2.436   4.444
    1TCM    cl2 1015   4.182   2.153   4.415
    1TCM     h1 1016   4.284   2.335   4.298
    1TCM    cl3 1017   4.387   2.334   4.514
    1TCM     c1 1018   1.932   5.128   5.147
    1TCM    cl1 1019   1.846   5.009   5.047
    1TCM    cl2 1020   1.858   5.133   5.309
    1TCM     h1 1021   2.038   5.100   5.156
    1TCM    cl3 1022   1.919   5.289   5.072
    1TCM     c1 1023   3.463   3.798   0.642
    1TCM    cl1 1024   3.350   3.701   0.546
    1TCM    cl2 1025   3.515   3.705   0.785
    1TCM     h1 1026   3.552   3.823   0.580
    1TCM    cl3 1027   3.383   3.948   0.695
    1TCM     c1 1028   4.667   0.982   1.078
    1TCM    cl1 1029   4.703   1.033   1.245
    1TCM    cl2 1030   4.573   1.109   0.996
    1TCM     h1 1031   4.762   0.965   1.023
    1TCM    cl3 1032   4.572   0.832   1.081
    1TCM     c1 1033   4.135   1.840   1.945
    1TCM    cl1 1034   4.187   1.900   1.786
    1TCM    cl2 1035   4.043   1.967   2.030
    1TCM     h1 1036   4.070   1.750   1.932
    1TCM    cl3 1037   4.277   1.795   2.042
    1TCM     c1 1038   4.134   1.742   0.167
    1TCM    cl1 1039   4.195   1.578   0.202
    1TCM    cl2 1040   3.958   1.734   0.139
    1TCM     h1 1041   4.155   1.808   0.254
    1TCM    cl3 1042   4.214   1.806   0.022
    1TCM     c1 1043   3.990   3.241   4.818
    1TCM    cl1 1044   3.938   3.397   4.748
    1TCM    cl2 1045   4.152   3.259   4.889
    1TCM     h1 1046   3.918   3.210   4.896
    1TCM    cl3 1047   3.995   3.118   4.689
    1TCM     c1 1048   1.227   0.542   3.845
    1TCM    cl1 1049   1.234   0.565   4.021
    1TCM    cl2 1050   1.286   0.689   3.764
    1TCM     h1 1051   1.290   0.456   3.816
    1TCM    cl3 1052   1.058   0.511   3.797
    1TCM     c1 1053   3.583   0.361   1.437
    1TCM    cl1 1054   3.406   0.350   1.446
    1TCM    cl2 1055   3.634   0.367   1.267
    1TCM     h1 1056   3.617   0.453   1.489
    1TCM    cl3 1057   3.655   0.218   1.515
    1TCM     c1 1058   1.287   0.324   4.104
    1TCM    cl1 1059   1.418   0.443   4.086
    1TCM    cl2 1060   1.173   0.380   4.228
    1TCM     h1 1061   1.234   0.313   4.007
    1TCM    cl3 1062   1.356   0.167   4.152
    1TCM     c1 1063   3.133   5.264   3.617
    1TCM    cl1 1064   3.225   5.287   3.467
    1TCM    cl2 1065   2.972   5.338   3.600
    1TCM     h1 1066   3.121   5.155   3.636
    1TCM    cl3 1067   3.219   5.339   3.753
    1TCM     c1 1068   2.289   1.133   4.308
    1TCM    cl1 1069   2.281   1.035   4.160
    1TCM    cl2 1070   2.427   1.244   4.298
    1TCM     h1 1071   2.195   1.191   4.319
    1TCM    cl3 1072   2.309   1.026   4.449
    1TCM     c1 1073   3.297   0.738   0.367
    1TCM    cl1 1074   3.461   0.804   0.389
    1TCM    cl2 1075   3.296   0.566   0.412
    1TCM     h1 1076   3.226   0.794   0.432
    1TCM    cl3 1077   3.248   0.755   0.197
    1TCM     c1 1078   1.689   2.110   2.725
    1TCM    cl1 1079   1.618   2.181   2.872
    1TCM    cl2 1080   1.865   2.100   2.743
    1TCM     h1 1081   1.647   2.008   2.710
    1TCM    cl3 1082   1.649   2.212   2.585
    1TCM     c1 1083   5.004   4.022   4.679
    1TCM    cl1 1084   5.076   3.892   4.581
    1TCM    cl2 1085   4.914   4.133   4.574
    1TCM     h1 1086   4.936   3.978   4.755
    1TCM    cl3 1087   5.134   4.111   4.762
    1TCM     c1 1088   0.895   0.966   2.726
    1TCM    cl1 1089   0.850   1.130   2.776
    1TCM    cl2 1090   0.856   0.943   2.554
    1TCM     h1 1091   1.003   0.950   2.742
    1TCM    cl3 1092   0.804   0.848   2.823
    1TCM     c1 1093   4.737   0.997   3.654
    1TCM    cl1 1094   4.786   0.857   3.753
    1TCM    cl2 1095   4.793   0.974   3.487
    1TCM     h1 1096   4.627   1.007   3.655
    1TCM    cl3 1097   4.810   1.145   3.721
    1TCM     c1 1098   5.107   4.817   0.649
    1TCM    cl1 1099   5.238   4.895   0.740
    1TCM    cl2 1100   5.164   4.777   0.486
    1TCM     h1 1101   5.076   4.724   0.701
    1TCM    cl3 1102   4.968   4.927   0.638
    1TCM     c1 1103   0.723   3.399   0.373
    1TCM    cl1 1104   0.806   3.485   0.506
    1TCM    cl2 1105   0.553   3.373   0.417
    1TCM     h1 1106   0.728   3.461   0.281
    1TCM    cl3 1107   0.802   3.243   0.345
    1TCM     c1 1108   1.218   2.469   4.734
    1TCM    cl1 1109   1.204   2.329   4.843
    1TCM    cl2 1110   1.363   2.450   4.632
    1TCM     h1 1111   1.128   2.475   4.669
    1TCM    cl3 1112   1.232   2.618   4.830
    1TCM     c1 1113   0.716   3.246   0.715
    1TCM    cl1 1114   0.680   3.128   0.843
    1TCM    cl2 1115   0.686   3.172   0.556
    1TCM     h1 1116   0.651   3.335   0.727
    1TCM    cl3 1117   0.886   3.296   0.726
    1TCM     c1 1118   4.248   1.631   2.607
    1TCM    cl1 1119   4.319   1.747   2.493
    1TCM    cl2 1120   4.243   1.703   2.769
    1TCM     h1 1121   4.145   1.605   2.574
    1TCM    cl3 1122   4.348   1.484   2.611
    1TCM     c1 1123   2.139   0.584   4.333
    1TCM    cl1 1124   2.184   0.477   4.199
    1TCM    cl2 1125   2.138   0.753   4.276
    1TCM     h1 1126   2.039   0.557   4.370
    1TCM    cl3 1127   2.258   0.567   4.464
    1TCM     c1 1128   0.443   0.158   2.662
    1TCM    cl1 1129   0.521   0.000   2.638
    1TCM    cl2 1130   0.527   0.247   2.791
    1TCM     h1 1131   0.447   0.216   2.568
    1TCM    cl3 1132   0.273   0.133   2.708
    1TCM     c1 1133   1.879   4.551   4.438
    1TCM    cl1 1134   1.914   4.413   4.331
    1TCM    cl2 1135   1.957   4.524   4.596
    1TCM     h1 1136   1.918   4.644   4.393
    1TCM    cl3 1137   1.703   4.565   4.461
    1TCM     c1 1138   4.299   4.636   1.533
    1TCM    cl1 1139   4.190   4.692   1.405
    1TCM    cl2 1140   4.431   4.541   1.461
    1TCM     h1 1141   4.342   4.724   1.587
    1TCM    cl3 1142   4.209   4.535   1.648
    1TCM     c1 1143   1.135   2.612   0.564
    1TCM    cl1 1144   1.305   2.638   0.609
    1TCM    cl2 1145   1.123   2.475   0.452
    1TCM     h1 1146   1.075   2.591   0.655
    1TCM    cl3 1147   1.072   2.759   0.485
    1TCM     c1 1148   1.317   0.960   4.262
    1TCM    cl1 1149   1.216   1.074   4.353
    1TCM    cl2 1150   1.327   1.012   4.092
    1TCM     h1 1151   1.419   0.958   4.306
    1TCM    cl3 1152   1.246   0.797   4.270
    1TCM     c1 1153   1.872   1.522   0.884
    1TCM    cl1 1154   1.893   1.687   0.819
    1TCM    cl2 1155   1.874   1.528   1.062
    1TCM     h1 1156   1.776   1.481   0.850
    1TCM    cl3 1157   2.006   1.419   0.828
    1TCM     c1 1158   1.228   4.578   1.456
    1TCM    cl1 1159   1.232   4.409   1.401
    1TCM    cl2 1160   1.241   4.686   1.315
    1TCM     h1 1161   1.132   4.598   1.508
    1TCM    cl3 1162   1.363   4.608   1.567
    1TCM     c1 1163   5.111   2.792   2.643
    1TCM    cl1 1164   5.041   2.672   2.755
    1TCM    cl2 1165   5.054   2.758   2.478
    1TCM     h1 1166   5.080   2.894   2.673
    1TCM    cl3 1167   5.288   2.780   2.647
    1TCM     c1 1168   0.864   2.457   0.244
    1TCM    cl1 1169   0.826   2.405   0.078
    1TCM    cl2 1170   0.712   2.477   0.335
    1TCM     h1 1171   0.927   2.380   0.293
    1TCM    cl3 1172   0.951   2.611   0.239
    1TCM     c1 1173   3.683   4.705   3.439
    1TCM    cl1 1174   3.773   4.805   3.322
    1TCM    cl2 1175   3.795   4.591   3.517
    1TCM     h1 1176   3.638   4.771   3.517
    1TCM    cl3 1177   3.555   4.615   3.355
    1TCM     c1 1178   2.191   1.026   2.406
    1TCM    cl1 1179   2.365   1.008   2.374
    1TCM    cl2 1180   2.148   1.199   2.402
    1TCM     h1 1181   2.133   0.972   2.328
    1TCM    cl3 1182   2.153   0.960   2.566
    1TCM     c1 1183   0.716   4.621   4.519
    1TCM    cl1 1184   0.621   4.605   4.668
    1TCM    cl2 1185   0.606   4.635   4.380
    1TCM     h1 1186   0.780   4.711   4.525
    1TCM    cl3 1187   0.818   4.477   4.499
    1TCM     c1 1188   2.052   4.834   3.932
    1TCM    cl1 1189   2.096   4.952   4.057
    1TCM    cl2 1190   2.180   4.828   3.809
    1TCM     h1 1191   2.040   4.734   3.978
    1TCM    cl3 1192   1.899   4.883   3.856
    1TCM     c1 1193   1.192   0.281   1.294
    1TCM    cl1 1194   1.182   0.105   1.268
    1TCM    cl2 1195   1.134   0.320   1.458
    1TCM     h1 1196   1.298   0.314   1.283
    1TCM    cl3 1197   1.092   0.365   1.174
    1TCM     c1 1198   2.467   3.132   1.106
    1TCM    cl1 1199   2.444   3.131   1.283
    1TCM    cl2 1200   2.632   3.077   1.069
    1TCM     h1 1201   2.394   3.064   1.059
    1TCM    cl3 1202   2.445   3.297   1.045
    1TCM     c1 1203   1.024   3.621   1.112
    1TCM    cl1 1204   1.067   3.739   0.986
    1TCM    cl2 1205   0.926   3.491   1.041
    1TCM     h1 1206   1.117   3.578   1.156
    1TCM    cl3 1207   0.931   3.702   1.240
    1TCM     c1 1208   3.761   2.391   2.047
    1TCM    cl1 1209   3.840   2.539   2.106
    1TCM    cl2 1210   3.795   2.257   2.160
    1TCM     h1 1211   3.652   2.407   2.041
    1TCM    cl3 1212   3.825   2.350   1.886
    1TCM     c1 1213   2.782   2.486   1.277
    1TCM    cl1 1214   2.723   2.458   1.111
    1TCM    cl2 1215   2.905   2.614   1.275
    1TCM     h1 1216   2.697   2.517   1.341
    1TCM    cl3 1217   2.854   2.336   1.341
    1TCM     c1 1218   2.753   3.506   4.298
    1TCM    cl1 1219   2.726   3.627   4.171
    1TCM    cl2 1220   2.905   3.419   4.266
    1TCM     h1 1221   2.760   3.557   4.397
    1TCM    cl3 1222   2.618   3.391   4.300
    1TCM     c1 1223   1.190   2.798   4.173
    1TCM    cl1 1224   1.196   2.807   4.351
    1TCM    cl2 1225   1.021   2.789   4.120
    1TCM     h1 1226   1.238   2.888   4.130
    1TCM    cl3 1227   1.277   2.653   4.119
    1TCM     c1 1228   1.516   2.930   3.468
    1TCM    cl1 1229   1.539   2.781   3.562
    1TCM    cl2 1230   1.466   2.888   3.302
    1TCM     h1 1231   1.438   2.992   3.515
    1TCM    cl3 1232   1.669   3.021   3.462
    1TCM     c1 1233   3.799   4.794   3.862
    1TCM    cl1 1234   3.735   4.701   3.724
    1TCM    cl2 1235   3.789   4.696   4.010
    1TCM     h1 1236   3.905   4.821   3.842
    1TCM    cl3 1237   3.702   4.942   3.882
    1TCM     c1 1238   0.160   3.225   0.521
    1TCM    cl1 1239   0.238   3.237   0.681
    1TCM    cl2 1240   0.152   3.054   0.472
    1TCM     h1 1241   0.058   3.267   0.527
    1TCM    cl3 1242   0.255   3.316   0.402
    1TCM     c1 1243   1.461   2.286   5.093
    1TCM    cl1 1244   1.489   2.118   5.145
    1TCM    cl2 1245   1.550   2.397   5.200
    1TCM     h1 1246   1.497   2.299   4.989
    1TCM    cl3 1247   1.287   2.323   5.101
    1TCM     c1 1248   0.255   1.947   3.025
    1TCM    cl1 1249   0.285   1.780   2.972
    1TCM    cl2 1250   0.385   2.053   2.966
    1TCM     h1 1251   0.158   1.982   2.983
    1TCM    cl3 1252   0.249   1.954   3.202
    1TCM     c1 1253   3.694   0.231   4.947
    1TCM    cl1 1254   3.633   0.321   4.806
    1TCM    cl2 1255   3.565   0.128   5.012
    1TCM     h1 1256   3.780   0.168   4.916
    1TCM    cl3 1257   3.746   0.346   5.072
    1TCM     c1 1258   1.826   2.782   2.166
    1TCM    cl1 1259   1.738   2.898   2.268
    1TCM    cl2 1260   1.831   2.842   1.999
    1TCM     h1 1261   1.930   2.771   2.204
    1TCM    cl3 1262   1.744   2.625   2.170
    1TCM     c1 1263   4.176   0.701   4.245
    1TCM    cl1 1264   4.212   0.573   4.127
    1TCM    cl2 1265   4.000   0.714   4.267
    1TCM     h1 1266   4.224   0.676   4.342
    1TCM    cl3 1267   4.240   0.856   4.186
    1TCM     c1 1268   0.327   3.834   1.613
    1TCM    cl1 1269   0.365   3.956   1.489
    1TCM    cl2 1270   0.171   3.872   1.688
    1TCM     h1 1271   0.323   3.734   1.566
    1TCM    cl3 1272   0.455   3.836   1.737
    1TCM     c1 1273   0.259   1.622   0.920
    1TCM    cl1 1274   0.119   1.539   0.991
    1TCM    cl2 1275   0.355   1.697   1.049
    1TCM     h1 1276   0.322   1.548   0.865
    1TCM    cl3 1277   0.203   1.747   0.807
    1TCM     c1 1278   3.730   2.547   2.850
    1TCM    cl1 1279   3.646   2.698   2.891
    1TCM    cl2 1280   3.610   2.424   2.803
    1TCM     h1 1281   3.799   2.565   2.765
    1TCM    cl3 1282   3.822   2.490   2.991
    1TCM     c1 1283   0.290   4.834   2.864
    1TCM    cl1 1284   0.371   4.679   2.832
    1TCM    cl2 1285   0.141   4.805   2.956
    1TCM     h1 1286   0.358   4.899   2.922
    1TCM    cl3 1287   0.250   4.913   2.710
    1TCM     c1 1288   0.132   4.656   2.494
    1TCM    cl1 1289   0.068   4.688   2.657
    1TCM    cl2 1290   0.210   4.803   2.432
    1TCM     h1 1291   0.207   4.574   2.500
    1TCM    cl3 1292   0.000   4.608   2.386
    1TCM     c1 1293   0.480   2.508   2.424
    1TCM    cl1 1294   0.303   2.519   2.425
    1TCM    cl2 1295   0.540   2.531   2.258
    1TCM     h1 1296   0.523   2.586   2.490
    1TCM    cl3 1297   0.529   2.347   2.482
    1TCM     c1 1298   0.642   4.031   2.893
    1TCM    cl1 1299   0.474   4.000   2.940
    1TCM    cl2 1300   0.705   3.891   2.802
    1TCM     h1 1301   0.647   4.122   2.829
    1TCM    cl3 1302   0.741   4.056   3.038
    1TCM     c1 1303   2.389   0.721   4.081
    1TCM    cl1 1304   2.364   0.695   4.255
    1TCM    cl2 1305   2.231   0.736   4.000
    1TCM     h1 1306   2.447   0.815   4.066
    1TCM    cl3 1307   2.479   0.584   4.012
    1TCM     c1 1308   1.846   1.941   2.203
    1TCM    cl1 1309   1.809   1.928   2.029
    1TCM    cl2 1310   1.831   1.781   2.279
    1TCM     h1 1311   1.950   1.978   2.216
    1TCM    cl3 1312   1.732   2.053   2.279
    1TCM     c1 1313   0.960   3.193   2.352
    1TCM    cl1 1314   1.026   3.205   2.516
    1TCM    cl2 1315   0.963   3.353   2.274
    1TCM     h1 1316   1.021   3.122   2.292
    1TCM    cl3 1317   0.792   3.134   2.360
    1TCM     c1 1318   4.766   3.760   3.074
    1TCM    cl1 1319   4.718   3.857   2.933
    1TCM    cl2 1320   4.811   3.597   3.021
    1TCM     h1 1321   4.852   3.808   3.124
    1TCM    cl3 1322   4.629   3.750   3.187
    1TCM     c1 1323   4.306   1.066   4.578
    1TCM    cl1 1324   4.394   1.105   4.727
    1TCM    cl2 1325   4.415   1.085   4.438
    1TCM     h1 1326   4.269   0.962   4.583
    1TCM    cl3 1327   4.168   1.177   4.560
    1TCM     c1 1328   0.143   3.113   4.634
    1TCM    cl1 1329   0.312   3.068   4.601
    1TCM    cl2 1330   0.129   3.177   4.799
    1TCM     h1 1331   0.111   3.191   4.561
    1TCM    cl3 1332   0.039   2.970   4.616
    1TCM     c1 1333   1.049   1.938   0.287
    1TCM    cl1 1334   0.977   1.896   0.444
    1TCM    cl2 1335   1.145   2.087   0.304
    1TCM     h1 1336   1.115   1.856   0.253
    1TCM    cl3 1337   0.921   1.964   0.167
    1TCM     c1 1338   1.920   2.166   1.804
    1TCM    cl1 1339   1.807   2.146   1.940
    1TCM    cl2 1340   1.834   2.136   1.651
    1TCM     h1 1341   1.961   2.269   1.804
    1TCM    cl3 1342   2.054   2.050   1.821
    1TCM     c1 1343   2.578   4.473   3.881
    1TCM    cl1 1344   2.418   4.543   3.913
    1TCM    cl2 1345   2.673   4.586   3.781
    1TCM     h1 1346   2.631   4.456   3.977
    1TCM    cl3 1347   2.560   4.319   3.794
    1TCM     c1 1348   3.293   0.535   1.671
    1TCM    cl1 1349   3.201   0.421   1.772
    1TCM    cl2 1350   3.227   0.534   1.506
    1TCM     h1 1351   3.285   0.637   1.714
    1TCM    cl3 1352   3.464   0.486   1.667
    1TCM     c1 1353   2.480   4.814   4.876
    1TCM    cl1 1354   2.358   4.685   4.881
    1TCM    cl2 1355   2.534   4.837   4.708
    1TCM     h1 1356   2.437   4.908   4.913
    1TCM    cl3 1357   2.619   4.768   4.977
    1TCM     c1 1358   2.659   1.886   3.416
    1TCM    cl1 1359   2.730   1.825   3.567
    1TCM    cl2 1360   2.610   1.748   3.315
    1TCM     h1 1361   2.571   1.948   3.439
    1TCM    cl3 1362   2.780   1.983   3.329
    1TCM     c1 1363   0.840   1.811   4.963
    1TCM    cl1 1364   0.852   1.722   5.116
    1TCM    cl2 1365   0.996   1.800   4.876
    1TCM     h1 1366   0.760   1.766   4.900
    1TCM    cl3 1367   0.803   1.981   4.995
    1TCM     c1 1368   3.148   1.170   3.112
    1TCM    cl1 1369   3.197   1.037   3.218
    1TCM    cl2 1370   3.280   1.207   2.998
    1TCM     h1 1371   3.057   1.140   3.055
    1TCM    cl3 1372   3.112   1.314   3.209
    1TCM     c1 1373   3.709   0.765   1.666
    1TCM    cl1 1374   3.805   0.770   1.516
    1TCM    cl2 1375   3.629   0.922   1.689
    1TCM     h1 1376   3.632   0.685   1.658
    1TCM    cl3 1377   3.816   0.732   1.804
    1TCM     c1 1378   0.549   0.462   0.579
    1TCM    cl1 1379   0.655   0.595   0.631
    1TCM    cl2 1380   0.390   0.480   0.656
    1TCM     h1 1381   0.538   0.465   0.469
    1TCM    cl3 1382   0.622   0.307   0.627
    1TCM     c1 1383   0.843   3.831   3.734
    1TCM    cl1 1384   0.890   3.976   3.826
    1TCM    cl2 1385   0.830   3.692   3.844
    1TCM     h1 1386   0.745   3.849   3.685
    1TCM    cl3 1387   0.965   3.797   3.610
    1TCM     c1 1388   5.170   4.210   4.466
    1TCM    cl1 1389   5.281   4.261   4.595
    1TCM    cl2 1390   5.249   4.229   4.308
    1TCM     h1 1391   5.142   4.103   4.481
    1TCM    cl3 1392   5.023   4.309   4.470
    1TCM     c1 1393   3.750   1.791   0.940
    1TCM    cl1 1394   3.656   1.936   0.897
    1TCM    cl2 1395   3.783   1.791   1.115
    1TCM     h1 1396   3.692   1.700   0.913
    1TCM    cl3 1397   3.904   1.791   0.851
    1TCM     c1 1398   3.409   4.551   3.823
    1TCM    cl1 1399   3.333   4.400   3.879
    1TCM    cl2 1400   3.428   4.546   3.646
    1TCM     h1 1401   3.345   4.637   3.851
    1TCM    cl3 1402   3.569   4.569   3.899
    1TCM     c1 1403   1.682   4.736   3.220
    1TCM    cl1 1404   1.714   4.562   3.196
    1TCM    cl2 1405   1.808   4.831   3.138
    1TCM     h1 1406   1.583   4.761   3.177
    1TCM    cl3 1407   1.683   4.772   3.394
    1TCM     c1 1408   2.591   0.509   2.620
    1TCM    cl1 1409   2.647   0.613   2.753
    1TCM    cl2 1410   2.450   0.584   2.541
    1TCM     h1 1411   2.672   0.496   2.546
    1TCM    cl3 1412   2.544   0.350   2.685
    1TCM     c1 1413   3.329   2.126   4.221
    1TCM    cl1 1414   3.349   2.015   4.359
    1TCM    cl2 1415   3.463   2.243   4.220
    1TCM     h1 1416   3.329   2.069   4.127
    1TCM    cl3 1417   3.174   2.213   4.238
    1TCM     c1 1418   2.963   2.444   0.634
    1TCM    cl1 1419   2.877   2.571   0.543
    1TCM    cl2 1420   3.135   2.486   0.645
    1TCM     h1 1421   2.920   2.438   0.736
    1TCM    cl3 1422   2.944   2.288   0.551
    1TCM     c1 1423   1.603   0.448   5.025
    1TCM    cl1 1424   1.602   0.524   4.864
    1TCM    cl2 1425   1.436   0.420   5.079
    1TCM     h1 1426   1.657   0.351   5.019
    1TCM    cl3 1427   1.686   0.555   5.140
    1TCM     c1 1428   0.765   1.627   1.654
    1TCM    cl1 1429   0.688   1.640   1.814
    1TCM    cl2 1430   0.802   1.457   1.620
    1TCM     h1 1431   0.696   1.666   1.577
    1TCM    cl3 1432   0.915   1.722   1.653
    1TCM     c1 1433   5.008   3.164   0.363
    1TCM    cl1 1434   4.967   3.006   0.291
    1TCM    cl2 1435   4.878   3.214   0.474
    1TCM     h1 1436   5.103   3.155   0.420
    1TCM    cl3 1437   5.027   3.285   0.235
    1TCM     c1 1438   0.675   1.727   3.996
    1TCM    cl1 1439   0.725   1.593   4.102
    1TCM    cl2 1440   0.654   1.874   4.094
    1TCM     h1 1441   0.754   1.744   3.920
    1TCM    cl3 1442   0.522   1.686   3.916
    1TCM     c1 1443   0.963   0.805   0.466
    1TCM    cl1 1444   0.805   0.771   0.391
    1TCM    cl2 1445   1.046   0.651   0.499
    1TCM     h1 1446   1.024   0.866   0.397
    1TCM    cl3 1447   0.938   0.893   0.618
    1TCM     c1 1448   3.505   4.947   4.930
    1TCM    cl1 1449   3.472   4.984   5.101
    1TCM    cl2 1450   3.494   4.771   4.904
    1TCM     h1 1451   3.430   4.998   4.866
    1TCM    cl3 1452   3.668   5.003   4.888
    1TCM     c1 1453   3.132   3.872   3.649
    1TCM    cl1 1454   2.971   3.810   3.691
    1TCM    cl2 1455   3.151   3.874   3.472
    1TCM     h1 1456   3.144   3.975   3.688
    1TCM    cl3 1457   3.257   3.767   3.721
    1TCM     c1 1458   2.818   4.332   3.325
    1TCM    cl1 1459   2.775   4.451   3.201
    1TCM    cl2 1460   2.794   4.403   3.486
    1TCM     h1 1461   2.754   4.242   3.315
    1TCM    cl3 1462   2.989   4.286   3.306
    1TCM     c1 1463   3.498   1.336   2.707
    1TCM    cl1 1464   3.353   1.435   2.680
    1TCM    cl2 1465   3.495   1.270   2.872
    1TCM     h1 1466   3.500   1.253   2.634
    1TCM    cl3 1467   3.643   1.437   2.686
    1TCM     c1 1468   4.569   2.111   5.140
    1TCM    cl1 1469   4.691   2.099   5.269
    1TCM    cl2 1470   4.468   1.965   5.141
    1TCM     h1 1471   4.506   2.201   5.156
    1TCM    cl3 1472   4.651   2.125   4.982
    1TCM     c1 1473   3.174   2.185   0.800
    1TCM    cl1 1474   3.265   2.253   0.664
    1TCM    cl2 1475   3.209   2.278   0.948
    1TCM     h1 1476   3.065   2.190   0.778
    1TCM    cl3 1477   3.222   2.015   0.825
    1TCM     c1 1478   4.608   4.820   1.570
    1TCM    cl1 1479   4.674   4.655   1.557
    1TCM    cl2 1480   4.495   4.828   1.707
    1TCM     h1 1481   4.690   4.892   1.586
    1TCM    cl3 1482   4.521   4.861   1.420
    1TCM     c1 1483   4.628   0.718   3.263
    1TCM    cl1 1484   4.652   0.546   3.302
    1TCM    cl2 1485   4.575   0.735   3.095
    1TCM     h1 1486   4.551   0.761   3.331
    1TCM    cl3 1487   4.782   0.805   3.286
    1TCM     c1 1488   3.556   2.213   0.452
    1TCM    cl1 1489   3.673   2.347   0.441
    1TCM    cl2 1490   3.637   2.068   0.516
    1TCM     h1 1491   3.473   2.242   0.520
    1TCM    cl3 1492   3.491   2.178   0.290
    1TCM     c1 1493   1.786   0.088   2.732
    1TCM    cl1 1494   1.732   0.044   2.896
    1TCM    cl2 1495   1.899   0.225   2.742
    1TCM     h1 1496   1.836   0.001   2.685
    1TCM    cl3 1497   1.645   0.135   2.634
    1TCM     c1 1498   1.217   4.692   5.050
    1TCM    cl1 1499   1.393   4.710   5.069
    1TCM    cl2 1500   1.143   4.662   5.208
    1TCM     h1 1501   1.175   4.784   5.006
    1TCM    cl3 1502   1.184   4.555   4.942
    1TCM     c1 1503   5.129   0.296   4.513
    1TCM    cl1 1504   5.184   0.215   4.365
    1TCM    cl2 1505   5.163   0.192   4.654
    1TCM     h1 1506   5.183   0.393   4.525
    1TCM    cl3 1507   4.954   0.327   4.503
    1TCM     c1 1508   4.380   4.859   0.250
    1TCM    cl1 1509   4.214   4.887   0.309
    1TCM    cl2 1510   4.490   4.840   0.388
    1TCM     h1 1511   4.382   4.766   0.188
    1TCM    cl3 1512   4.431   4.997   0.151
    1TCM     c1 1513   0.572   2.530   3.931
    1TCM    cl1 1514   0.681   2.662   3.882
    1TCM    cl2 1515   0.569   2.520   4.109
    1TCM     h1 1516   0.470   2.551   3.894
    1TCM    cl3 1517   0.630   2.377   3.863
    1TCM     c1 1518   4.071   1.350   1.716
    1TCM    cl1 1519   4.163   1.382   1.567
    1TCM    cl2 1520   4.090   1.486   1.829
    1TCM     h1 1521   3.964   1.337   1.691
    1TCM    cl3 1522   4.133   1.201   1.792
    1TCM     c1 1523   1.434   4.924   0.408
    1TCM    cl1 1524   1.566   5.041   0.384
    1TCM    cl2 1525   1.423   4.881   0.580
    1TCM     h1 1526   1.338   4.968   0.374
    1TCM    cl3 1527   1.467   4.777   0.313
    1TCM     c1 1528   3.323   1.127   4.021
    1TCM    cl1 1529   3.295   1.148   3.846
    1TCM    cl2 1530   3.450   1.006   4.046
    1TCM     h1 1531   3.354   1.224   4.065
    1TCM    cl3 1532   3.172   1.072   4.098
    1TCM     c1 1533   4.655   3.550   3.719
    1TCM    cl1 1534   4.763   3.483   3.595
    1TCM    cl2 1535   4.554   3.420   3.786
    1TCM     h1 1536   4.716   3.595   3.801
    1TCM    cl3 1537   4.552   3.675   3.647
    1TCM     c1 1538   1.395   0.830   0.621
    1TCM    cl1 1539   1.275   0.924   0.713
    1TCM    cl2 1540   1.475   0.714   0.730
    1TCM     h1 1541   1.344   0.775   0.539
    1TCM    cl3 1542   1.516   0.940   0.552
    1TCM     c1 1543   1.192   2.017   1.115
    1TCM    cl1 1544   1.286   1.905   1.217
    1TCM    cl2 1545   1.190   1.956   0.948
    1TCM     h1 1546   1.089   2.024   1.153
    1TCM    cl3 1547   1.268   2.178   1.118
    1TCM     c1 1548   3.484   3.095   2.415
    1TCM    cl1 1549   3.648   3.081   2.346
    1TCM    cl2 1550   3.472   3.244   2.510
    1TCM     h1 1551   3.409   3.097   2.333
    1TCM    cl3 1552   3.452   2.955   2.520
    1TCM     c1 1553   3.252   3.559   2.836
    1TCM    cl1 1554   3.129   3.687   2.828
    1TCM    cl2 1555   3.173   3.401   2.854
    1TCM     h1 1556   3.313   3.560   2.743
    1TCM    cl3 1557   3.358   3.589   2.976
    1TCM     c1 1558   1.308   1.199   0.318
    1TCM    cl1 1559   1.301   1.052   0.417
    1TCM    cl2 1560   1.177   1.196   0.198
    1TCM     h1 1561   1.296   1.288   0.383
    1TCM    cl3 1562   1.464   1.207   0.235
    1TCM     c1 1563   3.054   0.246   0.877
    1TCM    cl1 1564   3.125   0.293   1.033
    1TCM    cl2 1565   2.927   0.124   0.904
    1TCM     h1 1566   3.009   0.336   0.829
    1TCM    cl3 1567   3.180   0.179   0.772
    1TCM     c1 1568   1.916   3.345   1.037
    1TCM    cl1 1569   1.805   3.477   0.994
    1TCM    cl2 1570   1.944   3.345   1.212
    1TCM     h1 1571   1.871   3.248   1.007
    1TCM    cl3 1572   2.071   3.367   0.952
    1TCM     c1 1573   2.931   3.799   2.006
    1TCM    cl1 1574   3.063   3.917   2.026
    1TCM    cl2 1575   2.862   3.759   2.165
    1TCM     h1 1576   2.852   3.842   1.942
    1TCM    cl3 1577   2.995   3.651   1.931
    1TCM     c1 1578   4.564   0.509   4.120
    1TCM    cl1 1579   4.681   0.379   4.151
    1TCM    cl2 1580   4.634   0.665   4.170
    1TCM     h1 1581   4.540   0.513   4.011
    1TCM    cl3 1582   4.415   0.478   4.212
    1TCM     c1 1583   4.667   3.019   4.765
    1TCM    cl1 1584   4.818   2.976   4.681
    1TCM    cl2 1585   4.662   2.938   4.923
    1TCM     h1 1586   4.663   3.129   4.779
    1TCM    cl3 1587   4.528   2.966   4.667
    1TCM     c1 1588   1.116   4.674   2.411
    1TCM    cl1 1589   1.030   4.756   2.279
    1TCM    cl2 1590   1.166   4.794   2.532
    1TCM     h1 1591   1.049   4.599   2.458
    1TCM    cl3 1592   1.260   4.592   2.346
    1TCM     c1 1593   5.135   0.238   0.373
    1TCM    cl1 1594   4.963   0.204   0.347
    1TCM    cl2 1595   5.209   0.291   0.220
    1TCM     h1 1596   5.146   0.319   0.449
    1TCM    cl3 1597   5.217   0.091   0.431
    1TCM     c1 1598   4.578   0.469   3.657
    1TCM    cl1 1599   4.591   0.367   3.512
    1TCM    cl2 1600   4.615   0.638   3.615
    1TCM     h1 1601   4.475   0.463   3.697
    1TCM    cl3 1602   4.693   0.412   3.780
    1TCM     c1 1603   3.610   5.100   4.456
    1TCM    cl1 1604   3.567   5.223   4.576
    1TCM    cl2 1605   3.787   5.080   4.452
    1TCM     h1 1606   3.563   5.003   4.483
    1TCM    cl3 1607   3.553   5.151   4.295
    1TCM     c1 1608   1.460   1.875   1.600
    1TCM    cl1 1609   1.528   1.857   1.436
    1TCM    cl2 1610   1.283   1.875   1.590
    1TCM     h1 1611   1.494   1.791   1.663
    1TCM    cl3 1612   1.516   2.029   1.670
    1TCM     c1 1613   5.269   0.241   1.511
    1TCM    cl1 1614   5.110   0.262   1.587
    1TCM    cl2 1615   5.254   0.268   1.336
    1TCM     h1 1616   5.340   0.315   1.554
    1TCM    cl3 1617   5.328   0.077   1.541
    1TCM     c1 1618   3.318   1.767   2.805
    1TCM    cl1 1619   3.203   1.758   2.669
    1TCM    cl2 1620   3.240   1.848   2.943
    1TCM     h1 1621   3.349   1.665   2.834
    1TCM    cl3 1622   3.461   1.860   2.755
    1TCM     c1 1623   3.623   0.408   0.550
    1TCM    cl1 1624   3.716   0.558   0.524
    1TCM    cl2 1625   3.676   0.284   0.434
    1TCM     h1 1626   3.640   0.372   0.654
    1TCM    cl3 1627   3.450   0.441   0.527
    1TCM     c1 1628   0.666   1.400   2.004
    1TCM    cl1 1629   0.529   1.507   1.965
    1TCM    cl2 1630   0.605   1.241   2.053
    1TCM     h1 1631   0.731   1.389   1.915
    1TCM    cl3 1632   0.759   1.472   2.138
    1TCM     c1 1633   2.788   3.853   1.345
    1TCM    cl1 1634   2.760   3.747   1.205
    1TCM    cl2 1635   2.695   3.793   1.484
    1TCM     h1 1636   2.896   3.853   1.370
    1TCM    cl3 1637   2.736   4.018   1.306
    1TCM     c1 1638   2.415   2.575   4.424
    1TCM    cl1 1639   2.515   2.515   4.290
    1TCM    cl2 1640   2.453   2.483   4.572
    1TCM     h1 1641   2.436   2.683   4.441
    1TCM    cl3 1642   2.243   2.554   4.385
    1TCM     c1 1643   0.604   2.322   0.861
    1TCM    cl1 1644   0.738   2.426   0.806
    1TCM    cl2 1645   0.464   2.344   0.753
    1TCM     h1 1646   0.637   2.216   0.859
    1TCM    cl3 1647   0.558   2.368   1.027
    1TCM     c1 1648   2.695   0.434   1.632
    1TCM    cl1 1649   2.814   0.301   1.630
    1TCM    cl2 1650   2.597   0.423   1.780
    1TCM     h1 1651   2.748   0.531   1.630
    1TCM    cl3 1652   2.589   0.421   1.490
    1TCM     c1 1653   2.480   3.640   0.168
    1TCM    cl1 1654   2.398   3.594   0.018
    1TCM    cl2 1655   2.416   3.545   0.303
    1TCM     h1 1656   2.589   3.621   0.158
    1TCM    cl3 1657   2.453   3.813   0.200
    1TCM     c1 1658   0.151   3.442   4.970
    1TCM    cl1 1659   0.257   3.307   5.019
    1TCM    cl2 1660   0.143   3.451   4.793
    1TCM     h1 1661   0.049   3.425   5.011
    1TCM    cl3 1662   0.216   3.595   5.034
    1TCM     c1 1663   3.937   1.950   1.698
    1TCM    cl1 1664   3.793   1.878   1.775
    1TCM    cl2 1665   4.022   2.052   1.816
    1TCM     h1 1666   4.004   1.869   1.663
    1TCM    cl3 1667   3.886   2.049   1.560
    1TCM     c1 1668   2.238   2.810   2.758
    1TCM    cl1 1669   2.121   2.944   2.741
    1TCM    cl2 1670   2.279   2.748   2.596
    1TCM     h1 1671   2.329   2.847   2.808
    1TCM    cl3 1672   2.165   2.680   2.855
    1TCM     c1 1673   4.438   2.779   0.699
    1TCM    cl1 1674   4.590   2.828   0.620
    1TCM    cl2 1675   4.420   2.867   0.852
    1TCM     h1 1676   4.353   2.803   0.632
    1TCM    cl3 1677   4.441   2.605   0.731
    1TCM     c1 1678   5.124   4.286   1.797
    1TCM    cl1 1679   4.990   4.170   1.794
    1TCM    cl2 1680   5.130   4.373   1.642
    1TCM     h1 1681   5.109   4.358   1.880
    1TCM    cl3 1682   5.277   4.198   1.821
    1TCM     c1 1683   3.271   1.765   3.806
    1TCM    cl1 1684   3.228   1.593   3.801
    1TCM    cl2 1685   3.424   1.785   3.895
    1TCM     h1 1686   3.283   1.804   3.703
    1TCM    cl3 1687   3.143   1.856   3.889
    1TCM     c1 1688   0.935   3.790   2.395
    1TCM    cl1 1689   0.976   3.734   2.231
    1TCM    cl2 1690   0.985   3.667   2.513
    1TCM     h1 1691   0.988   3.885   2.415
    1TCM    cl3 1692   0.759   3.816   2.406
    1TCM     c1 1693   3.035   4.173   2.314
    1TCM    cl1 1694   3.012   4.105   2.151
    1TCM    cl2 1695   3.122   4.056   2.416
    1TCM     h1 1696   3.094   4.267   2.307
    1TCM    cl3 1697   2.876   4.209   2.386
    1TCM     c1 1698   1.321   3.069   2.337
    1TCM    cl1 1699   1.475   3.158   2.346
    1TCM    cl2 1700   1.223   3.106   2.480
    1TCM     h1 1701   1.267   3.100   2.245
    1TCM    cl3 1702   1.353   2.895   2.330
    1TCM     c1 1703   4.600   0.155   5.160
    1TCM    cl1 1704   4.695   0.273   5.066
    1TCM    cl2 1705   4.519   0.238   5.294
    1TCM     h1 1706   4.524   0.108   5.095
    1TCM    cl3 1707   4.709   0.030   5.225
    1TCM     c1 1708   4.156   4.925   2.382
    1TCM    cl1 1709   4.001   4.906   2.467
    1TCM    cl2 1710   4.125   4.975   2.214
    1TCM     h1 1711   4.217   5.003   2.432
    1TCM    cl3 1712   4.244   4.770   2.382
    1TCM     c1 1713   1.430   5.026   3.126
    1TCM    cl1 1714   1.306   5.146   3.169
    1TCM    cl2 1715   1.571   5.045   3.234
    1TCM     h1 1716   1.388   4.924   3.138
    1TCM    cl3 1717   1.482   5.051   2.958
    1TCM     c1 1718   3.399   5.016   3.753
    1TCM    cl1 1719   3.421   5.191   3.775
    1TCM    cl2 1720   3.462   4.930   3.895
    1TCM     h1 1721   3.291   4.994   3.741
    1TCM    cl3 1722   3.486   4.963   3.608
    1TCM     c1 1723   3.635   2.204   4.863
    1TCM    cl1 1724   3.798   2.168   4.802
    1TCM    cl2 1725   3.647   2.266   5.030
    1TCM     h1 1726   3.587   2.281   4.799
    1TCM    cl3 1727   3.536   2.056   4.861
    1TCM     c1 1728   4.863   4.223   2.579
    1TCM    cl1 1729   4.809   4.391   2.565
    1TCM    cl2 1730   4.784   4.124   2.454
    1TCM     h1 1731   4.973   4.218   2.565
    1TCM    cl3 1732   4.821   4.160   2.740
    1TCM     c1 1733   5.017   3.141   2.470
    1TCM    cl1 1734   5.184   3.079   2.463
    1TCM    cl2 1735   4.995   3.230   2.623
    1TCM     h1 1736   5.000   3.210   2.385
    1TCM    cl3 1737   4.902   3.006   2.463
    1TCM     c1 1738   1.444   2.379   0.934
    1TCM    cl1 1739   1.529   2.416   1.086
    1TCM    cl2 1740   1.552   2.287   0.827
    1TCM     h1 1741   1.354   2.319   0.956
    1TCM    cl3 1742   1.396   2.531   0.855
    1TCM     c1 1743   1.108   1.981   4.053
    1TCM    cl1 1744   1.203   1.835   4.089
    1TCM    cl2 1745   1.211   2.099   3.969
    1TCM     h1 1746   1.022   1.954   3.988
    1TCM    cl3 1747   1.048   2.052   4.205
    1TCM     c1 1748   4.130   3.591   1.307
    1TCM    cl1 1749   4.081   3.759   1.339
    1TCM    cl2 1750   4.021   3.520   1.185
    1TCM     h1 1751   4.234   3.589   1.269
    1TCM    cl3 1752   4.120   3.497   1.457
    1TCM     c1 1753   0.262   5.174   2.134
    1TCM    cl1 1754   0.313   5.019   2.065
    1TCM    cl2 1755   0.310   5.182   2.305
    1TCM     h1 1756   0.311   5.257   2.079
    1TCM    cl3 1757   0.085   5.190   2.121
    1TCM     c1 1758   1.321   2.548   1.758
    1TCM    cl1 1759   1.438   2.528   1.626
    1TCM    cl2 1760   1.406   2.549   1.913
    1TCM     h1 1761   1.266   2.644   1.745
    1TCM    cl3 1762   1.205   2.413   1.754
    1TCM     c1 1763   0.862   2.387   4.137
    1TCM    cl1 1764   0.886   2.545   4.059
    1TCM    cl2 1765   1.013   2.294   4.130
    1TCM     h1 1766   0.832   2.402   4.243
    1TCM    cl3 1767   0.733   2.298   4.052
    1TCM     c1 1768   1.107   0.889   5.165
    1TCM    cl1 1769   0.934   0.921   5.142
    1TCM    cl2 1770   1.147   0.896   5.338
    1TCM     h1 1771   1.132   0.788   5.126
    1TCM    cl3 1772   1.202   1.011   5.077
    1TCM     c1 1773   3.700   2.961   1.034
    1TCM    cl1 1774   3.553   2.983   1.131
    1TCM    cl2 1775   3.703   3.082   0.903
    1TCM     h1 1776   3.789   2.974   1.098
    1TCM    cl3 1777   3.701   2.798   0.964
    1TCM     c1 1778   3.684   5.012   3.029
    1TCM    cl1 1779   3.664   5.185   3.063
    1TCM    cl2 1780   3.764   4.991   2.872
    1TCM     h1 1781   3.747   4.966   3.108
    1TCM    cl3 1782   3.525   4.933   3.026
    1TCM     c1 1783   4.623   3.196   5.179
    1TCM    cl1 1784   4.512   3.299   5.086
    1TCM    cl2 1785   4.554   3.164   5.340
    1TCM     h1 1786   4.638   3.100   5.126
    1TCM    cl3 1787   4.779   3.279   5.197
    1TCM     c1 1788   4.466   2.821   2.970
    1TCM    cl1 1789   4.371   2.867   2.827
    1TCM    cl2 1790   4.356   2.758   3.096
    1TCM     h1 1791   4.539   2.742   2.943
    1TCM    cl3 1792   4.552   2.963   3.033
    1TCM     c1 1793   2.323   4.451   3.611
    1TCM    cl1 1794   2.464   4.351   3.569
    1TCM    cl2 1795   2.379   4.602   3.687
    1TCM     h1 1796   2.265   4.474   3.519
    1TCM    cl3 1797   2.219   4.363   3.726
    1TCM     c1 1798   3.574   2.261   0.949
    1TCM    cl1 1799   3.520   2.327   1.105
    1TCM    cl2 1800   3.514   2.365   0.817
    1TCM     h1 1801   3.684   2.258   0.947
    1TCM    cl3 1802   3.509   2.097   0.929
    1TCM     c1 1803   2.401   2.064   2.661
    1TCM    cl1 1804   2.487   2.179   2.765
    1TCM    cl2 1805   2.452   2.088   2.492
    1TCM     h1 1806   2.424   1.961   2.692
    1TCM    cl3 1807   2.226   2.092   2.674
    1TCM     c1 1808   2.941   2.915   3.473
    1TCM    cl1 1809   2.842   3.057   3.434
    1TCM    cl2 1810   2.846   2.767   3.445
    1TCM     h1 1811   3.031   2.913   3.408
    1TCM    cl3 1812   2.991   2.921   3.643
    1TCM     c1 1813   5.019   1.907   1.688
    1TCM    cl1 1814   4.891   1.937   1.568
    1TCM    cl2 1815   4.984   1.755   1.775
    1TCM     h1 1816   5.117   1.898   1.636
    1TCM    cl3 1817   5.026   2.042   1.803
    1TCM     c1 1818   1.653   1.367   3.584
    1TCM    cl1 1819   1.538   1.269   3.677
    1TCM    cl2 1820   1.814   1.357   3.659
    1TCM     h1 1821   1.659   1.329   3.480
    1TCM    cl3 1822   1.599   1.537   3.582
    1TCM     c1 1823   3.432   4.200   2.246
    1TCM    cl1 1824   3.410   4.131   2.409
    1TCM    cl2 1825   3.306   4.322   2.216
    1TCM     h1 1826   3.532   4.248   2.240
    1TCM    cl3 1827   3.421   4.071   2.125
    1TCM     c1 1828   2.055   3.574   0.480
    1TCM    cl1 1829   2.202   3.578   0.380
    1TCM    cl2 1830   2.022   3.736   0.544
    1TCM     h1 1831   1.969   3.540   0.418
    1TCM    cl3 1832   2.078   3.460   0.615
    1TCM     c1 1833   4.607   2.139   3.266
    1TCM    cl1 1834   4.755   2.156   3.169
    1TCM    cl2 1835   4.466   2.137   3.158
    1TCM     h1 1836   4.612   2.044   3.324
    1TCM    cl3 1837   4.594   2.276   3.379
    1TCM     c1 1838   2.428   3.913   1.426
    1TCM    cl1 1839   2.554   3.958   1.543
    1TCM    cl2 1840   2.503   3.872   1.270
    1TCM     h1 1841   2.372   3.825   1.464
    1TCM    cl3 1842   2.316   4.050   1.404
    1TCM     c1 1843   1.050   4.904   4.753
    1TCM    cl1 1844   1.214   4.964   4.787
    1TCM    cl2 1845   0.942   4.949   4.887
    1TCM     h1 1846   1.013   4.949   4.659
    1TCM    cl3 1847   1.054   4.727   4.737
    1TCM     c1 1848   3.629   3.221   3.696
    1TCM    cl1 1849   3.540   3.097   3.788
    1TCM    cl2 1850   3.559   3.236   3.533
    1TCM     h1 1851   3.621   3.319   3.749
    1TCM    cl3 1852   3.800   3.175   3.684
    1TCM     c1 1853   3.761   3.878   1.241
    1TCM    cl1 1854   3.873   3.835   1.110
    1TCM    cl2 1855   3.855   3.930   1.384
    1TCM     h1 1856   3.695   3.961   1.208
    1TCM    cl3 1857   3.662   3.737   1.284
    1TCM     c1 1858   2.513   1.283   3.876
    1TCM    cl1 1859   2.372   1.295   3.984
    1TCM    cl2 1860   2.466   1.333   3.712
    1TCM     h1 1861   2.594   1.350   3.914
    1TCM    cl3 1862   2.571   1.115   3.872
    1TCM     c1 1863   2.187   3.617   4.835
    1TCM    cl1 1864   2.066   3.508   4.907
    1TCM    cl2 1865   2.344   3.592   4.915
    1TCM     h1 1866   2.197   3.595   4.727
    1TCM    cl3 1867   2.136   3.785   4.858
    1TCM     c1 1868   4.329   3.837   3.206
    1TCM    cl1 1869   4.442   3.966   3.160
    1TCM    cl2 1870   4.221   3.896   3.335
    1TCM     h1 1871   4.268   3.809   3.118
    1TCM    cl3 1872   4.420   3.696   3.264
    1TCM     c1 1873   2.482   5.226   4.724
    1TCM    cl1 1874   2.657   5.227   4.756
    1TCM    cl2 1875   2.452   5.277   4.556
    1TCM     h1 1876   2.442   5.124   4.740
    1TCM    cl3 1877   2.400   5.339   4.835
    1TCM     c1 1878   3.076   1.579   5.020
    1TCM    cl1 1879   3.068   1.450   4.898
    1TCM    cl2 1880   2.934   1.685   5.004
    1TCM     h1 1881   3.076   1.533   5.122
    1TCM    cl3 1882   3.224   1.674   4.997
    1TCM     c1 1883   0.647   0.648   4.129
    1TCM    cl1 1884   0.556   0.565   4.257
    1TCM    cl2 1885   0.594   0.587   3.970
    1TCM     h1 1886   0.629   0.757   4.135
    1TCM    cl3 1887   0.821   0.616   4.149
    1TCM     c1 1888   3.532   0.953   2.023
    1TCM    cl1 1889   3.674   0.930   1.917
    1TCM    cl2 1890   3.581   0.931   2.193
    1TCM     h1 1891   3.492   1.055   2.009
    1TCM    cl3 1892   3.408   0.833   1.981
    1TCM     c1 1893   2.833   0.086   2.588
    1TCM    cl1 1894   3.006   0.124   2.579
    1TCM    cl2 1895   2.780   0.013   2.434
    1TCM     h1 1896   2.815   0.014   2.671
    1TCM    cl3 1897   2.741   0.235   2.618
    1TCM     c1 1898   2.695   4.554   2.490
    1TCM    cl1 1899   2.759   4.523   2.654
    1TCM    cl2 1900   2.640   4.401   2.419
    1TCM     h1 1901   2.611   4.625   2.497
    1TCM    cl3 1902   2.824   4.624   2.389
    1TCM     c1 1903   0.848   1.040   2.207
    1TCM    cl1 1904   1.025   1.045   2.202
    1TCM    cl2 1905   0.787   0.966   2.057
    1TCM     h1 1906   0.814   0.979   2.294
    1TCM    cl3 1907   0.784   1.205   2.222
    1TCM     c1 1908   2.375   4.401   3.130
    1TCM    cl1 1909   2.200   4.381   3.155
    1TCM    cl2 1910   2.404   4.486   2.977
    1TCM     h1 1911   2.417   4.460   3.214
    1TCM    cl3 1912   2.453   4.241   3.125
    1TCM     c1 1913   4.248   1.859   4.759
    1TCM    cl1 1914   4.369   1.791   4.648
    1TCM    cl2 1915   4.086   1.806   4.710
    1TCM     h1 1916   4.269   1.825   4.862
    1TCM    cl3 1917   4.256   2.037   4.752
    1TCM     c1 1918   0.295   0.507   0.301
    1TCM    cl1 1919   0.312   0.656   0.395
    1TCM    cl2 1920   0.456   0.441   0.263
    1TCM     h1 1921   0.237   0.432   0.360
    1TCM    cl3 1922   0.208   0.541   0.149
    1TCM     c1 1923   3.908   3.858   5.187
    1TCM    cl1 1924   3.974   3.766   5.050
    1TCM    cl2 1925   3.957   3.780   5.340
    1TCM     h1 1926   3.948   3.961   5.185
    1TCM    cl3 1927   3.731   3.862   5.177
    1TCM     c1 1928   1.968   2.421   2.781
    1TCM    cl1 1929   1.891   2.359   2.633
    1TCM    cl2 1930   1.952   2.598   2.786
    1TCM     h1 1931   1.919   2.377   2.870
    1TCM    cl3 1932   2.141   2.378   2.780
    1TCM     c1 1933   2.122   4.133   1.637
    1TCM    cl1 1934   2.088   4.215   1.483
    1TCM    cl2 1935   2.140   4.253   1.766
    1TCM     h1 1936   2.038   4.065   1.661
    1TCM    cl3 1937   2.272   4.039   1.622
    1TCM     c1 1938   4.091   3.630   1.889
    1TCM    cl1 1939   4.251   3.583   1.827
    1TCM    cl2 1940   4.106   3.782   1.980
    1TCM     h1 1941   4.021   3.644   1.805
    1TCM    cl3 1942   4.030   3.503   1.997
    1TCM     c1 1943   2.574   4.597   0.589
    1TCM    cl1 1944   2.503   4.568   0.749
    1TCM    cl2 1945   2.750   4.578   0.598
    1TCM     h1 1946   2.532   4.525   0.516
    1TCM    cl3 1947   2.535   4.763   0.537
    1TCM     c1 1948   2.785   2.374   4.755
    1TCM    cl1 1949   2.818   2.228   4.658
    1TCM    cl2 1950   2.790   2.517   4.649
    1TCM     h1 1951   2.685   2.366   4.801
    1TCM    cl3 1952   2.908   2.390   4.882
    1TCM     c1 1953   1.558   3.356   2.682
    1TCM    cl1 1954   1.567   3.215   2.575
    1TCM    cl2 1955   1.600   3.308   2.848
    1TCM     h1 1956   1.629   3.434   2.647
    1TCM    cl3 1957   1.393   3.422   2.679
    1TCM     c1 1958   0.675   4.230   4.943
    1TCM    cl1 1959   0.748   4.255   5.103
    1TCM    cl2 1960   0.755   4.093   4.862
    1TCM     h1 1961   0.567   4.208   4.954
    1TCM    cl3 1962   0.697   4.377   4.844
    1TCM     c1 1963   0.223   2.460   1.779
    1TCM    cl1 1964   0.105   2.525   1.896
    1TCM    cl2 1965   0.252   2.581   1.651
    1TCM     h1 1966   0.319   2.438   1.831
    1TCM    cl3 1967   0.160   2.311   1.707
    1TCM     c1 1968   4.491   0.947   4.177
    1TCM    cl1 1969   4.357   1.064   4.172
    1TCM    cl2 1970   4.438   0.801   4.263
    1TCM     h1 1971   4.521   0.921   4.074
    1TCM    cl3 1972   4.629   1.019   4.262
    1TCM     c1 1973   3.996   1.129   0.472
    1TCM    cl1 1974   3.987   0.980   0.375
    1TCM    cl2 1975   4.017   1.087   0.643
    1TCM     h1 1976   4.082   1.190   0.438
    1TCM    cl3 1977   3.846   1.222   0.451
    1TCM     c1 1978   1.953   1.733   3.963
    1TCM    cl1 1979   1.979   1.877   4.064
    1TCM    cl2 1980   2.030   1.757   3.804
    1TCM     h1 1981   1.997   1.644   4.012
    1TCM    cl3 1982   1.778   1.707   3.940
    1TCM     c1 1983   0.293   1.875   2.011
    1TCM    cl1 1984   0.128   1.880   1.945
    1TCM    cl2 1985   0.400   1.976   1.911
    1TCM     h1 1986   0.293   1.913   2.115
    1TCM    cl3 1987   0.352   1.707   2.009
    1TCM     c1 1988   1.653   0.550   3.466
    1TCM    cl1 1989   1.724   0.576   3.305
    1TCM    cl2 1990   1.609   0.708   3.537
    1TCM     h1 1991   1.562   0.488   3.457
    1TCM    cl3 1992   1.771   0.470   3.571
    1TCM     c1 1993   2.305   4.219   1.184
    1TCM    cl1 1994   2.365   4.246   1.019
    1TCM    cl2 1995   2.237   4.054   1.196
    1TCM     h1 1996   2.388   4.230   1.256
    1TCM    cl3 1997   2.178   4.337   1.221
    1TCM     c1 1998   3.478   1.778   4.387
    1TCM    cl1 1999   3.334   1.734   4.481
    1TCM    cl2 2000   3.430   1.825   4.223
    1TCM     h1 2001   3.530   1.862   4.436
    1TCM    cl3 2002   3.588   1.638   4.378
    1TCM     c1 2003   2.233   3.790   4.154
    1TCM    cl1 2004   2.243   3.613   4.161
    1TCM    cl2 2005   2.269   3.857   4.315
    1TCM     h1 2006   2.306   3.829   4.080
    1TCM    cl3 2007   2.068   3.838   4.107
    1TCM     c1 2008   3.181   0.985   4.951
    1TCM    cl1 2009   3.146   0.858   4.830
    1TCM    cl2 2010   3.130   0.929   5.112
    1TCM     h1 2011   3.290   1.006   4.952
    1TCM    cl3 2012   3.092   1.133   4.909
    1TCM     c1 2013   3.145   2.833   2.467
    1TCM    cl1 2014   3.237   2.931   2.583
    1TCM    cl2 2015   3.128   2.923   2.314
    1TCM     h1 2016   3.198   2.738   2.448
    1TCM    cl3 2017   2.983   2.799   2.534
    1TCM     c1 2018   4.712   4.221   0.892
    1TCM    cl1 2019   4.792   4.279   0.744
    1TCM    cl2 2020   4.724   4.346   1.018
    1TCM     h1 2021   4.605   4.200   0.871
    1TCM    cl3 2022   4.792   4.073   0.948
    1TCM     c1 2023   2.132   2.856   4.423
    1TCM    cl1 2024   2.062   3.005   4.355
    1TCM    cl2 2025   2.278   2.897   4.515
    1TCM     h1 2026   2.058   2.808   4.490
    1TCM    cl3 2027   2.174   2.744   4.291
    1TCM     c1 2028   2.593   4.153   4.506
    1TCM    cl1 2029   2.655   4.306   4.441
    1TCM    cl2 2030   2.621   4.148   4.682
    1TCM     h1 2031   2.484   4.145   4.486
    1TCM    cl3 2032   2.677   4.016   4.430
    1TCM     c1 2033   4.426   5.188   2.676
    1TCM    cl1 2034   4.574   5.273   2.623
    1TCM    cl2 2035   4.364   5.265   2.824
    1TCM     h1 2036   4.350   5.195   2.596
    1TCM    cl3 2037   4.464   5.018   2.708
    1TCM     c1 2038   1.872   3.700   2.071
    1TCM    cl1 2039   1.864   3.618   1.914
    1TCM    cl2 2040   2.042   3.730   2.115
    1TCM     h1 2041   1.818   3.797   2.065
    1TCM    cl3 2042   1.796   3.598   2.195
    1TCM     c1 2043   3.498   0.776   1.046
    1TCM    cl1 2044   3.491   0.766   1.223
    1TCM    cl2 2045   3.360   0.689   0.976
    1TCM     h1 2046   3.494   0.882   1.015
    1TCM    cl3 2047   3.650   0.703   0.989
    1TCM     c1 2048   0.296   3.752   2.999
    1TCM    cl1 2049   0.137   3.680   2.966
    1TCM    cl2 2050   0.395   3.636   3.091
    1TCM     h1 2051   0.346   3.776   2.903
    1TCM    cl3 2052   0.275   3.901   3.094
    1TCM     c1 2053   2.932   2.707   4.821
    1TCM    cl1 2054   2.974   2.678   4.991
    1TCM    cl2 2055   2.756   2.698   4.801
    1TCM     h1 2056   2.968   2.808   4.791
    1TCM    cl3 2057   3.010   2.583   4.719
    1TCM     c1 2058   2.266   0.604   0.718
    1TCM    cl1 2059   2.260   0.709   0.861
    1TCM    cl2 2060   2.274   0.705   0.571
    1TCM     h1 2061   2.356   0.540   0.723
    1TCM    cl3 2062   2.121   0.502   0.712
    1TCM     c1 2063   2.912   0.313   2.233
    1TCM    cl1 2064   2.991   0.249   2.087
    1TCM    cl2 2065   2.924   0.194   2.364
    1TCM     h1 2066   2.963   0.407   2.264
    1TCM    cl3 2067   2.741   0.346   2.198
    1TCM     c1 2068   1.784   3.542   4.681
    1TCM    cl1 2069   1.778   3.524   4.504
    1TCM    cl2 2070   1.661   3.436   4.755
    1TCM     h1 2071   1.884   3.513   4.717
    1TCM    cl3 2072   1.750   3.711   4.725
    1TCM     c1 2073   0.817   2.843   0.704
    1TCM    cl1 2074   0.949   2.939   0.776
    1TCM    cl2 2075   0.666   2.876   0.792
    1TCM     h1 2076   0.805   2.871   0.598
    1TCM    cl3 2077   0.857   2.670   0.716
    1TCM     c1 2078   2.924   0.201   3.319
    1TCM    cl1 2079   3.076   0.270   3.380
    1TCM    cl2 2080   2.924   0.025   3.346
    1TCM     h1 2081   2.839   0.247   3.372
    1TCM    cl3 2082   2.910   0.234   3.144
    1TCM     c1 2083   2.102   3.016   1.121
    1TCM    cl1 2084   2.228   2.894   1.095
    1TCM    cl2 2085   2.172   3.156   1.207
    1TCM     h1 2086   2.062   3.049   1.023
    1TCM    cl3 2087   1.971   2.947   1.219
    1TCM     c1 2088   3.124   5.171   4.042
    1TCM    cl1 2089   2.988   5.226   4.143
    1TCM    cl2 2090   3.085   5.015   3.968
    1TCM     h1 2091   3.143   5.246   3.963
    1TCM    cl3 2092   3.269   5.154   4.143
    1TCM     c1 2093   0.271   0.414   4.167
    1TCM    cl1 2094   0.315   0.420   4.340
    1TCM    cl2 2095   0.101   0.367   4.151
    1TCM     h1 2096   0.287   0.513   4.122
    1TCM    cl3 2097   0.374   0.294   4.085
    1TCM     c1 2098   2.445   2.656   3.961
    1TCM    cl1 2099   2.571   2.619   4.081
    1TCM    cl2 2100   2.513   2.643   3.797
    1TCM     h1 2101   2.361   2.585   3.972
    1TCM    cl3 2102   2.386   2.822   3.987
    1TCM     c1 2103   0.781   1.366   0.269
    1TCM    cl1 2104   0.708   1.381   0.108
    1TCM    cl2 2105   0.957   1.386   0.257
    1TCM     h1 2106   0.739   1.444   0.336
    1TCM    cl3 2107   0.745   1.205   0.336
    1TCM     c1 2108   4.676   2.994   1.935
    1TCM    cl1 2109   4.648   2.819   1.925
    1TCM    cl2 2110   4.717   3.038   2.103
    1TCM     h1 2111   4.760   3.022   1.868
    1TCM    cl3 2112   4.529   3.080   1.885
    1TCM     c1 2113   3.116   3.236   0.599
    1TCM    cl1 2114   3.010   3.355   0.521
    1TCM    cl2 2115   3.124   3.269   0.774
    1TCM     h1 2116   3.076   3.134   0.583
    1TCM    cl3 2117   3.279   3.248   0.529
    1TCM     c1 2118   2.595   4.880   1.566
    1TCM    cl1 2119   2.441   4.930   1.639
    1TCM    cl2 2120   2.564   4.790   1.416
    1TCM     h1 2121   2.656   4.970   1.543
    1TCM    cl3 2122   2.684   4.776   1.680
    1TCM     c1 2123   2.697   4.038   4.915
    1TCM    cl1 2124   2.638   3.903   4.815
    1TCM    cl2 2125   2.722   3.982   5.082
    1TCM     h1 2126   2.793   4.075   4.873
    1TCM    cl3 2127   2.577   4.169   4.914
    1TCM     c1 2128   3.992   3.981   2.777
    1TCM    cl1 2129   4.004   4.157   2.801
    1TCM    cl2 2130   4.093   3.898   2.897
    1TCM     h1 2131   3.886   3.950   2.789
    1TCM    cl3 2132   4.048   3.940   2.614
    1TCM     c1 2133   2.398   1.509   2.443
    1TCM    cl1 2134   2.482   1.517   2.599
    1TCM    cl2 2135   2.494   1.593   2.319
    1TCM     h1 2136   2.384   1.403   2.414
    1TCM    cl3 2137   2.239   1.587   2.458
    1TCM     c1 2138   4.908   2.379   0.648
    1TCM    cl1 2139   4.863   2.242   0.544
    1TCM    cl2 2140   4.797   2.387   0.787
    1TCM     h1 2141   5.012   2.367   0.684
    1TCM    cl3 2142   4.895   2.530   0.554
    1TCM     c1 2143   4.230   0.556   3.198
    1TCM    cl1 2144   4.197   0.665   3.336
    1TCM    cl2 2145   4.240   0.652   3.049
    1TCM     h1 2146   4.326   0.504   3.215
    1TCM    cl3 2147   4.099   0.437   3.184
    1TCM     c1 2148   4.815   2.343   0.205
    1TCM    cl1 2149   4.857   2.170   0.220
    1TCM    cl2 2150   4.663   2.359   0.114
    1TCM     h1 2151   4.802   2.386   0.306
    1TCM    cl3 2152   4.945   2.428   0.119
    1TCM     c1 2153   3.383   1.245   1.072
    1TCM    cl1 2154   3.205   1.238   1.080
    1TCM    cl2 2155   3.434   1.412   1.040
    1TCM     h1 2156   3.426   1.211   1.169
    1TCM    cl3 2157   3.441   1.139   0.942
    1TCM     c1 2158   2.790   4.538   4.689
    1TCM    cl1 2159   2.773   4.697   4.768
    1TCM    cl2 2160   2.686   4.419   4.772
    1TCM     h1 2161   2.759   4.546   4.583
    1TCM    cl3 2162   2.959   4.486   4.698
    1TCM     c1 2163   1.531   5.270   0.610
    1TCM    cl1 2164   1.703   5.288   0.652
    1TCM    cl2 2165   1.488   5.098   0.608
    1TCM     h1 2166   1.469   5.323   0.685
    1TCM    cl3 2167   1.502   5.340   0.449
    1TCM     c1 2168   1.420   3.326   4.485
    1TCM    cl1 2169   1.428   3.406   4.643
    1TCM    cl2 2170   1.270   3.230   4.474
    1TCM     h1 2171   1.420   3.402   4.404
    1TCM    cl3 2172   1.560   3.218   4.465
    1TCM     c1 2173   1.220   2.378   2.383
    1TCM    cl1 2174   1.136   2.402   2.538
    1TCM    cl2 2175   1.279   2.210   2.374
    1TCM     h1 2176   1.151   2.397   2.299
    1TCM    cl3 2177   1.358   2.490   2.373
    1TCM     c1 2178   1.402   1.409   0.627
    1TCM    cl1 2179   1.236   1.408   0.563
    1TCM    cl2 2180   1.515   1.352   0.501
    1TCM     h1 2181   1.429   1.512   0.657
    1TCM    cl3 2182   1.412   1.301   0.767
    1TCM     c1 2183   0.346   5.183   3.255
    1TCM    cl1 2184   0.439   5.233   3.399
    1TCM    cl2 2185   0.416   5.259   3.110
    1TCM     h1 2186   0.350   5.073   3.245
    1TCM    cl3 2187   0.177   5.236   3.273
    1TCM     c1 2188   2.796   3.965   0.331
    1TCM    cl1 2189   2.855   4.132   0.311
    1TCM    cl2 2190   2.884   3.858   0.219
    1TCM     h1 2191   2.813   3.932   0.435
    1TCM    cl3 2192   2.622   3.960   0.293
    1TCM     c1 2193   5.054   1.849   0.899
    1TCM    cl1 2194   5.132   1.977   0.996
    1TCM    cl2 2195   5.174   1.774   0.792
    1TCM     h1 2196   5.011   1.773   0.967
    1TCM    cl3 2197   4.924   1.921   0.801
    1TCM     c1 2198   3.286   4.757   4.124
    1TCM    cl1 2199   3.219   4.785   3.962
    1TCM    cl2 2200   3.456   4.706   4.111
    1TCM     h1 2201   3.280   4.851   4.183
    1TCM    cl3 2202   3.193   4.630   4.207
    1TCM     c1 2203   0.445   3.268   3.423
    1TCM    cl1 2204   0.336   3.196   3.303
    1TCM    cl2 2205   0.440   3.445   3.409
    1TCM     h1 2206   0.413   3.239   3.525
    1TCM    cl3 2207   0.611   3.211   3.394
    1TCM     c1 2208   2.881   0.554   1.982
    1TCM    cl1 2209   2.947   0.710   2.035
    1TCM    cl2 2210   3.011   0.454   1.913
    1TCM     h1 2211   2.836   0.501   2.069
    1TCM    cl3 2212   2.756   0.582   1.859
    1TCM     c1 2213   4.852   5.003   4.345
    1TCM    cl1 2214   4.851   5.102   4.198
    1TCM    cl2 2215   4.726   4.878   4.334
    1TCM     h1 2216   4.951   4.954   4.356
    1TCM    cl3 2217   4.821   5.106   4.487
    1TCM     c1 2218   4.069   1.000   2.050
    1TCM    cl1 2219   4.008   0.877   2.163
    1TCM    cl2 2220   3.968   1.001   1.903
    1TCM     h1 2221   4.066   1.099   2.098
    1TCM    cl3 2222   4.237   0.960   2.005
    1TCM     c1 2223   2.294   4.758   2.394
    1TCM    cl1 2224   2.298   4.885   2.519
    1TCM    cl2 2225   2.235   4.606   2.465
    1TCM     h1 2226   2.227   4.789   2.311
    1TCM    cl3 2227   2.458   4.733   2.330
    1TCM     c1 2228   2.277   2.630   0.910
    1TCM    cl1 2229   2.167   2.656   1.047
    1TCM    cl2 2230   2.187   2.560   0.774
    1TCM     h1 2231   2.322   2.726   0.880
    1TCM    cl3 2232   2.406   2.517   0.959
    1TCM     c1 2233   2.228   4.756   0.422
    1TCM    cl1 2234   2.309   4.712   0.574
    1TCM    cl2 2235   2.194   4.931   0.422
    1TCM     h1 2236   2.295   4.732   0.337
    1TCM    cl3 2237   2.076   4.666   0.407
    1TCM     c1 2238   3.662   1.216   2.308
    1TCM    cl1 2239   3.815   1.143   2.253
    1TCM    cl2 2240   3.634   1.173   2.478
    1TCM     h1 2241   3.668   1.326   2.297
    1TCM    cl3 2242   3.528   1.153   2.209
    1TCM     c1 2243   3.727   4.086   0.836
    1TCM    cl1 2244   3.643   3.967   0.734
    1TCM    cl2 2245   3.769   4.011   0.992
    1TCM     h1 2246   3.819   4.120   0.785
    1TCM    cl3 2247   3.620   4.225   0.865
    1TCM     c1 2248   1.750   4.292   2.178
    1TCM    cl1 2249   1.882   4.176   2.150
    1TCM    cl2 2250   1.700   4.363   2.023
    1TCM     h1 2251   1.664   4.240   2.224
    1TCM    cl3 2252   1.807   4.421   2.286
    1TCM     c1 2253   4.965   2.768   3.008
    1TCM    cl1 2254   5.135   2.734   2.968
    1TCM    cl2 2255   4.864   2.632   2.955
    1TCM     h1 2256   4.955   2.781   3.118
    1TCM    cl3 2257   4.913   2.917   2.925
    1TCM     c1 2258   1.573   1.322   2.176
    1TCM    cl1 2259   1.505   1.431   2.053
    1TCM    cl2 2260   1.502   1.161   2.158
    1TCM     h1 2261   1.683   1.316   2.162
    1TCM    cl3 2262   1.537   1.386   2.338
    1TCM     c1 2263   0.946   4.345   0.290
    1TCM    cl1 2264   0.990   4.484   0.189
    1TCM    cl2 2265   0.903   4.402   0.453
    1TCM     h1 2266   0.859   4.293   0.245
    1TCM    cl3 2267   1.084   4.233   0.301
    1TCM     c1 2268   3.147   2.677   0.927
    1TCM    cl1 2269   3.038   2.616   0.800
    1TCM    cl2 2270   3.180   2.547   1.043
    1TCM     h1 2271   3.242   2.711   0.881
    1TCM    cl3 2272   3.069   2.813   1.010
    1TCM     c1 2273   0.617   1.975   2.561
    1TCM    cl1 2274   0.730   2.100   2.620
    1TCM    cl2 2275   0.455   2.046   2.543
    1TCM     h1 2276   0.652   1.937   2.463
    1TCM    cl3 2277   0.610   1.842   2.679
    1TCM     c1 2278   2.628   0.789   4.993
    1TCM    cl1 2279   2.682   0.713   4.841
    1TCM    cl2 2280   2.695   0.698   5.130
    1TCM     h1 2281   2.664   0.893   4.997
    1TCM    cl3 2282   2.451   0.786   5.001
    1TCM     c1 2283   0.395   4.305   4.201
    1TCM    cl1 2284   0.475   4.406   4.324
    1TCM    cl2 2285   0.289   4.187   4.282
    1TCM     h1 2286   0.334   4.369   4.134
    1TCM    cl3 2287   0.518   4.219   4.106
    1TCM     c1 2288   5.040   4.040   1.520
    1TCM    cl1 2289   4.935   4.003   1.659
    1TCM    cl2 2290   5.202   4.084   1.579
    1TCM     h1 2291   5.047   3.951   1.455
    1TCM    cl3 2292   4.971   4.176   1.429
    1TCM     c1 2293   2.598   2.333   0.450
    1TCM    cl1 2294   2.583   2.425   0.298
    1TCM    cl2 2295   2.619   2.445   0.586
    1TCM     h1 2296   2.506   2.273   0.466
    1TCM    cl3 2297   2.739   2.225   0.440
    1TCM     c1 2298   3.380   2.460   2.185
    1TCM    cl1 2299   3.492   2.593   2.148
    1TCM    cl2 2300   3.213   2.516   2.160
    1TCM     h1 2301   3.401   2.375   2.117
    1TCM    cl3 2302   3.402   2.409   2.354
    1TCM     c1 2303   4.063   1.225   5.179
    1TCM    cl1 2304   4.103   1.355   5.294
    1TCM    cl2 2305   4.169   1.086   5.209
    1TCM     h1 2306   3.957   1.194   5.193
    1TCM    cl3 2307   4.087   1.283   5.013
    1TCM     c1 2308   1.103   2.026   4.498
    1TCM    cl1 2309   1.158   1.972   4.658
    1TCM    cl2 2310   1.015   1.895   4.418
    1TCM     h1 2311   1.036   2.114   4.509
    1TCM    cl3 2312   1.244   2.071   4.399
    1TCM     c1 2313   0.449   0.329   2.149
    1TCM    cl1 2314   0.508   0.230   2.013
    1TCM    cl2 2315   0.535   0.282   2.298
    1TCM     h1 2316   0.468   0.436   2.128
    1TCM    cl3 2317   0.275   0.302   2.170
    1TCM     c1 2318   3.820   0.432   1.089
    1TCM    cl1 2319   3.933   0.556   1.148
    1TCM    cl2 2320   3.655   0.498   1.088
    1TCM     h1 2321   3.849   0.402   0.985
    1TCM    cl3 2322   3.827   0.290   1.195
    1TCM     c1 2323   3.176   2.264   3.635
    1TCM    cl1 2324   3.300   2.353   3.544
    1TCM    cl2 2325   3.179   2.315   3.805
    1TCM     h1 2326   3.076   2.284   3.592
    1TCM    cl3 2327   3.210   2.089   3.625
    1TCM     c1 2328   3.737   2.891   3.589
    1TCM    cl1 2329   3.866   2.882   3.712
    1TCM    cl2 2330   3.708   2.728   3.523
    1TCM     h1 2331   3.644   2.929   3.636
    1TCM    cl3 2332   3.787   3.000   3.459
    1TCM     c1 2333   3.257   4.440   1.770
    1TCM    cl1 2334   3.251   4.618   1.784
    1TCM    cl2 2335   3.249   4.394   1.598
    1TCM     h1 2336   3.352   4.403   1.814
    1TCM    cl3 2337   3.119   4.370   1.857
    1TCM     c1 2338   0.528   1.309   4.235
    1TCM    cl1 2339   0.437   1.157   4.254
    1TCM    cl2 2340   0.522   1.361   4.065
    1TCM     h1 2341   0.483   1.387   4.300
    1TCM    cl3 2342   0.697   1.283   4.284
    1TCM     c1 2343   0.361   1.885   1.628
    1TCM    cl1 2344   0.529   1.864   1.681
    1TCM    cl2 2345   0.319   1.759   1.510
    1TCM     h1 2346   0.293   1.877   1.716
    1TCM    cl3 2347   0.342   2.045   1.553
    1TCM     c1 2348   0.101   2.919   1.358
    1TCM    cl1 2349   0.214   2.803   1.284
    1TCM    cl2 2350   0.094   3.066   1.258
    1TCM     h1 2351   0.000   2.874   1.364
    1TCM    cl3 2352   0.157   2.961   1.521
    1TCM     c1 2353   0.939   3.684   0.105
    1TCM    cl1 2354   0.777   3.666   0.176
    1TCM    cl2 2355   0.943   3.831   0.004
    1TCM     h1 2356   1.014   3.692   0.185
    1TCM    cl3 2357   0.975   3.543   0.003
    1TCM     c1 2358   3.612   1.304   1.487
    1TCM    cl1 2359   3.435   1.321   1.493
    1TCM    cl2 2360   3.657   1.136   1.523
    1TCM     h1 2361   3.648   1.330   1.385
    1TCM    cl3 2362   3.687   1.413   1.606
    1TCM     c1 2363   3.507   1.721   4.716
    1TCM    cl1 2364   3.358   1.630   4.751
    1TCM    cl2 2365   3.619   1.706   4.853
    1TCM     h1 2366   3.554   1.681   4.624
    1TCM    cl3 2367   3.467   1.893   4.691
    1TCM     c1 2368   0.697   3.997   4.311
    1TCM    cl1 2369   0.571   4.121   4.333
    1TCM    cl2 2370   0.844   4.074   4.245
    1TCM     h1 2371   0.721   3.950   4.408
    1TCM    cl3 2372   0.639   3.874   4.197
    1TCM     c1 2373   3.626   3.217   5.182
    1TCM    cl1 2374   3.588   3.129   5.032
    1TCM    cl2 2375   3.515   3.165   5.311
    1TCM     h1 2376   3.730   3.196   5.213
    1TCM    cl3 2377   3.607   3.392   5.155
    1TCM     c1 2378   0.953   2.727   1.514
    1TCM    cl1 2379   0.901   2.575   1.589
    1TCM    cl2 2380   1.126   2.716   1.471
    1TCM     h1 2381   0.894   2.746   1.422
    1TCM    cl3 2382   0.929   2.861   1.628
    1TCM     c1 2383   4.402   5.074   5.200
    1TCM    cl1 2384   4.281   5.094   5.330
    1TCM    cl2 2385   4.563   5.118   5.262
    1TCM     h1 2386   4.403   4.968   5.167
    1TCM    cl3 2387   4.360   5.179   5.063
    1TCM     c1 2388   4.401   1.120   0.293
    1TCM    cl1 2389   4.261   1.155   0.190
    1TCM    cl2 2390   4.346   1.092   0.460
    1TCM     h1 2391   4.454   1.030   0.256
    1TCM    cl3 2392   4.513   1.259   0.291
    1TCM     c1 2393   3.074   0.828   3.491
    1TCM    cl1 2394   3.018   0.830   3.322
    1TCM    cl2 2395   3.183   0.966   3.519
    1TCM     h1 2396   2.987   0.835   3.559
    1TCM    cl3 2397   3.162   0.676   3.522
    1TCM     c1 2398   4.349   1.433   4.918
    1TCM    cl1 2399   4.494   1.535   4.907
    1TCM    cl2 2400   4.348   1.317   4.783
    1TCM     h1 2401   4.350   1.377   5.015
    1TCM    cl3 2402   4.204   1.535   4.910
    1TCM     c1 2403   4.770   2.154   3.826
    1TCM    cl1 2404   4.674   2.004   3.824
    1TCM    cl2 2405   4.687   2.278   3.729
    1TCM     h1 2406   4.781   2.190   3.930
    1TCM    cl3 2407   4.931   2.122   3.756
    1TCM     c1 2408   0.114   4.968   3.726
    1TCM    cl1 2409   0.029   4.921   3.577
    1TCM    cl2 2410   0.265   4.875   3.740
    1TCM     h1 2411   0.137   5.076   3.723
    1TCM    cl3 2412   0.010   4.933   3.867
    1TCM     c1 2413   3.390   0.742   3.843
    1TCM    cl1 2414   3.216   0.744   3.808
    1TCM    cl2 2415   3.478   0.690   3.697
    1TCM     h1 2416   3.424   0.843   3.872
    1TCM    cl3 2417   3.423   0.628   3.976
    1TCM     c1 2418   3.834   3.720   1.633
    1TCM    cl1 2419   3.960   3.812   1.548
    1TCM    cl2 2420   3.833   3.765   1.805
    1TCM     h1 2421   3.735   3.743   1.589
    1TCM    cl3 2422   3.867   3.546   1.618
    1TCM     c1 2423   0.539   0.175   1.383
    1TCM    cl1 2424   0.636   0.045   1.456
    1TCM    cl2 2425   0.396   0.105   1.305
    1TCM     h1 2426   0.508   0.246   1.462
    1TCM    cl3 2427   0.637   0.260   1.262
    1TCM     c1 2428   2.163   3.967   3.693
    1TCM    cl1 2429   2.294   3.940   3.810
    1TCM    cl2 2430   2.210   3.897   3.536
    1TCM     h1 2431   2.070   3.918   3.728
    1TCM    cl3 2432   2.136   4.141   3.674
    1TCM     c1 2433   4.522   3.948   1.344
    1TCM    cl1 2434   4.550   3.927   1.518
    1TCM    cl2 2435   4.652   4.047   1.274
    1TCM     h1 2436   4.520   3.849   1.294
    1TCM    cl3 2437   4.366   4.030   1.319
    1TCM     c1 2438   3.143   4.323   4.585
    1TCM    cl1 2439   2.978   4.274   4.628
    1TCM    cl2 2440   3.257   4.193   4.628
    1TCM     h1 2441   3.149   4.343   4.476
    1TCM    cl3 2442   3.186   4.471   4.674
    1TCM     c1 2443   2.076   1.870   4.792
    1TCM    cl1 2444   1.938   1.976   4.828
    1TCM    cl2 2445   2.048   1.787   4.637
    1TCM     h1 2446   2.169   1.930   4.786
    1TCM    cl3 2447   2.093   1.749   4.922
    1TCM     c1 2448   1.563   3.455   2.048
    1TCM    cl1 2449   1.588   3.599   1.946
    1TCM    cl2 2450   1.530   3.507   2.215
    1TCM     h1 2451   1.477   3.397   2.010
    1TCM    cl3 2452   1.709   3.354   2.046
    1TCM     c1 2453   1.818   0.111   1.489
    1TCM    cl1 2454   1.906   0.081   1.641
    1TCM    cl2 2455   1.935   0.129   1.356
    1TCM     h1 2456   1.750   0.026   1.468
    1TCM    cl3 2457   1.723   0.261   1.505
    1TCM     c1 2458   4.213   4.353   3.796
    1TCM    cl1 2459   4.096   4.425   3.682
    1TCM    cl2 2460   4.144   4.356   3.960
    1TCM     h1 2461   4.234   4.248   3.767
    1TCM    cl3 2462   4.364   4.447   3.794
    1TCM     c1 2463   0.697   1.032   3.798
    1TCM    cl1 2464   0.596   1.002   3.655
    1TCM    cl2 2465   0.644   0.927   3.931
    1TCM     h1 2466   0.803   1.010   3.774
    1TCM    cl3 2467   0.681   1.202   3.847
    1TCM     c1 2468   1.688   4.457   0.707
    1TCM    cl1 2469   1.815   4.580   0.684
    1TCM    cl2 2470   1.576   4.511   0.834
    1TCM     h1 2471   1.632   4.444   0.612
    1TCM    cl3 2472   1.763   4.303   0.755
    1TCM     c1 2473   3.295   0.443   0.174
    1TCM    cl1 2474   3.145   0.423   0.268
    1TCM    cl2 2475   3.256   0.438   0.000
    1TCM     h1 2476   3.341   0.541   0.198
    1TCM    cl3 2477   3.408   0.312   0.213
    1TCM     c1 2478   3.798   0.931   3.290
    1TCM    cl1 2479   3.841   0.924   3.118
    1TCM    cl2 2480   3.945   0.951   3.388
    1TCM     h1 2481   3.730   1.017   3.308
    1TCM    cl3 2482   3.715   0.781   3.337
    1TCM     c1 2483   0.153   4.602   4.004
    1TCM    cl1 2484   0.284   4.504   3.932
    1TCM    cl2 2485   0.220   4.703   4.135
    1TCM     h1 2486   0.109   4.666   3.926
    1TCM    cl3 2487   0.029   4.493   4.070
    1TCM     c1 2488   4.438   1.668   5.262
    1TCM    cl1 2489   4.512   1.819   5.320
    1TCM    cl2 2490   4.417   1.676   5.086
    1TCM     h1 2491   4.504   1.582   5.287
    1TCM    cl3 2492   4.280   1.646   5.340
    1TCM     c1 2493   0.482   0.647   2.771
    1TCM    cl1 2494   0.509   0.644   2.595
    1TCM    cl2 2495   0.375   0.512   2.817
    1TCM     h1 2496   0.580   0.636   2.823
    1TCM    cl3 2497   0.407   0.801   2.817
    1TCM     c1 2498   0.436   2.107   2.213
    1TCM    cl1 2499   0.511   1.958   2.151
    1TCM    cl2 2500   0.432   2.229   2.083
    1TCM     h1 2501   0.333   2.086   2.247
    1TCM    cl3 2502   0.532   2.170   2.349
    1TCM     c1 2503   3.660   2.203   1.688
    1TCM    cl1 2504   3.677   2.171   1.513
    1TCM    cl2 2505   3.803   2.142   1.773
    1TCM     h1 2506   3.651   2.313   1.704
    1TCM    cl3 2507   3.514   2.122   1.749
    1TCM     c1 2508   2.634   0.930   4.338
    1TCM    cl1 2509   2.516   0.980   4.214
    1TCM    cl2 2510   2.560   0.809   4.445
    1TCM     h1 2511   2.723   0.886   4.288
    1TCM    cl3 2512   2.684   1.071   4.433
    1TCM     c1 2513   4.638   2.543   4.918
    1TCM    cl1 2514   4.617   2.674   5.036
    1TCM    cl2 2515   4.530   2.408   4.959
    1TCM     h1 2516   4.612   2.581   4.817
    1TCM    cl3 2517   4.807   2.488   4.920
    1TCM     c1 2518   3.822   0.777   2.867
    1TCM    cl1 2519   3.702   0.766   2.736
    1TCM    cl2 2520   3.910   0.931   2.854
    1TCM     h1 2521   3.770   0.773   2.965
    1TCM    cl3 2522   3.937   0.642   2.855
    1TCM     c1 2523   3.308   2.186   3.302
    1TCM    cl1 2524   3.313   2.030   3.218
    1TCM    cl2 2525   3.305   2.318   3.182
    1TCM     h1 2526   3.217   2.192   3.365
    1TCM    cl3 2527   3.453   2.203   3.403
    1TCM     c1 2528   3.822   1.624   1.491
    1TCM    cl1 2529   3.886   1.773   1.418
    1TCM    cl2 2530   3.732   1.664   1.639
    1TCM     h1 2531   3.754   1.574   1.419
    1TCM    cl3 2532   3.957   1.515   1.531
    1TCM     c1 2533   0.426   3.421   1.589
    1TCM    cl1 2534   0.251   3.426   1.618
    1TCM    cl2 2535   0.462   3.294   1.469
    1TCM     h1 2536   0.459   3.520   1.549
    1TCM    cl3 2537   0.511   3.386   1.741
    1TCM     c1 2538   2.513   3.739   4.570
    1TCM    cl1 2539   2.388   3.757   4.695
    1TCM    cl2 2540   2.459   3.817   4.420
    1TCM     h1 2541   2.607   3.786   4.605
    1TCM    cl3 2542   2.542   3.566   4.539
    1TCM     c1 2543   1.916   1.632   1.987
    1TCM    cl1 2544   2.019   1.746   2.076
    1TCM    cl2 2545   1.961   1.634   1.815
    1TCM     h1 2546   1.931   1.529   2.028
    1TCM    cl3 2547   1.746   1.679   2.005
    1TCM     c1 2548   4.583   2.606   0.358
    1TCM    cl1 2549   4.730   2.623   0.260
    1TCM    cl2 2550   4.627   2.594   0.530
    1TCM     h1 2551   4.518   2.695   0.343
    1TCM    cl3 2552   4.495   2.460   0.309
    1TCM     c1 2553   3.126   4.607   3.567
    1TCM    cl1 2554   2.963   4.595   3.496
    1TCM    cl2 2555   3.216   4.457   3.533
    1TCM     h1 2556   3.180   4.693   3.523
    1TCM    cl3 2557   3.112   4.629   3.743
    1TCM     c1 2558   5.012   3.880   5.223
    1TCM    cl1 2559   4.875   3.789   5.290
    1TCM    cl2 2560   4.994   4.052   5.264
    1TCM     h1 2561   5.107   3.842   5.267
    1TCM    cl3 2562   5.016   3.861   5.047
    1TCM     c1 2563   1.193   2.686   3.340
    1TCM    cl1 2564   1.124   2.555   3.438
    1TCM    cl2 2565   1.172   2.649   3.168
    1TCM     h1 2566   1.141   2.781   3.364
    1TCM    cl3 2567   1.367   2.702   3.377
    1TCM     c1 2568   2.538   2.797   1.297
    1TCM    cl1 2569   2.515   2.895   1.150
    1TCM    cl2 2570   2.416   2.668   1.301
    1TCM     h1 2571   2.639   2.752   1.296
    1TCM    cl3 2572   2.519   2.900   1.440
    1TCM     c1 2573   0.131   3.564   3.586
    1TCM    cl1 2574   0.247   3.572   3.452
    1TCM    cl2 2575   0.000   3.451   3.544
    1TCM     h1 2576   0.182   3.529   3.678
    1TCM    cl3 2577   0.062   3.726   3.615
    1TCM     c1 2578   2.473   4.848   3.305
    1TCM    cl1 2579   2.625   4.799   3.384
    1TCM    cl2 2580   2.338   4.829   3.420
    1TCM     h1 2581   2.480   4.954   3.273
    1TCM    cl3 2582   2.445   4.745   3.163
    1TCM     c1 2583   5.001   2.730   4.196
    1TCM    cl1 2584   5.172   2.779   4.203
    1TCM    cl2 2585   4.898   2.875   4.192
    1TCM     h1 2586   4.983   2.670   4.105
    1TCM    cl3 2587   4.961   2.634   4.340
    1TCM     c1 2588   2.579   2.256   3.580
    1TCM    cl1 2589   2.446   2.139   3.597
    1TCM    cl2 2590   2.599   2.297   3.408
    1TCM     h1 2591   2.555   2.348   3.637
    1TCM    cl3 2592   2.729   2.185   3.642
    1TCM     c1 2593   1.966   0.915   3.900
    1TCM    cl1 2594   1.995   0.788   4.022
    1TCM    cl2 2595   1.921   1.066   3.982
    1TCM     h1 2596   2.059   0.931   3.841
    1TCM    cl3 2597   1.835   0.864   3.792
    1TCM     c1 2598   0.933   0.360   0.892
    1TCM    cl1 2599   0.966   0.516   0.972
    1TCM    cl2 2600   0.968   0.375   0.718
    1TCM     h1 2601   0.998   0.282   0.936
    1TCM    cl3 2602   0.762   0.317   0.915
    1TCM     c1 2603   4.152   1.433   3.650
    1TCM    cl1 2604   4.049   1.577   3.665
    1TCM    cl2 2605   4.186   1.367   3.812
    1TCM     h1 2606   4.100   1.356   3.589
    1TCM    cl3 2607   4.305   1.477   3.571
    1TCM     c1 2608   3.222   4.921   3.407
    1TCM    cl1 2609   3.263   4.780   3.306
    1TCM    cl2 2610   3.055   4.905   3.466
    1TCM     h1 2611   3.291   4.926   3.493
    1TCM    cl3 2612   3.237   5.069   3.310
    1TCM     c1 2613   2.228   2.560   3.110
    1TCM    cl1 2614   2.135   2.434   3.025
    1TCM    cl2 2615   2.117   2.687   3.166
    1TCM     h1 2616   2.279   2.515   3.197
    1TCM    cl3 2617   2.348   2.630   3.000
    1TCM     c1 2618   1.543   0.754   5.235
    1TCM    cl1 2619   1.448   0.862   5.340
    1TCM    cl2 2620   1.487   0.770   5.067
    1TCM     h1 2621   1.651   0.782   5.240
    1TCM    cl3 2622   1.523   0.586   5.288
    1TCM     c1 2623   2.207   4.395   4.397
    1TCM    cl1 2624   2.131   4.403   4.236
    1TCM    cl2 2625   2.164   4.539   4.491
    1TCM     h1 2626   2.172   4.304   4.449
    1TCM    cl3 2627   2.384   4.388   4.378
    1TCM     c1 2628   0.783   3.748   5.056
    1TCM    cl1 2629   0.769   3.875   4.933
    1TCM    cl2 2630   0.621   3.692   5.103
    1TCM     h1 2631   0.841   3.663   5.015
    1TCM    cl3 2632   0.867   3.813   5.199
    1TCM     c1 2633   5.093   3.053   1.876
    1TCM    cl1 2634   5.077   3.196   1.771
    1TCM    cl2 2635   5.087   3.104   2.046
    1TCM     h1 2636   5.010   2.983   1.855
    1TCM    cl3 2637   5.249   2.974   1.843
    1TCM     c1 2638   3.308   1.183   3.598
    1TCM    cl1 2639   3.396   1.303   3.696
    1TCM    cl2 2640   3.364   1.192   3.429
    1TCM     h1 2641   3.328   1.081   3.638
    1TCM    cl3 2642   3.134   1.217   3.605
    1TCM     c1 2643   0.084   1.324   1.834
    1TCM    cl1 2644   0.252   1.270   1.855
    1TCM    cl2 2645   0.000   1.320   1.991
    1TCM     h1 2646   0.083   1.427   1.794
    1TCM    cl3 2647   0.000   1.215   1.720
    1TCM     c1 2648   1.566   0.141   1.245
    1TCM    cl1 2649   1.413   0.088   1.171
    1TCM    cl2 2650   1.674   0.002   1.263
    1TCM     h1 2651   1.613   0.217   1.180
    1TCM    cl3 2652   1.533   0.212   1.405
    1TCM     c1 2653   2.758   2.932   3.888
    1TCM    cl1 2654   2.834   2.815   3.998
    1TCM    cl2 2655   2.884   3.031   3.811
    1TCM     h1 2656   2.701   2.878   3.810
    1TCM    cl3 2657   2.649   3.038   3.980
    1TCM     c1 2658   5.127   3.329   1.245
    1TCM    cl1 2659   5.193   3.463   1.149
    1TCM    cl2 2660   5.029   3.395   1.378
    1TCM     h1 2661   5.064   3.265   1.181
    1TCM    cl3 2662   5.261   3.233   1.312
    1TCM     c1 2663   1.888   0.289   0.193
    1TCM    cl1 2664   1.756   0.170   0.203
    1TCM    cl2 2665   2.014   0.229   0.082
    1TCM     h1 2666   1.848   0.385   0.155
    1TCM    cl3 2667   1.959   0.313   0.354
    1TCM     c1 2668   1.118   1.899   2.983
    1TCM    cl1 2669   1.090   1.725   2.958
    1TCM    cl2 2670   1.283   1.924   3.047
    1TCM     h1 2671   1.108   1.953   2.886
    1TCM    cl3 2672   1.000   1.963   3.099
    1TCM     c1 2673   2.691   3.846   2.453
    1TCM    cl1 2674   2.835   3.765   2.386
    1TCM    cl2 2675   2.741   3.987   2.549
    1TCM     h1 2676   2.625   3.880   2.370
    1TCM    cl3 2677   2.602   3.733   2.557
    1TCM     c1 2678   1.527   0.713   3.000
    1TCM    cl1 2679   1.424   0.858   2.990
    1TCM    cl2 2680   1.538   0.659   3.169
    1TCM     h1 2681   1.482   0.632   2.939
    1TCM    cl3 2682   1.689   0.751   2.939
    1TCM     c1 2683   5.135   5.030   2.830
    1TCM    cl1 2684   5.098   4.908   2.706
    1TCM    cl2 2685   5.157   4.950   2.988
    1TCM     h1 2686   5.229   5.083   2.803
    1TCM    cl3 2687   5.001   5.146   2.841
    1TCM     c1 2688   2.629   3.894   3.233
    1TCM    cl1 2689   2.489   3.936   3.335
    1TCM    cl2 2690   2.646   4.016   3.104
    1TCM     h1 2691   2.720   3.892   3.295
    1TCM    cl3 2692   2.603   3.734   3.160
    1TCM     c1 2693   5.024   5.005   0.274
    1TCM    cl1 2694   4.918   5.039   0.136
    1TCM    cl2 2695   5.064   4.832   0.277
    1TCM     h1 2696   5.117   5.064   0.265
    1TCM    cl3 2697   4.940   5.049   0.425
    1TCM     c1 2698   1.541   4.065   5.169
    1TCM    cl1 2699   1.391   4.051   5.075
    1TCM    cl2 2700   1.630   3.912   5.161
    1TCM     h1 2701   1.603   4.147   5.128
    1TCM    cl3 2702   1.501   4.102   5.339
    1TCM     c1 2703   0.480   1.917   3.519
    1TCM    cl1 2704   0.324   1.856   3.460
    1TCM    cl2 2705   0.480   1.919   3.697
    1TCM     h1 2706   0.562   1.851   3.483
    1TCM    cl3 2707   0.506   2.082   3.457
    1TCM     c1 2708   4.636   0.366   4.811
    1TCM    cl1 2709   4.583   0.505   4.908
    1TCM    cl2 2710   4.662   0.418   4.643
    1TCM     h1 2711   4.731   0.326   4.852
    1TCM    cl3 2712   4.511   0.240   4.815
    1TCM     c1 2713   4.344   2.428   2.479
    1TCM    cl1 2714   4.261   2.305   2.576
    1TCM    cl2 2715   4.487   2.487   2.567
    1TCM     h1 2716   4.376   2.384   2.382
    1TCM    cl3 2717   4.234   2.564   2.448
    1TCM     c1 2718   3.477   4.750   1.720
    1TCM    cl1 2719   3.557   4.618   1.631
    1TCM    cl2 2720   3.586   4.891   1.726
    1TCM     h1 2721   3.383   4.778   1.668
    1TCM    cl3 2722   3.441   4.697   1.886
    1TCM     c1 2723   5.205   5.170   0.754
    1TCM    cl1 2724   5.211   5.340   0.700
    1TCM    cl2 2725   5.036   5.121   0.776
    1TCM     h1 2726   5.253   5.106   0.678
    1TCM    cl3 2727   5.292   5.155   0.908
    1TCM     c1 2728   3.975   5.147   0.260
    1TCM    cl1 2729   4.019   5.087   0.421
    1TCM    cl2 2730   4.122   5.185   0.169
    1TCM     h1 2731   3.917   5.068   0.206
    1TCM    cl3 2732   3.875   5.293   0.276
    1TCM     c1 2733   0.705   5.227   2.441
    1TCM    cl1 2734   0.613   5.340   2.543
    1TCM    cl2 2735   0.694   5.278   2.271
    1TCM     h1 2736   0.812   5.227   2.473
    1TCM    cl3 2737   0.638   5.063   2.459
    1TCM     c1 2738   2.875   5.153   4.386
    1TCM    cl1 2739   2.800   5.273   4.279
    1TCM    cl2 2740   2.952   5.026   4.289
    1TCM     h1 2741   2.951   5.202   4.450
    1TCM    cl3 2742   2.749   5.080   4.490
    1TCM     c1 2743   4.412   4.192   1.838
    1TCM    cl1 2744   4.273   4.198   1.727
    1TCM    cl2 2745   4.354   4.207   2.006
    1TCM     h1 2746   4.465   4.096   1.826
    1TCM    cl3 2747   4.522   4.327   1.802
    1TCM     c1 2748   3.277   3.672   4.888
    1TCM    cl1 2749   3.349   3.576   5.019
    1TCM    cl2 2750   3.298   3.587   4.733
    1TCM     h1 2751   3.169   3.687   4.908
    1TCM    cl3 2752   3.358   3.830   4.879
    1TCM     c1 2753   2.767   0.534   4.352
    1TCM    cl1 2754   2.685   0.512   4.508
    1TCM    cl2 2755   2.731   0.396   4.246
    1TCM     h1 2756   2.732   0.627   4.304
    1TCM    cl3 2757   2.943   0.544   4.378
    1TCM     c1 2758   3.345   3.351   1.816
    1TCM    cl1 2759   3.488   3.436   1.752
    1TCM    cl2 2760   3.329   3.386   1.990
    1TCM     h1 2761   3.255   3.386   1.763
    1TCM    cl3 2762   3.365   3.176   1.793
    1TCM     c1 2763   0.182   3.081   3.550
    1TCM    cl1 2764   0.315   2.984   3.482
    1TCM    cl2 2765   0.211   3.109   3.723
    1TCM     h1 2766   0.176   3.178   3.497
    1TCM    cl3 2767   0.028   2.994   3.529
    1TCM     c1 2768   1.510   3.839   3.104
    1TCM    cl1 2769   1.601   3.868   3.255
    1TCM    cl2 2770   1.515   3.986   3.004
    1TCM     h1 2771   1.556   3.755   3.049
    1TCM    cl3 2772   1.342   3.800   3.143
    1TCM     c1 2773   2.847   4.221   1.746
    1TCM    cl1 2774   2.714   4.104   1.759
    1TCM    cl2 2775   2.921   4.245   1.906
    1TCM     h1 2776   2.924   4.183   1.676
    1TCM    cl3 2777   2.785   4.377   1.687
    1TCM     c1 2778   5.141   1.676   2.963
    1TCM    cl1 2779   5.078   1.636   2.802
    1TCM    cl2 2780   5.318   1.659   2.964
    1TCM     h1 2781   5.114   1.781   2.988
    1TCM    cl3 2782   5.070   1.566   3.084
    1TCM     c1 2783   4.441   3.475   3.037
    1TCM    cl1 2784   4.566   3.349   3.044
    1TCM    cl2 2785   4.297   3.420   3.126
    1TCM     h1 2786   4.479   3.568   3.083
    1TCM    cl3 2787   4.397   3.507   2.868
    1TCM     c1 2788   2.731   4.932   2.627
    1TCM    cl1 2789   2.868   4.819   2.623
    1TCM    cl2 2790   2.735   5.023   2.780
    1TCM     h1 2791   2.738   5.003   2.542
    1TCM    cl3 2792   2.578   4.841   2.616
    1TCM     c1 2793   2.995   3.187   2.427
    1TCM    cl1 2794   2.918   3.053   2.338
    1TCM    cl2 2795   3.161   3.210   2.367
    1TCM     h1 2796   2.937   3.280   2.411
    1TCM    cl3 2797   3.000   3.148   2.600
    1TCM     c1 2798   1.917   3.509   4.156
    1TCM    cl1 2799   1.903   3.653   4.053
    1TCM    cl2 2800   1.942   3.558   4.325
    1TCM     h1 2801   1.824   3.448   4.148
    1TCM    cl3 2802   2.055   3.411   4.101
    1TCM     c1 2803   4.989   1.871   0.518
    1TCM    cl1 2804   5.010   1.845   0.343
    1TCM    cl2 2805   4.945   1.717   0.596
    1TCM     h1 2806   5.083   1.909   0.562
    1TCM    cl3 2807   4.859   1.990   0.544
    1TCM     c1 2808   2.045   3.086   2.144
    1TCM    cl1 2809   2.184   3.123   2.248
    1TCM    cl2 2810   2.102   3.048   1.980
    1TCM     h1 2811   1.990   2.999   2.185
    1TCM    cl3 2812   1.936   3.226   2.138
    1TCM     c1 2813   1.992   0.949   4.969
    1TCM    cl1 2814   2.041   1.117   4.935
    1TCM    cl2 2815   2.112   0.838   4.899
    1TCM     h1 2816   1.987   0.934   5.079
    1TCM    cl3 2817   1.833   0.918   4.897
    1TCM     c1 2818   0.296   5.092   3.999
    1TCM    cl1 2819   0.363   5.211   4.113
    1TCM    cl2 2820   0.328   5.145   3.832
    1TCM     h1 2821   0.343   4.993   4.016
    1TCM    cl3 2822   0.120   5.079   4.024
    1TCM     c1 2823   1.660   4.494   1.729
    1TCM    cl1 2824   1.651   4.628   1.613
    1TCM    cl2 2825   1.827   4.477   1.788
    1TCM     h1 2826   1.593   4.514   1.814
    1TCM    cl3 2827   1.610   4.343   1.648
    1TCM     c1 2828   4.937   0.989   4.264
    1TCM    cl1 2829   4.846   0.898   4.386
    1TCM    cl2 2830   4.862   0.967   4.104
    1TCM     h1 2831   4.936   1.097   4.290
    1TCM    cl3 2832   5.105   0.931   4.259
    1TCM     c1 2833   2.344   3.224   0.252
    1TCM    cl1 2834   2.372   3.311   0.100
    1TCM    cl2 2835   2.271   3.334   0.371
    1TCM     h1 2836   2.275   3.138   0.234
    1TCM    cl3 2837   2.498   3.162   0.315
    1TCM     c1 2838   2.678   4.256   1.399
    1TCM    cl1 2839   2.720   4.426   1.432
    1TCM    cl2 2840   2.698   4.223   1.225
    1TCM     h1 2841   2.745   4.190   1.457
    1TCM    cl3 2842   2.509   4.227   1.446
    1TCM     c1 2843   1.675   0.945   4.108
    1TCM    cl1 2844   1.783   0.818   4.170
    1TCM    cl2 2845   1.714   0.976   3.937
    1TCM     h1 2846   1.570   0.911   4.117
    1TCM    cl3 2847   1.698   1.094   4.203
    1TCM     c1 2848   1.619   1.214   2.951
    1TCM    cl1 2849   1.688   1.243   2.789
    1TCM    cl2 2850   1.630   1.041   2.990
    1TCM     h1 2851   1.676   1.272   3.026
    1TCM    cl3 2852   1.449   1.264   2.953
    1TCM     c1 2853   1.991   3.193   3.480
    1TCM    cl1 2854   1.962   3.171   3.306
    1TCM    cl2 2855   2.034   3.362   3.512
    1TCM     h1 2856   1.899   3.167   3.536
    1TCM    cl3 2857   2.124   3.087   3.532
    1TCM     c1 2858   3.862   4.285   3.042
    1TCM    cl1 2859   3.808   4.428   3.134
    1TCM    cl2 2860   3.881   4.329   2.871
    1TCM     h1 2861   3.959   4.250   3.082
    1TCM    cl3 2862   3.740   4.156   3.057
    1TCM     c1 2863   2.703   5.133   0.535
    1TCM    cl1 2864   2.880   5.127   0.514
    1TCM    cl2 2865   2.651   5.302   0.553
    1TCM     h1 2866   2.654   5.088   0.447
    1TCM    cl3 2867   2.658   5.042   0.681
    1TCM     c1 2868   1.651   3.806   4.113
    1TCM    cl1 2869   1.773   3.935   4.105
    1TCM    cl2 2870   1.699   3.688   4.237
    1TCM     h1 2871   1.553   3.850   4.140
    1TCM    cl3 2872   1.640   3.726   3.955
    1TCM     c1 2873   2.369   2.237   1.331
    1TCM    cl1 2874   2.509   2.342   1.363
    1TCM    cl2 2875   2.233   2.336   1.273
    1TCM     h1 2876   2.396   2.162   1.253
    1TCM    cl3 2877   2.322   2.153   1.480
    1TCM     c1 2878   3.139   0.138   3.825
    1TCM    cl1 2879   3.187   0.079   3.986
    1TCM    cl2 2880   3.124   0.315   3.829
    1TCM     h1 2881   3.217   0.110   3.751
    1TCM    cl3 2882   2.983   0.067   3.779
    1TCM     c1 2883   2.094   1.240   2.106
    1TCM    cl1 2884   2.109   1.353   1.969
    1TCM    cl2 2885   1.957   1.291   2.209
    1TCM     h1 2886   2.075   1.138   2.068
    1TCM    cl3 2887   2.244   1.242   2.201
    1TCM     c1 2888   2.332   2.800   0.414
    1TCM    cl1 2889   2.207   2.860   0.526
    1TCM    cl2 2890   2.278   2.827   0.247
    1TCM     h1 2891   2.427   2.855   0.432
    1TCM    cl3 2892   2.358   2.627   0.442
    1TCM     c1 2893   3.605   2.511   4.373
    1TCM    cl1 2894   3.692   2.661   4.412
    1TCM    cl2 2895   3.720   2.390   4.311
    1TCM     h1 2896   3.556   2.472   4.465
    1TCM    cl3 2897   3.482   2.544   4.249
    1TCM     c1 2898   0.768   0.434   1.996
    1TCM    cl1 2899   0.625   0.408   1.893
    1TCM    cl2 2900   0.729   0.388   2.163
    1TCM     h1 2901   0.852   0.371   1.959
    1TCM    cl3 2902   0.815   0.605   1.991
    1TCM     c1 2903   0.072   2.892   3.876
    1TCM    cl1 2904   0.094   3.064   3.915
    1TCM    cl2 2905   0.008   2.807   4.019
    1TCM     h1 2906   0.001   2.882   3.792
    1TCM    cl3 2907   0.229   2.821   3.831
    1TCM     c1 2908   4.295   4.859   0.798
    1TCM    cl1 2909   4.326   4.859   0.973
    1TCM    cl2 2910   4.332   5.020   0.732
    1TCM     h1 2911   4.359   4.783   0.749
    1TCM    cl3 2912   4.124   4.821   0.768
    1TCM     c1 2913   0.298   4.308   1.104
    1TCM    cl1 2914   0.250   4.136   1.102
    1TCM    cl2 2915   0.166   4.407   1.038
    1TCM     h1 2916   0.319   4.339   1.209
    1TCM    cl3 2917   0.444   4.330   1.005
    1TCM     c1 2918   2.195   2.353   3.822
    1TCM    cl1 2919   2.264   2.386   3.661
    1TCM    cl2 2920   2.327   2.329   3.938
    1TCM     h1 2921   2.133   2.440   3.853
    1TCM    cl3 2922   2.095   2.207   3.815
    1TCM     c1 2923   0.579   4.090   1.298
    1TCM    cl1 2924   0.473   4.122   1.159
    1TCM    cl2 2925   0.519   4.178   1.440
    1TCM     h1 2926   0.579   3.981   1.320
    1TCM    cl3 2927   0.744   4.144   1.260
    1TCM     c1 2928   1.465   3.891   0.406
    1TCM    cl1 2929   1.317   3.868   0.502
    1TCM    cl2 2930   1.588   3.774   0.458
    1TCM     h1 2931   1.442   3.876   0.299
    1TCM    cl3 2932   1.527   4.056   0.431
    1TCM     c1 2933   3.181   2.127   2.551
    1TCM    cl1 2934   3.322   2.021   2.531
    1TCM    cl2 2935   3.177   2.246   2.419
    1TCM     h1 2936   3.088   2.066   2.549
    1TCM    cl3 2937   3.193   2.212   2.707
    1TCM     c1 2938   1.915   2.761   2.490
    1TCM    cl1 2939   2.047   2.765   2.608
    1TCM    cl2 2940   1.759   2.763   2.576
    1TCM     h1 2941   1.921   2.849   2.424
    1TCM    cl3 2942   1.926   2.613   2.392
    1TCM     c1 2943   3.414   5.126   2.099
    1TCM    cl1 2944   3.349   5.244   1.982
    1TCM    cl2 2945   3.280   5.041   2.178
    1TCM     h1 2946   3.478   5.053   2.045
    1TCM    cl3 2947   3.511   5.211   2.221
    1TCM     c1 2948   1.045   2.540   4.403
    1TCM    cl1 2949   1.154   2.628   4.513
    1TCM    cl2 2950   1.078   2.589   4.235
    1TCM     h1 2951   1.062   2.431   4.414
    1TCM    cl3 2952   0.876   2.578   4.444
    1TCM     c1 2953   4.626   3.900   4.932
    1TCM    cl1 2954   4.688   3.759   5.021
    1TCM    cl2 2955   4.720   3.920   4.782
    1TCM     h1 2956   4.519   3.884   4.906
    1TCM    cl3 2957   4.642   4.046   5.032
    1TCM     c1 2958   4.920   1.880   4.164
    1TCM    cl1 2959   5.087   1.821   4.186
    1TCM    cl2 2960   4.870   1.855   3.995
    1TCM     h1 2961   4.852   1.824   4.232
    1TCM    cl3 2962   4.913   2.054   4.203
    1TCM     c1 2963   4.124   2.242   2.864
    1TCM    cl1 2964   4.027   2.390   2.843
    1TCM    cl2 2965   4.148   2.164   2.706
    1TCM     h1 2966   4.223   2.268   2.907
    1TCM    cl3 2967   4.039   2.130   2.973
    1TCM     c1 2968   1.468   2.829   5.169
    1TCM    cl1 2969   1.451   2.998   5.221
    1TCM    cl2 2970   1.311   2.746   5.185
    1TCM     h1 2971   1.501   2.826   5.063
    1TCM    cl3 2972   1.589   2.747   5.270
    1TCM     c1 2973   3.665   2.146   3.134
    1TCM    cl1 2974   3.511   2.231   3.108
    1TCM    cl2 2975   3.724   2.179   3.299
    1TCM     h1 2976   3.650   2.037   3.121
    1TCM    cl3 2977   3.785   2.204   3.016
    1TCM     c1 2978   2.756   4.872   1.046
    1TCM    cl1 2979   2.708   5.028   1.116
    1TCM    cl2 2980   2.668   4.846   0.894
    1TCM     h1 2981   2.865   4.872   1.027
    1TCM    cl3 2982   2.716   4.741   1.161
    1TCM     c1 2983   1.659   3.845   0.893
    1TCM    cl1 2984   1.822   3.791   0.939
    1TCM    cl2 2985   1.619   3.784   0.731
    1TCM     h1 2986   1.585   3.806   0.966
    1TCM    cl3 2987   1.653   4.023   0.893
    1TCM     c1 2988   5.072   3.220   5.124
    1TCM    cl1 2989   5.004   3.342   5.234
    1TCM    cl2 2990   4.957   3.086   5.107
    1TCM     h1 2991   5.091   3.266   5.025
    1TCM    cl3 2992   5.225   3.159   5.191
    1TCM     c1 2993   2.952   5.036   3.102
    1TCM    cl1 2994   3.037   5.191   3.082
    1TCM    cl2 2995   2.882   4.986   2.947
    1TCM     h1 2996   3.023   4.959   3.138
    1TCM    cl3 2997   2.822   5.055   3.222
    1TCM     c1 2998   4.804   3.873   3.671
    1TCM    cl1 2999   4.771   3.847   3.843
    1TCM    cl2 3000   4.652   3.908   3.586
    1TCM     h1 3001   4.874   3.958   3.659
    1TCM    cl3 3002   4.878   3.726   3.602
    1TCM     c1 3003   1.667   0.926   3.207
    1TCM    cl1 3004   1.807   1.018   3.147
    1TCM    cl2 3005   1.544   1.038   3.269
    1TCM     h1 3006   1.623   0.867   3.123
    1TCM    cl3 3007   1.718   0.816   3.337
    1TCM     c1 3008   3.318   2.737   4.577
    1TCM    cl1 3009   3.459   2.844   4.557
    1TCM    cl2 3010   3.284   2.656   4.422
    1TCM     h1 3011   3.340   2.661   4.654
    1TCM    cl3 3012   3.177   2.833   4.626
    1TCM     c1 3013   2.353   4.269   0.620
    1TCM    cl1 3014   2.476   4.205   0.508
    1TCM    cl2 3015   2.425   4.290   0.781
    1TCM     h1 3016   2.316   4.366   0.582
    1TCM    cl3 3017   2.218   4.154   0.630
    1TCM     c1 3018   3.240   1.592   0.302
    1TCM    cl1 3019   3.356   1.687   0.205
    1TCM    cl2 3020   3.157   1.475   0.198
    1TCM     h1 3021   3.295   1.539   0.382
    1TCM    cl3 3022   3.121   1.702   0.375
    1TCM     c1 3023   2.381   1.753   4.034
    1TCM    cl1 3024   2.409   1.806   4.201
    1TCM    cl2 3025   2.218   1.801   3.983
    1TCM     h1 3026   2.456   1.801   3.967
    1TCM    cl3 3027   2.397   1.577   4.024
    1TCM     c1 3028   1.193   0.828   2.630
    1TCM    cl1 3029   1.308   0.754   2.516
    1TCM    cl2 3030   1.137   0.984   2.566
    1TCM     h1 3031   1.106   0.760   2.644
    1TCM    cl3 3032   1.273   0.854   2.787
    1TCM     c1 3033   2.825   4.331   5.121
    1TCM    cl1 3034   2.778   4.268   5.281
    1TCM    cl2 3035   2.678   4.366   5.027
    1TCM     h1 3036   2.884   4.423   5.134
    1TCM    cl3 3037   2.922   4.208   5.036
    1TCM     c1 3038   2.314   4.478   1.619
    1TCM    cl1 3039   2.144   4.522   1.649
    1TCM    cl2 3040   2.371   4.561   1.472
    1TCM     h1 3041   2.376   4.510   1.706
    1TCM    cl3 3042   2.328   4.302   1.597
    1TCM     c1 3043   0.968   2.567   5.142
    1TCM    cl1 3044   0.818   2.533   5.231
    1TCM    cl2 3045   0.969   2.476   4.989
    1TCM     h1 3046   0.975   2.675   5.121
    1TCM    cl3 3047   1.108   2.517   5.240
    1TCM     c1 3048   1.707   1.200   1.843
    1TCM    cl1 3049   1.639   1.313   1.724
    1TCM    cl2 3050   1.575   1.105   1.915
    1TCM     h1 3051   1.778   1.132   1.793
    1TCM    cl3 3052   1.790   1.291   1.971
    1TCM     c1 3053   0.520   3.625   3.644
    1TCM    cl1 3054   0.394   3.750   3.640
    1TCM    cl2 3055   0.587   3.603   3.480
    1TCM     h1 3056   0.601   3.656   3.713
    1TCM    cl3 3057   0.449   3.471   3.699
    1TCM     c1 3058   2.325   0.083   1.397
    1TCM    cl1 3059   2.317   0.257   1.364
    1TCM    cl2 3060   2.481   0.019   1.340
    1TCM     h1 3061   2.316   0.065   1.506
    1TCM    cl3 3062   2.193   0.000   1.312
    1TCM     c1 3063   0.259   0.163   3.832
    1TCM    cl1 3064   0.368   0.072   3.938
    1TCM    cl2 3065   0.243   0.080   3.675
    1TCM     h1 3066   0.159   0.171   3.880
    1TCM    cl3 3067   0.325   0.326   3.805
    1TCM     c1 3068   3.249   4.023   1.534
    1TCM    cl1 3069   3.383   4.122   1.597
    1TCM    cl2 3070   3.282   3.851   1.565
    1TCM     h1 3071   3.155   4.052   1.584
    1TCM    cl3 3072   3.234   4.049   1.359
    1TCM     c1 3073   4.640   4.325   3.841
    1TCM    cl1 3074   4.563   4.472   3.904
    1TCM    cl2 3075   4.739   4.250   3.969
    1TCM     h1 3076   4.562   4.253   3.809
    1TCM    cl3 3077   4.744   4.366   3.703
    1TCM     c1 3078   0.950   3.728   0.397
    1TCM    cl1 3079   0.934   3.559   0.343
    1TCM    cl2 3080   0.874   3.836   0.277
    1TCM     h1 3081   0.900   3.740   0.495
    1TCM    cl3 3082   1.122   3.769   0.412
    1TCM     c1 3083   5.126   2.333   5.095
    1TCM    cl1 3084   5.063   2.266   5.248
    1TCM    cl2 3085   5.302   2.356   5.109
    1TCM     h1 3086   5.104   2.262   5.013
    1TCM    cl3 3087   5.048   2.489   5.062
    1TCM     c1 3088   0.993   5.025   2.480
    1TCM    cl1 3089   0.924   5.099   2.626
    1TCM    cl2 3090   0.980   5.140   2.344
    1TCM     h1 3091   1.100   5.001   2.498
    1TCM    cl3 3092   0.904   4.877   2.441
    1TCM     c1 3093   1.014   1.249   4.196
    1TCM    cl1 3094   0.922   1.333   4.323
    1TCM    cl2 3095   0.945   1.288   4.037
    1TCM     h1 3096   1.120   1.283   4.199
    1TCM    cl3 3097   1.006   1.074   4.223
    1TCM     c1 3098   3.912   2.699   4.214
    1TCM    cl1 3099   3.789   2.628   4.107
    1TCM    cl2 3100   3.905   2.620   4.372
    1TCM     h1 3101   4.013   2.684   4.169
    1TCM    cl3 3102   3.881   2.873   4.233
    1TCM     c1 3103   2.294   3.525   5.214
    1TCM    cl1 3104   2.442   3.547   5.117
    1TCM    cl2 3105   2.183   3.416   5.127
    1TCM     h1 3106   2.320   3.480   5.312
    1TCM    cl3 3107   2.215   3.682   5.238
    1TCM     c1 3108   1.279   0.595   0.980
    1TCM    cl1 3109   1.277   0.612   0.803
    1TCM    cl2 3110   1.253   0.754   1.055
    1TCM     h1 3111   1.199   0.526   1.012
    1TCM    cl3 3112   1.437   0.531   1.031
    1TCM     c1 3113   0.413   3.661   0.567
    1TCM    cl1 3114   0.473   3.632   0.402
    1TCM    cl2 3115   0.406   3.507   0.655
    1TCM     h1 3116   0.481   3.730   0.619
    1TCM    cl3 3117   0.250   3.732   0.558
    1TCM     c1 3118   3.218   1.683   3.451
    1TCM    cl1 3119   3.214   1.826   3.345
    1TCM    cl2 3120   3.216   1.536   3.352
    1TCM     h1 3121   3.310   1.685   3.512
    1TCM    cl3 3122   3.076   1.685   3.558
    1TCM     c1 3123   2.851   4.764   0.324
    1TCM    cl1 3124   2.927   4.869   0.202
    1TCM    cl2 3125   2.823   4.603   0.255
    1TCM     h1 3126   2.917   4.756   0.412
    1TCM    cl3 3127   2.695   4.835   0.373
    1TCM     c1 3128   3.741   3.531   3.399
    1TCM    cl1 3129   3.917   3.524   3.422
    1TCM    cl2 3130   3.703   3.644   3.267
    1TCM     h1 3131   3.703   3.430   3.374
    1TCM    cl3 3132   3.664   3.588   3.549
    1TCM     c1 3133   2.954   3.947   0.987
    1TCM    cl1 3134   3.005   4.105   1.051
    1TCM    cl2 3135   2.776   3.943   0.973
    1TCM     h1 3136   2.999   3.931   0.887
    1TCM    cl3 3137   3.007   3.818   1.097
    1TCM     c1 3138   4.481   4.353   1.194
    1TCM    cl1 3139   4.488   4.447   1.043
    1TCM    cl2 3140   4.642   4.287   1.231
    1TCM     h1 3141   4.447   4.418   1.277
    1TCM    cl3 3142   4.365   4.219   1.174
    1TCM     c1 3143   4.571   3.078   0.264
    1TCM    cl1 3144   4.514   3.224   0.346
    1TCM    cl2 3145   4.730   3.031   0.329
    1TCM     h1 3146   4.499   2.995   0.280
    1TCM    cl3 3147   4.587   3.109   0.090
    1TCM     c1 3148   2.927   1.033   2.247
    1TCM    cl1 3149   2.829   0.900   2.314
    1TCM    cl2 3150   2.836   1.115   2.119
    1TCM     h1 3151   2.951   1.105   2.328
    1TCM    cl3 3152   3.078   0.967   2.180
    1TCM     c1 3153   3.444   4.584   2.996
    1TCM    cl1 3154   3.463   4.725   2.891
    1TCM    cl2 3155   3.355   4.631   3.143
    1TCM     h1 3156   3.388   4.505   2.943
    1TCM    cl3 3157   3.604   4.521   3.042
    1TCM     c1 3158   3.725   3.480   3.940
    1TCM    cl1 3159   3.818   3.578   4.056
    1TCM    cl2 3160   3.738   3.308   3.984
    1TCM     h1 3161   3.618   3.511   3.943
    1TCM    cl3 3162   3.789   3.505   3.776
    1TCM     c1 3163   4.170   0.315   0.218
    1TCM    cl1 3164   4.319   0.303   0.315
    1TCM    cl2 3165   4.200   0.248   0.056
    1TCM     h1 3166   4.089   0.257   0.268
    1TCM    cl3 3167   4.121   0.485   0.204
    1TCM     c1 3168   3.263   3.174   3.468
    1TCM    cl1 3169   3.369   3.100   3.591
    1TCM    cl2 3170   3.336   3.155   3.307
    1TCM     h1 3171   3.164   3.123   3.470
    1TCM    cl3 3172   3.242   3.347   3.504
    1TCM     c1 3173   0.660   2.615   1.922
    1TCM    cl1 3174   0.784   2.695   1.823
    1TCM    cl2 3175   0.636   2.448   1.863
    1TCM     h1 3176   0.693   2.612   2.027
    1TCM    cl3 3177   0.507   2.704   1.909
    1TCM     c1 3178   5.193   4.296   3.023
    1TCM    cl1 3179   5.202   4.455   2.945
    1TCM    cl2 3180   5.244   4.311   3.193
    1TCM     h1 3181   5.088   4.259   3.020
    1TCM    cl3 3182   5.299   4.181   2.939
    1TCM     c1 3183   2.318   3.524   1.564
    1TCM    cl1 3184   2.437   3.479   1.440
    1TCM    cl2 3185   2.394   3.517   1.725
    1TCM     h1 3186   2.281   3.626   1.545
    1TCM    cl3 3187   2.181   3.410   1.559
    1TCM     c1 3188   5.087   1.372   2.448
    1TCM    cl1 3189   5.129   1.503   2.336
    1TCM    cl2 3190   5.235   1.296   2.509
    1TCM     h1 3191   5.029   1.413   2.533
    1TCM    cl3 3192   4.989   1.250   2.363
    1TCM     c1 3193   4.192   3.120   4.000
    1TCM    cl1 3194   4.036   3.061   4.060
    1TCM    cl2 3195   4.315   2.993   4.020
    1TCM     h1 3196   4.183   3.146   3.892
    1TCM    cl3 3197   4.241   3.264   4.092
    1TCM     c1 3198   1.609   3.549   3.479
    1TCM    cl1 3199   1.660   3.656   3.347
    1TCM    cl2 3200   1.629   3.380   3.429
    1TCM     h1 3201   1.670   3.569   3.569
    1TCM    cl3 3202   1.437   3.579   3.516
    1TCM     c1 3203   2.553   3.267   2.633
    1TCM    cl1 3204   2.455   3.182   2.755
    1TCM    cl2 3205   2.724   3.264   2.682
    1TCM     h1 3206   2.542   3.216   2.535
    1TCM    cl3 3207   2.498   3.435   2.619
    1TCM     c1 3208   1.894   2.893   0.172
    1TCM    cl1 3209   1.794   2.783   0.270
    1TCM    cl2 3210   1.875   2.854   0.000
    1TCM     h1 3211   1.862   2.998   0.191
    1TCM    cl3 3212   2.065   2.874   0.218
    1TCM     c1 3213   4.822   0.836   2.892
    1TCM    cl1 3214   4.776   0.671   2.940
    1TCM    cl2 3215   4.722   0.888   2.755
    1TCM     h1 3216   4.806   0.905   2.978
    1TCM    cl3 3217   4.993   0.839   2.846
    1TCM     c1 3218   4.888   2.048   1.279
    1TCM    cl1 3219   4.761   2.018   1.158
    1TCM    cl2 3220   4.843   2.190   1.377
    1TCM     h1 3221   4.898   1.959   1.345
    1TCM    cl3 3222   5.042   2.079   1.197
    1TCM     c1 3223   3.204   4.080   0.418
    1TCM    cl1 3224   3.253   3.921   0.480
    1TCM    cl2 3225   3.232   4.087   0.243
    1TCM     h1 3226   3.096   4.096   0.439
    1TCM    cl3 3227   3.300   4.207   0.498
    1TCM     c1 3228   2.738   4.027   3.597
    1TCM    cl1 3229   2.823   4.000   3.751
    1TCM    cl2 3230   2.841   3.974   3.462
    1TCM     h1 3231   2.643   3.969   3.597
    1TCM    cl3 3232   2.701   4.201   3.580
    1TCM     c1 3233   2.043   4.559   2.224
    1TCM    cl1 3234   2.067   4.391   2.170
    1TCM    cl2 3235   2.005   4.560   2.398
    1TCM     h1 3236   2.136   4.617   2.206
    1TCM    cl3 3237   1.909   4.632   2.134
    1TCM     c1 3238   1.603   1.706   0.694
    1TCM    cl1 3239   1.453   1.694   0.788
    1TCM    cl2 3240   1.689   1.856   0.736
    1TCM     h1 3241   1.668   1.618   0.716
    1TCM    cl3 3242   1.564   1.707   0.520
    1TCM     c1 3243   0.277   2.833   4.381
    1TCM    cl1 3244   0.312   2.998   4.326
    1TCM    cl2 3245   0.315   2.718   4.251
    1TCM     h1 3246   0.340   2.810   4.470
    1TCM    cl3 3247   0.105   2.820   4.424
    1TCM     c1 3248   0.501   1.615   4.678
    1TCM    cl1 3249   0.550   1.765   4.760
    1TCM    cl2 3250   0.584   1.477   4.754
    1TCM     h1 3251   0.391   1.602   4.687
    1TCM    cl3 3252   0.546   1.624   4.506
    1TCM     c1 3253   5.031   2.941   0.634
    1TCM    cl1 3254   5.004   2.951   0.810
    1TCM    cl2 3255   5.040   2.770   0.585
    1TCM     h1 3256   4.947   2.990   0.581
    1TCM    cl3 3257   5.183   3.023   0.593
    1TCM     c1 3258   2.218   4.209   4.844
    1TCM    cl1 3259   2.255   4.057   4.928
    1TCM    cl2 3260   2.224   4.344   4.959
    1TCM     h1 3261   2.292   4.226   4.763
    1TCM    cl3 3262   2.055   4.199   4.773
    1TCM     c1 3263   3.078   3.458   3.255
    1TCM    cl1 3264   2.913   3.466   3.189
    1TCM    cl2 3265   3.160   3.614   3.228
    1TCM     h1 3266   3.072   3.438   3.364
    1TCM    cl3 3267   3.168   3.329   3.174
    1TCM     c1 3268   2.962   4.384   0.398
    1TCM    cl1 3269   2.978   4.261   0.525
    1TCM    cl2 3270   3.102   4.374   0.289
    1TCM     h1 3271   2.868   4.365   0.340
    1TCM    cl3 3272   2.955   4.545   0.472
    1TCM     c1 3273   3.451   4.480   0.475
    1TCM    cl1 3274   3.477   4.356   0.351
    1TCM    cl2 3275   3.509   4.421   0.632
    1TCM     h1 3276   3.506   4.572   0.447
    1TCM    cl3 3277   3.277   4.516   0.486
    1TCM     c1 3278   2.330   3.765   1.043
    1TCM    cl1 3279   2.480   3.860   1.045
    1TCM    cl2 3280   2.291   3.712   1.208
    1TCM     h1 3281   2.247   3.827   1.003
    1TCM    cl3 3282   2.352   3.622   0.939
    1TCM     c1 3283   4.095   3.937   3.743
    1TCM    cl1 3284   4.167   3.883   3.589
    1TCM    cl2 3285   4.226   3.974   3.859
    1TCM     h1 3286   4.035   4.028   3.726
    1TCM    cl3 3287   3.992   3.808   3.809
    1TCM     c1 3288   5.218   4.782   4.202
    1TCM    cl1 3289   5.063   4.744   4.122
    1TCM    cl2 3290   5.186   4.841   4.367
    1TCM     h1 3291   5.280   4.691   4.207
    1TCM    cl3 3292   5.303   4.908   4.110
    1TCM     c1 3293   4.209   0.353   3.545
    1TCM    cl1 3294   4.239   0.213   3.650
    1TCM    cl2 3295   4.055   0.430   3.590
    1TCM     h1 3296   4.292   0.426   3.556
    1TCM    cl3 3297   4.201   0.299   3.375
    1TCM     c1 3298   2.443   2.664   3.451
    1TCM    cl1 3299   2.389   2.799   3.349
    1TCM    cl2 3300   2.387   2.691   3.618
    1TCM     h1 3301   2.400   2.569   3.413
    1TCM    cl3 3302   2.620   2.655   3.449
    1TCM     c1 3303   5.021   4.585   2.607
    1TCM    cl1 3304   4.985   4.707   2.732
    1TCM    cl2 3305   4.999   4.422   2.675
    1TCM     h1 3306   4.952   4.600   2.521
    1TCM    cl3 3307   5.189   4.605   2.552
    1TCM     c1 3308   2.424   0.892   2.068
    1TCM    cl1 3309   2.380   0.832   1.907
    1TCM    cl2 3310   2.425   0.757   2.184
    1TCM     h1 3311   2.525   0.938   2.064
    1TCM    cl3 3312   2.306   1.014   2.120
    1TCM     c1 3313   0.277   2.364   3.080
    1TCM    cl1 3314   0.160   2.348   2.947
    1TCM    cl2 3315   0.319   2.203   3.141
    1TCM     h1 3316   0.369   2.415   3.042
    1TCM    cl3 3317   0.206   2.461   3.211
    1TCM     c1 3318   1.099   4.057   1.117
    1TCM    cl1 3319   1.102   4.057   0.939
    1TCM    cl2 3320   1.232   3.956   1.178
    1TCM     h1 3321   1.111   4.161   1.155
    1TCM    cl3 3322   0.944   3.991   1.174
    1TCM     c1 3323   2.665   3.019   0.726
    1TCM    cl1 3324   2.704   3.090   0.567
    1TCM    cl2 3325   2.579   3.139   0.825
    1TCM     h1 3326   2.600   2.930   0.712
    1TCM    cl3 3327   2.815   2.971   0.808
    1TCM     c1 3328   0.643   0.653   0.947
    1TCM    cl1 3329   0.746   0.542   0.854
    1TCM    cl2 3330   0.541   0.559   1.058
    1TCM     h1 3331   0.706   0.723   1.005
    1TCM    cl3 3332   0.539   0.745   0.835
    1TCM     c1 3333   5.076   2.179   3.244
    1TCM    cl1 3334   4.997   2.303   3.344
    1TCM    cl2 3335   5.090   2.238   3.077
    1TCM     h1 3336   5.177   2.158   3.285
    1TCM    cl3 3337   4.979   2.030   3.246
    1TCM     c1 3338   2.500   1.014   3.495
    1TCM    cl1 3339   2.629   1.017   3.372
    1TCM    cl2 3340   2.563   1.077   3.649
    1TCM     h1 3341   2.415   1.077   3.461
    1TCM    cl3 3342   2.444   0.847   3.518
    1TCM     c1 3343   5.072   1.021   2.255
    1TCM    cl1 3344   5.192   1.146   2.214
    1TCM    cl2 3345   5.130   0.863   2.198
    1TCM     h1 3346   5.058   1.018   2.365
    1TCM    cl3 3347   4.917   1.059   2.176
    1TCM     c1 3348   3.973   0.490   4.530
    1TCM    cl1 3349   3.831   0.445   4.627
    1TCM    cl2 3350   4.001   0.665   4.544
    1TCM     h1 3351   4.062   0.435   4.568
    1TCM    cl3 3352   3.945   0.447   4.360
    1TCM     c1 3353   5.109   0.885   5.066
    1TCM    cl1 3354   5.204   0.803   4.940
    1TCM    cl2 3355   5.187   0.861   5.224
    1TCM     h1 3356   5.103   0.993   5.043
    1TCM    cl3 3357   4.944   0.817   5.070
    1TCM     c1 3358   2.939   0.649   1.542
    1TCM    cl1 3359   3.088   0.741   1.514
    1TCM    cl2 3360   2.856   0.714   1.686
    1TCM     h1 3361   2.872   0.659   1.454
    1TCM    cl3 3362   2.978   0.478   1.569
    1TCM     c1 3363   2.124   1.388   3.825
    1TCM    cl1 3364   2.133   1.399   4.002
    1TCM    cl2 3365   2.135   1.217   3.775
    1TCM     h1 3366   2.027   1.429   3.790
    1TCM    cl3 3367   2.257   1.480   3.752
   5.54000   5.54000   5.54000
