Generated by Interchange
3367
    1pmp_t    C    1   1.133   0.439   0.795
    1pmp_t    O    2   1.128   0.547   0.703
    1pmp_t    C    3   1.016   0.557   0.624
    1pmp_t    C    4   0.907   0.471   0.626
    1pmp_t    C    5   0.798   0.490   0.540
    1pmp_t    C    6   0.681   0.400   0.541
    1pmp_t    C    7   0.698   0.260   0.547
    1pmp_t    C    8   0.588   0.174   0.548
    1pmp_t    C    9   0.459   0.225   0.541
    1pmp_t    C   10   0.346   0.129   0.528
    1pmp_t    O   11   0.360   0.008   0.530
    1pmp_t    C   12   0.440   0.364   0.534
    1pmp_t    C   13   0.550   0.450   0.534
    1pmp_t    C   14   0.802   0.600   0.452
    1pmp_t    C   15   0.910   0.689   0.448
    1pmp_t    C   16   0.908   0.806   0.358
    1pmp_t    C   17   0.866   0.797   0.225
    1pmp_t    C   18   0.864   0.909   0.141
    1pmp_t    C   19   0.902   1.035   0.189
    1pmp_t    C   20   0.909   1.156   0.097
    1pmp_t    C   21   0.814   1.268   0.141
    1pmp_t    N   22   1.048   1.197   0.079
    1pmp_t    C   23   0.939   1.045   0.324
    1pmp_t    C   24   0.945   0.932   0.406
    1pmp_t    C   25   1.017   0.665   0.535
    1pmp_t    H   26   1.131   0.343   0.743
    1pmp_t    H   27   1.229   0.446   0.848
    1pmp_t    H   28   1.053   0.446   0.869
    1pmp_t    H   29   0.903   0.388   0.696
    1pmp_t    H   30   0.798   0.217   0.548
    1pmp_t    H   31   0.605   0.067   0.550
    1pmp_t    H   32   0.340   0.407   0.526
    1pmp_t    H   33   0.532   0.557   0.529
    1pmp_t    H   34   0.717   0.617   0.385
    1pmp_t    H   35   0.835   0.701   0.183
    1pmp_t    H   36   0.832   0.897   0.037
    1pmp_t    H   37   0.877   1.125  -0.003
    1pmp_t    H   38   0.711   1.231   0.146
    1pmp_t    H   39   0.839   1.309   0.239
    1pmp_t    H   40   0.817   1.351   0.069
    1pmp_t    H   41   1.098   1.130   0.023
    1pmp_t    H   42   0.967   1.140   0.368
    1pmp_t    H   43   0.978   0.945   0.509
    1pmp_t    H   44   1.103   0.731   0.536
    1pmp_t    C   45   1.898   1.147   0.585
    1pmp_t    O   46   1.891   1.005   0.579
    1pmp_t    C   47   1.779   0.951   0.522
    1pmp_t    C   48   1.672   1.022   0.469
    1pmp_t    C   49   1.562   0.955   0.412
    1pmp_t    C   50   1.449   1.030   0.354
    1pmp_t    C   51   1.393   1.141   0.419
    1pmp_t    C   52   1.289   1.213   0.361
    1pmp_t    C   53   1.236   1.176   0.236
    1pmp_t    C   54   1.118   1.252   0.185
    1pmp_t    O   55   1.080   1.353   0.244
    1pmp_t    C   56   1.288   1.062   0.173
    1pmp_t    C   57   1.393   0.991   0.231
    1pmp_t    C   58   1.563   0.814   0.411
    1pmp_t    C   59   1.670   0.740   0.462
    1pmp_t    C   60   1.671   0.593   0.453
    1pmp_t    C   61   1.557   0.516   0.484
    1pmp_t    C   62   1.558   0.377   0.474
    1pmp_t    C   63   1.673   0.310   0.431
    1pmp_t    C   64   1.680   0.157   0.428
    1pmp_t    C   65   1.704   0.102   0.288
    1pmp_t    N   66   1.773   0.110   0.531
    1pmp_t    C   67   1.785   0.387   0.396
    1pmp_t    C   68   1.785   0.526   0.409
    1pmp_t    C   69   1.778   0.811   0.518
    1pmp_t    H   70   1.817   1.188   0.646
    1pmp_t    H   71   1.992   1.174   0.633
    1pmp_t    H   72   1.898   1.191   0.485
    1pmp_t    H   73   1.672   1.130   0.468
    1pmp_t    H   74   1.430   1.171   0.517
    1pmp_t    H   75   1.246   1.297   0.415
    1pmp_t    H   76   1.248   1.024   0.080
    1pmp_t    H   77   1.432   0.904   0.178
    1pmp_t    H   78   1.479   0.761   0.366
    1pmp_t    H   79   1.465   0.565   0.517
    1pmp_t    H   80   1.468   0.322   0.500
    1pmp_t    H   81   1.582   0.119   0.461
    1pmp_t    H   82   1.627   0.137   0.220
    1pmp_t    H   83   1.800   0.133   0.247
    1pmp_t    H   84   1.702  -0.007   0.290
    1pmp_t    H   85   1.735   0.125   0.622
    1pmp_t    H   86   1.876   0.340   0.359
    1pmp_t    H   87   1.876   0.580   0.384
    1pmp_t    H   88   1.863   0.757   0.559
    1pmp_t    C   89   2.578   0.444   1.001
    1pmp_t    O   90   2.499   0.548   1.057
    1pmp_t    C   91   2.370   0.558   1.015
    1pmp_t    C   92   2.307   0.474   0.923
    1pmp_t    C   93   2.172   0.494   0.887
    1pmp_t    C   94   2.104   0.403   0.793
    1pmp_t    C   95   2.166   0.361   0.675
    1pmp_t    C   96   2.103   0.271   0.589
    1pmp_t    C   97   1.975   0.221   0.618
    1pmp_t    C   98   1.910   0.133   0.515
    1pmp_t    O   99   1.973   0.095   0.419
    1pmp_t    C  100   1.910   0.268   0.733
    1pmp_t    C  101   1.974   0.357   0.820
    1pmp_t    C  102   2.103   0.601   0.946
    1pmp_t    C  103   2.163   0.686   1.039
    1pmp_t    C  104   2.085   0.794   1.103
    1pmp_t    C  105   1.997   0.876   1.030
    1pmp_t    C  106   1.923   0.977   1.092
    1pmp_t    C  107   1.932   0.998   1.230
    1pmp_t    C  108   1.859   1.113   1.297
    1pmp_t    C  109   1.759   1.066   1.402
    1pmp_t    N  110   1.956   1.212   1.344
    1pmp_t    C  111   2.015   0.912   1.304
    1pmp_t    C  112   2.093   0.814   1.241
    1pmp_t    C  113   2.297   0.663   1.072
    1pmp_t    H  114   2.587   0.455   0.892
    1pmp_t    H  115   2.679   0.452   1.043
    1pmp_t    H  116   2.539   0.345   1.028
    1pmp_t    H  117   2.360   0.390   0.880
    1pmp_t    H  118   2.265   0.398   0.648
    1pmp_t    H  119   2.153   0.241   0.497
    1pmp_t    H  120   1.808   0.240   0.758
    1pmp_t    H  121   1.921   0.389   0.909
    1pmp_t    H  122   1.998   0.617   0.921
    1pmp_t    H  123   1.987   0.862   0.922
    1pmp_t    H  124   1.858   1.040   1.030
    1pmp_t    H  125   1.802   1.167   1.220
    1pmp_t    H  126   1.687   0.996   1.357
    1pmp_t    H  127   1.806   1.013   1.485
    1pmp_t    H  128   1.703   1.150   1.443
    1pmp_t    H  129   1.999   1.261   1.268
    1pmp_t    H  130   2.024   0.922   1.412
    1pmp_t    H  131   2.158   0.753   1.303
    1pmp_t    H  132   2.348   0.727   1.144
    1pmp_t    C  133   2.903   1.229   1.640
    1pmp_t    O  134   2.941   1.190   1.508
    1pmp_t    C  135   2.840   1.158   1.422
    1pmp_t    C  136   2.703   1.167   1.447
    1pmp_t    C  137   2.609   1.132   1.349
    1pmp_t    C  138   2.465   1.145   1.375
    1pmp_t    C  139   2.407   1.100   1.494
    1pmp_t    C  140   2.270   1.116   1.518
    1pmp_t    C  141   2.187   1.177   1.422
    1pmp_t    C  142   2.040   1.181   1.450
    1pmp_t    O  143   1.998   1.145   1.560
    1pmp_t    C  144   2.243   1.218   1.301
    1pmp_t    C  145   2.380   1.203   1.278
    1pmp_t    C  146   2.656   1.087   1.225
    1pmp_t    C  147   2.792   1.077   1.195
    1pmp_t    C  148   2.837   1.037   1.061
    1pmp_t    C  149   2.778   0.930   0.990
    1pmp_t    C  150   2.823   0.894   0.862
    1pmp_t    C  151   2.926   0.965   0.801
    1pmp_t    C  152   2.986   0.925   0.667
    1pmp_t    C  153   2.962   1.028   0.557
    1pmp_t    N  154   3.126   0.885   0.685
    1pmp_t    C  155   2.980   1.074   0.870
    1pmp_t    C  156   2.938   1.108   0.998
    1pmp_t    C  157   2.883   1.114   1.296
    1pmp_t    H  158   2.846   1.150   1.690
    1pmp_t    H  159   2.994   1.247   1.698
    1pmp_t    H  160   2.846   1.323   1.638
    1pmp_t    H  161   2.668   1.204   1.543
    1pmp_t    H  162   2.468   1.050   1.570
    1pmp_t    H  163   2.228   1.078   1.611
    1pmp_t    H  164   2.185   1.259   1.220
    1pmp_t    H  165   2.421   1.237   1.183
    1pmp_t    H  166   2.583   1.061   1.147
    1pmp_t    H  167   2.698   0.872   1.035
    1pmp_t    H  168   2.776   0.809   0.812
    1pmp_t    H  169   2.937   0.832   0.634
    1pmp_t    H  170   2.854   1.048   0.546
    1pmp_t    H  171   3.008   1.125   0.578
    1pmp_t    H  172   3.000   0.993   0.461
    1pmp_t    H  173   3.137   0.801   0.741
    1pmp_t    H  174   3.057   1.132   0.825
    1pmp_t    H  175   2.987   1.192   1.047
    1pmp_t    H  176   2.990   1.108   1.278
    1pmp_t    C  177   0.145   0.126   0.412
    1pmp_t    O  178   0.233   0.197   0.497
    1pmp_t    H  179   0.180   0.139   0.309
    1pmp_t    H  180   0.045   0.170   0.419
    1pmp_t    H  181   0.138   0.019   0.436
    1pmp_t    C  182   3.289   1.301   0.566
    1pmp_t    C  183   3.314   1.199   0.678
    1pmp_t    C  184   3.462   1.162   0.679
    1pmp_t    C  185   3.274   1.266   0.811
    1pmp_t    O  186   3.226   1.087   0.648
    1pmp_t    C  187   3.230   0.970   0.715
    1pmp_t    O  188   3.314   0.939   0.799
    1pmp_t    H  189   3.347   1.393   0.580
    1pmp_t    H  190   3.314   1.258   0.468
    1pmp_t    H  191   3.183   1.328   0.561
    1pmp_t    H  192   3.490   1.110   0.586
    1pmp_t    H  193   3.487   1.095   0.762
    1pmp_t    H  194   3.525   1.251   0.689
    1pmp_t    H  195   3.170   1.301   0.807
    1pmp_t    H  196   3.282   1.196   0.895
    1pmp_t    H  197   3.336   1.353   0.832
    2MOL1    Cl  198   4.503   0.384   2.697
    2MOL1     C  199   4.336   0.348   2.652
    2MOL1    Cl  200   4.231   0.351   2.794
    2MOL1    Cl  201   4.278   0.463   2.530
    2MOL1     H  202   4.333   0.248   2.609
    2MOL1    Cl  203   1.512   2.524   4.358
    2MOL1     C  204   1.681   2.473   4.350
    2MOL1    Cl  205   1.725   2.432   4.183
    2MOL1    Cl  206   1.788   2.600   4.413
    2MOL1     H  207   1.694   2.384   4.412
    2MOL1    Cl  208   1.997   2.340   0.989
    2MOL1     C  209   1.827   2.354   1.037
    2MOL1    Cl  210   1.725   2.252   0.936
    2MOL1    Cl  211   1.807   2.312   1.208
    2MOL1     H  212   1.797   2.458   1.024
    2MOL1    Cl  213   2.541   0.537   3.765
    2MOL1     C  214   2.661   0.659   3.810
    2MOL1    Cl  215   2.604   0.755   3.948
    2MOL1    Cl  216   2.817   0.583   3.847
    2MOL1     H  217   2.675   0.726   3.725
    2MOL1    Cl  218   2.105   1.587   2.730
    2MOL1     C  219   2.179   1.748   2.720
    2MOL1    Cl  220   2.057   1.874   2.745
    2MOL1    Cl  221   2.310   1.763   2.838
    2MOL1     H  222   2.221   1.760   2.620
    2MOL1    Cl  223   5.186   1.291   0.471
    2MOL1     C  224   5.030   1.287   0.555
    2MOL1    Cl  225   4.928   1.157   0.491
    2MOL1    Cl  226   5.055   1.267   0.730
    2MOL1     H  227   4.979   1.382   0.538
    2MOL1    Cl  228   2.738   0.829   2.610
    2MOL1     C  229   2.894   0.753   2.575
    2MOL1    Cl  230   2.913   0.728   2.401
    2MOL1    Cl  231   3.027   0.850   2.639
    2MOL1     H  232   2.896   0.655   2.624
    2MOL1    Cl  233   3.623   4.194   4.799
    2MOL1     C  234   3.698   4.040   4.753
    2MOL1    Cl  235   3.862   4.066   4.691
    2MOL1    Cl  236   3.700   3.928   4.890
    2MOL1     H  237   3.638   3.996   4.673
    2MOL1    Cl  238   0.786   3.958   3.467
    2MOL1     C  239   0.783   4.135   3.468
    2MOL1    Cl  240   0.939   4.200   3.524
    2MOL1    Cl  241   0.744   4.198   3.307
    2MOL1     H  242   0.705   4.168   3.537
    2MOL1    Cl  243   3.979   1.377   2.403
    2MOL1     C  244   3.954   1.342   2.575
    2MOL1    Cl  245   3.961   1.168   2.604
    2MOL1    Cl  246   4.075   1.426   2.673
    2MOL1     H  247   3.855   1.378   2.603
    2MOL1    Cl  248   4.987   3.181   4.341
    2MOL1     C  249   4.911   3.115   4.486
    2MOL1    Cl  250   4.747   3.057   4.450
    2MOL1    Cl  251   5.009   2.983   4.553
    2MOL1     H  252   4.904   3.194   4.561
    2MOL1    Cl  253   0.614   2.992   1.381
    2MOL1     C  254   0.546   2.876   1.497
    2MOL1    Cl  255   0.661   2.745   1.528
    2MOL1    Cl  256   0.503   2.958   1.649
    2MOL1     H  257   0.456   2.833   1.454
    2MOL1    Cl  258   1.278   1.970   2.394
    2MOL1     C  259   1.425   2.067   2.382
    2MOL1    Cl  260   1.543   1.990   2.274
    2MOL1    Cl  261   1.388   2.231   2.326
    2MOL1     H  262   1.470   2.074   2.482
    2MOL1    Cl  263   4.352   4.377   0.576
    2MOL1     C  264   4.288   4.429   0.733
    2MOL1    Cl  265   4.408   4.523   0.822
    2MOL1    Cl  266   4.139   4.523   0.711
    2MOL1     H  267   4.264   4.340   0.791
    2MOL1    Cl  268   2.689   5.255   3.880
    2MOL1     C  269   2.673   5.265   3.704
    2MOL1    Cl  270   2.712   5.110   3.629
    2MOL1    Cl  271   2.509   5.316   3.660
    2MOL1     H  272   2.743   5.340   3.667
    2MOL1    Cl  273   2.729   1.843   3.083
    2MOL1     C  274   2.886   1.901   3.140
    2MOL1    Cl  275   2.915   1.848   3.307
    2MOL1    Cl  276   3.015   1.844   3.033
    2MOL1     H  277   2.886   2.010   3.138
    2MOL1    Cl  278   0.744   2.974   4.922
    2MOL1     C  279   0.686   3.122   5.000
    2MOL1    Cl  280   0.509   3.121   5.011
    2MOL1    Cl  281   0.758   3.139   5.162
    2MOL1     H  282   0.717   3.208   4.940
    2MOL1    Cl  283   4.509   3.422   2.243
    2MOL1     C  284   4.581   3.546   2.140
    2MOL1    Cl  285   4.545   3.708   2.203
    2MOL1    Cl  286   4.756   3.522   2.128
    2MOL1     H  287   4.538   3.537   2.040
    2MOL1    Cl  288   5.223   3.532   4.951
    2MOL1     C  289   5.221   3.699   4.893
    2MOL1    Cl  290   5.340   3.722   4.764
    2MOL1    Cl  291   5.058   3.744   4.837
    2MOL1     H  292   5.247   3.765   4.976
    2MOL1    Cl  293   2.031   1.165   3.626
    2MOL1     C  294   2.153   1.151   3.498
    2MOL1    Cl  295   2.084   1.077   3.353
    2MOL1    Cl  296   2.223   1.309   3.461
    2MOL1     H  297   2.233   1.086   3.535
    2MOL1    Cl  298   1.499   2.014   2.995
    2MOL1     C  299   1.444   1.930   2.849
    2MOL1    Cl  300   1.340   1.793   2.891
    2MOL1    Cl  301   1.358   2.042   2.741
    2MOL1     H  302   1.531   1.892   2.796
    2MOL1    Cl  303   2.973   4.689   4.979
    2MOL1     C  304   3.055   4.722   4.825
    2MOL1    Cl  305   2.971   4.849   4.736
    2MOL1    Cl  306   3.224   4.767   4.853
    2MOL1     H  307   3.053   4.630   4.765
    2MOL1    Cl  308   2.609   2.360   1.930
    2MOL1     C  309   2.708   2.474   2.024
    2MOL1    Cl  310   2.872   2.483   1.959
    2MOL1    Cl  311   2.633   2.635   2.026
    2MOL1     H  312   2.713   2.438   2.127
    2MOL1    Cl  313   2.817   1.927   5.213
    2MOL1     C  314   2.730   2.009   5.083
    2MOL1    Cl  315   2.587   2.092   5.146
    2MOL1    Cl  316   2.837   2.124   5.000
    2MOL1     H  317   2.697   1.934   5.010
    2MOL1    Cl  318   4.818   0.160   1.384
    2MOL1     C  319   4.826   0.280   1.253
    2MOL1    Cl  320   4.666   0.302   1.180
    2MOL1    Cl  321   4.888   0.434   1.314
    2MOL1     H  322   4.894   0.243   1.177
    2MOL1    Cl  323   3.153   0.973   1.128
    2MOL1     C  324   3.062   0.858   1.228
    2MOL1    Cl  325   3.073   0.903   1.399
    2MOL1    Cl  326   2.893   0.850   1.176
    2MOL1     H  327   3.107   0.759   1.216
    2MOL1    Cl  328   4.061   3.248   1.840
    2MOL1     C  329   3.899   3.242   1.909
    2MOL1    Cl  330   3.865   3.080   1.974
    2MOL1    Cl  331   3.880   3.365   2.035
    2MOL1     H  332   3.826   3.262   1.830
    2MOL1    Cl  333   0.989   0.740   3.566
    2MOL1     C  334   0.989   0.906   3.628
    2MOL1    Cl  335   1.040   0.910   3.797
    2MOL1    Cl  336   1.094   1.009   3.529
    2MOL1     H  337   0.887   0.946   3.622
    2MOL1    Cl  338   0.539   5.086   4.188
    2MOL1     C  339   0.692   5.167   4.150
    2MOL1    Cl  340   0.794   5.062   4.049
    2MOL1    Cl  341   0.662   5.322   4.069
    2MOL1     H  342   0.745   5.187   4.244
    2MOL1    Cl  343   2.762   3.747   3.563
    2MOL1     C  344   2.864   3.649   3.456
    2MOL1    Cl  345   2.768   3.580   3.324
    2MOL1    Cl  346   2.998   3.747   3.391
    2MOL1     H  347   2.907   3.568   3.515
    2MOL1    Cl  348   0.505   0.811   2.319
    2MOL1     C  349   0.447   0.920   2.446
    2MOL1    Cl  350   0.489   1.088   2.407
    2MOL1    Cl  351   0.272   0.903   2.467
    2MOL1     H  352   0.496   0.894   2.540
    2MOL1    Cl  353   4.868   2.179   2.140
    2MOL1     C  354   4.952   2.024   2.137
    2MOL1    Cl  355   4.865   1.907   2.035
    2MOL1    Cl  356   5.118   2.044   2.079
    2MOL1     H  357   4.955   1.985   2.239
    2MOL1    Cl  358   1.446   3.599   2.262
    2MOL1     C  359   1.275   3.564   2.237
    2MOL1    Cl  360   1.184   3.584   2.387
    2MOL1    Cl  361   1.208   3.667   2.109
    2MOL1     H  362   1.265   3.460   2.205
    2MOL1    Cl  363   4.035   1.295   2.010
    2MOL1     C  364   3.909   1.416   2.040
    2MOL1    Cl  365   3.882   1.515   1.895
    2MOL1    Cl  366   3.758   1.337   2.090
    2MOL1     H  367   3.942   1.481   2.121
    2MOL1    Cl  368   0.895   2.124   2.070
    2MOL1     C  369   0.833   2.264   2.161
    2MOL1    Cl  370   0.696   2.337   2.076
    2MOL1    Cl  371   0.786   2.215   2.324
    2MOL1     H  372   0.913   2.338   2.168
    2MOL1    Cl  373   2.408   3.805   1.731
    2MOL1     C  374   2.235   3.807   1.768
    2MOL1    Cl  375   2.188   3.659   1.854
    2MOL1    Cl  376   2.194   3.951   1.864
    2MOL1     H  377   2.180   3.812   1.674
    2MOL1    Cl  378   0.998   4.540   1.334
    2MOL1     C  379   1.008   4.576   1.161
    2MOL1    Cl  380   1.033   4.750   1.135
    2MOL1    Cl  381   1.138   4.482   1.085
    2MOL1     H  382   0.913   4.548   1.115
    2MOL1    Cl  383   0.142   1.383   4.892
    2MOL1     C  384   0.274   1.300   4.808
    2MOL1    Cl  385   0.390   1.233   4.924
    2MOL1    Cl  386   0.210   1.172   4.703
    2MOL1     H  387   0.326   1.373   4.745
    2MOL1    Cl  388   1.178   3.815   4.791
    2MOL1     C  389   1.335   3.896   4.790
    2MOL1    Cl  390   1.463   3.783   4.741
    2MOL1    Cl  391   1.332   4.037   4.682
    2MOL1     H  392   1.357   3.930   4.891
    2MOL1    Cl  393   0.481   0.787   4.909
    2MOL1     C  394   0.320   0.738   4.853
    2MOL1    Cl  395   0.206   0.873   4.866
    2MOL1    Cl  396   0.328   0.678   4.686
    2MOL1     H  397   0.285   0.657   4.917
    2MOL1    Cl  398   1.142   4.412   2.102
    2MOL1     C  399   1.069   4.295   2.212
    2MOL1    Cl  400   1.166   4.277   2.359
    2MOL1    Cl  401   0.903   4.343   2.252
    2MOL1     H  402   1.065   4.198   2.161
    2MOL1    Cl  403   3.730   3.957   0.209
    2MOL1     C  404   3.684   4.126   0.180
    2MOL1    Cl  405   3.803   4.206   0.076
    2MOL1    Cl  406   3.522   4.135   0.107
    2MOL1     H  407   3.681   4.178   0.276
    2MOL1    Cl  408   1.667   1.644   1.281
    2MOL1     C  409   1.593   1.553   1.413
    2MOL1    Cl  410   1.657   1.388   1.420
    2MOL1    Cl  411   1.618   1.636   1.568
    2MOL1     H  412   1.485   1.548   1.395
    2MOL1    Cl  413   3.537   0.547   2.245
    2MOL1     C  414   3.435   0.679   2.302
    2MOL1    Cl  415   3.532   0.803   2.384
    2MOL1    Cl  416   3.344   0.750   2.168
    2MOL1     H  417   3.363   0.639   2.374
    2MOL1    Cl  418   0.123   0.538   1.844
    2MOL1     C  419   0.172   0.607   1.999
    2MOL1    Cl  420   0.335   0.675   1.988
    2MOL1    Cl  421   0.057   0.730   2.052
    2MOL1     H  422   0.174   0.527   2.073
    2MOL1    Cl  423   3.954   2.778   1.202
    2MOL1     C  424   3.938   2.640   1.092
    2MOL1    Cl  425   3.953   2.692   0.923
    2MOL1    Cl  426   4.059   2.516   1.130
    2MOL1     H  427   3.839   2.596   1.106
    2MOL1    Cl  428   4.954   1.624   3.358
    2MOL1     C  429   4.958   1.793   3.411
    2MOL1    Cl  430   4.811   1.833   3.502
    2MOL1    Cl  431   5.103   1.824   3.508
    2MOL1     H  432   4.961   1.856   3.322
    2MOL1    Cl  433   1.872   3.508   2.364
    2MOL1     C  434   2.032   3.577   2.397
    2MOL1    Cl  435   2.109   3.630   2.246
    2MOL1    Cl  436   2.019   3.712   2.511
    2MOL1     H  437   2.095   3.500   2.442
    2MOL1    Cl  438   0.499   0.320   4.740
    2MOL1     C  439   0.572   0.260   4.889
    2MOL1    Cl  440   0.505   0.102   4.932
    2MOL1    Cl  441   0.749   0.251   4.873
    2MOL1     H  442   0.549   0.331   4.970
    2MOL1    Cl  443   4.439   0.634   4.548
    2MOL1     C  444   4.602   0.701   4.538
    2MOL1    Cl  445   4.597   0.873   4.494
    2MOL1    Cl  446   4.687   0.680   4.692
    2MOL1     H  447   4.658   0.647   4.461
    2MOL1    Cl  448   4.026   4.711   1.649
    2MOL1     C  449   3.855   4.688   1.606
    2MOL1    Cl  450   3.807   4.800   1.478
    2MOL1    Cl  451   3.826   4.520   1.557
    2MOL1     H  452   3.795   4.709   1.695
    2MOL1    Cl  453   4.493   4.533   4.737
    2MOL1     C  454   4.478   4.573   4.909
    2MOL1    Cl  455   4.494   4.428   5.008
    2MOL1    Cl  456   4.598   4.695   4.955
    2MOL1     H  457   4.378   4.616   4.926
    2MOL1    Cl  458   4.164   4.295   1.784
    2MOL1     C  459   3.998   4.359   1.785
    2MOL1    Cl  460   3.896   4.266   1.896
    2MOL1    Cl  461   3.998   4.531   1.828
    2MOL1     H  462   3.957   4.348   1.684
    2MOL1    Cl  463   3.958   4.062   3.210
    2MOL1     C  464   3.855   4.061   3.354
    2MOL1    Cl  465   3.952   4.047   3.501
    2MOL1    Cl  466   3.753   4.206   3.359
    2MOL1     H  467   3.789   3.973   3.348
    2MOL1    Cl  468   0.258   0.779   3.402
    2MOL1     C  469   0.372   0.915   3.400
    2MOL1    Cl  470   0.372   0.998   3.556
    2MOL1    Cl  471   0.535   0.859   3.359
    2MOL1     H  472   0.340   0.986   3.323
    2MOL1    Cl  473   3.194   2.659   2.780
    2MOL1     C  474   3.041   2.650   2.869
    2MOL1    Cl  475   2.985   2.812   2.913
    2MOL1    Cl  476   2.918   2.566   2.773
    2MOL1     H  477   3.058   2.593   2.961
    2MOL1    Cl  478   3.821   2.437   2.522
    2MOL1     C  479   3.678   2.507   2.445
    2MOL1    Cl  480   3.595   2.387   2.345
    2MOL1    Cl  481   3.568   2.574   2.566
    2MOL1     H  482   3.711   2.589   2.380
    2MOL1    Cl  483   4.946   0.542   2.379
    2MOL1     C  484   5.023   0.692   2.435
    2MOL1    Cl  485   5.192   0.698   2.382
    2MOL1    Cl  486   4.934   0.833   2.376
    2MOL1     H  487   5.021   0.693   2.544
    2MOL1    Cl  488   0.236   0.006   3.074
    2MOL1     C  489   0.392   0.085   3.098
    2MOL1    Cl  490   0.519   0.001   3.008
    2MOL1    Cl  491   0.384   0.255   3.051
    2MOL1     H  492   0.417   0.080   3.205
    2MOL1    Cl  493   5.340   3.581   1.319
    2MOL1     C  494   5.216   3.708   1.323
    2MOL1    Cl  495   5.094   3.672   1.445
    2MOL1    Cl  496   5.290   3.866   1.354
    2MOL1     H  497   5.167   3.712   1.225
    2MOL1    Cl  498   1.554   3.327   1.122
    2MOL1     C  499   1.508   3.319   0.952
    2MOL1    Cl  500   1.643   3.368   0.848
    2MOL1    Cl  501   1.454   3.155   0.909
    2MOL1     H  502   1.425   3.388   0.935
    2MOL1    Cl  503   2.834   4.576   4.153
    2MOL1     C  504   2.697   4.473   4.194
    2MOL1    Cl  505   2.545   4.544   4.137
    2MOL1    Cl  506   2.718   4.310   4.127
    2MOL1     H  507   2.692   4.464   4.303
    2MOL1    Cl  508   4.790   1.551   0.366
    2MOL1     C  509   4.684   1.684   0.317
    2MOL1    Cl  510   4.574   1.728   0.449
    2MOL1    Cl  511   4.779   1.824   0.265
    2MOL1     H  512   4.624   1.650   0.232
    2MOL1    Cl  513   2.786   4.604   4.663
    2MOL1     C  514   2.871   4.703   4.544
    2MOL1    Cl  515   2.855   4.632   4.382
    2MOL1    Cl  516   2.810   4.869   4.545
    2MOL1     H  517   2.977   4.705   4.570
    2MOL1    Cl  518   3.717   3.917   2.055
    2MOL1     C  519   3.775   4.085   2.048
    2MOL1    Cl  520   3.725   4.173   2.194
    2MOL1    Cl  521   3.951   4.090   2.030
    2MOL1     H  522   3.730   4.133   1.961
    2MOL1    Cl  523   1.051   0.317   3.409
    2MOL1     C  524   0.943   0.178   3.392
    2MOL1    Cl  525   0.831   0.202   3.257
    2MOL1    Cl  526   1.036   0.028   3.370
    2MOL1     H  527   0.884   0.168   3.484
    2MOL1    Cl  528   0.900   1.260   2.598
    2MOL1     C  529   0.959   1.423   2.634
    2MOL1    Cl  530   0.841   1.511   2.733
    2MOL1    Cl  531   1.116   1.416   2.715
    2MOL1     H  532   0.971   1.476   2.540
    2MOL1    Cl  533   1.034   0.804   2.422
    2MOL1     C  534   1.184   0.769   2.334
    2MOL1    Cl  535   1.250   0.917   2.263
    2MOL1    Cl  536   1.302   0.692   2.440
    2MOL1     H  537   1.160   0.700   2.252
    2MOL1    Cl  538   3.002   1.031   3.907
    2MOL1     C  539   2.847   1.116   3.920
    2MOL1    Cl  540   2.834   1.241   3.795
    2MOL1    Cl  541   2.712   1.002   3.909
    2MOL1     H  542   2.843   1.165   4.018
    2MOL1    Cl  543   4.475   5.216   1.252
    2MOL1     C  544   4.635   5.139   1.252
    2MOL1    Cl  545   4.708   5.146   1.413
    2MOL1    Cl  546   4.624   4.971   1.196
    2MOL1     H  547   4.699   5.194   1.182
    2MOL1    Cl  548   0.660   4.535   0.340
    2MOL1     C  549   0.521   4.426   0.333
    2MOL1    Cl  550   0.425   4.456   0.187
    2MOL1    Cl  551   0.573   4.257   0.339
    2MOL1     H  552   0.458   4.446   0.420
    2MOL1    Cl  553   2.270   3.491   2.178
    2MOL1     C  554   2.438   3.439   2.205
    2MOL1    Cl  555   2.521   3.552   2.314
    2MOL1    Cl  556   2.441   3.275   2.271
    2MOL1     H  557   2.490   3.439   2.109
    2MOL1    Cl  558   0.249   3.220   1.010
    2MOL1     C  559   0.368   3.151   1.121
    2MOL1    Cl  560   0.399   3.261   1.256
    2MOL1    Cl  561   0.313   2.993   1.181
    2MOL1     H  562   0.462   3.136   1.067
    2MOL1    Cl  563   3.520   3.649   1.078
    2MOL1     C  564   3.352   3.618   1.031
    2MOL1    Cl  565   3.250   3.757   1.070
    2MOL1    Cl  566   3.342   3.580   0.858
    2MOL1     H  567   3.315   3.532   1.088
    2MOL1    Cl  568   3.085   3.063   4.930
    2MOL1     C  569   3.242   2.996   4.974
    2MOL1    Cl  570   3.326   3.103   5.087
    2MOL1    Cl  571   3.223   2.834   5.044
    2MOL1     H  572   3.303   2.987   4.884
    2MOL1    Cl  573   1.049   1.429   1.764
    2MOL1     C  574   1.062   1.258   1.810
    2MOL1    Cl  575   0.966   1.225   1.955
    2MOL1    Cl  576   1.011   1.154   1.677
    2MOL1     H  577   1.167   1.236   1.833
    2MOL1    Cl  578   2.060   2.818   4.731
    2MOL1     C  579   1.975   2.663   4.730
    2MOL1    Cl  580   2.089   2.530   4.700
    2MOL1    Cl  581   1.889   2.638   4.882
    2MOL1     H  582   1.902   2.664   4.649
    2MOL1    Cl  583   2.251   3.965   4.241
    2MOL1     C  584   2.276   4.137   4.206
    2MOL1    Cl  585   2.165   4.236   4.303
    2MOL1    Cl  586   2.444   4.183   4.237
    2MOL1     H  587   2.254   4.154   4.101
    2MOL1    Cl  588   0.621   0.364   0.107
    2MOL1     C  589   0.761   0.256   0.098
    2MOL1    Cl  590   0.880   0.297   0.222
    2MOL1    Cl  591   0.711   0.087   0.114
    2MOL1     H  592   0.808   0.268   0.000
    2MOL1    Cl  593   1.021   0.646   2.823
    2MOL1     C  594   1.125   0.687   2.960
    2MOL1    Cl  595   1.053   0.818   3.056
    2MOL1    Cl  596   1.154   0.545   3.061
    2MOL1     H  597   1.221   0.722   2.921
    2MOL1    Cl  598   4.580   3.345   3.269
    2MOL1     C  599   4.547   3.172   3.279
    2MOL1    Cl  600   4.689   3.078   3.230
    2MOL1    Cl  601   4.496   3.127   3.442
    2MOL1     H  602   4.465   3.149   3.210
    2MOL1    Cl  603   3.318   4.867   5.255
    2MOL1     C  604   3.194   4.742   5.235
    2MOL1    Cl  605   3.177   4.698   5.064
    2MOL1    Cl  606   3.232   4.600   5.333
    2MOL1     H  607   3.098   4.783   5.269
    2MOL1    Cl  608   1.956   0.246   3.715
    2MOL1     C  609   1.846   0.186   3.590
    2MOL1    Cl  610   1.714   0.093   3.662
    2MOL1    Cl  611   1.782   0.320   3.493
    2MOL1     H  612   1.903   0.120   3.524
    2MOL1    Cl  613   1.044   0.697   4.247
    2MOL1     C  614   0.958   0.830   4.168
    2MOL1    Cl  615   0.948   0.970   4.276
    2MOL1    Cl  616   1.037   0.874   4.016
    2MOL1     H  617   0.856   0.797   4.146
    2MOL1    Cl  618   2.195   5.233   2.430
    2MOL1     C  619   2.042   5.147   2.414
    2MOL1    Cl  620   1.931   5.236   2.308
    2MOL1    Cl  621   2.068   4.983   2.352
    2MOL1     H  622   1.996   5.139   2.513
    2MOL1    Cl  623   1.340   1.160   2.393
    2MOL1     C  624   1.237   1.304   2.404
    2MOL1    Cl  625   1.223   1.382   2.246
    2MOL1    Cl  626   1.077   1.261   2.467
    2MOL1     H  627   1.284   1.374   2.473
    2MOL1    Cl  628   1.558   1.620   0.336
    2MOL1     C  629   1.606   1.645   0.168
    2MOL1    Cl  630   1.763   1.728   0.160
    2MOL1    Cl  631   1.614   1.491   0.081
    2MOL1     H  632   1.531   1.708   0.119
    2MOL1    Cl  633   4.143   3.212   2.363
    2MOL1     C  634   4.240   3.111   2.471
    2MOL1    Cl  635   4.271   3.194   2.624
    2MOL1    Cl  636   4.159   2.956   2.500
    2MOL1     H  637   4.336   3.091   2.422
    2MOL1    Cl  638   3.040   4.876   1.287
    2MOL1     C  639   2.898   4.892   1.391
    2MOL1    Cl  640   2.751   4.847   1.303
    2MOL1    Cl  641   2.916   4.793   1.537
    2MOL1     H  642   2.890   4.996   1.422
    2MOL1    Cl  643   4.298   2.652   3.288
    2MOL1     C  644   4.320   2.482   3.335
    2MOL1    Cl  645   4.232   2.448   3.485
    2MOL1    Cl  646   4.266   2.374   3.206
    2MOL1     H  647   4.426   2.465   3.353
    2MOL1    Cl  648   4.149   0.800   3.738
    2MOL1     C  649   4.311   0.806   3.667
    2MOL1    Cl  650   4.305   0.778   3.492
    2MOL1    Cl  651   4.389   0.961   3.703
    2MOL1     H  652   4.372   0.726   3.713
    2MOL1    Cl  653   4.250   0.875   3.296
    2MOL1     C  654   4.217   1.046   3.326
    2MOL1    Cl  655   4.076   1.065   3.432
    2MOL1    Cl  656   4.359   1.126   3.396
    2MOL1     H  657   4.194   1.094   3.230
    2MOL1    Cl  658   2.172   0.107   3.453
    2MOL1     C  659   2.106   0.228   3.343
    2MOL1    Cl  660   2.235   0.304   3.248
    2MOL1    Cl  661   1.985   0.155   3.236
    2MOL1     H  662   2.056   0.306   3.402
    2MOL1    Cl  663   0.380   4.560   3.580
    2MOL1     C  664   0.516   4.519   3.686
    2MOL1    Cl  665   0.467   4.525   3.856
    2MOL1    Cl  666   0.580   4.358   3.646
    2MOL1     H  667   0.595   4.592   3.671
    2MOL1    Cl  668   0.170   1.876   4.848
    2MOL1     C  669   0.317   1.942   4.776
    2MOL1    Cl  670   0.317   1.917   4.601
    2MOL1    Cl  671   0.333   2.115   4.814
    2MOL1     H  672   0.403   1.889   4.818
    2MOL1    Cl  673   1.002   4.965   5.229
    2MOL1     C  674   1.122   5.096   5.235
    2MOL1    Cl  675   1.277   5.041   5.170
    2MOL1    Cl  676   1.064   5.238   5.148
    2MOL1     H  677   1.137   5.123   5.340
    2MOL1    Cl  678   0.991   2.292   1.044
    2MOL1     C  679   0.857   2.188   1.093
    2MOL1    Cl  680   0.913   2.062   1.205
    2MOL1    Cl  681   0.728   2.284   1.167
    2MOL1     H  682   0.817   2.139   1.004
    2MOL1    Cl  683   4.750   1.716   2.488
    2MOL1     C  684   4.812   1.698   2.323
    2MOL1    Cl  685   4.933   1.569   2.315
    2MOL1    Cl  686   4.680   1.667   2.209
    2MOL1     H  687   4.860   1.792   2.294
    2MOL1    Cl  688   3.045   1.429   2.673
    2MOL1     C  689   2.917   1.329   2.603
    2MOL1    Cl  690   2.813   1.426   2.498
    2MOL1    Cl  691   2.987   1.193   2.514
    2MOL1     H  692   2.856   1.289   2.684
    2MOL1    Cl  693   3.295   0.422   2.630
    2MOL1     C  694   3.206   0.570   2.666
    2MOL1    Cl  695   3.301   0.676   2.771
    2MOL1    Cl  696   3.162   0.654   2.516
    2MOL1     H  697   3.113   0.543   2.718
    2MOL1    Cl  698   2.566   4.632   1.057
    2MOL1     C  699   2.401   4.667   1.111
    2MOL1    Cl  700   2.335   4.805   1.021
    2MOL1    Cl  701   2.298   4.524   1.091
    2MOL1     H  702   2.404   4.693   1.217
    2MOL1    Cl  703   0.706   3.367   4.134
    2MOL1     C  704   0.556   3.448   4.089
    2MOL1    Cl  705   0.572   3.529   3.932
    2MOL1    Cl  706   0.421   3.332   4.086
    2MOL1     H  707   0.534   3.524   4.165
    2MOL1    Cl  708   2.400   0.153   1.631
    2MOL1     C  709   2.518   0.123   1.760
    2MOL1    Cl  710   2.457   0.000   1.872
    2MOL1    Cl  711   2.674   0.073   1.692
    2MOL1     H  712   2.533   0.216   1.815
    2MOL1    Cl  713   2.607   4.849   3.632
    2MOL1     C  714   2.552   4.974   3.744
    2MOL1    Cl  715   2.429   4.908   3.854
    2MOL1    Cl  716   2.688   5.039   3.836
    2MOL1     H  717   2.507   5.055   3.687
    2MOL1    Cl  718   3.618   3.393   4.874
    2MOL1     C  719   3.642   3.547   4.790
    2MOL1    Cl  720   3.809   3.560   4.731
    2MOL1    Cl  721   3.527   3.564   4.656
    2MOL1     H  722   3.624   3.628   4.861
    2MOL1    Cl  723   1.799   0.289   4.945
    2MOL1     C  724   1.735   0.148   4.860
    2MOL1    Cl  725   1.562   0.169   4.825
    2MOL1    Cl  726   1.825   0.119   4.710
    2MOL1     H  727   1.747   0.061   4.924
    2MOL1    Cl  728   3.501   3.725   1.747
    2MOL1     C  729   3.410   3.770   1.892
    2MOL1    Cl  730   3.520   3.802   2.028
    2MOL1    Cl  731   3.308   3.911   1.860
    2MOL1     H  732   3.345   3.686   1.919
    2MOL1    Cl  733   0.223   2.851   2.129
    2MOL1     C  734   0.156   2.691   2.164
    2MOL1    Cl  735   0.021   2.655   2.056
    2MOL1    Cl  736   0.281   2.566   2.151
    2MOL1     H  737   0.119   2.691   2.267
    2MOL1    Cl  738   2.023   0.856   3.587
    2MOL1     C  739   1.858   0.920   3.599
    2MOL1    Cl  740   1.747   0.794   3.654
    2MOL1    Cl  741   1.853   1.060   3.707
    2MOL1     H  742   1.827   0.952   3.499
    2MOL1    Cl  743   1.585   4.671   3.706
    2MOL1     C  744   1.440   4.572   3.683
    2MOL1    Cl  745   1.377   4.593   3.518
    2MOL1    Cl  746   1.475   4.402   3.715
    2MOL1     H  747   1.364   4.606   3.753
    2MOL1    Cl  748   1.150   3.399   3.606
    2MOL1     C  749   1.280   3.280   3.589
    2MOL1    Cl  750   1.227   3.144   3.488
    2MOL1    Cl  751   1.425   3.355   3.520
    2MOL1     H  752   1.305   3.241   3.688
    2MOL1    Cl  753   4.886   2.180   2.451
    2MOL1     C  754   4.854   2.352   2.478
    2MOL1    Cl  755   4.720   2.373   2.593
    2MOL1    Cl  756   4.999   2.434   2.537
    2MOL1     H  757   4.825   2.397   2.383
    2MOL1    Cl  758   2.461   1.336   2.009
    2MOL1     C  759   2.386   1.449   1.895
    2MOL1    Cl  760   2.309   1.583   1.981
    2MOL1    Cl  761   2.506   1.509   1.780
    2MOL1     H  762   2.309   1.395   1.839
    2MOL1    Cl  763   1.473   0.264   3.797
    2MOL1     C  764   1.338   0.160   3.751
    2MOL1    Cl  765   1.327   0.146   3.574
    2MOL1    Cl  766   1.354   0.000   3.825
    2MOL1     H  767   1.245   0.206   3.787
    2MOL1    Cl  768   4.276   3.840   2.921
    2MOL1     C  769   4.301   3.743   2.776
    2MOL1    Cl  770   4.255   3.574   2.805
    2MOL1    Cl  771   4.209   3.809   2.639
    2MOL1     H  772   4.407   3.745   2.750
    2MOL1    Cl  773   4.581   1.330   3.937
    2MOL1     C  774   4.430   1.331   4.029
    2MOL1    Cl  775   4.459   1.379   4.197
    2MOL1    Cl  776   4.311   1.439   3.954
    2MOL1     H  777   4.388   1.230   4.029
    2MOL1    Cl  778   3.666   1.914   2.704
    2MOL1     C  779   3.721   2.078   2.671
    2MOL1    Cl  780   3.856   2.122   2.778
    2MOL1    Cl  781   3.769   2.095   2.501
    2MOL1     H  782   3.639   2.147   2.690
    2MOL1    Cl  783   4.804   4.083   3.293
    2MOL1     C  784   4.971   4.037   3.332
    2MOL1    Cl  785   5.073   4.044   3.187
    2MOL1    Cl  786   5.036   4.142   3.459
    2MOL1     H  787   4.970   3.934   3.369
    2MOL1    Cl  788   0.655   1.896   0.582
    2MOL1     C  789   0.496   1.864   0.653
    2MOL1    Cl  790   0.437   2.007   0.741
    2MOL1    Cl  791   0.380   1.815   0.528
    2MOL1     H  792   0.506   1.782   0.725
    2MOL1    Cl  793   3.657   1.906   3.731
    2MOL1     C  794   3.665   1.765   3.624
    2MOL1    Cl  795   3.572   1.793   3.476
    2MOL1    Cl  796   3.834   1.726   3.586
    2MOL1     H  797   3.622   1.680   3.677
    2MOL1    Cl  798   1.596   2.429   2.989
    2MOL1     C  799   1.420   2.438   2.998
    2MOL1    Cl  800   1.352   2.284   3.053
    2MOL1    Cl  801   1.370   2.570   3.106
    2MOL1     H  802   1.381   2.460   2.898
    2MOL1    Cl  803   0.700   4.545   5.047
    2MOL1     C  804   0.803   4.678   4.993
    2MOL1    Cl  805   0.880   4.757   5.132
    2MOL1    Cl  806   0.925   4.620   4.879
    2MOL1     H  807   0.740   4.752   4.942
    2MOL1    Cl  808   4.679   4.589   0.185
    2MOL1     C  809   4.700   4.760   0.226
    2MOL1    Cl  810   4.873   4.799   0.239
    2MOL1    Cl  811   4.622   4.863   0.106
    2MOL1     H  812   4.653   4.778   0.323
    2MOL1    Cl  813   0.584   1.547   0.586
    2MOL1     C  814   0.756   1.572   0.623
    2MOL1    Cl  815   0.775   1.652   0.780
    2MOL1    Cl  816   0.842   1.417   0.621
    2MOL1     H  817   0.799   1.636   0.546
    2MOL1    Cl  818   2.582   0.371   3.563
    2MOL1     C  819   2.413   0.346   3.514
    2MOL1    Cl  820   2.365   0.466   3.394
    2MOL1    Cl  821   2.391   0.182   3.450
    2MOL1     H  822   2.350   0.357   3.602
    2MOL1    Cl  823   0.476   1.372   3.393
    2MOL1     C  824   0.555   1.527   3.365
    2MOL1    Cl  825   0.694   1.508   3.257
    2MOL1    Cl  826   0.440   1.645   3.298
    2MOL1     H  827   0.591   1.566   3.461
    2MOL1    Cl  828   0.219   4.248   5.041
    2MOL1     C  829   0.290   4.402   4.990
    2MOL1    Cl  830   0.397   4.379   4.851
    2MOL1    Cl  831   0.163   4.520   4.952
    2MOL1     H  832   0.349   4.441   5.073
    2MOL1    Cl  833   4.460   1.520   2.209
    2MOL1     C  834   4.301   1.447   2.235
    2MOL1    Cl  835   4.317   1.294   2.323
    2MOL1    Cl  836   4.195   1.558   2.323
    2MOL1     H  837   4.256   1.427   2.138
    2MOL1    Cl  838   1.434   0.755   1.669
    2MOL1     C  839   1.502   0.656   1.800
    2MOL1    Cl  840   1.495   0.743   1.954
    2MOL1    Cl  841   1.416   0.501   1.812
    2MOL1     H  842   1.607   0.636   1.777
    2MOL1    Cl  843   1.998   1.951   3.596
    2MOL1     C  844   2.081   1.801   3.552
    2MOL1    Cl  845   2.010   1.733   3.404
    2MOL1    Cl  846   2.254   1.830   3.529
    2MOL1     H  847   2.068   1.729   3.633
    2MOL1    Cl  848   2.513   3.404   3.770
    2MOL1     C  849   2.610   3.549   3.799
    2MOL1    Cl  850   2.527   3.658   3.911
    2MOL1    Cl  851   2.770   3.506   3.861
    2MOL1     H  852   2.623   3.602   3.704
    2MOL1    Cl  853   0.799   1.509   3.744
    2MOL1     C  854   0.906   1.369   3.730
    2MOL1    Cl  855   0.950   1.307   3.890
    2MOL1    Cl  856   0.828   1.242   3.633
    2MOL1     H  857   0.997   1.400   3.678
    2MOL1    Cl  858   0.917   4.343   2.007
    2MOL1     C  859   0.788   4.426   1.919
    2MOL1    Cl  860   0.637   4.333   1.927
    2MOL1    Cl  861   0.763   4.589   1.984
    2MOL1     H  862   0.818   4.435   1.814
    2MOL1    Cl  863   3.477   4.191   2.561
    2MOL1     C  864   3.650   4.171   2.591
    2MOL1    Cl  865   3.699   4.261   2.736
    2MOL1    Cl  866   3.692   4.000   2.607
    2MOL1     H  867   3.705   4.212   2.506
    2MOL1    Cl  868   0.858   2.440   3.505
    2MOL1     C  869   0.713   2.538   3.532
    2MOL1    Cl  870   0.595   2.451   3.631
    2MOL1    Cl  871   0.756   2.693   3.607
    2MOL1     H  872   0.667   2.559   3.435
    2MOL1    Cl  873   1.639   3.819   1.831
    2MOL1     C  874   1.807   3.834   1.776
    2MOL1    Cl  875   1.919   3.781   1.903
    2MOL1    Cl  876   1.833   3.739   1.628
    2MOL1     H  877   1.827   3.939   1.753
    2MOL1    Cl  878   1.475   1.542   2.532
    2MOL1     C  879   1.605   1.615   2.628
    2MOL1    Cl  880   1.665   1.763   2.551
    2MOL1    Cl  881   1.548   1.650   2.793
    2MOL1     H  882   1.687   1.544   2.635
    2MOL1    Cl  883   3.972   0.301   4.069
    2MOL1     C  884   3.950   0.126   4.050
    2MOL1    Cl  885   3.812   0.093   3.943
    2MOL1    Cl  886   4.097   0.051   3.987
    2MOL1     H  887   3.928   0.083   4.148
    2MOL1    Cl  888   0.079   4.696   4.570
    2MOL1     C  889   0.171   4.546   4.585
    2MOL1    Cl  890   0.328   4.576   4.662
    2MOL1    Cl  891   0.079   4.425   4.676
    2MOL1     H  892   0.190   4.506   4.485
    2MOL1    Cl  893   1.158   1.568   0.705
    2MOL1     C  894   1.114   1.704   0.809
    2MOL1    Cl  895   0.980   1.796   0.739
    2MOL1    Cl  896   1.073   1.647   0.972
    2MOL1     H  897   1.201   1.771   0.817
    2MOL1    Cl  898   2.913   2.788   0.351
    2MOL1     C  899   2.738   2.817   0.341
    2MOL1    Cl  900   2.689   2.844   0.173
    2MOL1    Cl  901   2.649   2.682   0.412
    2MOL1     H  902   2.715   2.908   0.398
    2MOL1    Cl  903   3.594   1.512   3.347
    2MOL1     C  904   3.632   1.395   3.475
    2MOL1    Cl  905   3.633   1.230   3.410
    2MOL1    Cl  906   3.787   1.434   3.551
    2MOL1     H  907   3.554   1.401   3.551
    2MOL1    Cl  908   3.470   0.474   2.009
    2MOL1     C  909   3.505   0.308   1.958
    2MOL1    Cl  910   3.541   0.302   1.784
    2MOL1    Cl  911   3.639   0.240   2.052
    2MOL1     H  912   3.416   0.247   1.976
    2MOL1    Cl  913   4.260   2.581   1.595
    2MOL1     C  914   4.126   2.683   1.540
    2MOL1    Cl  915   4.187   2.819   1.443
    2MOL1    Cl  916   4.009   2.588   1.447
    2MOL1     H  917   4.075   2.724   1.628
    2MOL1    Cl  918   2.834   4.329   2.626
    2MOL1     C  919   2.982   4.286   2.713
    2MOL1    Cl  920   2.962   4.134   2.802
    2MOL1    Cl  921   3.120   4.276   2.602
    2MOL1     H  922   3.003   4.366   2.786
    2MOL1    Cl  923   4.603   1.072   2.709
    2MOL1     C  924   4.439   1.110   2.763
    2MOL1    Cl  925   4.391   1.006   2.898
    2MOL1    Cl  926   4.427   1.281   2.808
    2MOL1     H  927   4.371   1.092   2.679
    2MOL1    Cl  928   1.049   1.943   4.956
    2MOL1     C  929   1.086   2.107   4.901
    2MOL1    Cl  930   1.249   2.115   4.833
    2MOL1    Cl  931   0.966   2.161   4.782
    2MOL1     H  932   1.081   2.174   4.988
    2MOL1    Cl  933   2.472   4.472   4.483
    2MOL1     C  934   2.448   4.631   4.557
    2MOL1    Cl  935   2.350   4.618   4.704
    2MOL1    Cl  936   2.604   4.707   4.593
    2MOL1     H  937   2.395   4.695   4.485
    2MOL1    Cl  938   2.329   5.296   5.065
    2MOL1     C  939   2.344   5.122   5.092
    2MOL1    Cl  940   2.479   5.087   5.201
    2MOL1    Cl  941   2.193   5.056   5.157
    2MOL1     H  942   2.364   5.074   4.996
    2MOL1    Cl  943   1.912   1.219   3.172
    2MOL1     C  944   2.009   1.277   3.035
    2MOL1    Cl  945   2.168   1.330   3.091
    2MOL1    Cl  946   2.024   1.152   2.911
    2MOL1     H  947   1.957   1.363   2.991
    2MOL1    Cl  948   1.777   2.256   5.194
    2MOL1     C  949   1.946   2.226   5.150
    2MOL1    Cl  950   2.003   2.075   5.224
    2MOL1    Cl  951   1.965   2.220   4.974
    2MOL1     H  952   2.007   2.308   5.189
    2MOL1    Cl  953   2.266   1.664   1.722
    2MOL1     C  954   2.236   1.832   1.672
    2MOL1    Cl  955   2.368   1.890   1.569
    2MOL1    Cl  956   2.081   1.845   1.588
    2MOL1     H  957   2.232   1.894   1.762
    2MOL1    Cl  958   2.635   2.765   0.870
    2MOL1     C  959   2.734   2.713   1.008
    2MOL1    Cl  960   2.830   2.570   0.966
    2MOL1    Cl  961   2.840   2.845   1.062
    2MOL1     H  962   2.668   2.687   1.090
    2MOL1    Cl  963   3.017   1.780   1.866
    2MOL1     C  964   3.058   1.869   2.013
    2MOL1    Cl  965   3.231   1.907   2.017
    2MOL1    Cl  966   2.962   2.018   2.025
    2MOL1     H  967   3.035   1.807   2.100
    2MOL1    Cl  968   4.764   4.450   2.773
    2MOL1     C  969   4.604   4.515   2.735
    2MOL1    Cl  970   4.600   4.581   2.571
    2MOL1    Cl  971   4.479   4.391   2.756
    2MOL1     H  972   4.583   4.597   2.805
    2MOL1    Cl  973   3.161   0.393   4.783
    2MOL1     C  974   3.248   0.456   4.923
    2MOL1    Cl  975   3.302   0.324   5.028
    2MOL1    Cl  976   3.385   0.556   4.872
    2MOL1     H  977   3.179   0.519   4.981
    2MOL1    Cl  978   4.077   3.980   4.031
    2MOL1     C  979   3.978   4.008   4.175
    2MOL1    Cl  980   3.949   4.181   4.198
    2MOL1    Cl  981   3.825   3.920   4.163
    2MOL1     H  982   4.032   3.971   4.262
    2MOL1    Cl  983   2.109   1.344   2.456
    2MOL1     C  984   1.999   1.365   2.593
    2MOL1    Cl  985   2.082   1.330   2.746
    2MOL1    Cl  986   1.932   1.529   2.595
    2MOL1     H  987   1.916   1.294   2.582
    2MOL1    Cl  988   2.659   0.312   0.131
    2MOL1     C  989   2.665   0.489   0.132
    2MOL1    Cl  990   2.601   0.552   0.285
    2MOL1    Cl  991   2.831   0.546   0.106
    2MOL1     H  992   2.602   0.526   0.051
    2MOL1    Cl  993   2.321   2.952   1.922
    2MOL1     C  994   2.438   2.891   2.040
    2MOL1    Cl  995   2.433   2.989   2.188
    2MOL1    Cl  996   2.406   2.721   2.077
    2MOL1     H  997   2.538   2.899   1.997
    2MOL1    Cl  998   1.288   4.923   1.623
    2MOL1     C  999   1.112   4.942   1.634
    2MOL1    Cl 1000   1.056   5.068   1.523
    2MOL1    Cl 1001   1.031   4.788   1.599
    2MOL1     H 1002   1.087   4.972   1.736
    2MOL1    Cl 1003   4.178   2.236   4.557
    2MOL1     C 1004   4.241   2.327   4.418
    2MOL1    Cl 1005   4.410   2.284   4.388
    2MOL1    Cl 1006   4.143   2.297   4.274
    2MOL1     H 1007   4.236   2.433   4.441
    2MOL1    Cl 1008   1.984   5.131   4.994
    2MOL1     C 1009   1.926   5.061   5.147
    2MOL1    Cl 1010   1.750   5.045   5.145
    2MOL1    Cl 1011   2.003   4.904   5.176
    2MOL1     H 1012   1.954   5.129   5.228
    2MOL1    Cl 1013   3.468   3.763   0.690
    2MOL1     C 1014   3.468   3.927   0.625
    2MOL1    Cl 1015   3.330   4.020   0.686
    2MOL1    Cl 1016   3.620   4.009   0.664
    2MOL1     H 1017   3.460   3.921   0.516
    2MOL1    Cl 1018   4.794   1.020   0.986
    2MOL1     C 1019   4.643   0.982   1.071
    2MOL1    Cl 1020   4.661   0.836   1.169
    2MOL1    Cl 1021   4.592   1.119   1.171
    2MOL1     H 1022   4.566   0.964   0.996
    2MOL1    Cl 1023   4.264   1.930   1.855
    2MOL1     C 1024   4.154   1.850   1.969
    2MOL1    Cl 1025   4.047   1.969   2.046
    2MOL1    Cl 1026   4.058   1.725   1.886
    2MOL1     H 1027   4.214   1.802   2.046
    2MOL1    Cl 1028   3.975   1.676   0.054
    2MOL1     C 1029   4.135   1.730   0.106
    2MOL1    Cl 1030   4.144   1.907   0.108
    2MOL1    Cl 1031   4.174   1.664   0.266
    2MOL1     H 1032   4.209   1.693   0.035
    2MOL1    Cl 1033   0.191   0.240   4.539
    2MOL1     C 1034   0.123   0.091   4.473
    2MOL1    Cl 1035   0.036   0.001   4.598
    2MOL1    Cl 1036   0.016   0.127   4.336
    2MOL1     H 1037   0.205   0.028   4.436
    2MOL1    Cl 1038   3.902   3.219   4.945
    2MOL1     C 1039   4.001   3.226   4.798
    2MOL1    Cl 1040   4.128   3.348   4.815
    2MOL1    Cl 1041   4.070   3.067   4.763
    2MOL1     H 1042   3.936   3.254   4.715
    2MOL1    Cl 1043   1.189   0.411   3.715
    2MOL1     C 1044   1.231   0.553   3.812
    2MOL1    Cl 1045   1.363   0.516   3.924
    2MOL1    Cl 1046   1.274   0.690   3.707
    2MOL1     H 1047   1.143   0.582   3.871
    2MOL1    Cl 1048   3.646   0.509   1.483
    2MOL1     C 1049   3.568   0.354   1.447
    2MOL1    Cl 1050   3.479   0.363   1.294
    2MOL1    Cl 1051   3.688   0.224   1.442
    2MOL1     H 1052   3.497   0.332   1.527
    2MOL1    Cl 1053   1.320   0.253   4.001
    2MOL1     C 1054   1.327   0.333   4.159
    2MOL1    Cl 1055   1.183   0.433   4.185
    2MOL1    Cl 1056   1.344   0.213   4.289
    2MOL1     H 1057   1.415   0.398   4.161
    2MOL1    Cl 1058   2.144   1.204   4.231
    2MOL1     C 1059   2.316   1.225   4.264
    2MOL1    Cl 1060   2.343   1.364   4.371
    2MOL1    Cl 1061   2.384   1.078   4.336
    2MOL1     H 1062   2.368   1.244   4.170
    2MOL1    Cl 1063   3.194   0.646   0.351
    2MOL1     C 1064   3.351   0.713   0.397
    2MOL1    Cl 1065   3.469   0.690   0.267
    2MOL1    Cl 1066   3.336   0.884   0.440
    2MOL1     H 1067   3.386   0.659   0.486
    2MOL1    Cl 1068   1.574   2.112   2.786
    2MOL1     C 1069   1.683   2.224   2.703
    2MOL1    Cl 1070   1.787   2.137   2.589
    2MOL1    Cl 1071   1.591   2.350   2.620
    2MOL1     H 1072   1.747   2.272   2.778
    2MOL1    Cl 1073   4.875   3.927   4.761
    2MOL1     C 1074   4.984   4.034   4.672
    2MOL1    Cl 1075   5.150   4.015   4.729
    2MOL1    Cl 1076   4.974   4.003   4.498
    2MOL1     H 1077   4.953   4.137   4.690
    2MOL1    Cl 1078   0.737   0.848   2.784
    2MOL1     C 1079   0.878   0.943   2.734
    2MOL1    Cl 1080   0.873   0.974   2.559
    2MOL1    Cl 1081   0.887   1.094   2.824
    2MOL1     H 1082   0.968   0.884   2.755
    2MOL1    Cl 1083   4.884   0.953   3.612
    2MOL1     C 1084   4.720   0.994   3.662
    2MOL1    Cl 1085   4.615   1.019   3.521
    2MOL1    Cl 1086   4.653   0.867   3.767
    2MOL1     H 1087   4.723   1.087   3.719
    2MOL1    Cl 1088   4.984   4.688   0.696
    2MOL1     C 1089   5.119   4.794   0.654
    2MOL1    Cl 1090   5.230   4.713   0.542
    2MOL1    Cl 1091   5.060   4.945   0.584
    2MOL1     H 1092   5.174   4.818   0.746
    2MOL1    Cl 1093   0.619   3.251   0.367
    2MOL1     C 1094   0.719   3.397   0.366
    2MOL1    Cl 1095   0.860   3.376   0.261
    2MOL1    Cl 1096   0.623   3.537   0.316
    2MOL1     H 1097   0.755   3.415   0.468
    2MOL1    Cl 1098   1.262   2.428   4.593
    2MOL1     C 1099   1.235   2.466   4.763
    2MOL1    Cl 1100   1.083   2.395   4.820
    2MOL1    Cl 1101   1.371   2.411   4.863
    2MOL1     H 1102   1.227   2.575   4.773
    2MOL1    Cl 1103   1.541   4.249   0.040
    2MOL1     C 1104   1.598   4.103   0.123
    2MOL1    Cl 1105   1.584   3.962   0.017
    2MOL1    Cl 1106   1.766   4.124   0.177
    2MOL1     H 1107   1.536   4.087   0.211
    2MOL1    Cl 1108   0.640   3.446   0.671
    2MOL1     C 1109   0.719   3.292   0.712
    2MOL1    Cl 1110   0.627   3.156   0.646
    2MOL1    Cl 1111   0.886   3.290   0.651
    2MOL1     H 1112   0.722   3.283   0.820
    2MOL1    Cl 1113   4.086   1.638   2.577
    2MOL1     C 1114   4.262   1.635   2.597
    2MOL1    Cl 1115   4.316   1.773   2.694
    2MOL1    Cl 1116   4.314   1.483   2.671
    2MOL1     H 1117   4.308   1.643   2.498
    2MOL1    Cl 1118   2.030   0.673   4.309
    2MOL1     C 1119   2.187   0.624   4.375
    2MOL1    Cl 1120   2.270   0.763   4.448
    2MOL1    Cl 1121   2.167   0.494   4.494
    2MOL1     H 1122   2.249   0.586   4.294
    2MOL1    Cl 1123   0.352   0.110   2.521
    2MOL1     C 1124   0.405   0.264   2.593
    2MOL1    Cl 1125   0.574   0.297   2.554
    2MOL1    Cl 1126   0.301   0.397   2.539
    2MOL1     H 1127   0.396   0.255   2.702
    2MOL1    Cl 1128   2.002   4.515   4.625
    2MOL1     C 1129   1.855   4.515   4.526
    2MOL1    Cl 1130   1.731   4.412   4.600
    2MOL1    Cl 1131   1.794   4.680   4.505
    2MOL1     H 1132   1.879   4.474   4.428
    2MOL1    Cl 1133   4.233   4.792   1.501
    2MOL1     C 1134   4.260   4.631   1.570
    2MOL1    Cl 1135   4.415   4.564   1.515
    2MOL1    Cl 1136   4.256   4.639   1.748
    2MOL1     H 1137   4.180   4.565   1.537
    2MOL1    Cl 1138   1.126   2.757   0.618
    2MOL1     C 1139   1.107   2.583   0.588
    2MOL1    Cl 1140   0.937   2.535   0.607
    2MOL1    Cl 1141   1.167   2.541   0.427
    2MOL1     H 1142   1.166   2.529   0.662
    2MOL1    Cl 1143   1.266   1.086   4.296
    2MOL1     C 1144   1.407   0.984   4.265
    2MOL1    Cl 1145   1.364   0.847   4.161
    2MOL1    Cl 1146   1.538   1.078   4.193
    2MOL1     H 1147   1.442   0.944   4.361
    2MOL1    Cl 1148   1.750   1.439   0.871
    2MOL1     C 1149   1.895   1.540   0.889
    2MOL1    Cl 1150   1.875   1.654   1.023
    2MOL1    Cl 1151   2.038   1.439   0.915
    2MOL1     H 1152   1.909   1.597   0.797
    2MOL1    Cl 1153   1.260   4.457   1.307
    2MOL1     C 1154   1.273   4.578   1.437
    2MOL1    Cl 1155   1.333   4.731   1.373
    2MOL1    Cl 1156   1.117   4.600   1.517
    2MOL1     H 1157   1.345   4.541   1.511
    2MOL1    Cl 1158   5.014   2.755   2.465
    2MOL1     C 1159   5.124   2.761   2.603
    2MOL1    Cl 1160   5.066   2.659   2.734
    2MOL1    Cl 1161   5.288   2.713   2.554
    2MOL1     H 1162   5.128   2.865   2.639
    2MOL1    Cl 1163   1.059   2.589   0.193
    2MOL1     C 1164   0.938   2.464   0.160
    2MOL1    Cl 1165   0.933   2.346   0.292
    2MOL1    Cl 1166   0.778   2.538   0.137
    2MOL1     H 1167   0.965   2.413   0.068
    2MOL1    Cl 1168   3.742   4.813   3.538
    2MOL1     C 1169   3.660   4.740   3.399
    2MOL1    Cl 1170   3.742   4.592   3.349
    2MOL1    Cl 1171   3.490   4.707   3.438
    2MOL1     H 1172   3.663   4.811   3.316
    2MOL1    Cl 1173   2.122   0.893   2.333
    2MOL1     C 1174   2.210   1.026   2.410
    2MOL1    Cl 1175   2.278   1.135   2.288
    2MOL1    Cl 1176   2.104   1.115   2.521
    2MOL1     H 1177   2.293   0.983   2.468
    2MOL1    Cl 1178   0.666   4.752   4.493
    2MOL1     C 1179   0.693   4.578   4.512
    2MOL1    Cl 1180   0.540   4.489   4.494
    2MOL1    Cl 1181   0.813   4.520   4.395
    2MOL1     H 1182   0.732   4.560   4.613
    2MOL1    Cl 1183   2.083   4.691   3.996
    2MOL1     C 1184   2.048   4.853   3.935
    2MOL1    Cl 1185   2.196   4.932   3.878
    2MOL1    Cl 1186   1.928   4.846   3.805
    2MOL1     H 1187   2.006   4.913   4.017
    2MOL1    Cl 1188   1.223   0.447   1.199
    2MOL1     C 1189   1.198   0.274   1.229
    2MOL1    Cl 1190   1.293   0.220   1.368
    2MOL1    Cl 1191   1.026   0.240   1.254
    2MOL1     H 1192   1.232   0.218   1.141
    2MOL1    Cl 1193   2.495   2.943   1.084
    2MOL1     C 1194   2.521   3.118   1.076
    2MOL1    Cl 1195   2.446   3.199   1.215
    2MOL1    Cl 1196   2.694   3.155   1.069
    2MOL1     H 1197   2.474   3.156   0.985
    2MOL1    Cl 1198   1.156   3.532   1.128
    2MOL1     C 1199   1.017   3.638   1.099
    2MOL1    Cl 1200   0.930   3.588   0.953
    2MOL1    Cl 1201   0.908   3.636   1.240
    2MOL1     H 1202   1.053   3.740   1.085
    2MOL1    Cl 1203   3.888   2.315   2.212
    2MOL1     C 1204   3.817   2.385   2.066
    2MOL1    Cl 1205   3.888   2.311   1.921
    2MOL1    Cl 1206   3.641   2.364   2.066
    2MOL1     H 1207   3.839   2.492   2.064
    2MOL1    Cl 1208   2.794   2.294   1.345
    2MOL1     C 1209   2.750   2.445   1.264
    2MOL1    Cl 1210   2.615   2.524   1.348
    2MOL1    Cl 1211   2.890   2.554   1.254
    2MOL1     H 1212   2.718   2.422   1.162
    2MOL1    Cl 1213   2.806   3.591   4.425
    2MOL1     C 1214   2.742   3.508   4.282
    2MOL1    Cl 1215   2.870   3.482   4.162
    2MOL1    Cl 1216   2.668   3.353   4.328
    2MOL1     H 1217   2.665   3.571   4.237
    2MOL1    Cl 1218   1.141   2.997   4.069
    2MOL1     C 1219   1.174   2.901   4.214
    2MOL1    Cl 1220   1.170   3.003   4.359
    2MOL1    Cl 1221   1.058   2.768   4.228
    2MOL1     H 1222   1.274   2.858   4.205
    2MOL1    Cl 1223   1.486   2.753   3.440
    2MOL1     C 1224   1.516   2.927   3.449
    2MOL1    Cl 1225   1.684   2.964   3.407
    2MOL1    Cl 1226   1.405   3.016   3.343
    2MOL1     H 1227   1.498   2.960   3.552
    2MOL1    Cl 1228   3.974   4.780   3.838
    2MOL1     C 1229   3.801   4.767   3.873
    2MOL1    Cl 1230   3.771   4.642   3.995
    2MOL1    Cl 1231   3.737   4.924   3.928
    2MOL1     H 1232   3.749   4.739   3.781
    2MOL1    Cl 1233   0.004   3.242   0.543
    2MOL1     C 1234   0.179   3.228   0.521
    2MOL1    Cl 1235   0.234   3.065   0.561
    2MOL1    Cl 1236   0.224   3.270   0.354
    2MOL1     H 1237   0.228   3.299   0.588
    2MOL1    Cl 1238   1.570   2.360   4.972
    2MOL1     C 1239   1.459   2.297   5.095
    2MOL1    Cl 1240   1.548   2.241   5.237
    2MOL1    Cl 1241   1.340   2.420   5.140
    2MOL1     H 1242   1.406   2.211   5.052
    2MOL1    Cl 1243   0.110   1.948   2.982
    2MOL1     C 1244   0.277   1.930   3.038
    2MOL1    Cl 1245   0.387   2.027   2.940
    2MOL1    Cl 1246   0.290   1.974   3.210
    2MOL1     H 1247   0.305   1.824   3.028
    2MOL1    Cl 1248   3.788   0.303   4.947
    2MOL1     C 1249   3.633   0.218   4.945
    2MOL1    Cl 1250   3.657   0.043   4.959
    2MOL1    Cl 1251   3.527   0.277   5.074
    2MOL1     H 1252   3.584   0.238   4.849
    2MOL1    Cl 1253   1.869   2.727   2.219
    2MOL1     C 1254   1.730   2.824   2.168
    2MOL1    Cl 1255   1.778   2.992   2.140
    2MOL1    Cl 1256   1.656   2.755   2.023
    2MOL1     H 1257   1.656   2.823   2.249
    2MOL1    Cl 1258   4.139   0.520   4.292
    2MOL1     C 1259   4.167   0.663   4.191
    2MOL1    Cl 1260   4.100   0.639   4.029
    2MOL1    Cl 1261   4.097   0.807   4.267
    2MOL1     H 1262   4.275   0.678   4.182
    2MOL1    Cl 1263   0.229   3.741   1.485
    2MOL1     C 1264   0.324   3.839   1.598
    2MOL1    Cl 1265   0.273   4.008   1.593
    2MOL1    Cl 1266   0.311   3.774   1.762
    2MOL1     H 1267   0.429   3.834   1.567
    2MOL1    Cl 1268   0.365   1.510   0.861
    2MOL1     C 1269   0.241   1.626   0.911
    2MOL1    Cl 1270   0.279   1.695   1.069
    2MOL1    Cl 1271   0.223   1.754   0.789
    2MOL1     H 1272   0.146   1.572   0.918
    2MOL1    Cl 1273   3.828   2.504   2.734
    2MOL1     C 1274   3.705   2.536   2.857
    2MOL1    Cl 1275   3.545   2.485   2.801
    2MOL1    Cl 1276   3.746   2.454   3.009
    2MOL1     H 1277   3.702   2.643   2.876
    2MOL1    Cl 1278   0.434   4.928   3.002
    2MOL1     C 1279   0.330   4.836   2.891
    2MOL1    Cl 1280   0.269   4.690   2.969
    2MOL1    Cl 1281   0.197   4.937   2.833
    2MOL1     H 1282   0.390   4.807   2.805
    2MOL1    Cl 1283   0.229   4.660   2.497
    2MOL1     C 1284   0.057   4.652   2.455
    2MOL1    Cl 1285   0.004   4.805   2.382
    2MOL1    Cl 1286   0.026   4.517   2.344
    2MOL1     H 1287   0.000   4.636   2.546
    2MOL1    Cl 1288   0.454   2.706   2.388
    2MOL1     C 1289   0.610   2.622   2.388
    2MOL1    Cl 1290   0.733   2.718   2.472
    2MOL1    Cl 1291   0.593   2.462   2.464
    2MOL1     H 1292   0.641   2.608   2.285
    2MOL1    Cl 1293   0.761   4.128   2.830
    2MOL1     C 1294   0.613   4.034   2.856
    2MOL1    Cl 1295   0.536   3.996   2.701
    2MOL1    Cl 1296   0.648   3.886   2.946
    2MOL1     H 1297   0.544   4.095   2.915
    2MOL1    Cl 1298   2.372   0.760   3.891
    2MOL1     C 1299   2.361   0.647   4.028
    2MOL1    Cl 1300   2.205   0.562   4.026
    2MOL1    Cl 1301   2.495   0.531   4.023
    2MOL1     H 1302   2.368   0.704   4.120
    2MOL1    Cl 1303   1.733   1.915   2.162
    2MOL1     C 1304   1.908   1.893   2.148
    2MOL1    Cl 1305   1.994   2.016   2.242
    2MOL1    Cl 1306   1.955   1.730   2.202
    2MOL1     H 1307   1.936   1.903   2.043
    2MOL1    Cl 1308   0.955   3.171   2.200
    2MOL1     C 1309   0.894   3.231   2.354
    2MOL1    Cl 1310   0.924   3.405   2.370
    2MOL1    Cl 1311   0.721   3.196   2.371
    2MOL1     H 1312   0.947   3.179   2.435
    2MOL1    Cl 1313   4.879   3.748   3.134
    2MOL1     C 1314   4.703   3.759   3.153
    2MOL1    Cl 1315   4.621   3.667   3.025
    2MOL1    Cl 1316   4.653   3.702   3.313
    2MOL1     H 1317   4.674   3.864   3.143
    2MOL1    Cl 1318   4.388   0.852   4.581
    2MOL1     C 1319   4.300   1.005   4.593
    2MOL1    Cl 1320   4.413   1.142   4.597
    2MOL1    Cl 1321   4.185   1.022   4.459
    2MOL1     H 1322   4.244   1.004   4.687
    2MOL1    Cl 1323   0.086   3.183   4.526
    2MOL1     C 1324   0.192   3.103   4.642
    2MOL1    Cl 1325   0.201   3.196   4.793
    2MOL1    Cl 1326   0.135   2.938   4.675
    2MOL1     H 1327   0.292   3.097   4.600
    2MOL1    Cl 1328   1.148   1.950   0.166
    2MOL1     C 1329   1.073   1.895   0.317
    2MOL1    Cl 1330   1.175   1.935   0.455
    2MOL1    Cl 1331   0.912   1.967   0.336
    2MOL1     H 1332   1.062   1.787   0.312
    2MOL1    Cl 1333   1.921   2.309   1.792
    2MOL1     C 1334   1.942   2.133   1.792
    2MOL1    Cl 1335   1.810   2.054   1.704
    2MOL1    Cl 1336   2.099   2.088   1.722
    2MOL1     H 1337   1.939   2.098   1.896
    2MOL1    Cl 1338   2.664   4.478   3.960
    2MOL1     C 1339   2.526   4.468   3.849
    2MOL1    Cl 1340   2.525   4.606   3.737
    2MOL1    Cl 1341   2.529   4.315   3.760
    2MOL1     H 1342   2.434   4.472   3.908
    2MOL1    Cl 1343   3.223   0.433   1.680
    2MOL1     C 1344   3.262   0.585   1.761
    2MOL1    Cl 1345   3.436   0.595   1.794
    2MOL1    Cl 1346   3.209   0.723   1.664
    2MOL1     H 1347   3.209   0.588   1.856
    2MOL1    Cl 1348   2.347   4.860   4.800
    2MOL1     C 1349   2.462   4.844   4.934
    2MOL1    Cl 1350   2.558   4.697   4.915
    2MOL1    Cl 1351   2.567   4.986   4.944
    2MOL1     H 1352   2.405   4.837   5.027
    2MOL1    Cl 1353   2.490   1.950   3.497
    2MOL1     C 1354   2.656   1.940   3.435
    2MOL1    Cl 1355   2.706   1.771   3.417
    2MOL1    Cl 1356   2.670   2.026   3.281
    2MOL1     H 1357   2.723   1.988   3.508
    2MOL1    Cl 1358   0.859   1.859   4.870
    2MOL1     C 1359   0.855   1.819   5.042
    2MOL1    Cl 1360   0.996   1.720   5.086
    2MOL1    Cl 1361   0.850   1.967   5.140
    2MOL1     H 1362   0.765   1.761   5.063
    2MOL1    Cl 1363   3.039   1.107   3.005
    2MOL1     C 1364   3.147   1.155   3.137
    2MOL1    Cl 1365   3.313   1.103   3.104
    2MOL1    Cl 1366   3.140   1.330   3.162
    2MOL1     H 1367   3.113   1.106   3.229
    2MOL1    Cl 1368   3.571   0.784   1.586
    2MOL1     C 1369   3.732   0.739   1.645
    2MOL1    Cl 1370   3.824   0.884   1.691
    2MOL1    Cl 1371   3.720   0.627   1.781
    2MOL1     H 1372   3.785   0.689   1.564
    2MOL1    Cl 1373   0.390   0.710   0.902
    2MOL1     C 1374   0.368   0.537   0.873
    2MOL1    Cl 1375   0.198   0.491   0.895
    2MOL1    Cl 1376   0.424   0.494   0.711
    2MOL1     H 1377   0.428   0.482   0.946
    2MOL1    Cl 1378   0.766   3.993   3.758
    2MOL1     C 1379   0.894   3.871   3.745
    2MOL1    Cl 1380   0.900   3.771   3.891
    2MOL1    Cl 1381   0.868   3.769   3.602
    2MOL1     H 1382   0.989   3.922   3.734
    2MOL1    Cl 1383   5.339   4.167   4.459
    2MOL1     C 1384   5.180   4.244   4.455
    2MOL1    Cl 1385   5.192   4.409   4.390
    2MOL1    Cl 1386   5.066   4.148   4.360
    2MOL1     H 1387   5.142   4.250   4.558
    2MOL1    Cl 1388   3.639   1.671   0.937
    2MOL1     C 1389   3.751   1.809   0.928
    2MOL1    Cl 1390   3.741   1.907   1.075
    2MOL1    Cl 1391   3.917   1.753   0.901
    2MOL1     H 1392   3.721   1.871   0.843
    2MOL1    Cl 1393   3.478   4.417   3.908
    2MOL1     C 1394   3.396   4.544   3.817
    2MOL1    Cl 1395   3.501   4.607   3.688
    2MOL1    Cl 1396   3.244   4.484   3.749
    2MOL1     H 1397   3.373   4.627   3.885
    2MOL1    Cl 1398   1.514   4.672   3.224
    2MOL1     C 1399   1.681   4.713   3.264
    2MOL1    Cl 1400   1.772   4.754   3.118
    2MOL1    Cl 1401   1.686   4.847   3.380
    2MOL1     H 1402   1.727   4.626   3.310
    2MOL1    Cl 1403   2.734   0.530   2.495
    2MOL1     C 1404   2.632   0.546   2.639
    2MOL1    Cl 1405   2.553   0.705   2.641
    2MOL1    Cl 1406   2.511   0.417   2.644
    2MOL1     H 1407   2.695   0.538   2.727
    2MOL1    Cl 1408   3.375   2.044   4.093
    2MOL1     C 1409   3.320   2.126   4.240
    2MOL1    Cl 1410   3.459   2.187   4.332
    2MOL1    Cl 1411   3.210   2.258   4.200
    2MOL1     H 1412   3.266   2.054   4.302
    2MOL1    Cl 1413   2.825   2.382   0.719
    2MOL1     C 1414   2.900   2.409   0.561
    2MOL1    Cl 1415   3.032   2.527   0.574
    2MOL1    Cl 1416   2.960   2.257   0.493
    2MOL1     H 1417   2.824   2.450   0.494
    2MOL1    Cl 1418   1.520   0.536   4.858
    2MOL1     C 1419   1.663   0.636   4.889
    2MOL1    Cl 1420   1.621   0.777   4.988
    2MOL1    Cl 1421   1.790   0.540   4.967
    2MOL1     H 1422   1.701   0.671   4.793
    2MOL1    Cl 1423   0.630   1.586   1.576
    2MOL1     C 1424   0.748   1.680   1.667
    2MOL1    Cl 1425   0.689   1.714   1.831
    2MOL1    Cl 1426   0.904   1.595   1.674
    2MOL1     H 1427   0.764   1.775   1.616
    2MOL1    Cl 1428   5.125   3.207   0.479
    2MOL1     C 1429   5.023   3.153   0.345
    2MOL1    Cl 1430   4.891   3.050   0.404
    2MOL1    Cl 1431   4.958   3.293   0.257
    2MOL1     H 1432   5.084   3.095   0.276
    2MOL1    Cl 1433   0.739   1.788   3.880
    2MOL1     C 1434   0.676   1.694   4.017
    2MOL1    Cl 1435   0.674   1.792   4.164
    2MOL1    Cl 1436   0.514   1.632   3.980
    2MOL1     H 1437   0.743   1.609   4.033
    2MOL1    Cl 1438   1.095   0.959   0.695
    2MOL1     C 1439   0.921   0.941   0.722
    2MOL1    Cl 1440   0.857   0.804   0.628
    2MOL1    Cl 1441   0.886   0.919   0.894
    2MOL1     H 1442   0.871   1.032   0.688
    2MOL1    Cl 1443   3.458   4.778   4.876
    2MOL1     C 1444   3.547   4.926   4.914
    2MOL1    Cl 1445   3.710   4.888   4.972
    2MOL1    Cl 1446   3.554   5.033   4.773
    2MOL1     H 1447   3.494   4.978   4.994
    2MOL1    Cl 1448   3.244   3.972   3.742
    2MOL1     C 1449   3.080   3.930   3.692
    2MOL1    Cl 1450   3.034   4.020   3.546
    2MOL1    Cl 1451   3.065   3.756   3.666
    2MOL1     H 1452   3.011   3.959   3.773
    2MOL1    Cl 1453   2.723   4.383   3.227
    2MOL1     C 1454   2.875   4.307   3.276
    2MOL1    Cl 1455   2.946   4.393   3.414
    2MOL1    Cl 1456   2.850   4.136   3.315
    2MOL1     H 1457   2.945   4.313   3.192
    2MOL1    Cl 1458   3.621   1.264   2.755
    2MOL1     C 1459   3.474   1.362   2.767
    2MOL1    Cl 1460   3.354   1.281   2.869
    2MOL1    Cl 1461   3.511   1.523   2.830
    2MOL1     H 1462   3.432   1.374   2.667
    2MOL1    Cl 1463   4.434   2.177   5.211
    2MOL1     C 1464   4.571   2.079   5.156
    2MOL1    Cl 1465   4.581   1.930   5.250
    2MOL1    Cl 1466   4.556   2.043   4.983
    2MOL1     H 1467   4.662   2.136   5.172
    2MOL1    Cl 1468   3.116   2.277   0.768
    2MOL1     C 1469   3.266   2.184   0.775
    2MOL1    Cl 1470   3.406   2.291   0.790
    2MOL1    Cl 1471   3.261   2.068   0.909
    2MOL1     H 1472   3.276   2.128   0.681
    2MOL1    Cl 1473   4.595   4.682   1.573
    2MOL1     C 1474   4.609   4.839   1.493
    2MOL1    Cl 1475   4.470   4.941   1.532
    2MOL1    Cl 1476   4.760   4.919   1.538
    2MOL1     H 1477   4.610   4.823   1.385
    2MOL1    Cl 1478   4.485   0.752   3.319
    2MOL1     C 1479   4.644   0.704   3.256
    2MOL1    Cl 1480   4.625   0.613   3.105
    2MOL1    Cl 1481   4.746   0.847   3.230
    2MOL1     H 1482   4.692   0.640   3.330
    2MOL1    Cl 1483   3.464   2.242   0.570
    2MOL1     C 1484   3.566   2.220   0.427
    2MOL1    Cl 1485   3.723   2.152   0.473
    2MOL1    Cl 1486   3.486   2.115   0.308
    2MOL1     H 1487   3.583   2.317   0.380
    2MOL1    Cl 1488   1.840   0.013   2.797
    2MOL1     C 1489   1.756   0.156   2.734
    2MOL1    Cl 1490   1.837   0.304   2.788
    2MOL1    Cl 1491   1.748   0.150   2.557
    2MOL1     H 1492   1.654   0.156   2.773
    2MOL1    Cl 1493   1.286   4.855   5.052
    2MOL1     C 1494   1.278   4.679   5.042
    2MOL1    Cl 1495   1.329   4.605   5.195
    2MOL1    Cl 1496   1.114   4.626   4.999
    2MOL1     H 1497   1.346   4.646   4.963
    2MOL1    Cl 1498   5.238   0.405   4.547
    2MOL1     C 1499   5.117   0.285   4.501
    2MOL1    Cl 1500   5.169   0.122   4.550
    2MOL1    Cl 1501   4.960   0.324   4.573
    2MOL1     H 1502   5.106   0.286   4.392
    2MOL1    Cl 1503   4.381   4.710   0.185
    2MOL1     C 1504   4.335   4.867   0.252
    2MOL1    Cl 1505   4.382   4.879   0.422
    2MOL1    Cl 1506   4.408   4.998   0.158
    2MOL1     H 1507   4.226   4.876   0.245
    2MOL1    Cl 1508   0.511   2.555   3.881
    2MOL1     C 1509   0.662   2.639   3.920
    2MOL1    Cl 1510   0.669   2.679   4.092
    2MOL1    Cl 1511   0.802   2.541   3.873
    2MOL1     H 1512   0.665   2.733   3.863
    2MOL1    Cl 1513   3.902   1.299   1.660
    2MOL1     C 1514   4.075   1.338   1.661
    2MOL1    Cl 1515   4.099   1.513   1.665
    2MOL1    Cl 1516   4.156   1.261   1.798
    2MOL1     H 1517   4.120   1.299   1.569
    2MOL1    Cl 1518   1.401   5.060   0.340
    2MOL1     C 1519   1.474   4.900   0.355
    2MOL1    Cl 1520   1.604   4.902   0.476
    2MOL1    Cl 1521   1.351   4.779   0.398
    2MOL1     H 1522   1.517   4.872   0.259
    2MOL1    Cl 1523   3.451   1.198   4.065
    2MOL1     C 1524   3.286   1.139   4.041
    2MOL1    Cl 1525   3.261   1.093   3.872
    2MOL1    Cl 1526   3.253   1.002   4.149
    2MOL1     H 1527   3.216   1.219   4.066
    2MOL1    Cl 1528   4.744   3.557   3.840
    2MOL1     C 1529   4.629   3.527   3.708
    2MOL1    Cl 1530   4.570   3.360   3.714
    2MOL1    Cl 1531   4.494   3.642   3.716
    2MOL1     H 1532   4.681   3.542   3.613
    2MOL1    Cl 1533   1.346   0.727   0.606
    2MOL1     C 1534   1.395   0.862   0.711
    2MOL1    Cl 1535   1.479   0.802   0.855
    2MOL1    Cl 1536   1.498   0.976   0.622
    2MOL1     H 1537   1.305   0.915   0.743
    2MOL1    Cl 1538   1.379   2.002   1.081
    2MOL1     C 1539   1.236   2.051   1.173
    2MOL1    Cl 1540   1.260   2.212   1.244
    2MOL1    Cl 1541   1.092   2.050   1.070
    2MOL1     H 1542   1.221   1.980   1.255
    2MOL1    Cl 1543   3.544   2.971   2.252
    2MOL1     C 1544   3.495   3.076   2.386
    2MOL1    Cl 1545   3.369   3.189   2.334
    2MOL1    Cl 1546   3.439   2.980   2.524
    2MOL1     H 1547   3.582   3.134   2.418
    2MOL1    Cl 1548   3.298   3.537   2.682
    2MOL1     C 1549   3.241   3.571   2.846
    2MOL1    Cl 1550   3.086   3.492   2.876
    2MOL1    Cl 1551   3.362   3.520   2.965
    2MOL1     H 1552   3.227   3.679   2.856
    2MOL1    Cl 1553   1.025   1.284   0.593
    2MOL1     C 1554   1.180   1.206   0.631
    2MOL1    Cl 1555   1.210   1.071   0.520
    2MOL1    Cl 1556   1.312   1.324   0.624
    2MOL1     H 1557   1.174   1.166   0.732
    2MOL1    Cl 1558   2.950   0.366   0.833
    2MOL1     C 1559   3.066   0.241   0.881
    2MOL1    Cl 1560   2.994   0.133   1.002
    2MOL1    Cl 1561   3.120   0.148   0.740
    2MOL1     H 1562   3.153   0.289   0.926
    2MOL1    Cl 1563   2.047   3.233   0.952
    2MOL1     C 1564   1.955   3.377   0.997
    2MOL1    Cl 1565   1.860   3.347   1.144
    2MOL1    Cl 1566   2.063   3.516   1.020
    2MOL1     H 1567   1.886   3.401   0.916
    2MOL1    Cl 1568   2.963   3.929   2.001
    2MOL1     C 1569   2.981   3.754   1.983
    2MOL1    Cl 1570   3.039   3.682   2.135
    2MOL1    Cl 1571   2.827   3.680   1.935
    2MOL1     H 1572   3.054   3.734   1.905
    2MOL1    Cl 1573   4.714   0.405   3.951
    2MOL1     C 1574   4.647   0.479   4.097
    2MOL1    Cl 1575   4.724   0.413   4.242
    2MOL1    Cl 1576   4.666   0.656   4.091
    2MOL1     H 1577   4.540   0.457   4.101
    2MOL1    Cl 1578   4.648   3.203   4.812
    2MOL1     C 1579   4.651   3.028   4.785
    2MOL1    Cl 1580   4.758   2.949   4.901
    2MOL1    Cl 1581   4.487   2.961   4.796
    2MOL1     H 1582   4.689   3.009   4.684
    2MOL1    Cl 1583   0.968   4.712   2.495
    2MOL1     C 1584   1.107   4.654   2.402
    2MOL1    Cl 1585   1.230   4.782   2.388
    2MOL1    Cl 1586   1.177   4.510   2.478
    2MOL1     H 1587   1.073   4.628   2.302
    2MOL1    Cl 1588   5.135   0.383   0.436
    2MOL1     C 1589   5.120   0.223   0.361
    2MOL1    Cl 1590   5.092   0.239   0.187
    2MOL1    Cl 1591   5.265   0.126   0.392
    2MOL1     H 1592   5.034   0.172   0.405
    2MOL1    Cl 1593   4.307   0.195   3.040
    2MOL1     C 1594   4.455   0.098   3.051
    2MOL1    Cl 1595   4.586   0.175   2.961
    2MOL1    Cl 1596   4.500   0.074   3.220
    2MOL1     H 1597   4.435   0.000   3.006
    2MOL1    Cl 1598   4.533   0.330   3.729
    2MOL1     C 1599   4.589   0.491   3.681
    2MOL1    Cl 1600   4.764   0.506   3.708
    2MOL1    Cl 1601   4.550   0.523   3.511
    2MOL1     H 1602   4.538   0.566   3.743
    2MOL1    Cl 1603   3.561   4.947   4.455
    2MOL1     C 1604   3.624   5.112   4.452
    2MOL1    Cl 1605   3.557   5.203   4.315
    2MOL1    Cl 1606   3.590   5.195   4.605
    2MOL1     H 1607   3.733   5.107   4.439
    2MOL1    Cl 1608   1.370   2.040   1.518
    2MOL1     C 1609   1.421   1.880   1.575
    2MOL1    Cl 1610   1.437   1.768   1.439
    2MOL1    Cl 1611   1.574   1.893   1.664
    2MOL1     H 1612   1.345   1.842   1.643
    2MOL1    Cl 1613   5.337   0.112   1.606
    2MOL1     C 1614   5.266   0.214   1.480
    2MOL1    Cl 1615   5.090   0.222   1.498
    2MOL1    Cl 1616   5.337   0.376   1.484
    2MOL1     H 1617   5.289   0.169   1.383
    2MOL1    Cl 1618   3.311   1.649   2.898
    2MOL1     C 1619   3.333   1.793   2.798
    2MOL1    Cl 1620   3.450   1.762   2.668
    2MOL1    Cl 1621   3.179   1.847   2.730
    2MOL1     H 1622   3.373   1.873   2.861
    2MOL1    Cl 1623   3.686   0.337   0.388
    2MOL1     C 1624   3.615   0.427   0.524
    2MOL1    Cl 1625   3.445   0.382   0.546
    2MOL1    Cl 1626   3.707   0.398   0.672
    2MOL1     H 1627   3.620   0.534   0.501
    2MOL1    Cl 1628   0.756   1.484   2.204
    2MOL1     C 1629   0.744   1.406   2.045
    2MOL1    Cl 1630   0.710   1.233   2.063
    2MOL1    Cl 1631   0.620   1.484   1.946
    2MOL1     H 1632   0.841   1.417   1.995
    2MOL1    Cl 1633   2.710   3.887   1.209
    2MOL1     C 1634   2.818   3.799   1.319
    2MOL1    Cl 1635   2.928   3.911   1.401
    2MOL1    Cl 1636   2.724   3.706   1.437
    2MOL1     H 1637   2.878   3.729   1.260
    2MOL1    Cl 1638   2.330   2.516   4.365
    2MOL1     C 1639   2.471   2.576   4.454
    2MOL1    Cl 1640   2.484   2.752   4.439
    2MOL1    Cl 1641   2.462   2.528   4.625
    2MOL1     H 1642   2.561   2.531   4.411
    2MOL1    Cl 1643   0.539   2.502   0.960
    2MOL1     C 1644   0.570   2.337   0.904
    2MOL1    Cl 1645   0.489   2.220   1.009
    2MOL1    Cl 1646   0.516   2.318   0.736
    2MOL1     H 1647   0.677   2.319   0.908
    2MOL1    Cl 1648   2.609   0.252   1.544
    2MOL1     C 1649   2.528   0.408   1.556
    2MOL1    Cl 1650   2.355   0.392   1.522
    2MOL1    Cl 1651   2.553   0.479   1.717
    2MOL1     H 1652   2.571   0.476   1.482
    2MOL1    Cl 1653   2.293   3.537   0.165
    2MOL1     C 1654   2.460   3.590   0.148
    2MOL1    Cl 1655   2.532   3.524   0.000
    2MOL1    Cl 1656   2.470   3.767   0.148
    2MOL1     H 1657   2.517   3.553   0.234
    2MOL1    Cl 1658   0.258   3.320   5.043
    2MOL1     C 1659   0.159   3.440   4.958
    2MOL1    Cl 1660   0.030   3.500   5.064
    2MOL1    Cl 1661   0.260   3.573   4.900
    2MOL1     H 1662   0.113   3.391   4.872
    2MOL1    Cl 1663   3.935   1.774   1.697
    2MOL1     C 1664   3.835   1.920   1.702
    2MOL1    Cl 1665   3.936   2.066   1.692
    2MOL1    Cl 1666   3.716   1.918   1.572
    2MOL1     H 1667   3.782   1.922   1.798
    2MOL1    Cl 1668   2.206   2.977   2.676
    2MOL1     C 1669   2.237   2.819   2.749
    2MOL1    Cl 1670   2.358   2.832   2.877
    2MOL1    Cl 1671   2.086   2.749   2.812
    2MOL1     H 1672   2.275   2.752   2.671
    2MOL1    Cl 1673   4.555   2.755   0.735
    2MOL1     C 1674   4.457   2.895   0.688
    2MOL1    Cl 1675   4.550   3.004   0.585
    2MOL1    Cl 1676   4.309   2.842   0.606
    2MOL1     H 1677   4.428   2.949   0.779
    2MOL1    Cl 1678   5.226   4.317   1.662
    2MOL1     C 1679   5.098   4.304   1.784
    2MOL1    Cl 1680   5.136   4.176   1.900
    2MOL1    Cl 1681   5.074   4.458   1.867
    2MOL1     H 1682   5.005   4.277   1.733
    2MOL1    Cl 1683   3.379   1.813   3.754
    2MOL1     C 1684   3.281   1.678   3.814
    2MOL1    Cl 1685   3.364   1.593   3.945
    2MOL1    Cl 1686   3.122   1.735   3.867
    2MOL1     H 1687   3.267   1.607   3.731
    2MOL1    Cl 1688   1.039   3.899   2.422
    2MOL1     C 1689   0.928   3.764   2.447
    2MOL1    Cl 1690   1.002   3.640   2.549
    2MOL1    Cl 1691   0.776   3.821   2.518
    2MOL1     H 1692   0.905   3.719   2.349
    2MOL1    Cl 1693   2.952   4.153   2.118
    2MOL1     C 1694   3.025   4.133   2.278
    2MOL1    Cl 1695   2.916   4.193   2.405
    2MOL1    Cl 1696   3.066   3.963   2.307
    2MOL1     H 1697   3.118   4.191   2.282
    2MOL1    Cl 1698   1.304   3.098   2.218
    2MOL1     C 1699   1.400   3.026   2.349
    2MOL1    Cl 1700   1.467   3.152   2.454
    2MOL1    Cl 1701   1.302   2.912   2.442
    2MOL1     H 1702   1.484   2.971   2.304
    2MOL1    Cl 1703   4.504   0.289   5.228
    2MOL1     C 1704   4.605   0.152   5.179
    2MOL1    Cl 1705   4.546   0.083   5.027
    2MOL1    Cl 1706   4.774   0.202   5.162
    2MOL1     H 1707   4.599   0.076   5.256
    2MOL1    Cl 1708   4.067   4.802   2.463
    2MOL1     C 1709   4.125   4.966   2.432
    2MOL1    Cl 1710   4.208   5.030   2.575
    2MOL1    Cl 1711   4.233   4.968   2.291
    2MOL1     H 1712   4.039   5.030   2.411
    2MOL1    Cl 1713   1.335   4.923   3.100
    2MOL1     C 1714   1.446   5.060   3.087
    2MOL1    Cl 1715   1.553   5.068   3.228
    2MOL1    Cl 1716   1.541   5.050   2.938
    2MOL1     H 1717   1.387   5.152   3.084
    2MOL1    Cl 1718   3.305   5.209   3.667
    2MOL1     C 1719   3.378   5.065   3.739
    2MOL1    Cl 1720   3.475   5.108   3.880
    2MOL1    Cl 1721   3.253   4.947   3.782
    2MOL1     H 1722   3.444   5.019   3.664
    2MOL1    Cl 1723   3.794   2.119   4.875
    2MOL1     C 1724   3.640   2.206   4.869
    2MOL1    Cl 1725   3.532   2.135   4.748
    2MOL1    Cl 1726   3.562   2.207   5.029
    2MOL1     H 1727   3.660   2.310   4.841
    2MOL1    Cl 1728   5.033   4.288   2.499
    2MOL1     C 1729   4.869   4.246   2.550
    2MOL1    Cl 1730   4.864   4.217   2.725
    2MOL1    Cl 1731   4.755   4.374   2.505
    2MOL1     H 1732   4.840   4.154   2.499
    2MOL1    Cl 1733   4.855   3.213   2.551
    2MOL1     C 1734   5.011   3.146   2.499
    2MOL1    Cl 1735   4.988   3.033   2.365
    2MOL1    Cl 1736   5.123   3.276   2.453
    2MOL1     H 1737   5.054   3.091   2.583
    2MOL1    Cl 1738   1.274   2.341   0.801
    2MOL1     C 1739   1.434   2.295   0.863
    2MOL1    Cl 1740   1.534   2.227   0.734
    2MOL1    Cl 1741   1.514   2.434   0.938
    2MOL1     H 1742   1.420   2.218   0.940
    2MOL1    Cl 1743   1.263   1.915   3.992
    2MOL1     C 1744   1.128   1.987   4.081
    2MOL1    Cl 1745   1.011   2.059   3.969
    2MOL1    Cl 1746   1.050   1.867   4.184
    2MOL1     H 1747   1.168   2.067   4.145
    2MOL1    Cl 1748   3.944   3.615   1.380
    2MOL1     C 1749   4.084   3.517   1.335
    2MOL1    Cl 1750   4.231   3.577   1.415
    2MOL1    Cl 1751   4.057   3.347   1.376
    2MOL1     H 1752   4.099   3.525   1.227
    2MOL1    Cl 1753   0.122   5.325   2.108
    2MOL1     C 1754   0.223   5.180   2.117
    2MOL1    Cl 1755   0.368   5.212   2.214
    2MOL1    Cl 1756   0.132   5.044   2.183
    2MOL1     H 1757   0.255   5.154   2.015
    2MOL1    Cl 1758   1.314   2.561   1.926
    2MOL1     C 1759   1.328   2.547   1.750
    2MOL1    Cl 1760   1.473   2.456   1.706
    2MOL1    Cl 1761   1.183   2.472   1.682
    2MOL1     H 1762   1.337   2.648   1.709
    2MOL1    Cl 1763   0.885   2.269   4.157
    2MOL1     C 1764   0.723   2.305   4.219
    2MOL1    Cl 1765   0.725   2.316   4.396
    2MOL1    Cl 1766   0.661   2.455   4.149
    2MOL1     H 1767   0.657   2.223   4.191
    2MOL1    Cl 1768   1.245   0.858   5.259
    2MOL1     C 1769   1.089   0.901   5.187
    2MOL1    Cl 1770   1.087   1.073   5.143
    2MOL1    Cl 1771   1.056   0.801   5.045
    2MOL1     H 1772   1.010   0.883   5.260
    2MOL1    Cl 1773   3.489   2.864   1.132
    2MOL1     C 1774   3.606   2.944   1.026
    2MOL1    Cl 1775   3.691   2.826   0.926
    2MOL1    Cl 1776   3.526   3.066   0.924
    2MOL1     H 1777   3.680   2.995   1.089
    2MOL1    Cl 1778   3.662   4.843   2.940
    2MOL1     C 1779   3.676   5.005   3.009
    2MOL1    Cl 1780   3.542   5.038   3.120
    2MOL1    Cl 1781   3.832   5.024   3.091
    2MOL1     H 1782   3.672   5.078   2.927
    2MOL1    Cl 1783   4.698   3.039   5.130
    2MOL1     C 1784   4.624   3.197   5.160
    2MOL1    Cl 1785   4.453   3.178   5.205
    2MOL1    Cl 1786   4.712   3.284   5.287
    2MOL1     H 1787   4.629   3.255   5.068
    2MOL1    Cl 1788   4.281   2.854   2.975
    2MOL1     C 1789   4.456   2.835   2.961
    2MOL1    Cl 1790   4.538   2.921   3.093
    2MOL1    Cl 1791   4.501   2.664   2.962
    2MOL1     H 1792   4.488   2.879   2.866
    2MOL1    Cl 1793   2.505   4.413   3.546
    2MOL1     C 1794   2.339   4.473   3.532
    2MOL1    Cl 1795   2.334   4.622   3.437
    2MOL1    Cl 1796   2.233   4.350   3.461
    2MOL1     H 1797   2.302   4.495   3.633
    2MOL1    Cl 1798   3.625   2.380   0.913
    2MOL1     C 1799   3.591   2.236   1.010
    2MOL1    Cl 1800   3.436   2.252   1.093
    2MOL1    Cl 1801   3.594   2.090   0.909
    2MOL1     H 1802   3.670   2.227   1.086
    2MOL1    Cl 1803   2.583   2.041   2.743
    2MOL1     C 1804   2.427   2.126   2.739
    2MOL1    Cl 1805   2.334   2.079   2.596
    2MOL1    Cl 1806   2.335   2.094   2.887
    2MOL1     H 1807   2.447   2.233   2.733
    2MOL1    Cl 1808   3.096   2.881   3.391
    2MOL1     C 1809   2.956   2.948   3.475
    2MOL1    Cl 1810   2.833   2.823   3.502
    2MOL1    Cl 1811   3.005   3.021   3.629
    2MOL1     H 1812   2.912   3.027   3.413
    2MOL1    Cl 1813   5.018   1.830   1.519
    2MOL1     C 1814   5.002   1.904   1.679
    2MOL1    Cl 1815   5.130   1.846   1.787
    2MOL1    Cl 1816   5.006   2.081   1.666
    2MOL1     H 1817   4.906   1.875   1.721
    2MOL1    Cl 1818   1.800   1.463   3.595
    2MOL1     C 1819   1.655   1.361   3.604
    2MOL1    Cl 1820   1.521   1.450   3.677
    2MOL1    Cl 1821   1.611   1.301   3.443
    2MOL1     H 1822   1.678   1.275   3.668
    2MOL1    Cl 1823   3.290   4.209   2.118
    2MOL1     C 1824   3.424   4.184   2.232
    2MOL1    Cl 1825   3.496   4.339   2.279
    2MOL1    Cl 1826   3.368   4.095   2.375
    2MOL1     H 1827   3.500   4.124   2.182
    2MOL1    Cl 1828   2.131   3.414   0.486
    2MOL1     C 1829   2.083   3.584   0.476
    2MOL1    Cl 1830   1.995   3.615   0.325
    2MOL1    Cl 1831   1.984   3.629   0.616
    2MOL1     H 1832   2.173   3.646   0.477
    2MOL1    Cl 1833   4.443   2.097   3.286
    2MOL1     C 1834   4.616   2.129   3.271
    2MOL1    Cl 1835   4.706   1.978   3.247
    2MOL1    Cl 1836   4.647   2.241   3.137
    2MOL1     H 1837   4.651   2.176   3.363
    2MOL1    Cl 1838   2.619   3.945   1.429
    2MOL1     C 1839   2.448   3.929   1.385
    2MOL1    Cl 1840   2.404   4.049   1.262
    2MOL1    Cl 1841   2.415   3.765   1.326
    2MOL1     H 1842   2.387   3.946   1.474
    2MOL1    Cl 1843   0.927   5.074   4.801
    2MOL1     C 1844   1.014   4.920   4.795
    2MOL1    Cl 1845   0.927   4.803   4.695
    2MOL1    Cl 1846   1.179   4.944   4.733
    2MOL1     H 1847   1.021   4.881   4.897
    2MOL1    Cl 1848   3.511   3.074   3.734
    2MOL1     C 1849   3.660   3.168   3.739
    2MOL1    Cl 1850   3.635   3.322   3.822
    2MOL1    Cl 1851   3.789   3.076   3.818
    2MOL1     H 1852   3.691   3.189   3.636
    2MOL1    Cl 1853   3.842   4.047   1.244
    2MOL1     C 1854   3.779   3.884   1.218
    2MOL1    Cl 1855   3.646   3.885   1.101
    2MOL1    Cl 1856   3.908   3.775   1.164
    2MOL1     H 1857   3.740   3.846   1.313
    2MOL1    Cl 1858   2.518   1.214   3.749
    2MOL1     C 1859   2.486   1.256   3.917
    2MOL1    Cl 1860   2.626   1.217   4.019
    2MOL1    Cl 1861   2.445   1.428   3.932
    2MOL1     H 1862   2.401   1.197   3.952
    2MOL1    Cl 1863   2.108   3.490   4.822
    2MOL1     C 1864   2.158   3.654   4.863
    2MOL1    Cl 1865   2.036   3.733   4.965
    2MOL1    Cl 1866   2.315   3.653   4.944
    2MOL1     H 1867   2.168   3.712   4.770
    2MOL1    Cl 1868   4.259   3.716   3.241
    2MOL1     C 1869   4.338   3.874   3.246
    2MOL1    Cl 1870   4.452   3.891   3.112
    2MOL1    Cl 1871   4.218   4.004   3.243
    2MOL1     H 1872   4.394   3.881   3.340
    2MOL1    Cl 1873   3.058   1.531   5.158
    2MOL1     C 1874   3.089   1.574   4.989
    2MOL1    Cl 1875   2.937   1.615   4.907
    2MOL1    Cl 1876   3.204   1.708   4.979
    2MOL1     H 1877   3.133   1.487   4.939
    2MOL1    Cl 1878   2.466   4.150   5.240
    2MOL1     C 1879   2.542   3.991   5.234
    2MOL1    Cl 1880   2.445   3.878   5.137
    2MOL1    Cl 1881   2.707   4.003   5.170
    2MOL1     H 1882   2.548   3.952   5.336
    2MOL1    Cl 1883   0.541   0.718   4.173
    2MOL1     C 1884   0.674   0.609   4.131
    2MOL1    Cl 1885   0.796   0.606   4.260
    2MOL1    Cl 1886   0.613   0.446   4.099
    2MOL1     H 1887   0.721   0.647   4.040
    2MOL1    Cl 1888   3.725   1.033   2.042
    2MOL1     C 1889   3.574   0.940   2.044
    2MOL1    Cl 1890   3.465   0.997   1.917
    2MOL1    Cl 1891   3.608   0.767   2.026
    2MOL1     H 1892   3.526   0.956   2.141
    2MOL1    Cl 1893   2.794   0.276   2.514
    2MOL1     C 1894   2.836   0.115   2.574
    2MOL1    Cl 1895   2.691   0.016   2.593
    2MOL1    Cl 1896   2.952   0.037   2.465
    2MOL1     H 1897   2.883   0.126   2.672
    2MOL1    Cl 1898   2.634   4.447   2.619
    2MOL1     C 1899   2.718   4.556   2.507
    2MOL1    Cl 1900   2.738   4.479   2.349
    2MOL1    Cl 1901   2.630   4.709   2.492
    2MOL1     H 1902   2.817   4.577   2.548
    2MOL1    Cl 1903   0.725   1.107   2.254
    2MOL1     C 1904   0.866   1.004   2.229
    2MOL1    Cl 1905   0.825   0.868   2.122
    2MOL1    Cl 1906   1.001   1.097   2.162
    2MOL1     H 1907   0.897   0.963   2.325
    2MOL1    Cl 1908   2.393   4.206   3.303
    2MOL1     C 1909   2.397   4.351   3.200
    2MOL1    Cl 1910   2.367   4.308   3.031
    2MOL1    Cl 1911   2.279   4.470   3.256
    2MOL1     H 1912   2.497   4.395   3.208
    2MOL1    Cl 1913   4.110   1.764   4.862
    2MOL1     C 1914   4.233   1.860   4.779
    2MOL1    Cl 1915   4.368   1.896   4.888
    2MOL1    Cl 1916   4.291   1.776   4.634
    2MOL1     H 1917   4.188   1.955   4.748
    2MOL1    Cl 1918   0.496   0.658   0.294
    2MOL1     C 1919   0.389   0.534   0.226
    2MOL1    Cl 1920   0.453   0.372   0.258
    2MOL1    Cl 1921   0.225   0.550   0.293
    2MOL1     H 1922   0.384   0.548   0.118
    2MOL1    Cl 1923   3.820   3.947   5.168
    2MOL1     C 1924   3.991   3.956   5.214
    2MOL1    Cl 1925   4.091   3.990   5.072
    2MOL1    Cl 1926   4.015   4.080   5.338
    2MOL1     H 1927   4.020   3.860   5.255
    2MOL1    Cl 1928   2.034   2.566   2.702
    2MOL1     C 1929   2.011   2.395   2.742
    2MOL1    Cl 1930   2.163   2.306   2.727
    2MOL1    Cl 1931   1.945   2.378   2.905
    2MOL1     H 1932   1.939   2.352   2.671
    2MOL1    Cl 1933   1.975   4.199   1.483
    2MOL1     C 1934   2.104   4.164   1.599
    2MOL1    Cl 1935   2.156   4.312   1.681
    2MOL1    Cl 1936   2.052   4.042   1.716
    2MOL1     H 1937   2.190   4.124   1.543
    2MOL1    Cl 1938   4.233   3.663   1.728
    2MOL1     C 1939   4.114   3.611   1.847
    2MOL1    Cl 1940   4.193   3.530   1.984
    2MOL1    Cl 1941   4.017   3.748   1.904
    2MOL1     H 1942   4.046   3.539   1.799
    2MOL1    Cl 1943   2.429   4.624   0.694
    2MOL1     C 1944   2.591   4.657   0.631
    2MOL1    Cl 1945   2.593   4.646   0.454
    2MOL1    Cl 1946   2.648   4.816   0.685
    2MOL1     H 1947   2.659   4.581   0.671
    2MOL1    Cl 1948   2.995   2.490   4.711
    2MOL1     C 1949   2.854   2.384   4.721
    2MOL1    Cl 1950   2.890   2.241   4.818
    2MOL1    Cl 1951   2.715   2.472   4.788
    2MOL1     H 1952   2.828   2.352   4.620
    2MOL1    Cl 1953   1.382   3.304   2.704
    2MOL1     C 1954   1.551   3.354   2.693
    2MOL1    Cl 1955   1.659   3.213   2.693
    2MOL1    Cl 1956   1.577   3.452   2.547
    2MOL1     H 1957   1.575   3.416   2.780
    2MOL1    Cl 1958   0.804   4.092   4.954
    2MOL1     C 1959   0.736   4.254   4.933
    2MOL1    Cl 1960   0.857   4.363   4.864
    2MOL1    Cl 1961   0.591   4.248   4.832
    2MOL1     H 1962   0.708   4.292   5.032
    2MOL1    Cl 1963   0.142   2.493   1.766
    2MOL1     C 1964   0.275   2.379   1.786
    2MOL1    Cl 1965   0.404   2.450   1.886
    2MOL1    Cl 1966   0.218   2.227   1.857
    2MOL1     H 1967   0.317   2.357   1.687
    2MOL1    Cl 1968   4.591   1.033   4.175
    2MOL1     C 1969   4.428   0.964   4.168
    2MOL1    Cl 1970   4.408   0.840   4.293
    2MOL1    Cl 1971   4.306   1.091   4.186
    2MOL1     H 1972   4.415   0.917   4.070
    2MOL1    Cl 1973   3.785   1.034   0.493
    2MOL1     C 1974   3.952   1.087   0.468
    2MOL1    Cl 1975   4.024   1.006   0.328
    2MOL1    Cl 1976   3.959   1.263   0.449
    2MOL1     H 1977   4.011   1.060   0.557
    2MOL1    Cl 1978   1.811   1.908   3.857
    2MOL1     C 1979   1.865   1.743   3.892
    2MOL1    Cl 1980   1.969   1.741   4.035
    2MOL1    Cl 1981   1.726   1.635   3.913
    2MOL1     H 1982   1.923   1.708   3.806
    2MOL1    Cl 1983   0.217   1.677   2.129
    2MOL1     C 1984   0.231   1.831   2.043
    2MOL1    Cl 1985   0.092   1.857   1.937
    2MOL1    Cl 1986   0.248   1.965   2.157
    2MOL1     H 1987   0.321   1.827   1.981
    2MOL1    Cl 1988   1.615   0.495   3.532
    2MOL1     C 1989   1.675   0.611   3.413
    2MOL1    Cl 1990   1.689   0.536   3.253
    2MOL1    Cl 1991   1.569   0.753   3.405
    2MOL1     H 1992   1.774   0.645   3.444
    2MOL1    Cl 1993   2.266   4.208   1.340
    2MOL1     C 1994   2.181   4.229   1.186
    2MOL1    Cl 1995   2.133   4.398   1.164
    2MOL1    Cl 1996   2.284   4.175   1.051
    2MOL1     H 1997   2.091   4.167   1.187
    2MOL1    Cl 1998   3.498   1.828   4.204
    2MOL1     C 1999   3.513   1.785   4.376
    2MOL1    Cl 2000   3.617   1.901   4.460
    2MOL1    Cl 2001   3.353   1.778   4.452
    2MOL1     H 2002   3.558   1.686   4.382
    2MOL1    Cl 2003   2.004   3.806   4.152
    2MOL1     C 2004   2.167   3.738   4.150
    2MOL1    Cl 2005   2.233   3.730   4.314
    2MOL1    Cl 2006   2.166   3.577   4.076
    2MOL1     H 2007   2.231   3.803   4.090
    2MOL1    Cl 2008   3.316   0.894   4.949
    2MOL1     C 2009   3.164   0.985   4.964
    2MOL1    Cl 2010   3.171   1.133   4.867
    2MOL1    Cl 2011   3.026   0.885   4.915
    2MOL1     H 2012   3.151   1.013   5.068
    2MOL1    Cl 2013   2.968   2.663   2.391
    2MOL1     C 2014   3.090   2.791   2.407
    2MOL1    Cl 2015   3.039   2.936   2.319
    2MOL1    Cl 2016   3.119   2.828   2.578
    2MOL1     H 2017   3.183   2.755   2.363
    2MOL1    Cl 2018   4.673   4.408   0.838
    2MOL1     C 2019   4.741   4.244   0.833
    2MOL1    Cl 2020   4.898   4.239   0.915
    2MOL1    Cl 2021   4.629   4.128   0.907
    2MOL1     H 2022   4.756   4.216   0.729
    2MOL1    Cl 2023   2.151   2.952   4.517
    2MOL1     C 2024   2.070   2.837   4.410
    2MOL1    Cl 2025   2.118   2.671   4.450
    2MOL1    Cl 2026   1.894   2.855   4.419
    2MOL1     H 2027   2.101   2.857   4.307
    2MOL1    Cl 2028   2.584   4.286   4.393
    2MOL1     C 2029   2.560   4.117   4.439
    2MOL1    Cl 2030   2.674   4.071   4.567
    2MOL1    Cl 2031   2.393   4.089   4.492
    2MOL1     H 2032   2.579   4.054   4.352
    2MOL1    Cl 2033   4.325   5.275   2.616
    2MOL1     C 2034   4.443   5.144   2.609
    2MOL1    Cl 2035   4.601   5.198   2.669
    2MOL1    Cl 2036   4.387   5.004   2.702
    2MOL1     H 2037   4.455   5.113   2.504
    2MOL1    Cl 2038   1.600   3.778   2.177
    2MOL1     C 2039   1.772   3.735   2.182
    2MOL1    Cl 2040   1.839   3.763   2.344
    2MOL1    Cl 2041   1.796   3.567   2.132
    2MOL1     H 2042   1.825   3.800   2.111
    2MOL1    Cl 2043   3.605   0.783   0.957
    2MOL1     C 2044   3.466   0.793   1.066
    2MOL1    Cl 2045   3.429   0.634   1.136
    2MOL1    Cl 2046   3.495   0.912   1.194
    2MOL1     H 2047   3.379   0.826   1.008
    2MOL1    Cl 2048   0.294   3.903   3.123
    2MOL1     C 2049   0.321   3.738   3.063
    2MOL1    Cl 2050   0.173   3.642   3.079
    2MOL1    Cl 2051   0.376   3.741   2.895
    2MOL1     H 2052   0.399   3.692   3.124
    2MOL1    Cl 2053   2.895   2.599   4.876
    2MOL1     C 2054   2.882   2.749   4.784
    2MOL1    Cl 2055   3.010   2.758   4.661
    2MOL1    Cl 2056   2.722   2.763   4.709
    2MOL1     H 2057   2.895   2.833   4.853
    2MOL1    Cl 2058   2.376   0.737   0.820
    2MOL1     C 2059   2.287   0.708   0.670
    2MOL1    Cl 2060   2.365   0.580   0.575
    2MOL1    Cl 2061   2.118   0.667   0.704
    2MOL1     H 2062   2.289   0.801   0.611
    2MOL1    Cl 2063   3.001   0.117   2.232
    2MOL1     C 2064   2.954   0.288   2.228
    2MOL1    Cl 2065   2.778   0.304   2.219
    2MOL1    Cl 2066   3.017   0.373   2.370
    2MOL1     H 2067   2.997   0.334   2.139
    2MOL1    Cl 2068   1.887   3.673   4.613
    2MOL1     C 2069   1.795   3.535   4.674
    2MOL1    Cl 2070   1.621   3.560   4.651
    2MOL1    Cl 2071   1.847   3.385   4.595
    2MOL1     H 2072   1.814   3.525   4.781
    2MOL1    Cl 2073   0.646   2.761   0.838
    2MOL1     C 2074   0.791   2.819   0.755
    2MOL1    Cl 2075   0.933   2.805   0.860
    2MOL1    Cl 2076   0.817   2.730   0.604
    2MOL1     H 2077   0.777   2.924   0.730
    2MOL1    Cl 2078   3.000   0.233   3.237
    2MOL1     C 2079   2.970   0.250   3.410
    2MOL1    Cl 2080   3.086   0.362   3.483
    2MOL1    Cl 2081   2.804   0.306   3.439
    2MOL1     H 2082   2.982   0.152   3.457
    2MOL1    Cl 2083   1.926   2.957   1.080
    2MOL1     C 2084   2.071   3.021   1.160
    2MOL1    Cl 2085   2.091   2.946   1.320
    2MOL1    Cl 2086   2.215   2.994   1.060
    2MOL1     H 2087   2.058   3.128   1.174
    2MOL1    Cl 2088   3.171   5.339   3.932
    2MOL1     C 2089   3.165   5.163   3.952
    2MOL1    Cl 2090   3.081   5.120   4.103
    2MOL1    Cl 2091   3.085   5.087   3.813
    2MOL1     H 2092   3.267   5.125   3.958
    2MOL1    Cl 2093   0.168   0.380   4.214
    2MOL1     C 2094   0.340   0.416   4.193
    2MOL1    Cl 2095   0.416   0.299   4.083
    2MOL1    Cl 2096   0.362   0.581   4.132
    2MOL1     H 2097   0.390   0.408   4.290
    2MOL1    Cl 2098   2.395   2.798   4.015
    2MOL1     C 2099   2.435   2.626   4.006
    2MOL1    Cl 2100   2.493   2.583   3.844
    2MOL1    Cl 2101   2.556   2.584   4.128
    2MOL1     H 2102   2.344   2.568   4.026
    2MOL1    Cl 2103   0.903   1.518   0.266
    2MOL1     C 2104   0.730   1.492   0.294
    2MOL1    Cl 2105   0.704   1.358   0.406
    2MOL1    Cl 2106   0.655   1.640   0.356
    2MOL1     H 2107   0.683   1.468   0.198
    2MOL1    Cl 2108   4.506   2.867   1.934
    2MOL1     C 2109   4.624   2.998   1.950
    2MOL1    Cl 2110   4.566   3.121   2.063
    2MOL1    Cl 2111   4.781   2.934   2.003
    2MOL1     H 2112   4.638   3.044   1.852
    2MOL1    Cl 2113   3.199   3.399   0.558
    2MOL1     C 2114   3.114   3.251   0.604
    2MOL1    Cl 2115   2.987   3.213   0.486
    2MOL1    Cl 2116   3.228   3.116   0.620
    2MOL1     H 2117   3.066   3.267   0.702
    2MOL1    Cl 2118   2.709   4.830   1.650
    2MOL1     C 2119   2.576   4.923   1.579
    2MOL1    Cl 2120   2.541   4.867   1.415
    2MOL1    Cl 2121   2.432   4.912   1.682
    2MOL1     H 2122   2.606   5.028   1.574
    2MOL1    Cl 2123   2.518   4.071   5.004
    2MOL1     C 2124   2.667   4.052   4.910
    2MOL1    Cl 2125   2.807   4.107   5.003
    2MOL1    Cl 2126   2.688   3.883   4.860
    2MOL1     H 2127   2.659   4.114   4.820
    2MOL1    Cl 2128   4.185   4.020   2.582
    2MOL1     C 2129   4.067   4.039   2.712
    2MOL1    Cl 2130   4.146   4.033   2.870
    2MOL1    Cl 2131   3.977   4.191   2.693
    2MOL1     H 2132   3.995   3.957   2.706
    2MOL1    Cl 2133   2.446   1.528   2.596
    2MOL1     C 2134   2.341   1.560   2.456
    2MOL1    Cl 2135   2.171   1.551   2.503
    2MOL1    Cl 2136   2.379   1.718   2.385
    2MOL1     H 2137   2.360   1.483   2.381
    2MOL1    Cl 2138   5.044   2.268   0.712
    2MOL1     C 2139   4.906   2.372   0.676
    2MOL1    Cl 2140   4.951   2.498   0.560
    2MOL1    Cl 2141   4.769   2.277   0.616
    2MOL1     H 2142   4.874   2.422   0.769
    2MOL1    Cl 2143   4.211   0.630   3.349
    2MOL1     C 2144   4.259   0.536   3.207
    2MOL1    Cl 2145   4.117   0.459   3.133
    2MOL1    Cl 2146   4.342   0.639   3.089
    2MOL1     H 2147   4.328   0.458   3.239
    2MOL1    Cl 2148   5.044   2.363   0.193
    2MOL1     C 2149   4.884   2.360   0.116
    2MOL1    Cl 2150   4.850   2.514   0.036
    2MOL1    Cl 2151   4.874   2.226   0.001
    2MOL1     H 2152   4.809   2.344   0.194
    2MOL1    Cl 2153   0.716   3.450   5.340
    2MOL1     C 2154   0.715   3.616   5.278
    2MOL1    Cl 2155   0.573   3.704   5.339
    2MOL1    Cl 2156   0.864   3.700   5.323
    2MOL1     H 2157   0.709   3.612   5.169
    2MOL1    Cl 2158   3.521   1.210   1.217
    2MOL1     C 2159   3.419   1.211   1.073
    2MOL1    Cl 2160   3.511   1.260   0.931
    2MOL1    Cl 2161   3.346   1.051   1.048
    2MOL1     H 2162   3.338   1.283   1.088
    2MOL1    Cl 2163   2.955   4.463   4.652
    2MOL1     C 2164   2.865   4.348   4.752
    2MOL1    Cl 2165   2.691   4.377   4.738
    2MOL1    Cl 2166   2.905   4.182   4.708
    2MOL1     H 2167   2.894   4.364   4.857
    2MOL1    Cl 2168   1.455   5.340   0.493
    2MOL1     C 2169   1.515   5.262   0.640
    2MOL1    Cl 2170   1.397   5.146   0.702
    2MOL1    Cl 2171   1.671   5.183   0.610
    2MOL1     H 2172   1.530   5.340   0.716
    2MOL1    Cl 2173   1.540   3.341   4.628
    2MOL1     C 2174   1.418   3.325   4.500
    2MOL1    Cl 2175   1.491   3.351   4.341
    2MOL1    Cl 2176   1.340   3.166   4.508
    2MOL1     H 2177   1.341   3.401   4.516
    2MOL1    Cl 2178   0.966   2.319   2.405
    2MOL1     C 2179   1.139   2.279   2.414
    2MOL1    Cl 2180   1.180   2.151   2.299
    2MOL1    Cl 2181   1.238   2.423   2.386
    2MOL1     H 2182   1.160   2.242   2.515
    2MOL1    Cl 2183   1.299   1.421   0.820
    2MOL1     C 2184   1.421   1.492   0.714
    2MOL1    Cl 2185   1.548   1.374   0.678
    2MOL1    Cl 2186   1.347   1.551   0.564
    2MOL1     H 2187   1.467   1.577   0.765
    2MOL1    Cl 2188   2.814   3.855   0.407
    2MOL1     C 2189   2.791   4.011   0.327
    2MOL1    Cl 2190   2.943   4.068   0.256
    2MOL1    Cl 2191   2.664   4.000   0.204
    2MOL1     H 2192   2.759   4.084   0.402
    2MOL1    Cl 2193   5.014   2.033   0.909
    2MOL1     C 2194   5.105   1.885   0.876
    2MOL1    Cl 2195   5.202   1.903   0.728
    2MOL1    Cl 2196   5.208   1.842   1.013
    2MOL1     H 2197   5.033   1.803   0.860
    2MOL1    Cl 2198   3.235   4.816   4.273
    2MOL1     C 2199   3.246   4.753   4.108
    2MOL1    Cl 2200   3.118   4.822   4.007
    2MOL1    Cl 2201   3.406   4.785   4.039
    2MOL1     H 2202   3.232   4.644   4.112
    2MOL1    Cl 2203   0.220   3.285   3.431
    2MOL1     C 2204   0.389   3.234   3.415
    2MOL1    Cl 2205   0.398   3.069   3.350
    2MOL1    Cl 2206   0.478   3.347   3.311
    2MOL1     H 2207   0.435   3.234   3.514
    2MOL1    Cl 2208   3.027   0.505   1.995
    2MOL1     C 2209   2.873   0.562   1.928
    2MOL1    Cl 2210   2.745   0.443   1.955
    2MOL1    Cl 2211   2.829   0.718   1.999
    2MOL1     H 2212   2.885   0.576   1.821
    2MOL1    Cl 2213   4.683   5.044   4.441
    2MOL1     C 2214   4.829   5.011   4.348
    2MOL1    Cl 2215   4.809   4.864   4.250
    2MOL1    Cl 2216   4.870   5.149   4.244
    2MOL1     H 2217   4.912   4.995   4.417
    2MOL1    Cl 2218   3.930   1.047   1.935
    2MOL1     C 2219   4.058   0.987   2.042
    2MOL1    Cl 2220   3.992   0.945   2.201
    2MOL1    Cl 2221   4.139   0.848   1.969
    2MOL1     H 2222   4.132   1.067   2.055
    2MOL1    Cl 2223   2.316   4.894   2.312
    2MOL1     C 2224   2.302   4.754   2.419
    2MOL1    Cl 2225   2.139   4.685   2.411
    2MOL1    Cl 2226   2.423   4.632   2.376
    2MOL1     H 2227   2.321   4.787   2.521
    2MOL1    Cl 2228   2.441   2.666   0.843
    2MOL1     C 2229   2.281   2.622   0.906
    2MOL1    Cl 2230   2.238   2.724   1.044
    2MOL1    Cl 2231   2.158   2.634   0.778
    2MOL1     H 2232   2.285   2.518   0.940
    2MOL1    Cl 2233   2.229   4.772   0.570
    2MOL1     C 2234   2.187   4.769   0.398
    2MOL1    Cl 2235   2.023   4.706   0.375
    2MOL1    Cl 2236   2.202   4.931   0.328
    2MOL1     H 2237   2.257   4.703   0.347
    2MOL1    Cl 2238   3.783   1.087   2.455
    2MOL1     C 2239   3.612   1.129   2.462
    2MOL1    Cl 2240   3.524   1.017   2.567
    2MOL1    Cl 2241   3.591   1.296   2.517
    2MOL1     H 2242   3.570   1.121   2.361
    2MOL1    Cl 2243   3.689   3.853   0.868
    2MOL1     C 2244   3.732   4.024   0.862
    2MOL1    Cl 2245   3.837   4.057   0.723
    2MOL1    Cl 2246   3.586   4.125   0.855
    2MOL1     H 2247   3.787   4.049   0.953
    2MOL1    Cl 2248   1.559   4.297   2.157
    2MOL1     C 2249   1.731   4.257   2.167
    2MOL1    Cl 2250   1.769   4.118   2.065
    2MOL1    Cl 2251   1.830   4.397   2.121
    2MOL1     H 2252   1.754   4.232   2.271
    2MOL1    Cl 2253   5.125   2.779   2.974
    2MOL1     C 2254   4.953   2.789   3.014
    2MOL1    Cl 2255   4.860   2.669   2.922
    2MOL1    Cl 2256   4.928   2.767   3.188
    2MOL1     H 2257   4.916   2.888   2.986
    2MOL1    Cl 2258   1.467   1.198   2.212
    2MOL1     C 2259   1.621   1.282   2.239
    2MOL1    Cl 2260   1.599   1.420   2.348
    2MOL1    Cl 2261   1.742   1.170   2.303
    2MOL1     H 2262   1.656   1.319   2.142
    2MOL1    Cl 2263   0.251   0.428   1.398
    2MOL1     C 2264   0.128   0.528   1.478
    2MOL1    Cl 2265   0.014   0.426   1.567
    2MOL1    Cl 2266   0.204   0.646   1.586
    2MOL1     H 2267   0.073   0.582   1.401
    2MOL1    Cl 2268   1.158   4.228   0.117
    2MOL1     C 2269   1.074   4.330   0.235
    2MOL1    Cl 2270   1.011   4.476   0.157
    2MOL1    Cl 2271   0.943   4.239   0.313
    2MOL1     H 2272   1.146   4.360   0.312
    2MOL1    Cl 2273   2.895   2.760   0.731
    2MOL1     C 2274   3.066   2.715   0.740
    2MOL1    Cl 2275   3.154   2.824   0.848
    2MOL1    Cl 2276   3.084   2.547   0.794
    2MOL1     H 2277   3.110   2.723   0.640
    2MOL1    Cl 2278   0.479   2.092   2.447
    2MOL1     C 2279   0.618   2.008   2.516
    2MOL1    Cl 2280   0.583   1.954   2.681
    2MOL1    Cl 2281   0.665   1.870   2.415
    2MOL1     H 2282   0.702   2.078   2.520
    2MOL1    Cl 2283   2.658   0.631   4.905
    2MOL1     C 2284   2.611   0.777   4.993
    2MOL1    Cl 2285   2.646   0.761   5.166
    2MOL1    Cl 2286   2.693   0.919   4.926
    2MOL1     H 2287   2.503   0.792   4.981
    2MOL1    Cl 2288   0.292   4.432   4.296
    2MOL1     C 2289   0.417   4.326   4.229
    2MOL1    Cl 2290   0.570   4.413   4.211
    2MOL1    Cl 2291   0.437   4.182   4.331
    2MOL1     H 2292   0.384   4.293   4.130
    2MOL1    Cl 2293   4.944   4.123   1.466
    2MOL1     C 2294   5.047   3.993   1.529
    2MOL1    Cl 2295   5.169   4.059   1.640
    2MOL1    Cl 2296   4.949   3.870   1.610
    2MOL1     H 2297   5.099   3.947   1.445
    2MOL1    Cl 2298   2.426   2.261   0.420
    2MOL1     C 2299   2.588   2.332   0.437
    2MOL1    Cl 2300   2.697   2.218   0.517
    2MOL1    Cl 2301   2.652   2.381   0.279
    2MOL1     H 2302   2.579   2.422   0.500
    2MOL1    Cl 2303   5.040   5.061   3.664
    2MOL1     C 2304   5.208   5.049   3.610
    2MOL1    Cl 2305   5.246   4.883   3.560
    2MOL1    Cl 2306   5.239   5.162   3.476
    2MOL1     H 2307   5.273   5.075   3.693
    2MOL1    Cl 2308   3.193   2.490   2.220
    2MOL1     C 2309   3.355   2.456   2.158
    2MOL1    Cl 2310   3.472   2.573   2.221
    2MOL1    Cl 2311   3.404   2.291   2.199
    2MOL1     H 2312   3.353   2.465   2.049
    2MOL1    Cl 2313   3.964   1.292   5.055
    2MOL1     C 2314   4.075   1.282   5.193
    2MOL1    Cl 2315   4.053   1.420   5.301
    2MOL1    Cl 2316   4.053   1.130   5.281
    2MOL1     H 2317   4.178   1.285   5.155
    2MOL1    Cl 2318   1.209   2.159   4.511
    2MOL1     C 2319   1.098   2.024   4.484
    2MOL1    Cl 2320   1.106   1.910   4.620
    2MOL1    Cl 2321   0.932   2.082   4.462
    2MOL1     H 2322   1.129   1.971   4.394
    2MOL1    Cl 2323   0.311   0.417   2.219
    2MOL1     C 2324   0.427   0.326   2.121
    2MOL1    Cl 2325   0.430   0.156   2.171
    2MOL1    Cl 2326   0.388   0.340   1.949
    2MOL1     H 2327   0.526   0.368   2.137
    2MOL1    Cl 2328   3.987   0.428   1.108
    2MOL1     C 2329   3.811   0.444   1.103
    2MOL1    Cl 2330   3.757   0.484   0.939
    2MOL1    Cl 2331   3.733   0.295   1.159
    2MOL1     H 2332   3.781   0.525   1.170
    2MOL1    Cl 2333   3.113   2.385   3.747
    2MOL1     C 2334   3.146   2.280   3.608
    2MOL1    Cl 2335   3.094   2.358   3.457
    2MOL1    Cl 2336   3.318   2.239   3.601
    2MOL1     H 2337   3.089   2.188   3.620
    2MOL1    Cl 2338   3.696   2.779   3.661
    2MOL1     C 2339   3.744   2.858   3.510
    2MOL1    Cl 2340   3.851   2.754   3.416
    2MOL1    Cl 2341   3.601   2.903   3.415
    2MOL1     H 2342   3.798   2.950   3.535
    2MOL1    Cl 2343   3.101   4.506   1.793
    2MOL1     C 2344   3.241   4.399   1.780
    2MOL1    Cl 2345   3.287   4.377   1.610
    2MOL1    Cl 2346   3.377   4.464   1.873
    2MOL1     H 2347   3.214   4.302   1.822
    2MOL1    Cl 2348   0.379   1.399   4.184
    2MOL1     C 2349   0.531   1.322   4.230
    2MOL1    Cl 2350   0.540   1.157   4.165
    2MOL1    Cl 2351   0.669   1.418   4.175
    2MOL1     H 2352   0.535   1.315   4.339
    2MOL1    Cl 2353   0.283   1.823   1.493
    2MOL1     C 2354   0.365   1.898   1.631
    2MOL1    Cl 2355   0.451   1.777   1.727
    2MOL1    Cl 2356   0.476   2.025   1.576
    2MOL1     H 2357   0.289   1.945   1.695
    2MOL1    Cl 2358   0.180   2.815   1.245
    2MOL1     C 2359   0.109   2.937   1.352
    2MOL1    Cl 2360   0.153   2.905   1.521
    2MOL1    Cl 2361   0.160   3.100   1.304
    2MOL1     H 2362   0.000   2.932   1.343
    2MOL1    Cl 2363   0.825   3.593   0.244
    2MOL1     C 2364   0.827   3.607   0.068
    2MOL1    Cl 2365   0.771   3.768   0.017
    2MOL1    Cl 2366   0.989   3.575   0.004
    2MOL1     H 2367   0.759   3.532   0.027
    2MOL1    Cl 2368   3.740   1.181   1.558
    2MOL1     C 2369   3.630   1.313   1.514
    2MOL1    Cl 2370   3.462   1.260   1.529
    2MOL1    Cl 2371   3.659   1.455   1.615
    2MOL1     H 2372   3.649   1.340   1.410
    2MOL1    Cl 2373   3.292   1.656   4.690
    2MOL1     C 2374   3.448   1.697   4.762
    2MOL1    Cl 2375   3.579   1.608   4.682
    2MOL1    Cl 2376   3.477   1.871   4.753
    2MOL1     H 2377   3.447   1.668   4.867
    2MOL1    Cl 2378   0.758   3.826   4.283
    2MOL1     C 2379   0.693   3.990   4.303
    2MOL1    Cl 2380   0.772   4.072   4.438
    2MOL1    Cl 2381   0.714   4.083   4.153
    2MOL1     H 2382   0.587   3.982   4.324
    2MOL1    Cl 2383   1.046   2.562   1.368
    2MOL1     C 2384   0.967   2.685   1.468
    2MOL1    Cl 2385   0.872   2.609   1.598
    2MOL1    Cl 2386   1.087   2.796   1.536
    2MOL1     H 2387   0.899   2.742   1.405
    2MOL1    Cl 2388   4.247   5.158   5.257
    2MOL1     C 2389   4.396   5.083   5.196
    2MOL1    Cl 2390   4.523   5.204   5.176
    2MOL1    Cl 2391   4.449   4.954   5.306
    2MOL1     H 2392   4.374   5.038   5.099
    2MOL1    Cl 2393   4.508   1.045   0.398
    2MOL1     C 2394   4.429   1.173   0.305
    2MOL1    Cl 2395   4.498   1.185   0.142
    2MOL1    Cl 2396   4.254   1.145   0.296
    2MOL1     H 2397   4.445   1.268   0.356
    2MOL1    Cl 2398   3.075   0.909   3.665
    2MOL1     C 2399   3.104   0.826   3.512
    2MOL1    Cl 2400   2.969   0.854   3.399
    2MOL1    Cl 2401   3.257   0.879   3.440
    2MOL1     H 2402   3.110   0.719   3.531
    2MOL1    Cl 2403   4.391   1.465   5.112
    2MOL1     C 2404   4.372   1.359   4.972
    2MOL1    Cl 2405   4.495   1.394   4.850
    2MOL1    Cl 2406   4.380   1.189   5.022
    2MOL1     H 2407   4.273   1.377   4.928
    2MOL1    Cl 2408   4.841   2.304   3.839
    2MOL1     C 2409   4.753   2.152   3.813
    2MOL1    Cl 2410   4.792   2.085   3.654
    2MOL1    Cl 2411   4.791   2.036   3.941
    2MOL1     H 2412   4.646   2.174   3.816
    2MOL1    Cl 2413   0.188   4.995   3.782
    2MOL1     C 2414   0.100   4.895   3.666
    2MOL1    Cl 2415   0.000   4.775   3.750
    2MOL1    Cl 2416   0.000   4.996   3.560
    2MOL1     H 2417   0.173   4.842   3.604
    2MOL1    Cl 2418   3.298   0.830   3.925
    2MOL1     C 2419   3.389   0.739   3.803
    2MOL1    Cl 2420   3.302   0.591   3.758
    2MOL1    Cl 2421   3.419   0.840   3.660
    2MOL1     H 2422   3.486   0.711   3.846
    2MOL1    Cl 2423   3.809   3.683   1.679
    2MOL1     C 2424   3.895   3.834   1.643
    2MOL1    Cl 2425   4.051   3.800   1.566
    2MOL1    Cl 2426   3.796   3.938   1.540
    2MOL1     H 2427   3.914   3.886   1.737
    2MOL1    Cl 2428   0.584   0.011   1.294
    2MOL1     C 2429   0.540   0.158   1.383
    2MOL1    Cl 2430   0.686   0.250   1.426
    2MOL1    Cl 2431   0.430   0.258   1.287
    2MOL1     H 2432   0.489   0.129   1.475
    2MOL1    Cl 2433   2.163   3.908   3.527
    2MOL1     C 2434   2.167   3.983   3.687
    2MOL1    Cl 2435   2.103   3.872   3.809
    2MOL1    Cl 2436   2.332   4.033   3.729
    2MOL1     H 2437   2.103   4.072   3.685
    2MOL1    Cl 2438   4.683   4.013   1.319
    2MOL1     C 2439   4.517   3.965   1.356
    2MOL1    Cl 2440   4.415   3.975   1.212
    2MOL1    Cl 2441   4.514   3.801   1.424
    2MOL1     H 2442   4.478   4.034   1.431
    2MOL1    Cl 2443   3.100   4.263   4.520
    2MOL1     C 2444   3.200   4.390   4.592
    2MOL1    Cl 2445   3.185   4.389   4.768
    2MOL1    Cl 2446   3.369   4.371   4.544
    2MOL1     H 2447   3.164   4.487   4.555
    2MOL1    Cl 2448   1.987   1.707   4.812
    2MOL1     C 2449   2.066   1.866   4.805
    2MOL1    Cl 2450   2.214   1.858   4.708
    2MOL1    Cl 2451   1.956   1.988   4.740
    2MOL1     H 2452   2.093   1.895   4.907
    2MOL1    Cl 2453   1.487   3.407   1.832
    2MOL1     C 2454   1.547   3.518   1.955
    2MOL1    Cl 2455   1.550   3.440   2.114
    2MOL1    Cl 2456   1.709   3.577   1.912
    2MOL1     H 2457   1.480   3.604   1.960
    2MOL1    Cl 2458   4.173   4.585   3.855
    2MOL1     C 2459   4.165   4.437   3.758
    2MOL1    Cl 2460   4.317   4.347   3.770
    2MOL1    Cl 2461   4.029   4.336   3.809
    2MOL1     H 2462   4.150   4.465   3.654
    2MOL1    Cl 2463   0.602   1.045   3.640
    2MOL1     C 2464   0.639   1.043   3.813
    2MOL1    Cl 2465   0.659   1.208   3.875
    2MOL1    Cl 2466   0.511   0.958   3.902
    2MOL1     H 2467   0.733   0.989   3.827
    2MOL1    Cl 2468   1.541   4.528   0.759
    2MOL1     C 2469   1.699   4.456   0.721
    2MOL1    Cl 2470   1.680   4.319   0.610
    2MOL1    Cl 2471   1.808   4.577   0.653
    2MOL1     H 2472   1.742   4.419   0.814
    2MOL1    Cl 2473   3.231   0.596   0.028
    2MOL1     C 2474   3.246   0.427   0.081
    2MOL1    Cl 2475   3.415   0.387   0.115
    2MOL1    Cl 2476   3.144   0.397   0.223
    2MOL1     H 2477   3.211   0.363   0.000
    2MOL1    Cl 2478   3.930   1.031   3.232
    2MOL1     C 2479   3.822   0.896   3.272
    2MOL1    Cl 2480   3.901   0.785   3.386
    2MOL1    Cl 2481   3.669   0.956   3.338
    2MOL1     H 2482   3.801   0.841   3.180
    2MOL1    Cl 2483   0.284   4.490   4.055
    2MOL1     C 2484   0.189   4.634   4.020
    2MOL1    Cl 2485   0.283   4.750   3.924
    2MOL1    Cl 2486   0.040   4.591   3.934
    2MOL1     H 2487   0.161   4.682   4.114
    2MOL1    Cl 2488   4.328   1.662   5.023
    2MOL1     C 2489   4.425   1.748   5.144
    2MOL1    Cl 2490   4.342   1.894   5.198
    2MOL1    Cl 2491   4.461   1.642   5.282
    2MOL1     H 2492   4.520   1.777   5.098
    2MOL1    Cl 2493   0.430   0.813   2.853
    2MOL1     C 2494   0.386   0.651   2.797
    2MOL1    Cl 2495   0.266   0.660   2.668
    2MOL1    Cl 2496   0.530   0.562   2.743
    2MOL1     H 2497   0.342   0.597   2.882
    2MOL1    Cl 2498   0.419   2.268   2.194
    2MOL1     C 2499   0.431   2.138   2.075
    2MOL1    Cl 2500   0.553   2.175   1.953
    2MOL1    Cl 2501   0.468   1.984   2.155
    2MOL1     H 2502   0.334   2.128   2.026
    2MOL1    Cl 2503   3.880   2.278   1.636
    2MOL1     C 2504   3.706   2.263   1.662
    2MOL1    Cl 2505   3.671   2.132   1.776
    2MOL1    Cl 2506   3.638   2.416   1.720
    2MOL1     H 2507   3.658   2.239   1.566
    2MOL1    Cl 2508   2.758   0.878   4.177
    2MOL1     C 2509   2.661   0.897   4.324
    2MOL1    Cl 2510   2.518   0.792   4.318
    2MOL1    Cl 2511   2.759   0.861   4.468
    2MOL1     H 2512   2.627   1.000   4.331
    2MOL1    Cl 2513   4.565   2.576   5.084
    2MOL1     C 2514   4.649   2.529   4.935
    2MOL1    Cl 2515   4.676   2.669   4.831
    2MOL1    Cl 2516   4.802   2.449   4.974
    2MOL1     H 2517   4.586   2.458   4.881
    2MOL1    Cl 2518   3.667   0.769   2.925
    2MOL1     C 2519   3.826   0.769   2.846
    2MOL1    Cl 2520   3.844   0.911   2.742
    2MOL1    Cl 2521   3.955   0.763   2.967
    2MOL1     H 2522   3.833   0.679   2.784
    2MOL1    Cl 2523   3.193   2.058   3.333
    2MOL1     C 2524   3.359   2.102   3.292
    2MOL1    Cl 2525   3.413   2.241   3.388
    2MOL1    Cl 2526   3.468   1.964   3.315
    2MOL1     H 2527   3.362   2.131   3.186
    2MOL1    Cl 2528   3.851   1.432   1.449
    2MOL1     C 2529   3.838   1.607   1.473
    2MOL1    Cl 2530   3.988   1.688   1.422
    2MOL1    Cl 2531   3.699   1.672   1.384
    2MOL1     H 2532   3.823   1.627   1.579
    2MOL1    Cl 2533   0.595   3.467   1.657
    2MOL1     C 2534   0.440   3.408   1.597
    2MOL1    Cl 2535   0.320   3.401   1.727
    2MOL1    Cl 2536   0.381   3.511   1.465
    2MOL1     H 2537   0.454   3.307   1.557
    2MOL1    Cl 2538   2.402   3.652   4.709
    2MOL1     C 2539   2.512   3.766   4.631
    2MOL1    Cl 2540   2.509   3.745   4.455
    2MOL1    Cl 2541   2.470   3.933   4.674
    2MOL1     H 2542   2.613   3.746   4.666
    2MOL1    Cl 2543   1.857   1.723   1.818
    2MOL1     C 2544   2.006   1.658   1.887
    2MOL1    Cl 2545   2.103   1.788   1.960
    2MOL1    Cl 2546   1.970   1.533   2.007
    2MOL1     H 2547   2.065   1.613   1.807
    2MOL1    Cl 2548   4.665   2.426   0.473
    2MOL1     C 2549   4.540   2.506   0.376
    2MOL1    Cl 2550   4.572   2.486   0.203
    2MOL1    Cl 2551   4.380   2.444   0.418
    2MOL1     H 2552   4.542   2.613   0.399
    2MOL1    Cl 2553   3.113   4.667   3.719
    2MOL1     C 2554   3.098   4.600   3.556
    2MOL1    Cl 2555   2.955   4.667   3.475
    2MOL1    Cl 2556   3.244   4.632   3.461
    2MOL1     H 2557   3.085   4.492   3.564
    2MOL1    Cl 2558   4.876   3.926   5.184
    2MOL1     C 2559   5.035   3.869   5.235
    2MOL1    Cl 2560   5.085   3.729   5.139
    2MOL1    Cl 2561   5.155   3.998   5.224
    2MOL1     H 2562   5.028   3.837   5.340
    2MOL1    Cl 2563   1.335   2.575   3.330
    2MOL1     C 2564   1.176   2.653   3.327
    2MOL1    Cl 2565   1.072   2.578   3.206
    2MOL1    Cl 2566   1.101   2.646   3.488
    2MOL1     H 2567   1.190   2.759   3.301
    2MOL1    Cl 2568   2.597   2.738   1.495
    2MOL1     C 2569   2.570   2.828   1.345
    2MOL1    Cl 2570   2.446   2.749   1.246
    2MOL1    Cl 2571   2.524   2.995   1.380
    2MOL1     H 2572   2.663   2.829   1.288
    2MOL1    Cl 2573   0.074   3.733   3.537
    2MOL1     C 2574   0.130   3.569   3.573
    2MOL1    Cl 2575   0.130   3.541   3.748
    2MOL1    Cl 2576   0.030   3.449   3.490
    2MOL1     H 2577   0.233   3.560   3.536
    2MOL1    Cl 2578   2.423   4.775   3.194
    2MOL1     C 2579   2.492   4.848   3.340
    2MOL1    Cl 2580   2.557   5.009   3.305
    2MOL1    Cl 2581   2.371   4.856   3.469
    2MOL1     H 2582   2.575   4.785   3.375
    2MOL1    Cl 2583   5.147   2.776   4.278
    2MOL1     C 2584   4.998   2.711   4.207
    2MOL1    Cl 2585   4.944   2.810   4.071
    2MOL1    Cl 2586   5.023   2.543   4.156
    2MOL1     H 2587   4.921   2.712   4.284
    2MOL1    Cl 2588   2.692   2.218   3.446
    2MOL1     C 2589   2.567   2.238   3.571
    2MOL1    Cl 2590   2.617   2.361   3.688
    2MOL1    Cl 2591   2.412   2.282   3.497
    2MOL1     H 2592   2.555   2.143   3.623
    2MOL1    Cl 2593   1.812   0.912   4.136
    2MOL1     C 2594   1.972   0.969   4.086
    2MOL1    Cl 2595   2.040   0.862   3.962
    2MOL1    Cl 2596   1.963   1.136   4.026
    2MOL1     H 2597   2.037   0.968   4.173
    2MOL1    Cl 2598   0.790   0.176   0.976
    2MOL1     C 2599   0.863   0.331   1.021
    2MOL1    Cl 2600   0.786   0.396   1.166
    2MOL1    Cl 2601   1.038   0.312   1.046
    2MOL1     H 2602   0.848   0.401   0.939
    2MOL1    Cl 2603   4.231   1.582   3.736
    2MOL1     C 2604   4.164   1.440   3.653
    2MOL1    Cl 2605   4.082   1.334   3.769
    2MOL1    Cl 2606   4.052   1.490   3.525
    2MOL1     H 2607   4.246   1.384   3.608
    2MOL1    Cl 2608   3.204   4.854   3.566
    2MOL1     C 2609   3.213   4.946   3.415
    2MOL1    Cl 2610   3.064   5.039   3.390
    2MOL1    Cl 2611   3.354   5.054   3.416
    2MOL1     H 2612   3.224   4.876   3.332
    2MOL1    Cl 2613   2.288   2.487   2.939
    2MOL1     C 2614   2.216   2.559   3.084
    2MOL1    Cl 2615   2.088   2.673   3.040
    2MOL1    Cl 2616   2.154   2.434   3.192
    2MOL1     H 2617   2.294   2.615   3.137
    2MOL1    Cl 2618   1.293   0.588   5.223
    2MOL1     C 2619   1.453   0.661   5.240
    2MOL1    Cl 2620   1.445   0.809   5.337
    2MOL1    Cl 2621   1.567   0.546   5.312
    2MOL1     H 2622   1.490   0.687   5.140
    2MOL1    Cl 2623   2.321   4.395   4.299
    2MOL1     C 2624   2.192   4.513   4.267
    2MOL1    Cl 2625   2.248   4.635   4.150
    2MOL1    Cl 2626   2.047   4.432   4.207
    2MOL1     H 2627   2.168   4.563   4.360
    2MOL1    Cl 2628   0.632   3.717   4.963
    2MOL1     C 2629   0.791   3.787   5.000
    2MOL1    Cl 2630   0.774   3.926   5.109
    2MOL1    Cl 2631   0.898   3.665   5.070
    2MOL1     H 2632   0.835   3.822   4.906
    2MOL1    Cl 2633   5.299   3.098   1.904
    2MOL1     C 2634   5.132   3.060   1.862
    2MOL1    Cl 2635   5.060   3.190   1.765
    2MOL1    Cl 2636   5.123   2.906   1.776
    2MOL1     H 2637   5.074   3.051   1.955
    2MOL1    Cl 2638   3.221   1.340   3.544
    2MOL1     C 2639   3.348   1.224   3.585
    2MOL1    Cl 2640   3.430   1.272   3.735
    2MOL1    Cl 2641   3.280   1.061   3.601
    2MOL1     H 2642   3.421   1.222   3.504
    2MOL1    Cl 2643   0.105   1.451   1.732
    2MOL1     C 2644   0.110   1.308   1.835
    2MOL1    Cl 2645   0.205   1.179   1.759
    2MOL1    Cl 2646   0.176   1.348   1.995
    2MOL1     H 2647   0.008   1.271   1.849
    2MOL1    Cl 2648   1.464   0.177   1.222
    2MOL1     C 2649   1.562   0.105   1.350
    2MOL1    Cl 2650   1.721   0.057   1.288
    2MOL1    Cl 2651   1.579   0.217   1.486
    2MOL1     H 2652   1.511   0.015   1.386
    2MOL1    Cl 2653   2.827   2.787   3.845
    2MOL1     C 2654   2.765   2.947   3.888
    2MOL1    Cl 2655   2.591   2.939   3.921
    2MOL1    Cl 2656   2.852   3.011   4.029
    2MOL1     H 2657   2.781   3.014   3.804
    2MOL1    Cl 2658   5.067   3.476   1.162
    2MOL1     C 2659   5.100   3.337   1.267
    2MOL1    Cl 2660   5.146   3.196   1.170
    2MOL1    Cl 2661   5.228   3.376   1.383
    2MOL1     H 2662   5.009   3.313   1.322
    2MOL1    Cl 2663   2.064   0.324  -0.001
    2MOL1     C 2664   1.980   0.343   0.153
    2MOL1    Cl 2665   2.056   0.242   0.278
    2MOL1    Cl 2666   1.979   0.513   0.203
    2MOL1     H 2667   1.877   0.310   0.141
    2MOL1    Cl 2668   1.141   1.976   2.846
    2MOL1     C 2669   1.135   1.875   2.991
    2MOL1    Cl 2670   1.280   1.900   3.090
    2MOL1    Cl 2671   0.988   1.910   3.085
    2MOL1     H 2672   1.132   1.770   2.960
    2MOL1    Cl 2673   2.574   3.787   2.439
    2MOL1     C 2674   2.714   3.894   2.460
    2MOL1    Cl 2675   2.689   4.004   2.596
    2MOL1    Cl 2676   2.862   3.798   2.483
    2MOL1     H 2677   2.726   3.953   2.369
    2MOL1    Cl 2678   1.467   0.670   3.031
    2MOL1     C 2679   1.485   0.556   2.896
    2MOL1    Cl 2680   1.657   0.523   2.866
    2MOL1    Cl 2681   1.398   0.406   2.930
    2MOL1     H 2682   1.442   0.602   2.807
    2MOL1    Cl 2683   5.044   5.175   2.838
    2MOL1     C 2684   5.182   5.065   2.830
    2MOL1    Cl 2685   5.142   4.922   2.733
    2MOL1    Cl 2686   5.324   5.148   2.765
    2MOL1     H 2687   5.205   5.032   2.932
    2MOL1    Cl 2688   2.738   3.892   3.332
    2MOL1     C 2689   2.620   3.885   3.200
    2MOL1    Cl 2690   2.689   3.800   3.060
    2MOL1    Cl 2691   2.470   3.806   3.253
    2MOL1     H 2692   2.596   3.987   3.169
    2MOL1    Cl 2693   5.127   5.241   0.155
    2MOL1     C 2694   5.032   5.094   0.183
    2MOL1    Cl 2695   5.115   4.952   0.116
    2MOL1    Cl 2696   5.002   5.072   0.357
    2MOL1     H 2697   4.936   5.104   0.133
    2MOL1    Cl 2698   1.658   3.952   5.122
    2MOL1     C 2699   1.532   4.065   5.174
    2MOL1    Cl 2700   1.375   3.983   5.185
    2MOL1    Cl 2701   1.575   4.139   5.329
    2MOL1     H 2702   1.524   4.144   5.099
    2MOL1    Cl 2703   0.491   1.888   3.346
    2MOL1     C 2704   0.439   1.953   3.503
    2MOL1    Cl 2705   0.572   2.040   3.582
    2MOL1    Cl 2706   0.298   2.059   3.483
    2MOL1     H 2707   0.410   1.869   3.567
    2MOL1    Cl 2708   4.477   0.265   4.866
    2MOL1     C 2709   4.555   0.423   4.881
    2MOL1    Cl 2710   4.610   0.450   5.047
    2MOL1    Cl 2711   4.691   0.436   4.768
    2MOL1     H 2712   4.482   0.500   4.856
    2MOL1    Cl 2713   4.226   2.549   2.473
    2MOL1     C 2714   4.330   2.416   2.526
    2MOL1    Cl 2715   4.453   2.380   2.404
    2MOL1    Cl 2716   4.407   2.455   2.681
    2MOL1     H 2717   4.268   2.327   2.540
    2MOL1    Cl 2718   3.362   4.820   1.508
    2MOL1     C 2719   3.467   4.752   1.632
    2MOL1    Cl 2720   3.437   4.828   1.789
    2MOL1    Cl 2721   3.445   4.576   1.643
    2MOL1     H 2722   3.571   4.772   1.604
    2MOL1    Cl 2723   5.104   5.261   0.599
    2MOL1     C 2724   5.168   5.202   0.753
    2MOL1    Cl 2725   5.310   5.099   0.727
    2MOL1    Cl 2726   5.209   5.338   0.860
    2MOL1     H 2727   5.091   5.142   0.802
    2MOL1    Cl 2728   4.141   5.216   0.271
    2MOL1     C 2729   3.974   5.158   0.269
    2MOL1    Cl 2730   3.876   5.254   0.156
    2MOL1    Cl 2731   3.968   4.986   0.227
    2MOL1     H 2732   3.932   5.171   0.369
    2MOL1    Cl 2733   0.691   4.986   2.537
    2MOL1     C 2734   0.631   5.082   2.401
    2MOL1    Cl 2735   0.585   4.978   2.266
    2MOL1    Cl 2736   0.495   5.183   2.452
    2MOL1     H 2737   0.712   5.148   2.368
    2MOL1    Cl 2738   3.026   5.292   4.260
    2MOL1     C 2739   2.875   5.231   4.330
    2MOL1    Cl 2740   2.897   5.066   4.391
    2MOL1    Cl 2741   2.819   5.339   4.459
    2MOL1     H 2742   2.799   5.229   4.252
    2MOL1    Cl 2743   4.261   4.114   1.914
    2MOL1     C 2744   4.413   4.190   1.861
    2MOL1    Cl 2745   4.476   4.108   1.718
    2MOL1    Cl 2746   4.388   4.363   1.829
    2MOL1     H 2747   4.486   4.180   1.942
    2MOL1    Cl 2748   3.264   3.542   4.919
    2MOL1     C 2749   3.259   3.713   4.875
    2MOL1    Cl 2750   3.421   3.784   4.880
    2MOL1    Cl 2751   3.187   3.734   4.714
    2MOL1     H 2752   3.196   3.766   4.948
    2MOL1    Cl 2753   2.593   0.501   4.299
    2MOL1     C 2754   2.753   0.517   4.374
    2MOL1    Cl 2755   2.740   0.606   4.527
    2MOL1    Cl 2756   2.825   0.358   4.401
    2MOL1     H 2757   2.817   0.574   4.307
    2MOL1    Cl 2758   3.459   3.477   1.769
    2MOL1     C 2759   3.354   3.340   1.810
    2MOL1    Cl 2760   3.412   3.259   1.956
    2MOL1    Cl 2761   3.186   3.394   1.830
    2MOL1     H 2762   3.358   3.269   1.727
    2MOL1    Cl 2763   0.289   3.070   3.605
    2MOL1     C 2764   0.148   3.020   3.700
    2MOL1    Cl 2765   0.105   3.144   3.819
    2MOL1    Cl 2766   0.011   2.986   3.593
    2MOL1     H 2767   0.174   2.928   3.753
    2MOL1    Cl 2768   1.644   3.766   3.049
    2MOL1     C 2769   1.496   3.848   3.101
    2MOL1    Cl 2770   1.443   3.787   3.259
    2MOL1    Cl 2771   1.522   4.024   3.108
    2MOL1     H 2772   1.417   3.828   3.028
    2MOL1    Cl 2773   2.834   4.401   1.851
    2MOL1     C 2774   2.816   4.254   1.752
    2MOL1    Cl 2775   2.906   4.270   1.600
    2MOL1    Cl 2776   2.871   4.112   1.843
    2MOL1     H 2777   2.711   4.241   1.729
    2MOL1    Cl 2778   5.228   1.773   3.060
    2MOL1     C 2779   5.148   1.657   2.953
    2MOL1    Cl 2780   5.039   1.552   3.046
    2MOL1    Cl 2781   5.059   1.742   2.825
    2MOL1     H 2782   5.224   1.595   2.906
    2MOL1    Cl 2783   4.548   3.489   2.848
    2MOL1     C 2784   4.439   3.464   2.986
    2MOL1    Cl 2785   4.409   3.616   3.070
    2MOL1    Cl 2786   4.287   3.391   2.932
    2MOL1     H 2787   4.487   3.395   3.055
    2MOL1    Cl 2788   2.723   5.094   2.715
    2MOL1     C 2789   2.750   4.925   2.668
    2MOL1    Cl 2790   2.766   4.911   2.493
    2MOL1    Cl 2791   2.893   4.860   2.750
    2MOL1     H 2792   2.663   4.866   2.700
    2MOL1    Cl 2793   2.896   3.311   2.498
    2MOL1     C 2794   3.064   3.255   2.504
    2MOL1    Cl 2795   3.161   3.362   2.606
    2MOL1    Cl 2796   3.071   3.089   2.564
    2MOL1     H 2797   3.104   3.257   2.403
    2MOL1    Cl 2798   2.011   3.322   4.184
    2MOL1     C 2799   1.913   3.466   4.153
    2MOL1    Cl 2800   1.741   3.424   4.144
    2MOL1    Cl 2801   1.941   3.588   4.278
    2MOL1     H 2802   1.943   3.508   4.057
    2MOL1    Cl 2803   4.718   1.753   0.626
    2MOL1     C 2804   4.860   1.852   0.589
    2MOL1    Cl 2805   4.979   1.760   0.496
    2MOL1    Cl 2806   4.813   1.999   0.503
    2MOL1     H 2807   4.907   1.882   0.684
    2MOL1    Cl 2808   2.192   3.122   2.232
    2MOL1     C 2809   2.099   3.106   2.082
    2MOL1    Cl 2810   2.160   3.219   1.959
    2MOL1    Cl 2811   2.106   2.939   2.022
    2MOL1     H 2812   1.995   3.131   2.103
    2MOL1    Cl 2813   2.025   0.782   4.939
    2MOL1     C 2814   1.995   0.954   4.969
    2MOL1    Cl 2815   2.097   1.054   4.865
    2MOL1    Cl 2816   1.823   0.992   4.943
    2MOL1     H 2817   2.020   0.976   5.073
    2MOL1    Cl 2818   0.293   5.245   4.164
    2MOL1     C 2819   0.324   5.145   4.021
    2MOL1    Cl 2820   0.465   5.206   3.932
    2MOL1    Cl 2821   0.349   4.976   4.067
    2MOL1     H 2822   0.237   5.151   3.955
    2MOL1    Cl 2823   1.584   4.632   1.774
    2MOL1     C 2824   1.667   4.485   1.722
    2MOL1    Cl 2825   1.585   4.413   1.583
    2MOL1    Cl 2826   1.837   4.519   1.683
    2MOL1     H 2827   1.665   4.413   1.805
    2MOL1    Cl 2828   5.040   0.888   4.241
    2MOL1     C 2829   4.876   0.953   4.246
    2MOL1    Cl 2830   4.769   0.847   4.339
    2MOL1    Cl 2831   4.876   1.117   4.314
    2MOL1     H 2832   4.838   0.958   4.143
    2MOL1    Cl 2833   2.462   3.198   0.166
    2MOL1     C 2834   2.351   3.283   0.275
    2MOL1    Cl 2835   2.204   3.331   0.189
    2MOL1    Cl 2836   2.312   3.182   0.415
    2MOL1     H 2837   2.401   3.373   0.311
    2MOL1    Cl 2838   2.551   4.236   1.551
    2MOL1     C 2839   2.663   4.311   1.436
    2MOL1    Cl 2840   2.574   4.391   1.305
    2MOL1    Cl 2841   2.769   4.426   1.518
    2MOL1     H 2842   2.725   4.232   1.392
    2MOL1    Cl 2843   1.577   0.835   4.079
    2MOL1     C 2844   1.553   0.870   3.907
    2MOL1    Cl 2845   1.516   0.721   3.818
    2MOL1    Cl 2846   1.425   0.990   3.884
    2MOL1     H 2847   1.646   0.911   3.867
    2MOL1    Cl 2848   1.489   1.078   3.018
    2MOL1     C 2849   1.568   1.122   2.866
    2MOL1    Cl 2850   1.456   1.212   2.762
    2MOL1    Cl 2851   1.715   1.216   2.896
    2MOL1     H 2852   1.597   1.030   2.814
    2MOL1    Cl 2853   2.154   3.124   3.510
    2MOL1     C 2854   1.997   3.201   3.482
    2MOL1    Cl 2855   2.013   3.334   3.365
    2MOL1    Cl 2856   1.879   3.082   3.426
    2MOL1     H 2857   1.962   3.243   3.577
    2MOL1    Cl 2858   3.933   4.316   2.921
    2MOL1     C 2859   3.816   4.289   3.051
    2MOL1    Cl 2860   3.882   4.342   3.207
    2MOL1    Cl 2861   3.664   4.374   3.016
    2MOL1     H 2862   3.795   4.182   3.057
    2MOL1    Cl 2863   2.495   5.182   0.564
    2MOL1     C 2864   2.645   5.123   0.492
    2MOL1    Cl 2865   2.724   5.006   0.598
    2MOL1    Cl 2866   2.614   5.052   0.333
    2MOL1     H 2867   2.713   5.209   0.479
    2MOL1    Cl 2868   1.702   3.742   3.957
    2MOL1     C 2869   1.658   3.829   4.105
    2MOL1    Cl 2870   1.564   3.974   4.066
    2MOL1    Cl 2871   1.568   3.723   4.215
    2MOL1     H 2872   1.750   3.860   4.155
    2MOL1    Cl 2873   2.507   2.219   1.240
    2MOL1     C 2874   2.367   2.243   1.345
    2MOL1    Cl 2875   2.325   2.415   1.354
    2MOL1    Cl 2876   2.229   2.148   1.288
    2MOL1     H 2877   2.393   2.208   1.446
    2MOL1    Cl 2878   3.180   0.001   3.688
    2MOL1     C 2879   3.096   0.151   3.732
    2MOL1    Cl 2880   2.922   0.134   3.705
    2MOL1    Cl 2881   3.129   0.193   3.901
    2MOL1     H 2882   3.133   0.231   3.668
    2MOL1    Cl 2883   2.163   1.220   2.068
    2MOL1     C 2884   2.011   1.251   2.154
    2MOL1    Cl 2885   1.884   1.302   2.042
    2MOL1    Cl 2886   1.960   1.106   2.244
    2MOL1     H 2887   2.028   1.331   2.226
    2MOL1    Cl 2888   2.145   2.910   0.451
    2MOL1     C 2889   2.287   2.857   0.360
    2MOL1    Cl 2890   2.381   2.740   0.454
    2MOL1    Cl 2891   2.239   2.788   0.204
    2MOL1     H 2892   2.350   2.945   0.341
    2MOL1    Cl 2893   3.682   2.537   4.297
    2MOL1     C 2894   3.517   2.548   4.359
    2MOL1    Cl 2895   3.472   2.400   4.445
    2MOL1    Cl 2896   3.498   2.689   4.463
    2MOL1     H 2897   3.449   2.559   4.273
    2MOL1    Cl 2898   0.622   0.550   1.977
    2MOL1     C 2899   0.762   0.446   2.012
    2MOL1    Cl 2900   0.830   0.484   2.171
    2MOL1    Cl 2901   0.716   0.275   2.003
    2MOL1     H 2902   0.838   0.465   1.936
    2MOL1    Cl 2903   4.417   4.785   0.725
    2MOL1     C 2904   4.281   4.864   0.807
    2MOL1    Cl 2905   4.322   5.030   0.850
    2MOL1    Cl 2906   4.136   4.860   0.704
    2MOL1     H 2907   4.259   4.809   0.899
    2MOL1    Cl 2908   0.341   4.316   1.249
    2MOL1     C 2909   0.234   4.330   1.108
    2MOL1    Cl 2910   0.173   4.496   1.093
    2MOL1    Cl 2911   0.320   4.282   0.960
    2MOL1     H 2912   0.149   4.264   1.122
    2MOL1    Cl 2913   2.182   2.518   3.750
    2MOL1     C 2914   2.227   2.348   3.730
    2MOL1    Cl 2915   2.398   2.322   3.768
    2MOL1    Cl 2916   2.124   2.244   3.830
    2MOL1     H 2917   2.211   2.320   3.625
    2MOL1    Cl 2918   0.793   4.120   1.312
    2MOL1     C 2919   0.633   4.065   1.260
    2MOL1    Cl 2920   0.554   3.972   1.389
    2MOL1    Cl 2921   0.532   4.202   1.211
    2MOL1     H 2922   0.646   3.999   1.173
    2MOL1    Cl 2923   1.332   3.736   0.348
    2MOL1     C 2924   1.466   3.811   0.436
    2MOL1    Cl 2925   1.454   3.988   0.430
    2MOL1    Cl 2926   1.470   3.754   0.603
    2MOL1     H 2927   1.560   3.781   0.387
    2MOL1    Cl 2928   3.005   2.052   2.525
    2MOL1     C 2929   3.171   2.106   2.557
    2MOL1    Cl 2930   3.271   2.091   2.412
    2MOL1    Cl 2931   3.171   2.273   2.616
    2MOL1     H 2932   3.213   2.042   2.636
    2MOL1    Cl 2933   1.924   2.864   2.414
    2MOL1     C 2934   1.944   2.741   2.540
    2MOL1    Cl 2935   1.807   2.744   2.653
    2MOL1    Cl 2936   1.962   2.580   2.468
    2MOL1     H 2937   2.035   2.764   2.596
    2MOL1    Cl 2938   3.460   5.002   2.005
    2MOL1     C 2939   3.407   5.145   2.095
    2MOL1    Cl 2940   3.231   5.144   2.116
    2MOL1    Cl 2941   3.488   5.155   2.252
    2MOL1     H 2942   3.433   5.234   2.037
    2MOL1    Cl 2943   0.932   2.482   4.390
    2MOL1     C 2944   1.090   2.435   4.324
    2MOL1    Cl 2945   1.110   2.259   4.330
    2MOL1    Cl 2946   1.108   2.495   4.159
    2MOL1     H 2947   1.168   2.481   4.386
    2MOL1    Cl 2948   4.451   3.900   4.898
    2MOL1     C 2949   4.612   3.883   4.969
    2MOL1    Cl 2950   4.713   3.776   4.871
    2MOL1    Cl 2951   4.689   4.041   4.988
    2MOL1     H 2952   4.602   3.838   5.068
    2MOL1    Cl 2953   4.822   1.766   4.227
    2MOL1     C 2954   4.933   1.888   4.163
    2MOL1    Cl 2955   4.991   1.842   4.002
    2MOL1    Cl 2956   4.855   2.047   4.159
    2MOL1     H 2957   5.020   1.894   4.230
    2MOL1    Cl 2958   3.987   2.337   2.697
    2MOL1     C 2959   4.110   2.251   2.791
    2MOL1    Cl 2960   4.154   2.099   2.712
    2MOL1    Cl 2961   4.254   2.354   2.812
    2MOL1     H 2962   4.069   2.229   2.889
    2MOL1    Cl 2963   1.467   2.835   5.010
    2MOL1     C 2964   1.469   2.839   5.187
    2MOL1    Cl 2965   1.305   2.855   5.251
    2MOL1    Cl 2966   1.548   2.694   5.252
    2MOL1     H 2967   1.527   2.927   5.218
    2MOL1    Cl 2968   3.622   1.993   3.159
    2MOL1     C 2969   3.657   2.164   3.125
    2MOL1    Cl 2970   3.630   2.262   3.270
    2MOL1    Cl 2971   3.823   2.183   3.067
    2MOL1     H 2972   3.589   2.198   3.047
    2MOL1    Cl 2973   2.849   4.900   0.882
    2MOL1     C 2974   2.796   4.869   1.048
    2MOL1    Cl 2975   2.619   4.855   1.055
    2MOL1    Cl 2976   2.872   4.722   1.112
    2MOL1     H 2977   2.826   4.953   1.110
    2MOL1    Cl 2978   1.557   3.748   0.966
    2MOL1     C 2979   1.675   3.853   0.885
    2MOL1    Cl 2980   1.743   3.772   0.743
    2MOL1    Cl 2981   1.602   4.008   0.841
    2MOL1     H 2982   1.757   3.873   0.955
    2MOL1    Cl 2983   5.046   3.280   4.978
    2MOL1     C 2984   5.068   3.224   5.145
    2MOL1    Cl 2985   4.917   3.156   5.209
    2MOL1    Cl 2986   5.199   3.105   5.154
    2MOL1     H 2987   5.095   3.310   5.207
    2MOL1    Cl 2988   2.990   4.868   3.110
    2MOL1     C 2989   2.935   5.035   3.088
    2MOL1    Cl 2990   2.946   5.082   2.918
    2MOL1    Cl 2991   2.769   5.055   3.148
    2MOL1     H 2992   3.000   5.101   3.146
    2MOL1    Cl 2993   4.876   4.010   3.637
    2MOL1     C 2994   4.819   3.842   3.640
    2MOL1    Cl 2995   4.655   3.830   3.575
    2MOL1    Cl 2996   4.930   3.737   3.550
    2MOL1     H 2997   4.818   3.808   3.744
    2MOL1    Cl 2998   1.768   0.978   3.063
    2MOL1     C 2999   1.676   0.926   3.205
    2MOL1    Cl 3000   1.644   1.063   3.313
    2MOL1    Cl 3001   1.524   0.849   3.156
    2MOL1     H 3002   1.735   0.852   3.260
    2MOL1    Cl 3003   3.425   2.813   4.662
    2MOL1     C 3004   3.281   2.712   4.646
    2MOL1    Cl 3005   3.190   2.755   4.499
    2MOL1    Cl 3006   3.325   2.540   4.644
    2MOL1     H 3007   3.216   2.730   4.732
    2MOL1    Cl 3008   2.457   4.221   0.461
    2MOL1     C 3009   2.413   4.261   0.627
    2MOL1    Cl 3010   2.323   4.128   0.702
    2MOL1    Cl 3011   2.558   4.299   0.722
    2MOL1     H 3012   2.349   4.350   0.626
    2MOL1    Cl 3013   3.264   1.478   0.395
    2MOL1     C 3014   3.227   1.611   0.284
    2MOL1    Cl 3015   3.218   1.552   0.117
    2MOL1    Cl 3016   3.075   1.690   0.330
    2MOL1     H 3017   3.307   1.685   0.290
    2MOL1    Cl 3018   2.479   1.993   4.171
    2MOL1     C 3019   2.409   1.836   4.126
    2MOL1    Cl 3020   2.234   1.837   4.148
    2MOL1    Cl 3021   2.451   1.795   3.958
    2MOL1     H 3022   2.452   1.760   4.191
    2MOL1    Cl 3023   1.203   0.815   2.692
    2MOL1     C 3024   1.332   0.930   2.651
    2MOL1    Cl 3025   1.393   0.900   2.487
    2MOL1    Cl 3026   1.273   1.097   2.665
    2MOL1     H 3027   1.414   0.916   2.721
    2MOL1    Cl 3028   2.846   4.500   5.150
    2MOL1     C 3029   2.830   4.325   5.124
    2MOL1    Cl 3030   2.685   4.290   5.029
    2MOL1    Cl 3031   2.974   4.261   5.042
    2MOL1     H 3032   2.821   4.276   5.221
    2MOL1    Cl 3033   2.190   4.566   1.592
    2MOL1     C 3034   2.358   4.518   1.565
    2MOL1    Cl 3035   2.367   4.376   1.459
    2MOL1    Cl 3036   2.452   4.652   1.497
    2MOL1     H 3037   2.402   4.491   1.662
    2MOL1    Cl 3038   0.949   2.639   5.010
    2MOL1     C 3039   0.959   2.532   5.151
    2MOL1    Cl 3040   0.933   2.363   5.102
    2MOL1    Cl 3041   1.115   2.549   5.232
    2MOL1     H 3042   0.880   2.560   5.221
    2MOL1    Cl 3043   1.782   1.116   1.714
    2MOL1     C 3044   1.688   1.177   1.852
    2MOL1    Cl 3045   1.518   1.195   1.807
    2MOL1    Cl 3046   1.705   1.069   1.991
    2MOL1     H 3047   1.727   1.275   1.880
    2MOL1    Cl 3048   0.566   3.725   3.683
    2MOL1     C 3049   0.481   3.573   3.652
    2MOL1    Cl 3050   0.446   3.555   3.479
    2MOL1    Cl 3051   0.576   3.435   3.711
    2MOL1     H 3052   0.386   3.574   3.706
    2MOL1    Cl 3053   0.291   0.074   3.906
    2MOL1     C 3054   0.192   0.149   3.779
    2MOL1    Cl 3055   0.293   0.242   3.667
    2MOL1    Cl 3056   0.100   0.025   3.692
    2MOL1     H 3057   0.121   0.217   3.827
    2MOL1    Cl 3058   4.153   5.126   3.407
    2MOL1     C 3059   4.275   5.209   3.309
    2MOL1    Cl 3060   4.395   5.095   3.249
    2MOL1    Cl 3061   4.199   5.296   3.175
    2MOL1     H 3062   4.325   5.282   3.373
    2MOL1    Cl 3063   3.173   4.040   1.685
    2MOL1     C 3064   3.290   4.017   1.554
    2MOL1    Cl 3065   3.438   3.942   1.615
    2MOL1    Cl 3066   3.220   3.919   1.424
    2MOL1     H 3067   3.315   4.115   1.513
    2MOL1    Cl 3068   4.533   4.183   3.877
    2MOL1     C 3069   4.685   4.273   3.865
    2MOL1    Cl 3070   4.699   4.390   3.997
    2MOL1    Cl 3071   4.824   4.163   3.865
    2MOL1     H 3072   4.685   4.328   3.770
    2MOL1    Cl 3073   0.911   3.792   0.444
    2MOL1     C 3074   0.952   3.893   0.305
    2MOL1    Cl 3075   0.848   4.036   0.299
    2MOL1    Cl 3076   1.123   3.940   0.310
    2MOL1     H 3077   0.936   3.835   0.213
    2MOL1    Cl 3078   5.139   2.202   5.005
    2MOL1     C 3079   5.095   2.342   5.105
    2MOL1    Cl 3080   5.228   2.384   5.215
    2MOL1    Cl 3081   5.053   2.481   5.003
    2MOL1     H 3082   5.008   2.315   5.164
    2MOL1    Cl 3083   1.136   5.340   2.459
    2MOL1     C 3084   1.076   5.182   2.512
    2MOL1    Cl 3085   1.171   5.051   2.440
    2MOL1    Cl 3086   1.078   5.170   2.688
    2MOL1     H 3087   0.972   5.172   2.478
    2MOL1    Cl 3088   1.160   1.309   4.177
    2MOL1     C 3089   0.983   1.298   4.185
    2MOL1    Cl 3090   0.908   1.426   4.088
    2MOL1    Cl 3091   0.928   1.139   4.131
    2MOL1     H 3092   0.953   1.312   4.289
    2MOL1    Cl 3093   4.072   2.791   4.149
    2MOL1     C 3094   3.930   2.697   4.195
    2MOL1    Cl 3095   3.978   2.535   4.251
    2MOL1    Cl 3096   3.838   2.781   4.321
    2MOL1     H 3097   3.866   2.685   4.107
    2MOL1    Cl 3098   2.319   3.446   5.340
    2MOL1     C 3099   2.306   3.524   5.181
    2MOL1    Cl 3100   2.265   3.405   5.057
    2MOL1    Cl 3101   2.186   3.654   5.185
    2MOL1     H 3102   2.403   3.568   5.157
    2MOL1    Cl 3103   1.159   0.577   1.010
    2MOL1     C 3104   1.317   0.652   0.983
    2MOL1    Cl 3105   1.306   0.828   0.995
    2MOL1    Cl 3106   1.436   0.589   1.099
    2MOL1     H 3107   1.351   0.625   0.883
    2MOL1    Cl 3108   0.539   3.721   0.640
    2MOL1     C 3109   0.406   3.658   0.542
    2MOL1    Cl 3110   0.420   3.482   0.525
    2MOL1    Cl 3111   0.250   3.702   0.614
    2MOL1     H 3112   0.412   3.703   0.443
    2MOL1    Cl 3113   3.270   1.800   3.527
    2MOL1     C 3114   3.198   1.721   3.386
    2MOL1    Cl 3115   3.306   1.596   3.322
    2MOL1    Cl 3116   3.040   1.653   3.427
    2MOL1     H 3117   3.184   1.797   3.308
    2MOL1    Cl 3118   2.914   4.657   0.476
    2MOL1     C 3119   2.864   4.740   0.327
    2MOL1    Cl 3120   2.748   4.641   0.237
    2MOL1    Cl 3121   2.795   4.898   0.365
    2MOL1     H 3122   2.953   4.755   0.265
    2MOL1    Cl 3123   3.543   3.576   3.414
    2MOL1     C 3124   3.718   3.599   3.436
    2MOL1    Cl 3125   3.805   3.554   3.288
    2MOL1    Cl 3126   3.753   3.767   3.480
    2MOL1     H 3127   3.752   3.535   3.517
    2MOL1    Cl 3128   2.904   3.817   0.844
    2MOL1     C 3129   2.898   3.969   0.933
    2MOL1    Cl 3130   2.732   4.010   0.977
    2MOL1    Cl 3131   3.000   3.960   1.078
    2MOL1     H 3132   2.937   4.049   0.869
    2MOL1    Cl 3133   4.577   4.451   1.251
    2MOL1     C 3134   4.462   4.335   1.184
    2MOL1    Cl 3135   4.547   4.200   1.107
    2MOL1    Cl 3136   4.353   4.275   1.311
    2MOL1     H 3137   4.401   4.385   1.109
    2MOL1    Cl 3138   4.641   2.949   0.353
    2MOL1     C 3139   4.559   3.071   0.254
    2MOL1    Cl 3140   4.662   3.214   0.233
    2MOL1    Cl 3141   4.514   3.004   0.097
    2MOL1     H 3142   4.468   3.102   0.306
    2MOL1    Cl 3143   2.937   1.174   2.268
    2MOL1     C 3144   2.852   1.021   2.242
    2MOL1    Cl 3145   2.714   1.043   2.133
    2MOL1    Cl 3146   2.963   0.898   2.178
    2MOL1     H 3147   2.814   0.986   2.338
    2MOL1    Cl 3148   3.413   4.455   2.943
    2MOL1     C 3149   3.447   4.622   2.991
    2MOL1    Cl 3150   3.307   4.694   3.071
    2MOL1    Cl 3151   3.589   4.628   3.097
    2MOL1     H 3152   3.469   4.680   2.901
    2MOL1    Cl 3153   3.568   3.491   3.969
    2MOL1     C 3154   3.741   3.505   3.935
    2MOL1    Cl 3155   3.828   3.363   3.995
    2MOL1    Cl 3156   3.768   3.527   3.761
    2MOL1     H 3157   3.779   3.594   3.987
    2MOL1    Cl 3158   4.074   0.193   0.261
    2MOL1     C 3159   4.182   0.326   0.214
    2MOL1    Cl 3160   4.308   0.267   0.104
    2MOL1    Cl 3161   4.089   0.457   0.139
    2MOL1     H 3162   4.230   0.365   0.304
    2MOL1    Cl 3163   3.297   2.994   3.456
    2MOL1     C 3164   3.240   3.161   3.473
    2MOL1    Cl 3165   3.357   3.274   3.403
    2MOL1    Cl 3166   3.081   3.181   3.396
    2MOL1     H 3167   3.230   3.184   3.579
    2MOL1    Cl 3168   0.807   2.676   1.920
    2MOL1     C 3169   0.640   2.623   1.895
    2MOL1    Cl 3170   0.548   2.745   1.806
    2MOL1    Cl 3171   0.636   2.467   1.810
    2MOL1     H 3172   0.593   2.609   1.993
    2MOL1    Cl 3173   5.032   4.275   3.053
    2MOL1     C 3174   5.201   4.307   3.011
    2MOL1    Cl 3175   5.275   4.416   3.130
    2MOL1    Cl 3176   5.292   4.155   3.001
    2MOL1     H 3177   5.203   4.355   2.913
    2MOL1    Cl 3178   2.141   3.507   1.639
    2MOL1     C 3179   2.310   3.472   1.599
    2MOL1    Cl 3180   2.419   3.581   1.687
    2MOL1    Cl 3181   2.350   3.303   1.634
    2MOL1     H 3182   2.324   3.489   1.492
    2MOL1    Cl 3183   5.089   1.432   2.600
    2MOL1     C 3184   5.068   1.374   2.434
    2MOL1    Cl 3185   5.147   1.216   2.413
    2MOL1    Cl 3186   4.897   1.364   2.392
    2MOL1     H 3187   5.116   1.445   2.366
    2MOL1    Cl 3188   4.180   3.109   3.839
    2MOL1     C 3189   4.179   3.121   4.016
    2MOL1    Cl 3190   4.211   2.963   4.089
    2MOL1    Cl 3191   4.299   3.240   4.071
    2MOL1     H 3192   4.080   3.155   4.048
    2MOL1    Cl 3193   1.816   3.613   3.489
    2MOL1     C 3194   1.644   3.571   3.476
    2MOL1    Cl 3195   1.622   3.439   3.360
    2MOL1    Cl 3196   1.579   3.526   3.634
    2MOL1     H 3197   1.590   3.658   3.440
    2MOL1    Cl 3198   2.583   3.135   2.530
    2MOL1     C 3199   2.529   3.251   2.653
    2MOL1    Cl 3200   2.630   3.241   2.797
    2MOL1    Cl 3201   2.530   3.415   2.587
    2MOL1     H 3202   2.426   3.226   2.681
    2MOL1    Cl 3203   1.792   3.004   0.179
    2MOL1     C 3204   1.912   2.879   0.140
    2MOL1    Cl 3205   1.842   2.757   0.032
    2MOL1    Cl 3206   2.056   2.951   0.068
    2MOL1     H 3207   1.941   2.830   0.233
    2MOL1    Cl 3208   4.747   0.933   2.998
    2MOL1     C 3209   4.823   0.819   2.886
    2MOL1    Cl 3210   4.706   0.764   2.765
    2MOL1    Cl 3211   4.963   0.893   2.807
    2MOL1     H 3212   4.857   0.732   2.943
    2MOL1    Cl 3213   4.857   1.940   1.390
    2MOL1     C 3214   4.880   2.054   1.256
    2MOL1    Cl 3215   4.766   2.189   1.269
    2MOL1    Cl 3216   5.047   2.113   1.252
    2MOL1     H 3217   4.860   2.001   1.162
    2MOL1    Cl 3218   3.060   3.867   0.332
    2MOL1     C 3219   3.179   3.948   0.435
    2MOL1    Cl 3220   3.286   4.050   0.337
    2MOL1    Cl 3221   3.098   4.046   0.559
    2MOL1     H 3222   3.240   3.872   0.485
    2MOL1    Cl 3223   2.548   4.073   3.623
    2MOL1     C 3224   2.722   4.101   3.648
    2MOL1    Cl 3225   2.815   3.962   3.589
    2MOL1    Cl 3226   2.773   4.249   3.566
    2MOL1     H 3227   2.740   4.112   3.755
    2MOL1    Cl 3228   2.228   4.536   2.244
    2MOL1     C 3229   2.059   4.578   2.215
    2MOL1    Cl 3230   1.955   4.511   2.342
    2MOL1    Cl 3231   2.039   4.754   2.206
    2MOL1     H 3232   2.028   4.535   2.119
    2MOL1    Cl 3233   1.634   1.642   0.638
    2MOL1     C 3234   1.585   1.802   0.695
    2MOL1    Cl 3235   1.726   1.898   0.741
    2MOL1    Cl 3236   1.490   1.886   0.570
    2MOL1     H 3237   1.521   1.789   0.783
    2MOL1    Cl 3238   0.331   2.858   4.513
    2MOL1     C 3239   0.236   2.848   4.364
    2MOL1    Cl 3240   0.326   2.764   4.237
    2MOL1    Cl 3241   0.081   2.767   4.394
    2MOL1     H 3242   0.214   2.950   4.330
    2MOL1    Cl 3243   0.379   1.570   4.886
    2MOL1     C 3244   0.486   1.599   4.748
    2MOL1    Cl 3245   0.647   1.531   4.778
    2MOL1    Cl 3246   0.416   1.532   4.600
    2MOL1     H 3247   0.496   1.707   4.735
    2MOL1    Cl 3248   4.874   2.817   0.784
    2MOL1     C 3249   4.945   2.950   0.691
    2MOL1    Cl 3250   5.083   3.020   0.777
    2MOL1    Cl 3251   4.993   2.895   0.530
    2MOL1     H 3252   4.869   3.028   0.679
    2MOL1    Cl 3253   2.348   4.353   4.820
    2MOL1     C 3254   2.226   4.229   4.856
    2MOL1    Cl 3255   2.280   4.126   4.991
    2MOL1    Cl 3256   2.070   4.304   4.894
    2MOL1     H 3257   2.214   4.166   4.768
    2MOL1    Cl 3258   3.214   3.478   3.368
    2MOL1     C 3259   3.101   3.446   3.235
    2MOL1    Cl 3260   3.075   3.593   3.139
    2MOL1    Cl 3261   3.161   3.314   3.133
    2MOL1     H 3262   3.005   3.415   3.278
    2MOL1    Cl 3263   2.870   4.459   0.342
    2MOL1     C 3264   3.037   4.410   0.375
    2MOL1    Cl 3265   3.084   4.276   0.269
    2MOL1    Cl 3266   3.147   4.546   0.355
    2MOL1     H 3267   3.042   4.375   0.478
    2MOL1    Cl 3268   3.473   4.608   0.448
    2MOL1     C 3269   3.403   4.446   0.455
    2MOL1    Cl 3270   3.513   4.333   0.537
    2MOL1    Cl 3271   3.246   4.450   0.536
    2MOL1     H 3272   3.388   4.410   0.352
    2MOL1    Cl 3273   2.302   3.870   1.071
    2MOL1     C 3274   2.384   3.728   1.005
    2MOL1    Cl 3275   2.431   3.617   1.135
    2MOL1    Cl 3276   2.280   3.645   0.888
    2MOL1     H 3277   2.474   3.760   0.953
    2MOL1    Cl 3278   4.011   4.061   3.715
    2MOL1     C 3279   4.093   3.906   3.744
    2MOL1    Cl 3280   4.224   3.926   3.860
    2MOL1    Cl 3281   3.977   3.784   3.800
    2MOL1     H 3282   4.135   3.871   3.649
    2MOL1    Cl 3283   5.294   4.639   4.246
    2MOL1     C 3284   5.215   4.790   4.196
    2MOL1    Cl 3285   5.091   4.837   4.314
    2MOL1    Cl 3286   5.335   4.919   4.177
    2MOL1     H 3287   5.167   4.773   4.100
    2MOL1    Cl 3288   4.268   0.386   3.677
    2MOL1     C 3289   4.172   0.304   3.552
    2MOL1    Cl 3290   4.019   0.246   3.619
    2MOL1    Cl 3291   4.142   0.413   3.415
    2MOL1     H 3292   4.229   0.218   3.516
    2MOL1    Cl 3293   2.339   2.544   3.418
    2MOL1     C 3294   2.448   2.681   3.445
    2MOL1    Cl 3295   2.374   2.800   3.553
    2MOL1    Cl 3296   2.603   2.626   3.510
    2MOL1     H 3297   2.466   2.730   3.348
    2MOL1    Cl 3298   4.799   4.686   2.704
    2MOL1     C 3299   4.964   4.658   2.645
    2MOL1    Cl 3300   5.052   4.552   2.756
    2MOL1    Cl 3301   4.961   4.590   2.482
    2MOL1     H 3302   5.015   4.754   2.641
    2MOL1    Cl 3303   2.538   0.809   2.031
    2MOL1     C 3304   2.366   0.838   2.059
    2MOL1    Cl 3305   2.299   0.718   2.170
    2MOL1    Cl 3306   2.340   1.002   2.121
    2MOL1     H 3307   2.313   0.829   1.963
    2MOL1    Cl 3308   0.423   2.399   2.990
    2MOL1     C 3309   0.268   2.358   3.064
    2MOL1    Cl 3310   0.208   2.203   3.003
    2MOL1    Cl 3311   0.283   2.354   3.241
    2MOL1     H 3312   0.196   2.436   3.038
    2MOL1    Cl 3313   1.163   4.199   1.155
    2MOL1     C 3314   1.091   4.048   1.098
    2MOL1    Cl 3315   1.216   3.932   1.050
    2MOL1    Cl 3316   0.986   3.978   1.222
    2MOL1     H 3317   1.030   4.070   1.010
    2MOL1    Cl 3318   2.466   3.020   0.608
    2MOL1     C 3319   2.622   3.061   0.679
    2MOL1    Cl 3320   2.660   3.232   0.653
    2MOL1    Cl 3321   2.625   3.022   0.852
    2MOL1     H 3322   2.699   3.001   0.629
    2MOL1    Cl 3323   0.776   0.703   1.040
    2MOL1     C 3324   0.721   0.680   0.873
    2MOL1    Cl 3325   0.645   0.521   0.854
    2MOL1    Cl 3326   0.608   0.808   0.826
    2MOL1     H 3327   0.808   0.685   0.807
    2MOL1    Cl 3328   5.198   2.082   3.264
    2MOL1     C 3329   5.043   2.158   3.225
    2MOL1    Cl 3330   5.065   2.291   3.110
    2MOL1    Cl 3331   4.930   2.038   3.160
    2MOL1     H 3332   5.000   2.198   3.317
    2MOL1    Cl 3333   2.472   1.170   3.469
    2MOL1     C 3334   2.526   1.006   3.505
    2MOL1    Cl 3335   2.690   1.008   3.573
    2MOL1    Cl 3336   2.414   0.926   3.616
    2MOL1     H 3337   2.529   0.949   3.412
    2MOL1    Cl 3338   5.188   0.986   2.393
    2MOL1     C 3339   5.107   1.009   2.237
    2MOL1    Cl 3340   5.092   0.855   2.151
    2MOL1    Cl 3341   4.947   1.082   2.261
    2MOL1     H 3342   5.167   1.077   2.177
    2MOL1    Cl 3343   4.082   0.420   4.595
    2MOL1     C 3344   3.956   0.539   4.559
    2MOL1    Cl 3345   3.833   0.540   4.686
    2MOL1    Cl 3346   4.027   0.700   4.539
    2MOL1     H 3347   3.909   0.510   4.465
    2MOL1    Cl 3348   5.142   1.041   5.054
    2MOL1     C 3349   5.104   0.868   5.060
    2MOL1    Cl 3350   5.232   0.779   5.144
    2MOL1    Cl 3351   4.947   0.841   5.138
    2MOL1     H 3352   5.098   0.831   4.957
    2MOL1    Cl 3353   2.790   0.569   1.621
    2MOL1     C 3354   2.926   0.519   1.518
    2MOL1    Cl 3355   3.049   0.646   1.512
    2MOL1    Cl 3356   2.996   0.368   1.577
    2MOL1     H 3357   2.888   0.503   1.417
    2MOL1    Cl 3358   2.121   1.515   3.768
    2MOL1     C 3359   2.134   1.357   3.848
    2MOL1    Cl 3360   1.983   1.266   3.830
    2MOL1    Cl 3361   2.270   1.265   3.782
    2MOL1     H 3362   2.152   1.374   3.954
    2MOL1    Cl 3363   3.552   1.476   2.159
    2MOL1     C 3364   3.499   1.390   2.013
    2MOL1    Cl 3365   3.630   1.386   1.893
    2MOL1    Cl 3366   3.446   1.226   2.052
    2MOL1     H 3367   3.414   1.445   1.970
  5.5400000  5.5400000  5.5400000
