;
;   File pmp_tetramer_system_hmr.top  was generated
;   By user: tfobe (1000)
;   On host:GLaDOS 
;   At date:Fri. October  5 12:49:09 2024 
;
;   This is a standalone topology file
;
;   Created by:
;   ParmEd:       hmr_topology, VERSION4.2.2 
;   Executable:   hmr_topology
;   Library dir:  /home/tfobe/miniforge3/envs/terphenyl/share/gromacs/top
;   Command line:
;     hmr_topology -t pmp_tetramer_system.top -o pmp_tetramer_system_hmr.top --hmr_ratio 3
;

[ defaults ]
; nbfunc        comb-rule       gen-pairs       fudgeLJ fudgeQQ
1               2               yes             0.5          0.833333    

[ atomtypes ]
; name    at.num    mass    charge ptype  sigma      epsilon
pmp_tetramer.pdb_0        6  12.010780  0.00000000  A     0.33795318     0.45538912
pmp_tetramer.pdb_1        8  15.999430  0.00000000  A     0.30251065     0.70485815
pmp_tetramer.pdb_2        6  12.010780  0.00000000  A     0.34806469     0.36350306
pmp_tetramer.pdb_3        6  12.010780  0.00000000  A     0.34806469     0.36350306
pmp_tetramer.pdb_4        6  12.010780  0.00000000  A     0.34806469     0.36350306
pmp_tetramer.pdb_5        6  12.010780  0.00000000  A     0.34806469     0.36350306
pmp_tetramer.pdb_6        6  12.010780  0.00000000  A     0.34806469     0.36350306
pmp_tetramer.pdb_7        6  12.010780  0.00000000  A     0.34806469     0.36350306
pmp_tetramer.pdb_8        6  12.010780  0.00000000  A     0.34806469     0.36350306
pmp_tetramer.pdb_9        6  12.010780  0.00000000  A     0.34806469     0.36350306
pmp_tetramer.pdb_10        8  15.999430  0.00000000  A     0.30398122     0.87950233
pmp_tetramer.pdb_11        6  12.010780  0.00000000  A     0.34806469     0.36350306
pmp_tetramer.pdb_12        6  12.010780  0.00000000  A     0.34806469     0.36350306
pmp_tetramer.pdb_13        6  12.010780  0.00000000  A     0.34806469     0.36350306
pmp_tetramer.pdb_14        6  12.010780  0.00000000  A     0.34806469     0.36350306
pmp_tetramer.pdb_15        6  12.010780  0.00000000  A     0.34806469     0.36350306
pmp_tetramer.pdb_16        6  12.010780  0.00000000  A     0.34806469     0.36350306
pmp_tetramer.pdb_17        6  12.010780  0.00000000  A     0.34806469     0.36350306
pmp_tetramer.pdb_18        6  12.010780  0.00000000  A     0.34806469     0.36350306
pmp_tetramer.pdb_19        6  12.010780  0.00000000  A     0.33795318     0.45538912
pmp_tetramer.pdb_20        6  12.010780  0.00000000  A     0.33795318     0.45538912
pmp_tetramer.pdb_21        7  14.006720  0.00000000  A      0.3206876      0.7016213
pmp_tetramer.pdb_22        6  12.010780  0.00000000  A     0.34806469     0.36350306
pmp_tetramer.pdb_23        6  12.010780  0.00000000  A     0.34806469     0.36350306
pmp_tetramer.pdb_24        6  12.010780  0.00000000  A     0.34806469     0.36350306
pmp_tetramer.pdb_25        1   1.007947  0.00000000  A     0.25832257    0.068656285
pmp_tetramer.pdb_26        1   1.007947  0.00000000  A     0.25832257    0.068656285
pmp_tetramer.pdb_27        1   1.007947  0.00000000  A     0.25832257    0.068656285
pmp_tetramer.pdb_28        1   1.007947  0.00000000  A     0.25725815     0.06531786
pmp_tetramer.pdb_29        1   1.007947  0.00000000  A     0.25725815     0.06531786
pmp_tetramer.pdb_30        1   1.007947  0.00000000  A     0.25725815     0.06531786
pmp_tetramer.pdb_31        1   1.007947  0.00000000  A     0.25725815     0.06531786
pmp_tetramer.pdb_32        1   1.007947  0.00000000  A     0.25725815     0.06531786
pmp_tetramer.pdb_33        1   1.007947  0.00000000  A     0.25725815     0.06531786
pmp_tetramer.pdb_34        1   1.007947  0.00000000  A     0.25725815     0.06531786
pmp_tetramer.pdb_35        1   1.007947  0.00000000  A     0.25725815     0.06531786
pmp_tetramer.pdb_36        1   1.007947  0.00000000  A     0.25832257    0.068656285
pmp_tetramer.pdb_37        1   1.007947  0.00000000  A     0.26445434    0.066021356
pmp_tetramer.pdb_38        1   1.007947  0.00000000  A     0.26445434    0.066021356
pmp_tetramer.pdb_39        1   1.007947  0.00000000  A     0.26445434    0.066021356
pmp_tetramer.pdb_40        1   1.007947  0.00000000  A     0.11034277    0.058955969
pmp_tetramer.pdb_41        1   1.007947  0.00000000  A     0.25725815     0.06531786
pmp_tetramer.pdb_42        1   1.007947  0.00000000  A     0.25725815     0.06531786
pmp_tetramer.pdb_43        1   1.007947  0.00000000  A     0.25725815     0.06531786
pmp_tetramer.pdb_44        6  12.010780  0.00000000  A     0.33795318     0.45538912
pmp_tetramer.pdb_45        8  15.999430  0.00000000  A     0.30251065     0.70485815
pmp_tetramer.pdb_46        6  12.010780  0.00000000  A     0.34806469     0.36350306
pmp_tetramer.pdb_47        6  12.010780  0.00000000  A     0.34806469     0.36350306
pmp_tetramer.pdb_48        6  12.010780  0.00000000  A     0.34806469     0.36350306
pmp_tetramer.pdb_49        6  12.010780  0.00000000  A     0.34806469     0.36350306
pmp_tetramer.pdb_50        6  12.010780  0.00000000  A     0.34806469     0.36350306
pmp_tetramer.pdb_51        6  12.010780  0.00000000  A     0.34806469     0.36350306
pmp_tetramer.pdb_52        6  12.010780  0.00000000  A     0.34806469     0.36350306
pmp_tetramer.pdb_53        6  12.010780  0.00000000  A     0.34806469     0.36350306
pmp_tetramer.pdb_54        8  15.999430  0.00000000  A     0.30398122     0.87950233
pmp_tetramer.pdb_55        6  12.010780  0.00000000  A     0.34806469     0.36350306
pmp_tetramer.pdb_56        6  12.010780  0.00000000  A     0.34806469     0.36350306
pmp_tetramer.pdb_57        6  12.010780  0.00000000  A     0.34806469     0.36350306
pmp_tetramer.pdb_58        6  12.010780  0.00000000  A     0.34806469     0.36350306
pmp_tetramer.pdb_59        6  12.010780  0.00000000  A     0.34806469     0.36350306
pmp_tetramer.pdb_60        6  12.010780  0.00000000  A     0.34806469     0.36350306
pmp_tetramer.pdb_61        6  12.010780  0.00000000  A     0.34806469     0.36350306
pmp_tetramer.pdb_62        6  12.010780  0.00000000  A     0.34806469     0.36350306
pmp_tetramer.pdb_63        6  12.010780  0.00000000  A     0.33795318     0.45538912
pmp_tetramer.pdb_64        6  12.010780  0.00000000  A     0.33795318     0.45538912
pmp_tetramer.pdb_65        7  14.006720  0.00000000  A      0.3206876      0.7016213
pmp_tetramer.pdb_66        6  12.010780  0.00000000  A     0.34806469     0.36350306
pmp_tetramer.pdb_67        6  12.010780  0.00000000  A     0.34806469     0.36350306
pmp_tetramer.pdb_68        6  12.010780  0.00000000  A     0.34806469     0.36350306
pmp_tetramer.pdb_69        1   1.007947  0.00000000  A     0.25832257    0.068656285
pmp_tetramer.pdb_70        1   1.007947  0.00000000  A     0.25832257    0.068656285
pmp_tetramer.pdb_71        1   1.007947  0.00000000  A     0.25832257    0.068656285
pmp_tetramer.pdb_72        1   1.007947  0.00000000  A     0.25725815     0.06531786
pmp_tetramer.pdb_73        1   1.007947  0.00000000  A     0.25725815     0.06531786
pmp_tetramer.pdb_74        1   1.007947  0.00000000  A     0.25725815     0.06531786
pmp_tetramer.pdb_75        1   1.007947  0.00000000  A     0.25725815     0.06531786
pmp_tetramer.pdb_76        1   1.007947  0.00000000  A     0.25725815     0.06531786
pmp_tetramer.pdb_77        1   1.007947  0.00000000  A     0.25725815     0.06531786
pmp_tetramer.pdb_78        1   1.007947  0.00000000  A     0.25725815     0.06531786
pmp_tetramer.pdb_79        1   1.007947  0.00000000  A     0.25725815     0.06531786
pmp_tetramer.pdb_80        1   1.007947  0.00000000  A     0.25832257    0.068656285
pmp_tetramer.pdb_81        1   1.007947  0.00000000  A     0.26445434    0.066021356
pmp_tetramer.pdb_82        1   1.007947  0.00000000  A     0.26445434    0.066021356
pmp_tetramer.pdb_83        1   1.007947  0.00000000  A     0.26445434    0.066021356
pmp_tetramer.pdb_84        1   1.007947  0.00000000  A     0.11034277    0.058955969
pmp_tetramer.pdb_85        1   1.007947  0.00000000  A     0.25725815     0.06531786
pmp_tetramer.pdb_86        1   1.007947  0.00000000  A     0.25725815     0.06531786
pmp_tetramer.pdb_87        1   1.007947  0.00000000  A     0.25725815     0.06531786
pmp_tetramer.pdb_88        6  12.010780  0.00000000  A     0.33795318     0.45538912
pmp_tetramer.pdb_89        8  15.999430  0.00000000  A     0.30251065     0.70485815
pmp_tetramer.pdb_90        6  12.010780  0.00000000  A     0.34806469     0.36350306
pmp_tetramer.pdb_91        6  12.010780  0.00000000  A     0.34806469     0.36350306
pmp_tetramer.pdb_92        6  12.010780  0.00000000  A     0.34806469     0.36350306
pmp_tetramer.pdb_93        6  12.010780  0.00000000  A     0.34806469     0.36350306
pmp_tetramer.pdb_94        6  12.010780  0.00000000  A     0.34806469     0.36350306
pmp_tetramer.pdb_95        6  12.010780  0.00000000  A     0.34806469     0.36350306
pmp_tetramer.pdb_96        6  12.010780  0.00000000  A     0.34806469     0.36350306
pmp_tetramer.pdb_97        6  12.010780  0.00000000  A     0.34806469     0.36350306
pmp_tetramer.pdb_98        8  15.999430  0.00000000  A     0.30398122     0.87950233
pmp_tetramer.pdb_99        6  12.010780  0.00000000  A     0.34806469     0.36350306
pmp_tetramer.pdb_100        6  12.010780  0.00000000  A     0.34806469     0.36350306
pmp_tetramer.pdb_101        6  12.010780  0.00000000  A     0.34806469     0.36350306
pmp_tetramer.pdb_102        6  12.010780  0.00000000  A     0.34806469     0.36350306
pmp_tetramer.pdb_103        6  12.010780  0.00000000  A     0.34806469     0.36350306
pmp_tetramer.pdb_104        6  12.010780  0.00000000  A     0.34806469     0.36350306
pmp_tetramer.pdb_105        6  12.010780  0.00000000  A     0.34806469     0.36350306
pmp_tetramer.pdb_106        6  12.010780  0.00000000  A     0.34806469     0.36350306
pmp_tetramer.pdb_107        6  12.010780  0.00000000  A     0.33795318     0.45538912
pmp_tetramer.pdb_108        6  12.010780  0.00000000  A     0.33795318     0.45538912
pmp_tetramer.pdb_109        7  14.006720  0.00000000  A      0.3206876      0.7016213
pmp_tetramer.pdb_110        6  12.010780  0.00000000  A     0.34806469     0.36350306
pmp_tetramer.pdb_111        6  12.010780  0.00000000  A     0.34806469     0.36350306
pmp_tetramer.pdb_112        6  12.010780  0.00000000  A     0.34806469     0.36350306
pmp_tetramer.pdb_113        1   1.007947  0.00000000  A     0.25832257    0.068656285
pmp_tetramer.pdb_114        1   1.007947  0.00000000  A     0.25832257    0.068656285
pmp_tetramer.pdb_115        1   1.007947  0.00000000  A     0.25832257    0.068656285
pmp_tetramer.pdb_116        1   1.007947  0.00000000  A     0.25725815     0.06531786
pmp_tetramer.pdb_117        1   1.007947  0.00000000  A     0.25725815     0.06531786
pmp_tetramer.pdb_118        1   1.007947  0.00000000  A     0.25725815     0.06531786
pmp_tetramer.pdb_119        1   1.007947  0.00000000  A     0.25725815     0.06531786
pmp_tetramer.pdb_120        1   1.007947  0.00000000  A     0.25725815     0.06531786
pmp_tetramer.pdb_121        1   1.007947  0.00000000  A     0.25725815     0.06531786
pmp_tetramer.pdb_122        1   1.007947  0.00000000  A     0.25725815     0.06531786
pmp_tetramer.pdb_123        1   1.007947  0.00000000  A     0.25725815     0.06531786
pmp_tetramer.pdb_124        1   1.007947  0.00000000  A     0.25832257    0.068656285
pmp_tetramer.pdb_125        1   1.007947  0.00000000  A     0.26445434    0.066021356
pmp_tetramer.pdb_126        1   1.007947  0.00000000  A     0.26445434    0.066021356
pmp_tetramer.pdb_127        1   1.007947  0.00000000  A     0.26445434    0.066021356
pmp_tetramer.pdb_128        1   1.007947  0.00000000  A     0.11034277    0.058955969
pmp_tetramer.pdb_129        1   1.007947  0.00000000  A     0.25725815     0.06531786
pmp_tetramer.pdb_130        1   1.007947  0.00000000  A     0.25725815     0.06531786
pmp_tetramer.pdb_131        1   1.007947  0.00000000  A     0.25725815     0.06531786
pmp_tetramer.pdb_132        6  12.010780  0.00000000  A     0.33795318     0.45538912
pmp_tetramer.pdb_133        8  15.999430  0.00000000  A     0.30251065     0.70485815
pmp_tetramer.pdb_134        6  12.010780  0.00000000  A     0.34806469     0.36350306
pmp_tetramer.pdb_135        6  12.010780  0.00000000  A     0.34806469     0.36350306
pmp_tetramer.pdb_136        6  12.010780  0.00000000  A     0.34806469     0.36350306
pmp_tetramer.pdb_137        6  12.010780  0.00000000  A     0.34806469     0.36350306
pmp_tetramer.pdb_138        6  12.010780  0.00000000  A     0.34806469     0.36350306
pmp_tetramer.pdb_139        6  12.010780  0.00000000  A     0.34806469     0.36350306
pmp_tetramer.pdb_140        6  12.010780  0.00000000  A     0.34806469     0.36350306
pmp_tetramer.pdb_141        6  12.010780  0.00000000  A     0.34806469     0.36350306
pmp_tetramer.pdb_142        8  15.999430  0.00000000  A     0.30398122     0.87950233
pmp_tetramer.pdb_143        6  12.010780  0.00000000  A     0.34806469     0.36350306
pmp_tetramer.pdb_144        6  12.010780  0.00000000  A     0.34806469     0.36350306
pmp_tetramer.pdb_145        6  12.010780  0.00000000  A     0.34806469     0.36350306
pmp_tetramer.pdb_146        6  12.010780  0.00000000  A     0.34806469     0.36350306
pmp_tetramer.pdb_147        6  12.010780  0.00000000  A     0.34806469     0.36350306
pmp_tetramer.pdb_148        6  12.010780  0.00000000  A     0.34806469     0.36350306
pmp_tetramer.pdb_149        6  12.010780  0.00000000  A     0.34806469     0.36350306
pmp_tetramer.pdb_150        6  12.010780  0.00000000  A     0.34806469     0.36350306
pmp_tetramer.pdb_151        6  12.010780  0.00000000  A     0.33795318     0.45538912
pmp_tetramer.pdb_152        6  12.010780  0.00000000  A     0.33795318     0.45538912
pmp_tetramer.pdb_153        7  14.006720  0.00000000  A      0.3206876      0.7016213
pmp_tetramer.pdb_154        6  12.010780  0.00000000  A     0.34806469     0.36350306
pmp_tetramer.pdb_155        6  12.010780  0.00000000  A     0.34806469     0.36350306
pmp_tetramer.pdb_156        6  12.010780  0.00000000  A     0.34806469     0.36350306
pmp_tetramer.pdb_157        1   1.007947  0.00000000  A     0.25832257    0.068656285
pmp_tetramer.pdb_158        1   1.007947  0.00000000  A     0.25832257    0.068656285
pmp_tetramer.pdb_159        1   1.007947  0.00000000  A     0.25832257    0.068656285
pmp_tetramer.pdb_160        1   1.007947  0.00000000  A     0.25725815     0.06531786
pmp_tetramer.pdb_161        1   1.007947  0.00000000  A     0.25725815     0.06531786
pmp_tetramer.pdb_162        1   1.007947  0.00000000  A     0.25725815     0.06531786
pmp_tetramer.pdb_163        1   1.007947  0.00000000  A     0.25725815     0.06531786
pmp_tetramer.pdb_164        1   1.007947  0.00000000  A     0.25725815     0.06531786
pmp_tetramer.pdb_165        1   1.007947  0.00000000  A     0.25725815     0.06531786
pmp_tetramer.pdb_166        1   1.007947  0.00000000  A     0.25725815     0.06531786
pmp_tetramer.pdb_167        1   1.007947  0.00000000  A     0.25725815     0.06531786
pmp_tetramer.pdb_168        1   1.007947  0.00000000  A     0.25832257    0.068656285
pmp_tetramer.pdb_169        1   1.007947  0.00000000  A     0.26445434    0.066021356
pmp_tetramer.pdb_170        1   1.007947  0.00000000  A     0.26445434    0.066021356
pmp_tetramer.pdb_171        1   1.007947  0.00000000  A     0.26445434    0.066021356
pmp_tetramer.pdb_172        1   1.007947  0.00000000  A     0.11034277    0.058955969
pmp_tetramer.pdb_173        1   1.007947  0.00000000  A     0.25725815     0.06531786
pmp_tetramer.pdb_174        1   1.007947  0.00000000  A     0.25725815     0.06531786
pmp_tetramer.pdb_175        1   1.007947  0.00000000  A     0.25725815     0.06531786
pmp_tetramer.pdb_176        6  12.010780  0.00000000  A     0.33795318     0.45538912
pmp_tetramer.pdb_177        8  15.999430  0.00000000  A     0.30251065     0.70485815
pmp_tetramer.pdb_178        1   1.007947  0.00000000  A     0.25832257    0.068656285
pmp_tetramer.pdb_179        1   1.007947  0.00000000  A     0.25832257    0.068656285
pmp_tetramer.pdb_180        1   1.007947  0.00000000  A     0.25832257    0.068656285
pmp_tetramer.pdb_181        6  12.010780  0.00000000  A     0.33795318     0.45538912
pmp_tetramer.pdb_182        6  12.010780  0.00000000  A     0.33795318     0.45538912
pmp_tetramer.pdb_183        6  12.010780  0.00000000  A     0.33795318     0.45538912
pmp_tetramer.pdb_184        6  12.010780  0.00000000  A     0.33795318     0.45538912
pmp_tetramer.pdb_185        8  15.999430  0.00000000  A     0.30251065     0.70485815
pmp_tetramer.pdb_186        6  12.010780  0.00000000  A     0.34806469     0.36350306
pmp_tetramer.pdb_187        8  15.999430  0.00000000  A     0.30398122     0.87950233
pmp_tetramer.pdb_188        1   1.007947  0.00000000  A     0.26445434    0.066021356
pmp_tetramer.pdb_189        1   1.007947  0.00000000  A     0.26445434    0.066021356
pmp_tetramer.pdb_190        1   1.007947  0.00000000  A     0.26445434    0.066021356
pmp_tetramer.pdb_191        1   1.007947  0.00000000  A     0.26445434    0.066021356
pmp_tetramer.pdb_192        1   1.007947  0.00000000  A     0.26445434    0.066021356
pmp_tetramer.pdb_193        1   1.007947  0.00000000  A     0.26445434    0.066021356
pmp_tetramer.pdb_194        1   1.007947  0.00000000  A     0.26445434    0.066021356
pmp_tetramer.pdb_195        1   1.007947  0.00000000  A     0.26445434    0.066021356
pmp_tetramer.pdb_196        1   1.007947  0.00000000  A     0.26445434    0.066021356
MOL1_0        17  35.453200  0.00000000  A     0.33075278      1.1112708
MOL1_1         6  12.010780  0.00000000  A     0.33795318     0.45538912
MOL1_2        17  35.453200  0.00000000  A     0.33075278      1.1112708
MOL1_3        17  35.453200  0.00000000  A     0.33075278      1.1112708
MOL1_4         1   1.007947  0.00000000  A     0.21149936      0.0656888


[ moleculetype ]
; Name            nrexcl
pmp_tetramer.pdb          3

[ atoms ]
;   nr       type  resnr residue  atom   cgnr    charge       mass  typeB    chargeB      massB
; residue    1 pmp_tetramer.pdb rtp pmp_tetramer.pdb q -0.0
    1 pmp_tetramer.pdb_0      1 pmp_tetramer.pdb      C      1 0.11006000   5.963098   ; qtot 0.110060
    2 pmp_tetramer.pdb_1      1 pmp_tetramer.pdb      O      2 -0.32183999  15.999430   ; qtot -0.211780
    3 pmp_tetramer.pdb_2      1 pmp_tetramer.pdb      C      3 0.12271000  12.010780   ; qtot -0.089070
    4 pmp_tetramer.pdb_3      1 pmp_tetramer.pdb      C      4 -0.13787000   9.994886   ; qtot -0.226940
    5 pmp_tetramer.pdb_4      1 pmp_tetramer.pdb      C      5 -0.01132000  12.010780   ; qtot -0.238260
    6 pmp_tetramer.pdb_5      1 pmp_tetramer.pdb      C      6 -0.00986000  12.010780   ; qtot -0.248120
    7 pmp_tetramer.pdb_6      1 pmp_tetramer.pdb      C      7 -0.13397001   9.994886   ; qtot -0.382090
    8 pmp_tetramer.pdb_7      1 pmp_tetramer.pdb      C      8 -0.07578000   9.994886   ; qtot -0.457870
    9 pmp_tetramer.pdb_8      1 pmp_tetramer.pdb      C      9 -0.12704000  12.010780   ; qtot -0.584910
   10 pmp_tetramer.pdb_9      1 pmp_tetramer.pdb      C     10 0.64459997  12.010780   ; qtot 0.059690
   11 pmp_tetramer.pdb_10      1 pmp_tetramer.pdb      O     11 -0.54065001  15.999430   ; qtot -0.480960
   12 pmp_tetramer.pdb_11      1 pmp_tetramer.pdb      C     12 -0.07578000   9.994886   ; qtot -0.556740
   13 pmp_tetramer.pdb_12      1 pmp_tetramer.pdb      C     13 -0.13397001   9.994886   ; qtot -0.690710
   14 pmp_tetramer.pdb_13      1 pmp_tetramer.pdb      C     14 -0.14002000   9.994886   ; qtot -0.830730
   15 pmp_tetramer.pdb_14      1 pmp_tetramer.pdb      C     15 -0.00571000  12.010780   ; qtot -0.836440
   16 pmp_tetramer.pdb_15      1 pmp_tetramer.pdb      C     16 -0.03374000  12.010780   ; qtot -0.870180
   17 pmp_tetramer.pdb_16      1 pmp_tetramer.pdb      C     17 -0.11961000   9.994886   ; qtot -0.989790
   18 pmp_tetramer.pdb_17      1 pmp_tetramer.pdb      C     18 -0.11704000   9.994886   ; qtot -1.106830
   19 pmp_tetramer.pdb_18      1 pmp_tetramer.pdb      C     19 -0.11147000  12.010780   ; qtot -1.218300
   20 pmp_tetramer.pdb_19      1 pmp_tetramer.pdb      C     20 0.14327000   9.994886   ; qtot -1.075030
   21 pmp_tetramer.pdb_20      1 pmp_tetramer.pdb      C     21 -0.10615000   5.963098   ; qtot -1.181180
   22 pmp_tetramer.pdb_21      1 pmp_tetramer.pdb      N     22 -0.56173003  11.990826   ; qtot -1.742910
   23 pmp_tetramer.pdb_22      1 pmp_tetramer.pdb      C     23 -0.11704000   9.994886   ; qtot -1.859950
   24 pmp_tetramer.pdb_23      1 pmp_tetramer.pdb      C     24 -0.11961000   9.994886   ; qtot -1.979560
   25 pmp_tetramer.pdb_24      1 pmp_tetramer.pdb      C     25 -0.19361000   9.994886   ; qtot -2.173170
   26 pmp_tetramer.pdb_25      1 pmp_tetramer.pdb      H     26 0.04528000   3.023841   ; qtot -2.127890
   27 pmp_tetramer.pdb_26      1 pmp_tetramer.pdb      H     27 0.04528000   3.023841   ; qtot -2.082610
   28 pmp_tetramer.pdb_27      1 pmp_tetramer.pdb      H     28 0.04528000   3.023841   ; qtot -2.037330
   29 pmp_tetramer.pdb_28      1 pmp_tetramer.pdb      H     29 0.15504999   3.023841   ; qtot -1.882280
   30 pmp_tetramer.pdb_29      1 pmp_tetramer.pdb      H     30 0.14097001   3.023841   ; qtot -1.741310
   31 pmp_tetramer.pdb_30      1 pmp_tetramer.pdb      H     31 0.15524000   3.023841   ; qtot -1.586070
   32 pmp_tetramer.pdb_31      1 pmp_tetramer.pdb      H     32 0.15524000   3.023841   ; qtot -1.430830
   33 pmp_tetramer.pdb_32      1 pmp_tetramer.pdb      H     33 0.14097001   3.023841   ; qtot -1.289860
   34 pmp_tetramer.pdb_33      1 pmp_tetramer.pdb      H     34 0.14150999   3.023841   ; qtot -1.148350
   35 pmp_tetramer.pdb_34      1 pmp_tetramer.pdb      H     35 0.13636000   3.023841   ; qtot -1.011990
   36 pmp_tetramer.pdb_35      1 pmp_tetramer.pdb      H     36 0.13653000   3.023841   ; qtot -0.875460
   37 pmp_tetramer.pdb_36      1 pmp_tetramer.pdb      H     37 0.09003000   3.023841   ; qtot -0.785430
   38 pmp_tetramer.pdb_37      1 pmp_tetramer.pdb      H     38 0.04649000   3.023841   ; qtot -0.738940
   39 pmp_tetramer.pdb_38      1 pmp_tetramer.pdb      H     39 0.04649000   3.023841   ; qtot -0.692450
   40 pmp_tetramer.pdb_39      1 pmp_tetramer.pdb      H     40 0.04649000   3.023841   ; qtot -0.645960
   41 pmp_tetramer.pdb_40      1 pmp_tetramer.pdb      H     41 0.30430001   3.023841   ; qtot -0.341660
   42 pmp_tetramer.pdb_41      1 pmp_tetramer.pdb      H     42 0.13653000   3.023841   ; qtot -0.205130
   43 pmp_tetramer.pdb_42      1 pmp_tetramer.pdb      H     43 0.13636000   3.023841   ; qtot -0.068770
   44 pmp_tetramer.pdb_43      1 pmp_tetramer.pdb      H     44 0.14436001   3.023841   ; qtot 0.075590
   45 pmp_tetramer.pdb_44      1 pmp_tetramer.pdb      C     45 0.11357000   5.963098   ; qtot 0.189160
   46 pmp_tetramer.pdb_45      1 pmp_tetramer.pdb      O     46 -0.32638001  15.999430   ; qtot -0.137220
   47 pmp_tetramer.pdb_46      1 pmp_tetramer.pdb      C     47 0.12680000  12.010780   ; qtot -0.010420
   48 pmp_tetramer.pdb_47      1 pmp_tetramer.pdb      C     48 -0.13695000   9.994886   ; qtot -0.147370
   49 pmp_tetramer.pdb_48      1 pmp_tetramer.pdb      C     49 -0.01306000  12.010780   ; qtot -0.160430
   50 pmp_tetramer.pdb_49      1 pmp_tetramer.pdb      C     50 -0.01281000  12.010780   ; qtot -0.173240
   51 pmp_tetramer.pdb_50      1 pmp_tetramer.pdb      C     51 -0.12967999   9.994886   ; qtot -0.302920
   52 pmp_tetramer.pdb_51      1 pmp_tetramer.pdb      C     52 -0.08960000   9.994886   ; qtot -0.392520
   53 pmp_tetramer.pdb_52      1 pmp_tetramer.pdb      C     53 -0.14410000  12.010780   ; qtot -0.536620
   54 pmp_tetramer.pdb_53      1 pmp_tetramer.pdb      C     54 0.67316002  12.010780   ; qtot 0.136540
   55 pmp_tetramer.pdb_54      1 pmp_tetramer.pdb      O     55 -0.59619999  15.999430   ; qtot -0.459660
   56 pmp_tetramer.pdb_55      1 pmp_tetramer.pdb      C     56 -0.08960000   9.994886   ; qtot -0.549260
   57 pmp_tetramer.pdb_56      1 pmp_tetramer.pdb      C     57 -0.12967999   9.994886   ; qtot -0.678940
   58 pmp_tetramer.pdb_57      1 pmp_tetramer.pdb      C     58 -0.14285000   9.994886   ; qtot -0.821790
   59 pmp_tetramer.pdb_58      1 pmp_tetramer.pdb      C     59 -0.00398000  12.010780   ; qtot -0.825770
   60 pmp_tetramer.pdb_59      1 pmp_tetramer.pdb      C     60 -0.03299000  12.010780   ; qtot -0.858760
   61 pmp_tetramer.pdb_60      1 pmp_tetramer.pdb      C     61 -0.11728000   9.994886   ; qtot -0.976040
   62 pmp_tetramer.pdb_61      1 pmp_tetramer.pdb      C     62 -0.12085000   9.994886   ; qtot -1.096890
   63 pmp_tetramer.pdb_62      1 pmp_tetramer.pdb      C     63 -0.09585000  12.010780   ; qtot -1.192740
   64 pmp_tetramer.pdb_63      1 pmp_tetramer.pdb      C     64 0.15152000   9.994886   ; qtot -1.041220
   65 pmp_tetramer.pdb_64      1 pmp_tetramer.pdb      C     65 -0.11232000   5.963098   ; qtot -1.153540
   66 pmp_tetramer.pdb_65      1 pmp_tetramer.pdb      N     66 -0.57072002  11.990826   ; qtot -1.724260
   67 pmp_tetramer.pdb_66      1 pmp_tetramer.pdb      C     67 -0.12085000   9.994886   ; qtot -1.845110
   68 pmp_tetramer.pdb_67      1 pmp_tetramer.pdb      C     68 -0.11728000   9.994886   ; qtot -1.962390
   69 pmp_tetramer.pdb_68      1 pmp_tetramer.pdb      C     69 -0.19030000   9.994886   ; qtot -2.152690
   70 pmp_tetramer.pdb_69      1 pmp_tetramer.pdb      H     70 0.04577000   3.023841   ; qtot -2.106920
   71 pmp_tetramer.pdb_70      1 pmp_tetramer.pdb      H     71 0.04577000   3.023841   ; qtot -2.061150
   72 pmp_tetramer.pdb_71      1 pmp_tetramer.pdb      H     72 0.04577000   3.023841   ; qtot -2.015380
   73 pmp_tetramer.pdb_72      1 pmp_tetramer.pdb      H     73 0.15567000   3.023841   ; qtot -1.859710
   74 pmp_tetramer.pdb_73      1 pmp_tetramer.pdb      H     74 0.14082000   3.023841   ; qtot -1.718890
   75 pmp_tetramer.pdb_74      1 pmp_tetramer.pdb      H     75 0.14947000   3.023841   ; qtot -1.569420
   76 pmp_tetramer.pdb_75      1 pmp_tetramer.pdb      H     76 0.14947000   3.023841   ; qtot -1.419950
   77 pmp_tetramer.pdb_76      1 pmp_tetramer.pdb      H     77 0.14082000   3.023841   ; qtot -1.279130
   78 pmp_tetramer.pdb_77      1 pmp_tetramer.pdb      H     78 0.13847999   3.023841   ; qtot -1.140650
   79 pmp_tetramer.pdb_78      1 pmp_tetramer.pdb      H     79 0.13649000   3.023841   ; qtot -1.004160
   80 pmp_tetramer.pdb_79      1 pmp_tetramer.pdb      H     80 0.13675000   3.023841   ; qtot -0.867410
   81 pmp_tetramer.pdb_80      1 pmp_tetramer.pdb      H     81 0.08773000   3.023841   ; qtot -0.779680
   82 pmp_tetramer.pdb_81      1 pmp_tetramer.pdb      H     82 0.04591000   3.023841   ; qtot -0.733770
   83 pmp_tetramer.pdb_82      1 pmp_tetramer.pdb      H     83 0.04591000   3.023841   ; qtot -0.687860
   84 pmp_tetramer.pdb_83      1 pmp_tetramer.pdb      H     84 0.04591000   3.023841   ; qtot -0.641950
   85 pmp_tetramer.pdb_84      1 pmp_tetramer.pdb      H     85 0.31059000   3.023841   ; qtot -0.331360
   86 pmp_tetramer.pdb_85      1 pmp_tetramer.pdb      H     86 0.13675000   3.023841   ; qtot -0.194610
   87 pmp_tetramer.pdb_86      1 pmp_tetramer.pdb      H     87 0.13649000   3.023841   ; qtot -0.058120
   88 pmp_tetramer.pdb_87      1 pmp_tetramer.pdb      H     88 0.14242999   3.023841   ; qtot 0.084310
   89 pmp_tetramer.pdb_88      1 pmp_tetramer.pdb      C     89 0.11183000   5.963098   ; qtot 0.196140
   90 pmp_tetramer.pdb_89      1 pmp_tetramer.pdb      O     90 -0.32578000  15.999430   ; qtot -0.129640
   91 pmp_tetramer.pdb_90      1 pmp_tetramer.pdb      C     91 0.12348000  12.010780   ; qtot -0.006160
   92 pmp_tetramer.pdb_91      1 pmp_tetramer.pdb      C     92 -0.19028001   9.994886   ; qtot -0.196440
   93 pmp_tetramer.pdb_92      1 pmp_tetramer.pdb      C     93 -0.01033000  12.010780   ; qtot -0.206770
   94 pmp_tetramer.pdb_93      1 pmp_tetramer.pdb      C     94 -0.01302000  12.010780   ; qtot -0.219790
   95 pmp_tetramer.pdb_94      1 pmp_tetramer.pdb      C     95 -0.13023999   9.994886   ; qtot -0.350030
   96 pmp_tetramer.pdb_95      1 pmp_tetramer.pdb      C     96 -0.09065000   9.994886   ; qtot -0.440680
   97 pmp_tetramer.pdb_96      1 pmp_tetramer.pdb      C     97 -0.14162999  12.010780   ; qtot -0.582310
   98 pmp_tetramer.pdb_97      1 pmp_tetramer.pdb      C     98 0.67580998  12.010780   ; qtot 0.093500
   99 pmp_tetramer.pdb_98      1 pmp_tetramer.pdb      O     99 -0.60640001  15.999430   ; qtot -0.512900
  100 pmp_tetramer.pdb_99      1 pmp_tetramer.pdb      C    100 -0.09065000   9.994886   ; qtot -0.603550
  101 pmp_tetramer.pdb_100      1 pmp_tetramer.pdb      C    101 -0.13023999   9.994886   ; qtot -0.733790
  102 pmp_tetramer.pdb_101      1 pmp_tetramer.pdb      C    102 -0.14075001   9.994886   ; qtot -0.874540
  103 pmp_tetramer.pdb_102      1 pmp_tetramer.pdb      C    103 -0.00474000  12.010780   ; qtot -0.879280
  104 pmp_tetramer.pdb_103      1 pmp_tetramer.pdb      C    104 -0.03507000  12.010780   ; qtot -0.914350
  105 pmp_tetramer.pdb_104      1 pmp_tetramer.pdb      C    105 -0.11621000   9.994886   ; qtot -1.030560
  106 pmp_tetramer.pdb_105      1 pmp_tetramer.pdb      C    106 -0.12198000   9.994886   ; qtot -1.152540
  107 pmp_tetramer.pdb_106      1 pmp_tetramer.pdb      C    107 -0.09400000  12.010780   ; qtot -1.246540
  108 pmp_tetramer.pdb_107      1 pmp_tetramer.pdb      C    108 0.15207000   9.994886   ; qtot -1.094470
  109 pmp_tetramer.pdb_108      1 pmp_tetramer.pdb      C    109 -0.11207000   5.963098   ; qtot -1.206540
  110 pmp_tetramer.pdb_109      1 pmp_tetramer.pdb      N    110 -0.56889999  11.990826   ; qtot -1.775440
  111 pmp_tetramer.pdb_110      1 pmp_tetramer.pdb      C    111 -0.12198000   9.994886   ; qtot -1.897420
  112 pmp_tetramer.pdb_111      1 pmp_tetramer.pdb      C    112 -0.11621000   9.994886   ; qtot -2.013630
  113 pmp_tetramer.pdb_112      1 pmp_tetramer.pdb      C    113 -0.13899000   9.994886   ; qtot -2.152620
  114 pmp_tetramer.pdb_113      1 pmp_tetramer.pdb      H    114 0.04608000   3.023841   ; qtot -2.106540
  115 pmp_tetramer.pdb_114      1 pmp_tetramer.pdb      H    115 0.04608000   3.023841   ; qtot -2.060460
  116 pmp_tetramer.pdb_115      1 pmp_tetramer.pdb      H    116 0.04608000   3.023841   ; qtot -2.014380
  117 pmp_tetramer.pdb_116      1 pmp_tetramer.pdb      H    117 0.14371000   3.023841   ; qtot -1.870670
  118 pmp_tetramer.pdb_117      1 pmp_tetramer.pdb      H    118 0.14076000   3.023841   ; qtot -1.729910
  119 pmp_tetramer.pdb_118      1 pmp_tetramer.pdb      H    119 0.14836000   3.023841   ; qtot -1.581550
  120 pmp_tetramer.pdb_119      1 pmp_tetramer.pdb      H    120 0.14836000   3.023841   ; qtot -1.433190
  121 pmp_tetramer.pdb_120      1 pmp_tetramer.pdb      H    121 0.14076000   3.023841   ; qtot -1.292430
  122 pmp_tetramer.pdb_121      1 pmp_tetramer.pdb      H    122 0.13958000   3.023841   ; qtot -1.152850
  123 pmp_tetramer.pdb_122      1 pmp_tetramer.pdb      H    123 0.13849001   3.023841   ; qtot -1.014360
  124 pmp_tetramer.pdb_123      1 pmp_tetramer.pdb      H    124 0.13634001   3.023841   ; qtot -0.878020
  125 pmp_tetramer.pdb_124      1 pmp_tetramer.pdb      H    125 0.08561000   3.023841   ; qtot -0.792410
  126 pmp_tetramer.pdb_125      1 pmp_tetramer.pdb      H    126 0.04669000   3.023841   ; qtot -0.745720
  127 pmp_tetramer.pdb_126      1 pmp_tetramer.pdb      H    127 0.04669000   3.023841   ; qtot -0.699030
  128 pmp_tetramer.pdb_127      1 pmp_tetramer.pdb      H    128 0.04669000   3.023841   ; qtot -0.652340
  129 pmp_tetramer.pdb_128      1 pmp_tetramer.pdb      H    129 0.31154001   3.023841   ; qtot -0.340800
  130 pmp_tetramer.pdb_129      1 pmp_tetramer.pdb      H    130 0.13634001   3.023841   ; qtot -0.204460
  131 pmp_tetramer.pdb_130      1 pmp_tetramer.pdb      H    131 0.13849001   3.023841   ; qtot -0.065970
  132 pmp_tetramer.pdb_131      1 pmp_tetramer.pdb      H    132 0.15369999   3.023841   ; qtot 0.087730
  133 pmp_tetramer.pdb_132      1 pmp_tetramer.pdb      C    133 0.11275000   5.963098   ; qtot 0.200480
  134 pmp_tetramer.pdb_133      1 pmp_tetramer.pdb      O    134 -0.32481000  15.999430   ; qtot -0.124330
  135 pmp_tetramer.pdb_134      1 pmp_tetramer.pdb      C    135 0.12626000  12.010780   ; qtot 0.001930
  136 pmp_tetramer.pdb_135      1 pmp_tetramer.pdb      C    136 -0.13592000   9.994886   ; qtot -0.133990
  137 pmp_tetramer.pdb_136      1 pmp_tetramer.pdb      C    137 -0.01214000  12.010780   ; qtot -0.146130
  138 pmp_tetramer.pdb_137      1 pmp_tetramer.pdb      C    138 -0.01432000  12.010780   ; qtot -0.160450
  139 pmp_tetramer.pdb_138      1 pmp_tetramer.pdb      C    139 -0.12946001   9.994886   ; qtot -0.289910
  140 pmp_tetramer.pdb_139      1 pmp_tetramer.pdb      C    140 -0.09244000   9.994886   ; qtot -0.382350
  141 pmp_tetramer.pdb_140      1 pmp_tetramer.pdb      C    141 -0.14274000  12.010780   ; qtot -0.525090
  142 pmp_tetramer.pdb_141      1 pmp_tetramer.pdb      C    142 0.67558998  12.010780   ; qtot 0.150500
  143 pmp_tetramer.pdb_142      1 pmp_tetramer.pdb      O    143 -0.61265999  15.999430   ; qtot -0.462160
  144 pmp_tetramer.pdb_143      1 pmp_tetramer.pdb      C    144 -0.09244000   9.994886   ; qtot -0.554600
  145 pmp_tetramer.pdb_144      1 pmp_tetramer.pdb      C    145 -0.12946001   9.994886   ; qtot -0.684060
  146 pmp_tetramer.pdb_145      1 pmp_tetramer.pdb      C    146 -0.14182000   9.994886   ; qtot -0.825880
  147 pmp_tetramer.pdb_146      1 pmp_tetramer.pdb      C    147 -0.00404000  12.010780   ; qtot -0.829920
  148 pmp_tetramer.pdb_147      1 pmp_tetramer.pdb      C    148 -0.03094000  12.010780   ; qtot -0.860860
  149 pmp_tetramer.pdb_148      1 pmp_tetramer.pdb      C    149 -0.11719000   9.994886   ; qtot -0.978050
  150 pmp_tetramer.pdb_149      1 pmp_tetramer.pdb      C    150 -0.11767000   9.994886   ; qtot -1.095720
  151 pmp_tetramer.pdb_150      1 pmp_tetramer.pdb      C    151 -0.09915000  12.010780   ; qtot -1.194870
  152 pmp_tetramer.pdb_151      1 pmp_tetramer.pdb      C    152 0.16322000   9.994886   ; qtot -1.031650
  153 pmp_tetramer.pdb_152      1 pmp_tetramer.pdb      C    153 -0.11246000   5.963098   ; qtot -1.144110
  154 pmp_tetramer.pdb_153      1 pmp_tetramer.pdb      N    154 -0.56318003  11.990826   ; qtot -1.707290
  155 pmp_tetramer.pdb_154      1 pmp_tetramer.pdb      C    155 -0.11767000   9.994886   ; qtot -1.824960
  156 pmp_tetramer.pdb_155      1 pmp_tetramer.pdb      C    156 -0.11719000   9.994886   ; qtot -1.942150
  157 pmp_tetramer.pdb_156      1 pmp_tetramer.pdb      C    157 -0.18939000   9.994886   ; qtot -2.131540
  158 pmp_tetramer.pdb_157      1 pmp_tetramer.pdb      H    158 0.04573000   3.023841   ; qtot -2.085810
  159 pmp_tetramer.pdb_158      1 pmp_tetramer.pdb      H    159 0.04573000   3.023841   ; qtot -2.040080
  160 pmp_tetramer.pdb_159      1 pmp_tetramer.pdb      H    160 0.04573000   3.023841   ; qtot -1.994350
  161 pmp_tetramer.pdb_160      1 pmp_tetramer.pdb      H    161 0.15564001   3.023841   ; qtot -1.838710
  162 pmp_tetramer.pdb_161      1 pmp_tetramer.pdb      H    162 0.14332999   3.023841   ; qtot -1.695380
  163 pmp_tetramer.pdb_162      1 pmp_tetramer.pdb      H    163 0.14962000   3.023841   ; qtot -1.545760
  164 pmp_tetramer.pdb_163      1 pmp_tetramer.pdb      H    164 0.14962000   3.023841   ; qtot -1.396140
  165 pmp_tetramer.pdb_164      1 pmp_tetramer.pdb      H    165 0.14332999   3.023841   ; qtot -1.252810
  166 pmp_tetramer.pdb_165      1 pmp_tetramer.pdb      H    166 0.13740000   3.023841   ; qtot -1.115410
  167 pmp_tetramer.pdb_166      1 pmp_tetramer.pdb      H    167 0.13782001   3.023841   ; qtot -0.977590
  168 pmp_tetramer.pdb_167      1 pmp_tetramer.pdb      H    168 0.13743000   3.023841   ; qtot -0.840160
  169 pmp_tetramer.pdb_168      1 pmp_tetramer.pdb      H    169 0.08467000   3.023841   ; qtot -0.755490
  170 pmp_tetramer.pdb_169      1 pmp_tetramer.pdb      H    170 0.04636000   3.023841   ; qtot -0.709130
  171 pmp_tetramer.pdb_170      1 pmp_tetramer.pdb      H    171 0.04636000   3.023841   ; qtot -0.662770
  172 pmp_tetramer.pdb_171      1 pmp_tetramer.pdb      H    172 0.04636000   3.023841   ; qtot -0.616410
  173 pmp_tetramer.pdb_172      1 pmp_tetramer.pdb      H    173 0.33450001   3.023841   ; qtot -0.281910
  174 pmp_tetramer.pdb_173      1 pmp_tetramer.pdb      H    174 0.13743000   3.023841   ; qtot -0.144480
  175 pmp_tetramer.pdb_174      1 pmp_tetramer.pdb      H    175 0.13782001   3.023841   ; qtot -0.006660
  176 pmp_tetramer.pdb_175      1 pmp_tetramer.pdb      H    176 0.14249000   3.023841   ; qtot 0.135830
  177 pmp_tetramer.pdb_176      1 pmp_tetramer.pdb      C    177 0.12673000   5.963098   ; qtot 0.262560
  178 pmp_tetramer.pdb_177      1 pmp_tetramer.pdb      O    178 -0.42886001  15.999430   ; qtot -0.166300
  179 pmp_tetramer.pdb_178      1 pmp_tetramer.pdb      H    179 0.05350000   3.023841   ; qtot -0.112800
  180 pmp_tetramer.pdb_179      1 pmp_tetramer.pdb      H    180 0.05350000   3.023841   ; qtot -0.059300
  181 pmp_tetramer.pdb_180      1 pmp_tetramer.pdb      H    181 0.05350000   3.023841   ; qtot -0.005800
  182 pmp_tetramer.pdb_181      1 pmp_tetramer.pdb      C    182 -0.11426000   5.963098   ; qtot -0.120060
  183 pmp_tetramer.pdb_182      1 pmp_tetramer.pdb      C    183 0.18697999  12.010780   ; qtot 0.066920
  184 pmp_tetramer.pdb_183      1 pmp_tetramer.pdb      C    184 -0.11426000   5.963098   ; qtot -0.047340
  185 pmp_tetramer.pdb_184      1 pmp_tetramer.pdb      C    185 -0.11426000   5.963098   ; qtot -0.161600
  186 pmp_tetramer.pdb_185      1 pmp_tetramer.pdb      O    186 -0.45150000  15.999430   ; qtot -0.613100
  187 pmp_tetramer.pdb_186      1 pmp_tetramer.pdb      C    187 0.75027001  12.010780   ; qtot 0.137170
  188 pmp_tetramer.pdb_187      1 pmp_tetramer.pdb      O    188 -0.60417998  15.999430   ; qtot -0.467010
  189 pmp_tetramer.pdb_188      1 pmp_tetramer.pdb      H    189 0.05189000   3.023841   ; qtot -0.415120
  190 pmp_tetramer.pdb_189      1 pmp_tetramer.pdb      H    190 0.05189000   3.023841   ; qtot -0.363230
  191 pmp_tetramer.pdb_190      1 pmp_tetramer.pdb      H    191 0.05189000   3.023841   ; qtot -0.311340
  192 pmp_tetramer.pdb_191      1 pmp_tetramer.pdb      H    192 0.05189000   3.023841   ; qtot -0.259450
  193 pmp_tetramer.pdb_192      1 pmp_tetramer.pdb      H    193 0.05189000   3.023841   ; qtot -0.207560
  194 pmp_tetramer.pdb_193      1 pmp_tetramer.pdb      H    194 0.05189000   3.023841   ; qtot -0.155670
  195 pmp_tetramer.pdb_194      1 pmp_tetramer.pdb      H    195 0.05189000   3.023841   ; qtot -0.103780
  196 pmp_tetramer.pdb_195      1 pmp_tetramer.pdb      H    196 0.05189000   3.023841   ; qtot -0.051890
  197 pmp_tetramer.pdb_196      1 pmp_tetramer.pdb      H    197 0.05189000   3.023841   ; qtot -0.000000

[ bonds ]
;    ai     aj funct         c0         c1         c2         c3
      1     28     1   0.10939 309655.084322
      1      2     1   0.14259 306888.771877
      2      3     1   0.13629 356218.264001
      3      4     1   0.13872 301905.092579
      4     29     1   0.10854 332422.631675
      4      5     1   0.13872 301905.092579
      5      6     1   0.14546 233580.248618
      6     13     1   0.13872 301905.092579
      6      7     1   0.13872 301905.092579
      7      8     1   0.13872 301905.092579
      8      9     1   0.13872 301905.092579
      9     10     1   0.14546 233580.248618
      9     12     1   0.13872 301905.092579
     10    178     1   0.13457 252005.673257
     10     11     1   0.12252 487602.327766
     12     32     1   0.10854 332422.631675
     13     33     1   0.10854 332422.631675
     12     13     1   0.13872 301905.092579
      5     14     1   0.13872 301905.092579
     14     34     1   0.10854 332422.631675
     14     15     1   0.13872 301905.092579
     15     16     1   0.14546 233580.248618
     16     24     1   0.13872 301905.092579
     16     17     1   0.13872 301905.092579
     17     18     1   0.13872 301905.092579
     18     19     1   0.13872 301905.092579
     19     23     1   0.13872 301905.092579
     20     37     1   0.10939 309655.084322
     19     20     1   0.14986 242452.869388
     20     21     1   0.15219 221435.259290
     21     39     1   0.10939 309655.084322
     21     38     1   0.10939 309655.084322
     22     54     1   0.13819 412347.817359
     20     22     1   0.14501 294600.927776
     23     24     1   0.13872 301905.092579
     23     42     1   0.10854 332422.631675
     24     43     1   0.10854 332422.631675
      3     25     1   0.13872 301905.092579
     15     25     1   0.13872 301905.092579
      1     26     1   0.10939 309655.084322
      1     27     1   0.10939 309655.084322
      7     30     1   0.10854 332422.631675
      8     31     1   0.10854 332422.631675
     17     35     1   0.10854 332422.631675
     18     36     1   0.10854 332422.631675
     21     40     1   0.10939 309655.084322
     22     41     1   0.10195 422704.914414
     25     44     1   0.10854 332422.631675
     45     70     1   0.10939 309655.084322
     46     47     1   0.13629 356218.264001
     45     46     1   0.14259 306888.771877
     47     48     1   0.13872 301905.092579
     48     49     1   0.13872 301905.092579
     48     73     1   0.10854 332422.631675
     49     50     1   0.14546 233580.248618
     50     51     1   0.13872 301905.092579
     51     74     1   0.10854 332422.631675
     51     52     1   0.13872 301905.092579
     52     75     1   0.10854 332422.631675
     52     53     1   0.13872 301905.092579
     53     54     1   0.14546 233580.248618
     54     55     1   0.12252 487602.327766
     53     56     1   0.13872 301905.092579
     50     57     1   0.13872 301905.092579
     56     57     1   0.13872 301905.092579
     58     78     1   0.10854 332422.631675
     49     58     1   0.13872 301905.092579
     58     59     1   0.13872 301905.092579
     59     60     1   0.14546 233580.248618
     60     61     1   0.13872 301905.092579
     61     79     1   0.10854 332422.631675
     61     62     1   0.13872 301905.092579
     62     80     1   0.10854 332422.631675
     62     63     1   0.13872 301905.092579
     63     64     1   0.14986 242452.869388
     64     81     1   0.10939 309655.084322
     65     82     1   0.10939 309655.084322
     64     65     1   0.15219 221435.259290
     64     66     1   0.14501 294600.927776
     66     85     1   0.10195 422704.914414
     67     68     1   0.13872 301905.092579
     63     67     1   0.13872 301905.092579
     60     68     1   0.13872 301905.092579
     59     69     1   0.13872 301905.092579
     47     69     1   0.13872 301905.092579
     45     71     1   0.10939 309655.084322
     45     72     1   0.10939 309655.084322
     56     76     1   0.10854 332422.631675
     57     77     1   0.10854 332422.631675
     65     83     1   0.10939 309655.084322
     65     84     1   0.10939 309655.084322
     67     86     1   0.10854 332422.631675
     68     87     1   0.10854 332422.631675
     69     88     1   0.10854 332422.631675
     89    116     1   0.10939 309655.084322
     89     90     1   0.14259 306888.771877
     90     91     1   0.13629 356218.264001
     91    113     1   0.13872 301905.092579
     91     92     1   0.13872 301905.092579
     92     93     1   0.13872 301905.092579
     93    102     1   0.13872 301905.092579
     93     94     1   0.14546 233580.248618
     94    101     1   0.13872 301905.092579
     94     95     1   0.13872 301905.092579
     95     96     1   0.13872 301905.092579
     96     97     1   0.13872 301905.092579
     97    100     1   0.13872 301905.092579
     97     98     1   0.14546 233580.248618
     66     98     1   0.13819 412347.817359
     98     99     1   0.12252 487602.327766
    100    101     1   0.13872 301905.092579
    100    120     1   0.10854 332422.631675
    101    121     1   0.10854 332422.631675
    102    103     1   0.13872 301905.092579
    102    122     1   0.10854 332422.631675
    103    104     1   0.14546 233580.248618
    104    105     1   0.13872 301905.092579
    104    112     1   0.13872 301905.092579
    105    106     1   0.13872 301905.092579
    106    124     1   0.10854 332422.631675
    106    107     1   0.13872 301905.092579
    107    108     1   0.14986 242452.869388
    108    125     1   0.10939 309655.084322
    108    109     1   0.15219 221435.259290
    109    127     1   0.10939 309655.084322
    109    126     1   0.10939 309655.084322
    109    128     1   0.10939 309655.084322
    108    110     1   0.14501 294600.927776
    107    111     1   0.13872 301905.092579
    111    130     1   0.10854 332422.631675
    111    112     1   0.13872 301905.092579
    113    132     1   0.10854 332422.631675
    103    113     1   0.13872 301905.092579
     89    114     1   0.10939 309655.084322
     89    115     1   0.10939 309655.084322
     92    117     1   0.10854 332422.631675
     95    118     1   0.10854 332422.631675
     96    119     1   0.10854 332422.631675
    105    123     1   0.10854 332422.631675
    110    129     1   0.10195 422704.914414
    112    131     1   0.10854 332422.631675
    133    158     1   0.10939 309655.084322
    133    160     1   0.10939 309655.084322
    134    135     1   0.13629 356218.264001
    133    134     1   0.14259 306888.771877
    135    136     1   0.13872 301905.092579
    136    161     1   0.10854 332422.631675
    136    137     1   0.13872 301905.092579
    137    138     1   0.14546 233580.248618
    138    145     1   0.13872 301905.092579
    138    139     1   0.13872 301905.092579
    139    140     1   0.13872 301905.092579
    140    141     1   0.13872 301905.092579
    140    163     1   0.10854 332422.631675
    141    142     1   0.14546 233580.248618
    110    142     1   0.13819 412347.817359
    142    143     1   0.12252 487602.327766
    144    164     1   0.10854 332422.631675
    141    144     1   0.13872 301905.092579
    144    145     1   0.13872 301905.092579
    137    146     1   0.13872 301905.092579
    147    157     1   0.13872 301905.092579
    146    147     1   0.13872 301905.092579
    147    148     1   0.14546 233580.248618
    148    149     1   0.13872 301905.092579
    149    167     1   0.10854 332422.631675
    149    150     1   0.13872 301905.092579
    151    155     1   0.13872 301905.092579
    150    151     1   0.13872 301905.092579
    152    169     1   0.10939 309655.084322
    151    152     1   0.14986 242452.869388
    153    171     1   0.10939 309655.084322
    152    153     1   0.15219 221435.259290
    153    170     1   0.10939 309655.084322
    154    173     1   0.10195 422704.914414
    152    154     1   0.14501 294600.927776
    155    156     1   0.13872 301905.092579
    156    175     1   0.10854 332422.631675
    148    156     1   0.13872 301905.092579
    135    157     1   0.13872 301905.092579
    133    159     1   0.10939 309655.084322
    139    162     1   0.10854 332422.631675
    145    165     1   0.10854 332422.631675
    146    166     1   0.10854 332422.631675
    150    168     1   0.10854 332422.631675
    153    172     1   0.10939 309655.084322
    155    174     1   0.10854 332422.631675
    157    176     1   0.10854 332422.631675
    177    178     1   0.14259 306888.771877
    177    180     1   0.10939 309655.084322
    177    179     1   0.10939 309655.084322
    177    181     1   0.10939 309655.084322
    182    183     1   0.15219 221435.259290
    182    191     1   0.10939 309655.084322
    183    186     1   0.14259 306888.771877
    183    185     1   0.15219 221435.259290
    184    193     1   0.10939 309655.084322
    183    184     1   0.15219 221435.259290
    185    196     1   0.10939 309655.084322
    185    195     1   0.10939 309655.084322
    186    187     1   0.13457 252005.673257
    154    187     1   0.13819 412347.817359
    187    188     1   0.12252 487602.327766
    182    189     1   0.10939 309655.084322
    182    190     1   0.10939 309655.084322
    184    192     1   0.10939 309655.084322
    184    194     1   0.10939 309655.084322
    185    197     1   0.10939 309655.084322

[ pairs ]
;    ai     aj funct         c0         c1         c2         c3
     22     23     1
     14     17     1
    102    112     1
     17     20     1
     99    100     1
     60     63     1
     48     51     1
    183    188     1
     90    103     1
    106    110     1
    110    128     1
     93    121     1
     90    132     1
    157    166     1
     63     83     1
    147    167     1
    137    144     1
    101    102     1
     97    121     1
     62     65     1
     69     73     1
    134    176     1
    182    187     1
    185    190     1
    108    112     1
      5     33     1
    104    107     1
    101    118     1
     10    179     1
     91     94     1
     92    122     1
      2     44     1
     93    113     1
    174    175     1
     48     59     1
    145    162     1
    133    157     1
     50     75     1
    106    109     1
    129    143     1
    151    173     1
     67     81     1
      8     32     1
    106    125     1
     19     35     1
     59     62     1
    185    194     1
    138    164     1
     18     24     1
     60     80     1
     61     67     1
     56     75     1
    139    142     1
      1      4     1
      3     28     1
      4     15     1
     10     31     1
     85     97     1
    135    159     1
     20     55     1
     45     48     1
     81     83     1
     91    116     1
     49     77     1
    142    163     1
     19     39     1
     66     83     1
     94    117     1
     65     85     1
    182    193     1
    186    194     1
    118    119     1
      7     14     1
    104    124     1
    185    187     1
    152    188     1
    184    196     1
      5     30     1
    152    168     1
    107    126     1
     16     19     1
     47     50     1
     90     93     1
     93     96     1
    120    121     1
      9    177     1
     52     57     1
     96    120     1
     64     80     1
     66     96     1
    151    170     1
     65     98     1
    146    149     1
    108    143     1
     74     75     1
     41     55     1
     54     76     1
      6     29     1
     17     43     1
     60     86     1
    138    161     1
     18     21     1
     25     29     1
     61     64     1
    110    127     1
     92     95     1
     17     23     1
    184    189     1
    148    176     1
    108    124     1
     12     31     1
     95     98     1
    104    130     1
    110    140     1
     93    100     1
    153    187     1
      3     14     1
    100    119     1
    137    162     1
    139    144     1
     76     77     1
    109    129     1
     47     58     1
     79     80     1
     67     80     1
    125    126     1
     45     69     1
      6      9     1
      8     11     1
    186    191     1
     62     68     1
     21     41     1
    185    193     1
    152    174     1
      5     16     1
      3     27     1
    108    130     1
    143    144     1
    103    106     1
     89     92     1
    135    158     1
    135    148     1
     49     52     1
     81     82     1
     93    118     1
     64     97     1
     91    115     1
     47     71     1
     50     78     1
     46     73     1
     63     79     1
     22     52     1
     19     38     1
     62     81     1
      7     33     1
     66     82     1
     49     56     1
     30     31     1
    154    183     1
    140    145     1
     12    178     1
     93    104     1
      6     15     1
     92    101     1
    184    195     1
     22     56     1
     94     97     1
    145    146     1
      2     29     1
    107    129     1
     52     76     1
    153    173     1
    146    176     1
      8    178     1
    146    156     1
     51     58     1
     32     33     1
     35     36     1
    156    157     1
    112    113     1
     23     36     1
     49     60     1
     59     67     1
    133    136     1
    182    196     1
    186    197     1
     54     75     1
      7     10     1
     96     99     1
    111    125     1
     16     42     1
     20     36     1
    148    166     1
    106    112     1
     48     88     1
    173    186     1
    123    124     1
    169    172     1
     37     38     1
     94    119     1
    105    113     1
     63     85     1
     46     59     1
     22     38     1
     58     73     1
     61     87     1
      6     32     1
    102    105     1
    125    129     1
    147    150     1
    186    190     1
    185    192     1
      4     44     1
     10    181     1
     94    103     1
     11     12     1
     42     43     1
    137    165     1
     47     70     1
    107    128     1
     63     98     1
    157    161     1
    140    143     1
     15     43     1
     18     37     1
     15     23     1
     53     74     1
     20     42     1
     11    177     1
     13     14     1
     98    101     1
     81     85     1
     10     13     1
    149    152     1
     52     55     1
    137    148     1
    107    123     1
    156    167     1
     63     82     1
    155    169     1
     19     41     1
     94    120     1
    138    147     1
    182    195     1
    135    138     1
    186    196     1
     41     53     1
    150    174     1
     14     29     1
    185    189     1
     65     67     1
    154    155     1
    125    128     1
    141    162     1
      5     12     1
     81     98     1
     48     78     1
    149    175     1
    144    163     1
    162    163     1
    169    171     1
    149    155     1
    151    172     1
     91    104     1
      6     31     1
     60     88     1
    109    111     1
    138    163     1
    135    146     1
     17     25     1
    184    191     1
      5     25     1
     16     34     1
     95    100     1
      4     34     1
    110    144     1
    108    141     1
     21     54     1
     89    113     1
      3     16     1
    167    168     1
    113    122     1
    138    141     1
     37     41     1
      2      5     1
     64     86     1
     47     60     1
     51     54     1
      8     13     1
    113    117     1
    182    192     1
    186    193     1
     69     78     1
    104    132     1
    154    172     1
    142    145     1
    134    161     1
     21     23     1
    105    111     1
     97    118     1
    152    156     1
     55     56     1
    139    165     1
     86     87     1
    135    160     1
    102    117     1
    103    123     1
     81     84     1
    136    147     1
     64     99     1
    137    157     1
    140    164     1
    164    165     1
     59     87     1
     49     69     1
    155    168     1
     19     40     1
     66     84     1
    137    140     1
     53     77     1
    139    146     1
    150    154     1
     92    103     1
    184    197     1
     95    121     1
     57     58     1
      4      7     1
     92    132     1
    134    137     1
    107    131     1
    169    170     1
     46     88     1
     48     57     1
    153    155     1
     50     73     1
    148    151     1
    151    171     1
     50     53     1
     24     25     1
     90    117     1
     18     42     1
    110    126     1
    125    127     1
     18     22     1
     54     57     1
     60     78     1
     96    101     1
     16     44     1
     13     30     1
    184    190     1
    112    123     1
    141    165     1
    148    168     1
      3     26     1
      4     13     1
    173    188     1
     20     53     1
      2     15     1
     37     40     1
    136    176     1
     68     79     1
      9     30     1
    151    175     1
     63     87     1
     22     40     1
    186    192     1
      6     34     1
    105    108     1
      7     12     1
    138    166     1
    154    171     1
     25     34     1
     61     69     1
    152    186     1
    129    141     1
    150    153     1
      3      6     1
     85     99     1
    109    142     1
     91    114     1
     94    122     1
    169    187     1
    130    131     1
     51     77     1
    103    111     1
     98    119     1
     47     72     1
    111    124     1
     50     59     1
    136    139     1
     58     88     1
    147    175     1
     58     68     1
    147    155     1
      5      8     1
    184    187     1
    148    174     1
     91    102     1
     19     54     1
     20     24     1
    103    131     1
     24     35     1
     63     84     1
     19     43     1
     59     79     1
     23     37     1
     62     86     1
    182    197     1
    186    189     1
     62     66     1
     66     67     1
    136    145     1
     15     18     1
     58     61     1
    185    191     1
    150    156     1
    107    142     1
     10    180     1
    110    111     1
    106    130     1
    169    173     1
     37     39     1
    149    157     1
    146    161     1
     50     76     1
    136    166     1
     66    100     1
     68     69     1
     49     74     1
     98    120     1
     14     44     1
     22     39     1
    134    147     1
     37     54     1
    150    169     1
    154    170     1
     14     24     1
     57     74     1
      1     25     1
     16     36     1
     95    102     1
    102    132     1
     10     32     1
     46     49     1
    107    127     1
    151    187     1
      9     33     1
    125    142     1
     51     56     1
    142    164     1
     64     68     1
    105    131     1
    151    167     1
    104    122     1
     15     35     1
    186    195     1
    182    194     1

[ angles ]
;    ai     aj     ak funct         c0         c1         c2         c3
    135    157    176     1   129.1835930 285.070775
    154    187    186     1   126.8062420 484.492885
      7      6     13     1   126.8062420 484.492885
     47     69     59     1   126.8062420 484.492885
     48     49     50     1   126.8062420 484.492885
      6      7     30     1   129.1835930 285.070775
     60     61     62     1   126.8062420 484.492885
     48     47     69     1   126.8062420 484.492885
    103    102    122     1   129.1835930 285.070775
    106    107    111     1   126.8062420 484.492885
     93     94     95     1   126.8062420 484.492885
     23     24     43     1   129.1835930 285.070775
     20     22     54     1   117.3465571 463.769802
     38     21     39     1   115.6031000 408.161690
     49     50     57     1   126.8062420 484.492885
      6     13     12     1   126.8062420 484.492885
    195    185    197     1   115.6031000 408.161690
    107    108    109     1   116.5475863 445.222087
     15     16     24     1   126.8062420 484.492885
    134    133    158     1   116.5475863 445.222087
     18     19     23     1   126.8062420 484.492885
     60     68     87     1   129.1835930 285.070775
     94    101    100     1   126.8062420 484.492885
    147    146    166     1   129.1835930 285.070775
      9     12     32     1   129.1835930 285.070775
     60     68     67     1   126.8062420 484.492885
    183    184    194     1   116.5475863 445.222087
     50     57     56     1   126.8062420 484.492885
    106    105    123     1   129.1835930 285.070775
     93    102    103     1   126.8062420 484.492885
    147    148    156     1   126.8062420 484.492885
     61     62     80     1   129.1835930 285.070775
    182    183    184     1   116.5475863 445.222087
    138    139    162     1   129.1835930 285.070775
     15     16     17     1   126.8062420 484.492885
     49     58     59     1   126.8062420 484.492885
    183    182    191     1   116.5475863 445.222087
    133    134    135     1   110.3538806 544.678275
     60     61     79     1   129.1835930 285.070775
    151    152    169     1   116.5475863 445.222087
    108    110    142     1   117.3465571 463.769802
    104    103    113     1   126.8062420 484.492885
     93     94    101     1   126.8062420 484.492885
     61     60     68     1   126.8062420 484.492885
     45     46     47     1   110.3538806 544.678275
     94     95     96     1   126.8062420 484.492885
    159    133    160     1   115.6031000 408.161690
    134    135    136     1   126.8062420 484.492885
    136    137    138     1   126.8062420 484.492885
    137    136    161     1   129.1835930 285.070775
    107    111    130     1   129.1835930 285.070775
    110    142    143     1   126.8062420 484.492885
    178    177    181     1   116.5475863 445.222087
     20     21     38     1   116.5475863 445.222087
     14     15     25     1   126.8062420 484.492885
     21     20     37     1   116.5475863 445.222087
    151    155    174     1   129.1835930 285.070775
     15     14     34     1   129.1835930 285.070775
    185    183    186     1   116.5475863 445.222087
    183    184    193     1   116.5475863 445.222087
     19     20     21     1   116.5475863 445.222087
    144    145    165     1   129.1835930 285.070775
    139    138    145     1   126.8062420 484.492885
    138    137    146     1   126.8062420 484.492885
    136    137    146     1   126.8062420 484.492885
     60     59     69     1   126.8062420 484.492885
     64     65     82     1   116.5475863 445.222087
    139    140    163     1   129.1835930 285.070775
     53     52     75     1   129.1835930 285.070775
     19     23     24     1   126.8062420 484.492885
     24     23     42     1   129.1835930 285.070775
    100    101    121     1   129.1835930 285.070775
     65     64     66     1   116.5475863 445.222087
    141    144    145     1   126.8062420 484.492885
     57     56     76     1   129.1835930 285.070775
    138    145    144     1   126.8062420 484.492885
    148    149    167     1   129.1835930 285.070775
    153    152    169     1   116.5475863 445.222087
      5     14     15     1   126.8062420 484.492885
     58     59     60     1   126.8062420 484.492885
    179    177    181     1   115.6031000 408.161690
    111    112    131     1   129.1835930 285.070775
    183    182    190     1   116.5475863 445.222087
     26      1     28     1   115.6031000 408.161690
    152    153    172     1   116.5475863 445.222087
    126    109    127     1   115.6031000 408.161690
     46     47     48     1   126.8062420 484.492885
    104    105    106     1   126.8062420 484.492885
     22     20     37     1   116.5475863 445.222087
     71     45     72     1   115.6031000 408.161690
    148    149    150     1   126.8062420 484.492885
      4      5     14     1   126.8062420 484.492885
    140    141    144     1   126.8062420 484.492885
    184    183    186     1   116.5475863 445.222087
    152    151    155     1   126.8062420 484.492885
      7      8     31     1   129.1835930 285.070775
     61     62     63     1   126.8062420 484.492885
    141    140    163     1   129.1835930 285.070775
     47     69     88     1   129.1835930 285.070775
    183    185    197     1   116.5475863 445.222087
     82     65     84     1   115.6031000 408.161690
     91    113    103     1   126.8062420 484.492885
      8      7     30     1   129.1835930 285.070775
     49     50     51     1   126.8062420 484.492885
    101    100    120     1   129.1835930 285.070775
    102    103    113     1   126.8062420 484.492885
      2      1     27     1   116.5475863 445.222087
     94     95    118     1   129.1835930 285.070775
    108    107    111     1   126.8062420 484.492885
     91    113    132     1   129.1835930 285.070775
    108    109    128     1   116.5475863 445.222087
     51     50     57     1   126.8062420 484.492885
      8      9     10     1   126.8062420 484.492885
     90     91    113     1   126.8062420 484.492885
     51     52     53     1   126.8062420 484.492885
    154    187    188     1   126.8062420 484.492885
     66     98     97     1   126.8062420 484.492885
     59     69     88     1   129.1835930 285.070775
     97    100    120     1   129.1835930 285.070775
    127    109    128     1   115.6031000 408.161690
     41     22     54     1   115.5071328 530.901283
     62     63     64     1   126.8062420 484.492885
     70     45     72     1   115.6031000 408.161690
    108    109    126     1   116.5475863 445.222087
     20     22     41     1   115.5071328 530.901283
    103    104    112     1   126.8062420 484.492885
    114     89    116     1   115.6031000 408.161690
     54     53     56     1   126.8062420 484.492885
     52     53     54     1   126.8062420 484.492885
    170    153    172     1   115.6031000 408.161690
     46     47     69     1   126.8062420 484.492885
    186    187    188     1   127.4691416 1685.413543
      2      3      4     1   126.8062420 484.492885
     46     45     71     1   116.5475863 445.222087
    158    133    160     1   115.6031000 408.161690
     53     56     76     1   129.1835930 285.070775
    134    133    160     1   116.5475863 445.222087
     16     17     18     1   126.8062420 484.492885
     64     66     85     1   115.5071328 530.901283
     62     61     79     1   129.1835930 285.070775
    105    106    107     1   126.8062420 484.492885
      9     10     11     1   126.8062420 484.492885
     95     94    101     1   126.8062420 484.492885
    189    182    191     1   115.6031000 408.161690
      8      9     12     1   126.8062420 484.492885
    140    139    162     1   129.1835930 285.070775
    192    184    194     1   115.6031000 408.161690
     92     93     94     1   126.8062420 484.492885
     10      9     12     1   126.8062420 484.492885
     95     96     97     1   126.8062420 484.492885
     22     54     53     1   126.8062420 484.492885
     93    102    122     1   129.1835930 285.070775
    142    141    144     1   126.8062420 484.492885
    184    183    185     1   116.5475863 445.222087
    182    183    186     1   116.5475863 445.222087
     85     66     98     1   115.5071328 530.901283
     90     89    114     1   116.5475863 445.222087
     67     68     87     1   129.1835930 285.070775
    110    108    125     1   116.5475863 445.222087
    135    136    161     1   129.1835930 285.070775
    148    156    175     1   129.1835930 285.070775
     19     20     37     1   116.5475863 445.222087
     82     65     83     1   115.6031000 408.161690
    193    184    194     1   115.6031000 408.161690
    148    156    155     1   126.8062420 484.492885
    180    177    181     1   115.6031000 408.161690
     59     60     68     1   126.8062420 484.492885
      2      1     26     1   116.5475863 445.222087
    136    135    157     1   126.8062420 484.492885
     91     92    117     1   129.1835930 285.070775
      3     25     15     1   126.8062420 484.492885
     16     17     35     1   129.1835930 285.070775
     16     24     43     1   129.1835930 285.070775
    195    185    196     1   115.6031000 408.161690
     95     96    119     1   129.1835930 285.070775
     16     24     23     1   126.8062420 484.492885
    104    112    111     1   126.8062420 484.492885
    150    151    152     1   126.8062420 484.492885
      9     10    178     1   126.8062420 484.492885
     70     45     71     1   115.6031000 408.161690
    151    150    168     1   129.1835930 285.070775
    105    106    124     1   129.1835930 285.070775
    138    139    140     1   126.8062420 484.492885
    145    144    164     1   129.1835930 285.070775
      3      4      5     1   126.8062420 484.492885
     59     60     61     1   126.8062420 484.492885
    135    136    137     1   126.8062420 484.492885
    151    152    154     1   116.5475863 445.222087
     93     92    117     1   129.1835930 285.070775
     20     21     40     1   116.5475863 445.222087
     63     67     86     1   129.1835930 285.070775
    114     89    115     1   115.6031000 408.161690
    149    150    151     1   126.8062420 484.492885
      6     13     33     1   129.1835930 285.070775
    104    112    131     1   129.1835930 285.070775
      9      8     31     1   129.1835930 285.070775
     47     48     49     1   126.8062420 484.492885
    108    110    129     1   115.5071328 530.901283
     46     45     70     1   116.5475863 445.222087
     58     59     69     1   126.8062420 484.492885
     49     58     78     1   129.1835930 285.070775
     96     97     98     1   126.8062420 484.492885
     63     64     66     1   116.5475863 445.222087
    134    133    159     1   116.5475863 445.222087
     39     21     40     1   115.6031000 408.161690
     94     93    102     1   126.8062420 484.492885
    102    103    104     1   126.8062420 484.492885
    149    150    168     1   129.1835930 285.070775
    151    155    156     1   126.8062420 484.492885
    141    144    164     1   129.1835930 285.070775
     62     63     67     1   126.8062420 484.492885
    150    151    155     1   126.8062420 484.492885
      3      4     29     1   129.1835930 285.070775
     64     65     84     1   116.5475863 445.222087
     50     57     77     1   129.1835930 285.070775
    129    110    142     1   115.5071328 530.901283
     12     13     33     1   129.1835930 285.070775
    192    184    193     1   115.6031000 408.161690
     83     65     84     1   115.6031000 408.161690
      4      3     25     1   126.8062420 484.492885
     49     48     73     1   129.1835930 285.070775
    171    153    172     1   115.6031000 408.161690
    182    183    185     1   116.5475863 445.222087
    154    152    169     1   116.5475863 445.222087
    148    147    157     1   126.8062420 484.492885
    103    113    132     1   129.1835930 285.070775
      6      5     14     1   126.8062420 484.492885
    138    145    165     1   129.1835930 285.070775
     65     64     81     1   116.5475863 445.222087
     96     95    118     1   129.1835930 285.070775
    149    148    156     1   126.8062420 484.492885
    178    177    180     1   116.5475863 445.222087
     17     18     36     1   129.1835930 285.070775
     92     91    113     1   126.8062420 484.492885
    104    105    123     1   129.1835930 285.070775
    196    185    197     1   115.6031000 408.161690
     27      1     28     1   115.6031000 408.161690
    151    152    153     1   116.5475863 445.222087
     63     62     80     1   129.1835930 285.070775
     68     67     86     1   129.1835930 285.070775
     98     97    100     1   126.8062420 484.492885
    153    152    154     1   116.5475863 445.222087
    147    157    176     1   129.1835930 285.070775
     16     15     25     1   126.8062420 484.492885
    183    184    192     1   116.5475863 445.222087
     17     16     24     1   126.8062420 484.492885
      6      7      8     1   126.8062420 484.492885
     20     19     23     1   126.8062420 484.492885
     20     21     39     1   116.5475863 445.222087
     51     52     75     1   129.1835930 285.070775
     90     91     92     1   126.8062420 484.492885
      5     14     34     1   129.1835930 285.070775
     63     64     65     1   116.5475863 445.222087
    179    177    180     1   115.6031000 408.161690
     66     98     99     1   126.8062420 484.492885
    107    108    125     1   116.5475863 445.222087
    109    108    110     1   116.5475863 445.222087
    183    182    189     1   116.5475863 445.222087
     26      1     27     1   115.6031000 408.161690
    105    104    112     1   126.8062420 484.492885
     50     49     58     1   126.8062420 484.492885
     64     63     67     1   126.8062420 484.492885
    152    153    171     1   116.5475863 445.222087
     50     51     74     1   129.1835930 285.070775
     19     20     22     1   116.5475863 445.222087
     89     90     91     1   110.3538806 544.678275
     64     65     83     1   116.5475863 445.222087
    126    109    128     1   115.6031000 408.161690
     52     53     56     1   126.8062420 484.492885
    155    156    175     1   129.1835930 285.070775
     48     49     58     1   126.8062420 484.492885
     50     51     52     1   126.8062420 484.492885
    146    147    148     1   126.8062420 484.492885
     21     20     22     1   116.5475863 445.222087
     64     66     98     1   117.3465571 463.769802
    183    186    187     1   110.3538806 544.678275
    190    182    191     1   115.6031000 408.161690
     13     12     32     1   129.1835930 285.070775
    183    185    196     1   116.5475863 445.222087
     90     89    116     1   116.5475863 445.222087
    103    104    105     1   126.8062420 484.492885
     97     98     99     1   126.8062420 484.492885
    178    177    179     1   116.5475863 445.222087
      3     25     44     1   129.1835930 285.070775
    109    108    125     1   116.5475863 445.222087
    152    154    187     1   117.3465571 463.769802
    137    138    139     1   126.8062420 484.492885
      5      6      7     1   126.8062420 484.492885
     22     54     55     1   126.8062420 484.492885
    112    111    130     1   129.1835930 285.070775
    107    106    124     1   129.1835930 285.070775
     97     96    119     1   129.1835930 285.070775
     53     54     55     1   126.8062420 484.492885
     52     51     74     1   129.1835930 285.070775
     94    101    121     1   129.1835930 285.070775
     18     19     20     1   126.8062420 484.492885
     18     17     35     1   129.1835930 285.070775
     19     23     42     1   129.1835930 285.070775
    140    141    142     1   126.8062420 484.492885
    115     89    116     1   115.6031000 408.161690
      2      1     28     1   116.5475863 445.222087
    108    109    127     1   116.5475863 445.222087
    106    107    108     1   126.8062420 484.492885
    170    153    171     1   115.6031000 408.161690
      4      5      6     1   126.8062420 484.492885
     14     15     16     1   126.8062420 484.492885
     17     18     19     1   126.8062420 484.492885
     38     21     40     1   115.6031000 408.161690
    110    142    141     1   126.8062420 484.492885
    134    135    157     1   126.8062420 484.492885
    137    138    145     1   126.8062420 484.492885
      5      6     13     1   126.8062420 484.492885
    135    157    147     1   126.8062420 484.492885
     11     10    178     1   127.4691416 1685.413543
    158    133    159     1   115.6031000 408.161690
      5      4     29     1   129.1835930 285.070775
    173    154    187     1   115.5071328 530.901283
     47     48     73     1   129.1835930 285.070775
    152    153    170     1   116.5475863 445.222087
      9     12     13     1   126.8062420 484.492885
     10    178    177     1   110.3538806 544.678275
     59     58     78     1   129.1835930 285.070775
     97    100    101     1   126.8062420 484.492885
    189    182    190     1   115.6031000 408.161690
      1      2      3     1   110.3538806 544.678275
      2      3     25     1   126.8062420 484.492885
     63     67     68     1   126.8062420 484.492885
     92     93    102     1   126.8062420 484.492885
    152    154    173     1   115.5071328 530.901283
     15     25     44     1   129.1835930 285.070775
    137    146    166     1   129.1835930 285.070775
     46     45     72     1   116.5475863 445.222087
    139    140    141     1   126.8062420 484.492885
    150    149    167     1   129.1835930 285.070775
     96     97    100     1   126.8062420 484.492885
    147    148    149     1   126.8062420 484.492885
    146    147    157     1   126.8062420 484.492885
    107    111    112     1   126.8062420 484.492885
     53     56     57     1   126.8062420 484.492885
     91     92     93     1   126.8062420 484.492885
    183    185    195     1   116.5475863 445.222087
     90     89    115     1   116.5475863 445.222087
    156    155    174     1   129.1835930 285.070775
     19     18     36     1   129.1835930 285.070775
    141    142    143     1   126.8062420 484.492885
    107    108    110     1   116.5475863 445.222087
    137    146    147     1   126.8062420 484.492885
     56     57     77     1   129.1835930 285.070775
     66     64     81     1   116.5475863 445.222087
     63     64     81     1   116.5475863 445.222087
      7      8      9     1   126.8062420 484.492885

[ dihedrals ]
;    ai     aj     ak     al funct         c0         c1         c2         c3         c4         c5
    169    152    153    172     1  0.0000000  0.7999501  3
    145    138    139    162     1  180.0000000  15.3215155  2
    150    151    152    169     1  0.0000000  -0.0747279  1
    150    151    152    169     1  180.0000000  -0.5479523  2
    150    151    152    169     1  0.0000000  -0.2076914  3
    150    151    152    169     1  180.0000000  0.3322900  4
    137    138    145    144     1  180.0000000  15.3215155  2
     91     90     89    115     1  0.0000000  0.1982205  3
    173    154    187    188     1  0.0000000  2.8007969  1
    173    154    187    188     1  180.0000000  1.9785864  2
    173    154    187    188     1  0.0000000  -0.0408529  3
    173    154    187    188     1  180.0000000  -0.5160250  4
     65     64     66     98     1  0.0000000  0.7218475  1
     65     64     66     98     1  180.0000000  -0.7203216  2
     65     64     66     98     1  0.0000000  -1.1453920  3
     65     64     66     98     1  180.0000000  -0.2918503  4
    185    183    182    191     1  0.0000000  0.4354138  3
    140    141    142    143     1  0.0000000  -0.1728188  1
    140    141    142    143     1  180.0000000  0.7193751  2
    140    141    142    143     1  0.0000000  -0.1593959  3
    140    141    142    143     1  180.0000000  0.4034705  4
     19     20     21     39     1  0.0000000  0.4834079  3
     18     19     23     42     1  180.0000000  15.3215155  2
     62     63     67     86     1  180.0000000  15.3215155  2
    153    152    154    187     1  0.0000000  0.1824483  1
    153    152    154    187     1  180.0000000  -1.1136718  2
    153    152    154    187     1  0.0000000  -1.7553712  3
    153    152    154    187     1  180.0000000  -0.5290648  4
     51     52     53     56     1  180.0000000  15.3215155  2
     58     59     69     88     1  180.0000000  15.3215155  2
     25     15     14     34     1  180.0000000  15.3215155  2
    138    137    146    166     1  180.0000000  15.3215155  2
     15     16     17     18     1  180.0000000  15.3215155  2
    104    112    111    130     1  180.0000000  15.3215155  2
    142    141    144    164     1  180.0000000  15.3215155  2
    184    183    185    196     1  0.0000000  0.4354138  3
    140    139    138    145     1  180.0000000  15.3215155  2
     96     95     94    101     1  180.0000000  15.3215155  2
     68     60     59     69     1  180.0000000  4.8669776  2
      2      3     25     15     1  180.0000000  15.3215155  2
    110    142    141    144     1  0.0000000  0.1613956  1
    110    142    141    144     1  180.0000000  3.2228242  2
    110    142    141    144     1  0.0000000  0.1884454  3
    110    142    141    144     1  180.0000000  -0.2833812  4
      3     25     15     16     1  180.0000000  15.3215155  2
     10    178    177    181     1  0.0000000  0.1982205  3
     51     50     49     58     1  0.0000000  -0.0002972  1
     51     50     49     58     1  180.0000000  3.7054542  2
     51     50     49     58     1  0.0000000  0.0042734  3
     51     50     49     58     1  180.0000000  -0.0020717  4
    148    156    155    151     1  180.0000000  15.3215155  2
    107    108    109    128     1  0.0000000  0.4834079  3
     41     22     54     55     1  0.0000000  4.3399066  1
     41     22     54     55     1  180.0000000  9.6583295  2
     41     22     54     55     1  0.0000000  0.3201700  3
     41     22     54     55     1  180.0000000  -0.5367158  4
    138    137    146    147     1  180.0000000  15.3215155  2
      7      6     13     12     1  180.0000000  15.3215155  2
    104    105    106    124     1  180.0000000  15.3215155  2
    133    134    135    136     1  0.0000000  0.0984779  1
    133    134    135    136     1  180.0000000  9.0510223  2
    133    134    135    136     1  0.0000000  0.4694714  3
    133    134    135    136     1  180.0000000  0.6286994  4
     94     93     92    117     1  180.0000000  15.3215155  2
    125    108    110    129     1  0.0000000  -2.9242122  1
    125    108    110    129     1  180.0000000  -0.1899352  2
    125    108    110    129     1  0.0000000  0.6608608  3
    125    108    110    129     1  180.0000000  -0.2419877  4
    135    157    147    146     1  180.0000000  15.3215155  2
    137    138    145    165     1  180.0000000  15.3215155  2
     92     91    113    103     1  180.0000000  15.3215155  2
    184    183    186    187     1  0.0000000  3.4100130  1
    184    183    186    187     1  180.0000000  0.4484903  2
    184    183    186    187     1  0.0000000  -0.7242719  3
    184    183    186    187     1  180.0000000  0.8558708  4
    151    155    156    175     1  180.0000000  15.3215155  2
    186    183    184    193     1  0.0000000  0.4667359  3
    186    183    184    193     1  0.0000000  1.4361539  1
     94    101    100     97     1  180.0000000  15.3215155  2
    135    157    147    148     1  180.0000000  15.3215155  2
      4      3     25     15     1  180.0000000  15.3215155  2
    101     94     93    102     1  0.0000000  -0.0002972  1
    101     94     93    102     1  180.0000000  3.7054542  2
    101     94     93    102     1  0.0000000  0.0042734  3
    101     94     93    102     1  180.0000000  -0.0020717  4
     16     17     18     19     1  180.0000000  15.3215155  2
     93     94    101    121     1  180.0000000  15.3215155  2
     24     16     17     35     1  180.0000000  15.3215155  2
     50     49     58     78     1  180.0000000  15.3215155  2
    145    138    137    146     1  0.0000000  -0.0002972  1
    145    138    137    146     1  180.0000000  3.7054542  2
    145    138    137    146     1  0.0000000  0.0042734  3
    145    138    137    146     1  180.0000000  -0.0020717  4
     17     18     19     23     1  180.0000000  15.3215155  2
    133    134    135    157     1  0.0000000  0.0984779  1
    133    134    135    157     1  180.0000000  9.0510223  2
    133    134    135    157     1  0.0000000  0.4694714  3
    133    134    135    157     1  180.0000000  0.6286994  4
    153    152    154    173     1  0.0000000  -1.6839423  1
    153    152    154    173     1  180.0000000  0.9969119  2
    153    152    154    173     1  0.0000000  0.2712997  3
    153    152    154    173     1  180.0000000  0.0470358  4
     69     47     48     73     1  180.0000000  15.3215155  2
    154    152    153    172     1  0.0000000  0.4834079  3
     46     47     69     88     1  180.0000000  15.3215155  2
     90     91    113    103     1  180.0000000  15.3215155  2
     81     64     66     85     1  0.0000000  -2.9242122  1
     81     64     66     85     1  180.0000000  -0.1899352  2
     81     64     66     85     1  0.0000000  0.6608608  3
     81     64     66     85     1  180.0000000  -0.2419877  4
      6      5     14     34     1  180.0000000  15.3215155  2
    182    183    184    193     1  0.0000000  0.4354138  3
     52     51     50     57     1  180.0000000  15.3215155  2
    157    147    146    166     1  180.0000000  15.3215155  2
     63     62     61     79     1  180.0000000  15.3215155  2
     12      9      8     31     1  180.0000000  15.3215155  2
      2      3      4      5     1  180.0000000  15.3215155  2
     90     91    113    132     1  180.0000000  15.3215155  2
     58     59     60     68     1  180.0000000  4.8669776  2
    186    183    185    197     1  0.0000000  0.4667359  3
    186    183    185    197     1  0.0000000  1.4361539  1
    169    152    153    171     1  0.0000000  0.7999501  3
    149    150    151    152     1  180.0000000  15.3215155  2
    185    183    182    190     1  0.0000000  0.4354138  3
    154    152    151    155     1  0.0000000  0.1895299  1
    154    152    151    155     1  180.0000000  1.0239268  2
    154    152    151    155     1  0.0000000  -0.1933108  3
    154    152    151    155     1  180.0000000  0.1556946  4
     19     20     21     38     1  0.0000000  0.4834079  3
    155    151    152    169     1  0.0000000  -0.0747279  1
    155    151    152    169     1  180.0000000  -0.5479523  2
    155    151    152    169     1  0.0000000  -0.2076914  3
    155    151    152    169     1  180.0000000  0.3322900  4
      9      8      7     30     1  180.0000000  15.3215155  2
     50     49     48     73     1  180.0000000  15.3215155  2
    106    107    108    109     1  0.0000000  -0.2713615  1
    106    107    108    109     1  180.0000000  -0.1076035  2
    106    107    108    109     1  0.0000000  -0.1584295  3
    106    107    108    109     1  180.0000000  -0.0534859  4
    138    145    144    164     1  180.0000000  15.3215155  2
     60     61     62     80     1  180.0000000  15.3215155  2
    141    144    145    165     1  180.0000000  15.3215155  2
    174    155    156    175     1  180.0000000  15.3215155  2
     74     51     52     75     1  180.0000000  15.3215155  2
    106    107    108    125     1  0.0000000  -0.0980010  1
    106    107    108    125     1  180.0000000  -0.8329804  2
    106    107    108    125     1  0.0000000  -0.2021668  3
    106    107    108    125     1  180.0000000  0.2007925  4
     81     64     66     98     1  0.0000000  3.0456150  1
     81     64     66     98     1  180.0000000  -1.0288978  2
     81     64     66     98     1  0.0000000  -0.4885018  3
     81     64     66     98     1  180.0000000  0.2296977  4
     61     60     59     69     1  180.0000000  4.8669776  2
    182    183    185    197     1  0.0000000  0.4354138  3
      3      2      1     26     1  0.0000000  0.1982205  3
     63     67     68     87     1  180.0000000  15.3215155  2
     91     92     93     94     1  180.0000000  15.3215155  2
    162    139    140    163     1  180.0000000  15.3215155  2
      2      3      4     29     1  180.0000000  15.3215155  2
    108    110    142    143     1  0.0000000  -1.9881728  1
    108    110    142    143     1  180.0000000  11.3780966  2
    108    110    142    143     1  0.0000000  1.1475824  3
    108    110    142    143     1  180.0000000  -1.0150873  4
      1      2      3      4     1  0.0000000  0.0984779  1
      1      2      3      4     1  180.0000000  9.0510223  2
      1      2      3      4     1  0.0000000  0.4694714  3
      1      2      3      4     1  180.0000000  0.6286994  4
     85     66     98     99     1  0.0000000  4.3399066  1
     85     66     98     99     1  180.0000000  9.6583295  2
     85     66     98     99     1  0.0000000  0.3201700  3
     85     66     98     99     1  180.0000000  -0.5367158  4
      4      5     14     34     1  180.0000000  15.3215155  2
    156    148    149    167     1  180.0000000  15.3215155  2
     58     59     60     61     1  180.0000000  4.8669776  2
    184    183    185    195     1  0.0000000  0.4354138  3
      6      7      8     31     1  180.0000000  15.3215155  2
     91     90     89    114     1  0.0000000  0.1982205  3
     93    102    103    104     1  180.0000000  15.3215155  2
    138    137    136    161     1  180.0000000  15.3215155  2
     52     53     56     76     1  180.0000000  15.3215155  2
    185    183    184    192     1  0.0000000  0.4354138  3
     59     60     68     67     1  180.0000000  15.3215155  2
     25      3      4     29     1  180.0000000  15.3215155  2
     95     96     97    100     1  180.0000000  15.3215155  2
    149    150    151    155     1  180.0000000  15.3215155  2
    139    140    141    144     1  180.0000000  15.3215155  2
     53     52     51     74     1  180.0000000  15.3215155  2
     89     90     91    113     1  0.0000000  0.0984779  1
     89     90     91    113     1  180.0000000  9.0510223  2
     89     90     91    113     1  0.0000000  0.4694714  3
     89     90     91    113     1  180.0000000  0.6286994  4
     92     93     94     95     1  0.0000000  -0.0002972  1
     92     93     94     95     1  180.0000000  3.7054542  2
     92     93     94     95     1  0.0000000  0.0042734  3
     92     93     94     95     1  180.0000000  -0.0020717  4
    107    108    110    129     1  0.0000000  5.5043433  1
    107    108    110    129     1  180.0000000  2.7387169  2
    107    108    110    129     1  0.0000000  0.5005677  3
    107    108    110    129     1  180.0000000  0.5286402  4
     35     17     18     36     1  180.0000000  15.3215155  2
    169    152    154    187     1  0.0000000  3.5432742  1
    169    152    154    187     1  180.0000000  -1.0205175  2
    169    152    154    187     1  0.0000000  -1.1839059  3
    169    152    154    187     1  180.0000000  -0.1441718  4
     69     59     58     78     1  180.0000000  15.3215155  2
     10    178    177    180     1  0.0000000  0.1982205  3
    151    152    153    170     1  0.0000000  0.4834079  3
     91    113    103    102     1  180.0000000  15.3215155  2
    137    146    147    157     1  180.0000000  15.3215155  2
    147    148    156    175     1  180.0000000  15.3215155  2
     81     64     65     84     1  0.0000000  0.7999501  3
    108    107    111    130     1  180.0000000  15.3215155  2
      8      9     12     32     1  180.0000000  15.3215155  2
      3      4      5      6     1  180.0000000  15.3215155  2
     17     16     24     43     1  180.0000000  15.3215155  2
     57     50     51     74     1  180.0000000  15.3215155  2
     45     46     47     48     1  0.0000000  0.0984779  1
     45     46     47     48     1  180.0000000  9.0510223  2
     45     46     47     48     1  0.0000000  0.4694714  3
     45     46     47     48     1  180.0000000  0.6286994  4
    147    148    156    155     1  180.0000000  15.3215155  2
     50     51     52     53     1  180.0000000  15.3215155  2
    152    151    150    168     1  180.0000000  15.3215155  2
    149    148    156    175     1  180.0000000  15.3215155  2
    186    183    184    192     1  0.0000000  0.4667359  3
    186    183    184    192     1  0.0000000  1.4361539  1
     64     63     67     86     1  180.0000000  15.3215155  2
    113    103    102    122     1  180.0000000  15.3215155  2
    149    148    156    155     1  180.0000000  15.3215155  2
     21     20     22     41     1  0.0000000  -2.7499246  1
     21     20     22     41     1  180.0000000  0.2316686  2
     21     20     22     41     1  0.0000000  0.7195670  3
     21     20     22     41     1  180.0000000  -0.5023349  4
     66     64     65     84     1  0.0000000  0.4834079  3
    148    147    146    166     1  180.0000000  15.3215155  2
     91    113    103    104     1  180.0000000  15.3215155  2
     64     66     98     97     1  0.0000000  -0.0310352  1
     64     66     98     97     1  180.0000000  6.9887805  2
     64     66     98     97     1  0.0000000  1.7007932  3
     64     66     98     97     1  180.0000000  2.9077679  4
    102     93     92    117     1  180.0000000  15.3215155  2
     63     64     65     82     1  0.0000000  0.4834079  3
     93     92     91    113     1  180.0000000  15.3215155  2
    136    135    157    147     1  180.0000000  15.3215155  2
    154    152    153    171     1  0.0000000  0.4834079  3
     20     19     18     36     1  180.0000000  15.3215155  2
     94    101    100    120     1  180.0000000  15.3215155  2
     86     67     68     87     1  180.0000000  15.3215155  2
    182    183    184    192     1  0.0000000  0.4354138  3
     65     64     63     67     1  0.0000000  -0.2713615  1
     65     64     63     67     1  180.0000000  -0.1076035  2
     65     64     63     67     1  0.0000000  -0.1584295  3
     65     64     63     67     1  180.0000000  -0.0534859  4
    152    154    187    186     1  0.0000000  -0.3226803  1
    152    154    187    186     1  180.0000000  8.9258787  2
    152    154    187    186     1  0.0000000  0.2836493  3
    152    154    187    186     1  180.0000000  0.7113696  4
      4      5      6      7     1  0.0000000  -0.0002972  1
      4      5      6      7     1  180.0000000  3.7054542  2
      4      5      6      7     1  0.0000000  0.0042734  3
      4      5      6      7     1  180.0000000  -0.0020717  4
    152    151    155    156     1  180.0000000  15.3215155  2
     20     22     54     55     1  0.0000000  -1.9881728  1
     20     22     54     55     1  180.0000000  11.3780966  2
     20     22     54     55     1  0.0000000  1.1475824  3
     20     22     54     55     1  180.0000000  -1.0150873  4
    112    104    103    113     1  180.0000000  4.8669776  2
     90     91     92    117     1  180.0000000  15.3215155  2
     51     50     57     77     1  180.0000000  15.3215155  2
    169    152    153    170     1  0.0000000  0.7999501  3
      8      9     10     11     1  0.0000000  0.0952753  1
      8      9     10     11     1  180.0000000  2.2035535  2
      8      9     10     11     1  0.0000000  0.0925218  3
      8      9     10     11     1  180.0000000  0.1966856  4
      7      8      9     10     1  180.0000000  15.3215155  2
    185    183    182    189     1  0.0000000  0.4354138  3
     49     58     59     60     1  180.0000000  15.3215155  2
     93     94    101    100     1  180.0000000  15.3215155  2
    100     97     96    119     1  180.0000000  15.3215155  2
    147    148    149    167     1  180.0000000  15.3215155  2
     19     20     22     54     1  0.0000000  -3.7234876  1
     19     20     22     54     1  180.0000000  1.3704343  2
     19     20     22     54     1  0.0000000  -0.7356493  3
     19     20     22     54     1  180.0000000  -0.8361097  4
    182    183    185    196     1  0.0000000  0.4354138  3
    169    152    154    173     1  0.0000000  -1.5518501  1
    169    152    154    173     1  180.0000000  0.8987602  2
    169    152    154    173     1  0.0000000  -0.1064718  3
    169    152    154    173     1  180.0000000  0.0084564  4
     23     19     20     37     1  0.0000000  -0.0980010  1
     23     19     20     37     1  180.0000000  -0.8329804  2
     23     19     20     37     1  0.0000000  -0.2021668  3
     23     19     20     37     1  180.0000000  0.2007925  4
    130    111    112    131     1  180.0000000  15.3215155  2
     22     20     21     40     1  0.0000000  0.4834079  3
      6      5      4     29     1  180.0000000  15.3215155  2
     98     97    100    120     1  180.0000000  15.3215155  2
     11     10      9     12     1  0.0000000  0.0952753  1
     11     10      9     12     1  180.0000000  2.2035535  2
     11     10      9     12     1  0.0000000  0.0925218  3
     11     10      9     12     1  180.0000000  0.1966856  4
    184    183    182    191     1  0.0000000  0.4354138  3
      4      5      6     13     1  0.0000000  -0.0002972  1
      4      5      6     13     1  180.0000000  3.7054542  2
      4      5      6     13     1  0.0000000  0.0042734  3
      4      5      6     13     1  180.0000000  -0.0020717  4
    138    145    144    141     1  180.0000000  15.3215155  2
     54     53     56     57     1  180.0000000  15.3215155  2
    146    137    136    161     1  180.0000000  15.3215155  2
    109    108    110    142     1  0.0000000  0.7218475  1
    109    108    110    142     1  180.0000000  -0.7203216  2
    109    108    110    142     1  0.0000000  -1.1453920  3
    109    108    110    142     1  180.0000000  -0.2918503  4
     45     46     47     69     1  0.0000000  0.0984779  1
     45     46     47     69     1  180.0000000  9.0510223  2
     45     46     47     69     1  0.0000000  0.4694714  3
     45     46     47     69     1  180.0000000  0.6286994  4
    185    183    186    187     1  0.0000000  3.4100130  1
    185    183    186    187     1  180.0000000  0.4484903  2
    185    183    186    187     1  0.0000000  -0.7242719  3
    185    183    186    187     1  180.0000000  0.8558708  4
     12      9     10    178     1  0.0000000  -0.0901790  1
     12      9     10    178     1  180.0000000  2.1225274  2
     12      9     10    178     1  0.0000000  -0.1446194  3
     12      9     10    178     1  180.0000000  0.0108531  4
     46     47     48     49     1  180.0000000  15.3215155  2
     95     94     93    102     1  0.0000000  -0.0002972  1
     95     94     93    102     1  180.0000000  3.7054542  2
     95     94     93    102     1  0.0000000  0.0042734  3
     95     94     93    102     1  180.0000000  -0.0020717  4
     10    178    177    179     1  0.0000000  0.1982205  3
     62     63     64     65     1  0.0000000  -0.2713615  1
     62     63     64     65     1  180.0000000  -0.1076035  2
     62     63     64     65     1  0.0000000  -0.1584295  3
     62     63     64     65     1  180.0000000  -0.0534859  4
     60     61     62     63     1  180.0000000  15.3215155  2
     18     19     23     24     1  180.0000000  15.3215155  2
     62     63     67     68     1  180.0000000  15.3215155  2
    147    148    149    150     1  180.0000000  15.3215155  2
    183    186    187    188     1  0.0000000  1.5684715  1
    183    186    187    188     1  180.0000000  7.2169864  2
    183    186    187    188     1  0.0000000  0.4947786  3
    183    186    187    188     1  180.0000000  0.4622094  4
    135    134    133    159     1  0.0000000  0.1982205  3
    136    135    157    176     1  180.0000000  15.3215155  2
    135    136    137    138     1  180.0000000  15.3215155  2
     81     64     65     83     1  0.0000000  0.7999501  3
    150    151    155    174     1  180.0000000  15.3215155  2
    136    137    146    166     1  180.0000000  15.3215155  2
    186    183    182    190     1  0.0000000  0.4667359  3
    186    183    182    190     1  0.0000000  1.4361539  1
     96     97     98     99     1  0.0000000  -0.1728188  1
     96     97     98     99     1  180.0000000  0.7193751  2
     96     97     98     99     1  0.0000000  -0.1593959  3
     96     97     98     99     1  180.0000000  0.4034705  4
     10      9      8     31     1  180.0000000  15.3215155  2
     94     95     96     97     1  180.0000000  15.3215155  2
    106    107    108    110     1  0.0000000  0.3641736  1
    106    107    108    110     1  180.0000000  1.4745304  2
    106    107    108    110     1  0.0000000  -0.1886673  3
    106    107    108    110     1  180.0000000  0.0219338  4
     17     16     15     25     1  180.0000000  4.8669776  2
    134    135    157    147     1  180.0000000  15.3215155  2
      5      6     13     33     1  180.0000000  15.3215155  2
      7      8      9     12     1  180.0000000  15.3215155  2
     66     64     65     83     1  0.0000000  0.4834079  3
     64     63     62     80     1  180.0000000  15.3215155  2
     49     50     51     74     1  180.0000000  15.3215155  2
     93     94     95     96     1  180.0000000  15.3215155  2
     14     15     25     44     1  180.0000000  15.3215155  2
    102    103    104    112     1  180.0000000  4.8669776  2
     49     48     47     69     1  180.0000000  15.3215155  2
      9     12     13     33     1  180.0000000  15.3215155  2
    106    107    111    112     1  180.0000000  15.3215155  2
    136    137    146    147     1  180.0000000  15.3215155  2
    106    105    104    112     1  180.0000000  15.3215155  2
     60     59     69     88     1  180.0000000  15.3215155  2
     96     97    100    101     1  180.0000000  15.3215155  2
    125    108    109    127     1  0.0000000  0.7999501  3
     48     47     69     59     1  180.0000000  15.3215155  2
    110    108    109    127     1  0.0000000  0.4834079  3
     47     46     45     70     1  0.0000000  0.1982205  3
     18     19     20     21     1  0.0000000  -0.2713615  1
     18     19     20     21     1  180.0000000  -0.1076035  2
     18     19     20     21     1  0.0000000  -0.1584295  3
     18     19     20     21     1  180.0000000  -0.0534859  4
    135    136    137    146     1  180.0000000  15.3215155  2
    182    183    186    187     1  0.0000000  3.4100130  1
    182    183    186    187     1  180.0000000  0.4484903  2
    182    183    186    187     1  0.0000000  -0.7242719  3
    182    183    186    187     1  180.0000000  0.8558708  4
     92     93    102    103     1  180.0000000  15.3215155  2
     13      6      5     14     1  0.0000000  -0.0002972  1
     13      6      5     14     1  180.0000000  3.7054542  2
     13      6      5     14     1  0.0000000  0.0042734  3
     13      6      5     14     1  180.0000000  -0.0020717  4
     76     56     57     77     1  180.0000000  15.3215155  2
    105    104    103    113     1  180.0000000  4.8669776  2
     14      5      4     29     1  180.0000000  15.3215155  2
     53     56     57     77     1  180.0000000  15.3215155  2
      8      7      6     13     1  180.0000000  15.3215155  2
     48     49     50     57     1  0.0000000  -0.0002972  1
     48     49     50     57     1  180.0000000  3.7054542  2
     48     49     50     57     1  0.0000000  0.0042734  3
     48     49     50     57     1  180.0000000  -0.0020717  4
    146    147    157    176     1  180.0000000  15.3215155  2
    149    148    147    157     1  180.0000000  4.8669776  2
     94     95     96    119     1  180.0000000  15.3215155  2
    139    138    137    146     1  0.0000000  -0.0002972  1
    139    138    137    146     1  180.0000000  3.7054542  2
    139    138    137    146     1  0.0000000  0.0042734  3
    139    138    137    146     1  180.0000000  -0.0020717  4
     59     60     61     62     1  180.0000000  15.3215155  2
    153    152    151    155     1  0.0000000  -0.1190481  1
    153    152    151    155     1  180.0000000  0.1284777  2
    153    152    151    155     1  0.0000000  -0.1849732  3
    153    152    151    155     1  180.0000000  -0.0557572  4
     97     96     95    118     1  180.0000000  15.3215155  2
     48     49     58     59     1  180.0000000  15.3215155  2
     66     64     63     67     1  0.0000000  0.3641736  1
     66     64     63     67     1  180.0000000  1.4745304  2
     66     64     63     67     1  0.0000000  -0.1886673  3
     66     64     63     67     1  180.0000000  0.0219338  4
     47     69     59     58     1  180.0000000  15.3215155  2
    104    103    113    132     1  180.0000000  15.3215155  2
    148    149    150    151     1  180.0000000  15.3215155  2
    143    142    141    144     1  0.0000000  -0.1728188  1
    143    142    141    144     1  180.0000000  0.7193751  2
    143    142    141    144     1  0.0000000  -0.1593959  3
    143    142    141    144     1  180.0000000  0.4034705  4
     20     19     23     42     1  180.0000000  15.3215155  2
     59     60     68     87     1  180.0000000  15.3215155  2
     16     15     25     44     1  180.0000000  15.3215155  2
    148    156    155    174     1  180.0000000  15.3215155  2
     22     54     53     52     1  0.0000000  0.1613956  1
     22     54     53     52     1  180.0000000  3.2228242  2
     22     54     53     52     1  0.0000000  0.1884454  3
     22     54     53     52     1  180.0000000  -0.2833812  4
    134    135    157    176     1  180.0000000  15.3215155  2
     67     63     62     80     1  180.0000000  15.3215155  2
     42     23     24     43     1  180.0000000  15.3215155  2
     91     90     89    116     1  0.0000000  0.1982205  3
    102    103    104    105     1  180.0000000  4.8669776  2
     19     20     21     40     1  0.0000000  0.4834079  3
     63     64     66     85     1  0.0000000  5.5043433  1
     63     64     66     85     1  180.0000000  2.7387169  2
     63     64     66     85     1  0.0000000  0.5005677  3
     63     64     66     85     1  180.0000000  0.5286402  4
     37     20     22     41     1  0.0000000  -2.9242122  1
     37     20     22     41     1  180.0000000  -0.1899352  2
     37     20     22     41     1  0.0000000  0.6608608  3
     37     20     22     41     1  180.0000000  -0.2419877  4
    103    104    105    106     1  180.0000000  15.3215155  2
     93     94     95    118     1  180.0000000  15.3215155  2
     19     18     17     35     1  180.0000000  15.3215155  2
     99     98     97    100     1  0.0000000  -0.1728188  1
     99     98     97    100     1  180.0000000  0.7193751  2
     99     98     97    100     1  0.0000000  -0.1593959  3
     99     98     97    100     1  180.0000000  0.4034705  4
      3      2      1     28     1  0.0000000  0.1982205  3
     14     15     16     24     1  180.0000000  4.8669776  2
    135    134    133    158     1  0.0000000  0.1982205  3
     32     12     13     33     1  180.0000000  15.3215155  2
    139    138    145    144     1  180.0000000  15.3215155  2
     62     61     60     68     1  180.0000000  15.3215155  2
    137    138    139    162     1  180.0000000  15.3215155  2
    157    135    136    161     1  180.0000000  15.3215155  2
      5      6      7      8     1  180.0000000  15.3215155  2
    186    183    182    189     1  0.0000000  0.4667359  3
    186    183    182    189     1  0.0000000  1.4361539  1
    184    183    185    197     1  0.0000000  0.4354138  3
      5      4      3     25     1  180.0000000  15.3215155  2
    185    183    184    194     1  0.0000000  0.4354138  3
    109    108    107    111     1  0.0000000  -0.2713615  1
    109    108    107    111     1  180.0000000  -0.1076035  2
    109    108    107    111     1  0.0000000  -0.1584295  3
    109    108    107    111     1  180.0000000  -0.0534859  4
     50     57     56     53     1  180.0000000  15.3215155  2
     55     54     53     56     1  0.0000000  -0.1728188  1
     55     54     53     56     1  180.0000000  0.7193751  2
     55     54     53     56     1  0.0000000  -0.1593959  3
     55     54     53     56     1  180.0000000  0.4034705  4
    140    141    144    145     1  180.0000000  15.3215155  2
     66     64     65     82     1  0.0000000  0.4834079  3
     59     60     61     79     1  180.0000000  15.3215155  2
    111    107    106    124     1  180.0000000  15.3215155  2
     47     48     49     50     1  180.0000000  15.3215155  2
    107    108    109    127     1  0.0000000  0.4834079  3
     89     90     91     92     1  0.0000000  0.0984779  1
     89     90     91     92     1  180.0000000  9.0510223  2
     89     90     91     92     1  0.0000000  0.4694714  3
     89     90     91     92     1  180.0000000  0.6286994  4
     60     68     67     63     1  180.0000000  15.3215155  2
    138    139    140    163     1  180.0000000  15.3215155  2
    151    152    153    172     1  0.0000000  0.4834079  3
     79     61     62     80     1  180.0000000  15.3215155  2
     14     15     16     17     1  180.0000000  4.8669776  2
     24     16     15     25     1  180.0000000  4.8669776  2
     50     51     52     75     1  180.0000000  15.3215155  2
    186    183    185    196     1  0.0000000  0.4667359  3
    186    183    185    196     1  0.0000000  1.4361539  1
     61     60     68     87     1  180.0000000  15.3215155  2
      9     10    178    177     1  0.0000000  -1.3661683  1
      9     10    178    177     1  180.0000000  13.6727439  2
      9     10    178    177     1  0.0000000  1.9374140  3
      9     10    178    177     1  180.0000000  1.5040623  4
    138    139    140    141     1  180.0000000  15.3215155  2
     52     53     54     55     1  0.0000000  -0.1728188  1
     52     53     54     55     1  180.0000000  0.7193751  2
     52     53     54     55     1  0.0000000  -0.1593959  3
     52     53     54     55     1  180.0000000  0.4034705  4
     61     60     68     67     1  180.0000000  15.3215155  2
    154    187    186    183     1  0.0000000  -0.8818206  1
    154    187    186    183     1  180.0000000  14.2444895  2
    154    187    186    183     1  0.0000000  -0.1728993  3
    154    187    186    183     1  180.0000000  1.0232122  4
     57     50     49     58     1  0.0000000  -0.0002972  1
     57     50     49     58     1  180.0000000  3.7054542  2
     57     50     49     58     1  0.0000000  0.0042734  3
     57     50     49     58     1  180.0000000  -0.0020717  4
     30      7      8     31     1  180.0000000  15.3215155  2
     64     63     67     68     1  180.0000000  15.3215155  2
     54     53     52     75     1  180.0000000  15.3215155  2
    173    154    187    186     1  0.0000000  0.7684727  1
    173    154    187    186     1  180.0000000  7.8101826  2
    173    154    187    186     1  0.0000000  0.2724965  3
    173    154    187    186     1  180.0000000  0.7250224  4
     49     58     59     69     1  180.0000000  15.3215155  2
     92     93     94    101     1  0.0000000  -0.0002972  1
     92     93     94    101     1  180.0000000  3.7054542  2
     92     93     94    101     1  0.0000000  0.0042734  3
     92     93     94    101     1  180.0000000  -0.0020717  4
     64     66     98     99     1  0.0000000  -1.9881728  1
     64     66     98     99     1  180.0000000  11.3780966  2
     64     66     98     99     1  0.0000000  1.1475824  3
     64     66     98     99     1  180.0000000  -1.0150873  4
    156    148    147    157     1  180.0000000  4.8669776  2
     63     64     65     84     1  0.0000000  0.4834079  3
    123    105    106    124     1  180.0000000  15.3215155  2
     37     20     21     40     1  0.0000000  0.7999501  3
     62     63     64     81     1  0.0000000  -0.0980010  1
     62     63     64     81     1  180.0000000  -0.8329804  2
     62     63     64     81     1  0.0000000  -0.2021668  3
     62     63     64     81     1  180.0000000  0.2007925  4
    125    108    110    142     1  0.0000000  3.0456150  1
    125    108    110    142     1  180.0000000  -1.0288978  2
    125    108    110    142     1  0.0000000  -0.4885018  3
    125    108    110    142     1  180.0000000  0.2296977  4
    155    151    150    168     1  180.0000000  15.3215155  2
     50     49     58     59     1  180.0000000  15.3215155  2
     51     52     53     54     1  180.0000000  15.3215155  2
    182    183    184    194     1  0.0000000  0.4354138  3
     49     50     57     77     1  180.0000000  15.3215155  2
    152    154    187    188     1  0.0000000  -0.1103832  1
    152    154    187    188     1  180.0000000  8.4138722  2
    152    154    187    188     1  0.0000000  1.9553643  3
    152    154    187    188     1  180.0000000  -0.6461569  4
      6      5     14     15     1  180.0000000  15.3215155  2
     47     48     49     58     1  180.0000000  15.3215155  2
    106    107    111    130     1  180.0000000  15.3215155  2
     16     24     23     19     1  180.0000000  15.3215155  2
    146    147    148    149     1  180.0000000  4.8669776  2
    107    111    112    131     1  180.0000000  15.3215155  2
      5     14     15     16     1  180.0000000  15.3215155  2
     61     62     63     64     1  180.0000000  15.3215155  2
    102    103    113    132     1  180.0000000  15.3215155  2
      2      3     25     44     1  180.0000000  15.3215155  2
     11     10    178    177     1  0.0000000  1.8611524  1
     11     10    178    177     1  180.0000000  7.2502090  2
     11     10    178    177     1  0.0000000  -1.8290763  3
     11     10    178    177     1  180.0000000  0.4838188  4
    142    141    144    145     1  180.0000000  15.3215155  2
     19     20     22     41     1  0.0000000  5.5043433  1
     19     20     22     41     1  180.0000000  2.7387169  2
     19     20     22     41     1  0.0000000  0.5005677  3
     19     20     22     41     1  180.0000000  0.5286402  4
    110    142    141    140     1  0.0000000  0.1613956  1
    110    142    141    140     1  180.0000000  3.2228242  2
    110    142    141    140     1  0.0000000  0.1884454  3
    110    142    141    140     1  180.0000000  -0.2833812  4
      3     25     15     14     1  180.0000000  15.3215155  2
     95     94    101    121     1  180.0000000  15.3215155  2
    150    149    148    156     1  180.0000000  15.3215155  2
    129    110    142    141     1  0.0000000  0.7712991  1
    129    110    142    141     1  180.0000000  7.6639565  2
    129    110    142    141     1  0.0000000  0.1349594  3
    129    110    142    141     1  180.0000000  0.3398360  4
    108    107    111    112     1  180.0000000  15.3215155  2
     46     47     48     73     1  180.0000000  15.3215155  2
      3      2      1     27     1  0.0000000  0.1982205  3
     41     22     54     53     1  0.0000000  0.7712991  1
     41     22     54     53     1  180.0000000  7.6639565  2
     41     22     54     53     1  0.0000000  0.1349594  3
     41     22     54     53     1  180.0000000  0.3398360  4
      1      2      3     25     1  0.0000000  0.0984779  1
      1      2      3     25     1  180.0000000  9.0510223  2
      1      2      3     25     1  0.0000000  0.4694714  3
      1      2      3     25     1  180.0000000  0.6286994  4
     18     19     20     37     1  0.0000000  -0.0980010  1
     18     19     20     37     1  180.0000000  -0.8329804  2
     18     19     20     37     1  0.0000000  -0.2021668  3
     18     19     20     37     1  180.0000000  0.2007925  4
      8      9     10    178     1  0.0000000  -0.0901790  1
      8      9     10    178     1  180.0000000  2.1225274  2
      8      9     10    178     1  0.0000000  -0.1446194  3
      8      9     10    178     1  180.0000000  0.0108531  4
    105    106    107    108     1  180.0000000  15.3215155  2
     66     98     97    100     1  0.0000000  0.1613956  1
     66     98     97    100     1  180.0000000  3.2228242  2
     66     98     97    100     1  0.0000000  0.1884454  3
     66     98     97    100     1  180.0000000  -0.2833812  4
      4      5     14     15     1  180.0000000  15.3215155  2
     67     63     64     81     1  0.0000000  -0.0980010  1
     67     63     64     81     1  180.0000000  -0.8329804  2
     67     63     64     81     1  0.0000000  -0.2021668  3
     67     63     64     81     1  180.0000000  0.2007925  4
      4      3     25     44     1  180.0000000  15.3215155  2
     16     15     14     34     1  180.0000000  15.3215155  2
    185    183    184    193     1  0.0000000  0.4354138  3
     60     59     58     78     1  180.0000000  15.3215155  2
     52     53     56     57     1  180.0000000  15.3215155  2
      6     13     12     32     1  180.0000000  15.3215155  2
    150    151    152    154     1  0.0000000  0.1895299  1
    150    151    152    154     1  180.0000000  1.0239268  2
    150    151    152    154     1  0.0000000  -0.1933108  3
    150    151    152    154     1  180.0000000  0.1556946  4
     56     53     52     75     1  180.0000000  15.3215155  2
    134    135    136    161     1  180.0000000  15.3215155  2
     90     91     92     93     1  180.0000000  15.3215155  2
    107    106    105    123     1  180.0000000  15.3215155  2
     10      9     12     13     1  180.0000000  15.3215155  2
    151    152    153    171     1  0.0000000  0.4834079  3
     48     47     69     88     1  180.0000000  15.3215155  2
    154    152    153    170     1  0.0000000  0.4834079  3
     23     19     18     36     1  180.0000000  15.3215155  2
    137    146    147    148     1  180.0000000  15.3215155  2
     48     49     50     51     1  0.0000000  -0.0002972  1
     48     49     50     51     1  180.0000000  3.7054542  2
     48     49     50     51     1  0.0000000  0.0042734  3
     48     49     50     51     1  180.0000000  -0.0020717  4
    150    151    155    156     1  180.0000000  15.3215155  2
    139    140    141    142     1  180.0000000  15.3215155  2
      8      9     12     13     1  180.0000000  15.3215155  2
    186    183    185    195     1  0.0000000  0.4667359  3
    186    183    185    195     1  0.0000000  1.4361539  1
     50     57     56     76     1  180.0000000  15.3215155  2
     49     50     51     52     1  180.0000000  15.3215155  2
    103    104    112    111     1  180.0000000  15.3215155  2
    105    104    112    111     1  180.0000000  15.3215155  2
    142    141    140    163     1  180.0000000  15.3215155  2
    107    108    110    142     1  0.0000000  -3.7234876  1
    107    108    110    142     1  180.0000000  1.3704343  2
    107    108    110    142     1  0.0000000  -0.7356493  3
    107    108    110    142     1  180.0000000  -0.8361097  4
     51     50     57     56     1  180.0000000  15.3215155  2
    107    108    109    126     1  0.0000000  0.4834079  3
     92     91    113    132     1  180.0000000  15.3215155  2
     60     68     67     86     1  180.0000000  15.3215155  2
     63     64     65     83     1  0.0000000  0.4834079  3
     37     20     21     39     1  0.0000000  0.7999501  3
    109    108    110    129     1  0.0000000  -2.7499246  1
    109    108    110    129     1  180.0000000  0.2316686  2
    109    108    110    129     1  0.0000000  0.7195670  3
    109    108    110    129     1  180.0000000  -0.5023349  4
    134    135    136    137     1  180.0000000  15.3215155  2
    182    183    185    195     1  0.0000000  0.4354138  3
    146    147    148    156     1  180.0000000  4.8669776  2
    103    104    112    131     1  180.0000000  15.3215155  2
     98     97     96    119     1  180.0000000  15.3215155  2
    105    104    112    131     1  180.0000000  15.3215155  2
     15     16     17     35     1  180.0000000  15.3215155  2
     15     16     24     43     1  180.0000000  15.3215155  2
     46     47     69     59     1  180.0000000  15.3215155  2
     18     17     16     24     1  180.0000000  15.3215155  2
     85     66     98     97     1  0.0000000  0.7712991  1
     85     66     98     97     1  180.0000000  7.6639565  2
     85     66     98     97     1  0.0000000  0.1349594  3
     85     66     98     97     1  180.0000000  0.3398360  4
     47     46     45     72     1  0.0000000  0.1982205  3
     49     50     57     56     1  180.0000000  15.3215155  2
     54     53     56     76     1  180.0000000  15.3215155  2
    164    144    145    165     1  180.0000000  15.3215155  2
    112    104    105    123     1  180.0000000  15.3215155  2
     15     16     24     23     1  180.0000000  15.3215155  2
     22     20     21     39     1  0.0000000  0.4834079  3
    184    183    182    190     1  0.0000000  0.4354138  3
    167    149    150    168     1  180.0000000  15.3215155  2
    151    152    154    187     1  0.0000000  -3.4982792  1
    151    152    154    187     1  180.0000000  1.7402814  2
    151    152    154    187     1  0.0000000  -1.1676564  3
    151    152    154    187     1  180.0000000  0.0503140  4
     92     93    102    122     1  180.0000000  15.3215155  2
    148    149    150    168     1  180.0000000  15.3215155  2
     22     20     19     23     1  0.0000000  0.3641736  1
     22     20     19     23     1  180.0000000  1.4745304  2
     22     20     19     23     1  0.0000000  -0.1886673  3
     22     20     19     23     1  180.0000000  0.0219338  4
     95     96     97     98     1  180.0000000  15.3215155  2
     13      6      7     30     1  180.0000000  15.3215155  2
     21     20     19     23     1  0.0000000  -0.2713615  1
     21     20     19     23     1  180.0000000  -0.1076035  2
     21     20     19     23     1  0.0000000  -0.1584295  3
     21     20     19     23     1  180.0000000  -0.0534859  4
    108    107    106    124     1  180.0000000  15.3215155  2
     19     23     24     43     1  180.0000000  15.3215155  2
    150    151    152    153     1  0.0000000  -0.1190481  1
    150    151    152    153     1  180.0000000  0.1284777  2
    150    151    152    153     1  0.0000000  -0.1849732  3
    150    151    152    153     1  180.0000000  -0.0557572  4
     22     54     53     56     1  0.0000000  0.1613956  1
     22     54     53     56     1  180.0000000  3.2228242  2
     22     54     53     56     1  0.0000000  0.1884454  3
     22     54     53     56     1  180.0000000  -0.2833812  4
     47     69     59     60     1  180.0000000  15.3215155  2
    101     94     95    118     1  180.0000000  15.3215155  2
     16     24     23     42     1  180.0000000  15.3215155  2
     37     20     22     54     1  0.0000000  3.0456150  1
     37     20     22     54     1  180.0000000  -1.0288978  2
     37     20     22     54     1  0.0000000  -0.4885018  3
     37     20     22     54     1  180.0000000  0.2296977  4
     81     64     65     82     1  0.0000000  0.7999501  3
      7      6      5     14     1  0.0000000  -0.0002972  1
      7      6      5     14     1  180.0000000  3.7054542  2
      7      6      5     14     1  0.0000000  0.0042734  3
      7      6      5     14     1  180.0000000  -0.0020717  4
    104    112    111    107     1  180.0000000  15.3215155  2
      5      6      7     30     1  180.0000000  15.3215155  2
    111    107    108    125     1  0.0000000  -0.0980010  1
    111    107    108    125     1  180.0000000  -0.8329804  2
    111    107    108    125     1  0.0000000  -0.2021668  3
    111    107    108    125     1  180.0000000  0.2007925  4
      6      7      8      9     1  180.0000000  15.3215155  2
     68     60     61     79     1  180.0000000  15.3215155  2
     20     19     23     24     1  180.0000000  15.3215155  2
     94     93    102    103     1  180.0000000  15.3215155  2
     61     62     63     67     1  180.0000000  15.3215155  2
    120    100    101    121     1  180.0000000  15.3215155  2
    105    106    107    111     1  180.0000000  15.3215155  2
    113     91     92    117     1  180.0000000  15.3215155  2
    104    103    102    122     1  180.0000000  15.3215155  2
    137    136    135    157     1  180.0000000  15.3215155  2
      6     13     12      9     1  180.0000000  15.3215155  2
    108    110    142    141     1  0.0000000  -0.0310352  1
    108    110    142    141     1  180.0000000  6.9887805  2
    108    110    142    141     1  0.0000000  1.7007932  3
    108    110    142    141     1  180.0000000  2.9077679  4
     16     17     18     36     1  180.0000000  15.3215155  2
      5      6     13     12     1  180.0000000  15.3215155  2
     63     64     66     98     1  0.0000000  -3.7234876  1
     63     64     66     98     1  180.0000000  1.3704343  2
     63     64     66     98     1  0.0000000  -0.7356493  3
     63     64     66     98     1  180.0000000  -0.8361097  4
    148    147    157    176     1  180.0000000  15.3215155  2
     96     97    100    120     1  180.0000000  15.3215155  2
     98     97    100    101     1  180.0000000  15.3215155  2
    136    137    138    139     1  0.0000000  -0.0002972  1
    136    137    138    139     1  180.0000000  3.7054542  2
    136    137    138    139     1  0.0000000  0.0042734  3
    136    137    138    139     1  180.0000000  -0.0020717  4
     95     94    101    100     1  180.0000000  15.3215155  2
     10      9     12     32     1  180.0000000  15.3215155  2
    144    141    140    163     1  180.0000000  15.3215155  2
     17     18     19     20     1  180.0000000  15.3215155  2
    103    104    105    123     1  180.0000000  15.3215155  2
    118     95     96    119     1  180.0000000  15.3215155  2
    141    140    139    162     1  180.0000000  15.3215155  2
     62     63     64     66     1  0.0000000  0.3641736  1
     62     63     64     66     1  180.0000000  1.4745304  2
     62     63     64     66     1  0.0000000  -0.1886673  3
     62     63     64     66     1  180.0000000  0.0219338  4
     21     20     22     54     1  0.0000000  0.7218475  1
     21     20     22     54     1  180.0000000  -0.7203216  2
     21     20     22     54     1  0.0000000  -1.1453920  3
     21     20     22     54     1  180.0000000  -0.2918503  4
      7      6     13     33     1  180.0000000  15.3215155  2
    135    134    133    160     1  0.0000000  0.1982205  3
    152    151    155    174     1  180.0000000  15.3215155  2
    110    108    107    111     1  0.0000000  0.3641736  1
    110    108    107    111     1  180.0000000  1.4745304  2
    110    108    107    111     1  0.0000000  -0.1886673  3
    110    108    107    111     1  180.0000000  0.0219338  4
     20     22     54     53     1  0.0000000  -0.0310352  1
     20     22     54     53     1  180.0000000  6.9887805  2
     20     22     54     53     1  0.0000000  1.7007932  3
     20     22     54     53     1  180.0000000  2.9077679  4
     58     49     48     73     1  180.0000000  15.3215155  2
    186    183    182    191     1  0.0000000  0.4667359  3
    186    183    182    191     1  0.0000000  1.4361539  1
     17     16     24     23     1  180.0000000  15.3215155  2
    140    141    144    164     1  180.0000000  15.3215155  2
    125    108    109    128     1  0.0000000  0.7999501  3
    110    108    109    128     1  0.0000000  0.4834079  3
    186    183    184    194     1  0.0000000  0.4667359  3
    186    183    184    194     1  0.0000000  1.4361539  1
    151    152    154    173     1  0.0000000  2.9370701  1
    151    152    154    173     1  180.0000000  0.4541786  2
    151    152    154    173     1  0.0000000  -0.0137622  3
    151    152    154    173     1  180.0000000  0.2506227  4
     94     93    102    122     1  180.0000000  15.3215155  2
    151    150    149    167     1  180.0000000  15.3215155  2
    139    138    145    165     1  180.0000000  15.3215155  2
     97    100    101    121     1  180.0000000  15.3215155  2
     65     64     66     85     1  0.0000000  -2.7499246  1
     65     64     66     85     1  180.0000000  0.2316686  2
     65     64     66     85     1  0.0000000  0.7195670  3
     65     64     66     85     1  180.0000000  -0.5023349  4
     93    102    103    113     1  180.0000000  15.3215155  2
     48     49     58     78     1  180.0000000  15.3215155  2
     37     20     21     38     1  0.0000000  0.7999501  3
    136    137    138    145     1  0.0000000  -0.0002972  1
    136    137    138    145     1  180.0000000  3.7054542  2
    136    137    138    145     1  0.0000000  0.0042734  3
    136    137    138    145     1  180.0000000  -0.0020717  4
    125    108    109    126     1  0.0000000  0.7999501  3
    110    108    109    126     1  0.0000000  0.4834079  3
     91     92     93    102     1  180.0000000  15.3215155  2
     47     46     45     71     1  0.0000000  0.1982205  3
     18     19     20     22     1  0.0000000  0.3641736  1
     18     19     20     22     1  180.0000000  1.4745304  2
     18     19     20     22     1  0.0000000  -0.1886673  3
     18     19     20     22     1  180.0000000  0.0219338  4
    104    105    106    107     1  180.0000000  15.3215155  2
     22     20     21     38     1  0.0000000  0.4834079  3
      5     14     15     25     1  180.0000000  15.3215155  2
      3      4      5     14     1  180.0000000  15.3215155  2
     66     98     97     96     1  0.0000000  0.1613956  1
     66     98     97     96     1  180.0000000  3.2228242  2
     66     98     97     96     1  0.0000000  0.1884454  3
     66     98     97     96     1  180.0000000  -0.2833812  4
    129    110    142    143     1  0.0000000  4.3399066  1
    129    110    142    143     1  180.0000000  9.6583295  2
    129    110    142    143     1  0.0000000  0.3201700  3
    129    110    142    143     1  180.0000000  -0.5367158  4
    137    138    139    140     1  180.0000000  15.3215155  2
    184    183    182    189     1  0.0000000  0.4354138  3
     92    117     91     93     4  180.0000000  1.5341333  2
     95     94     96    118     4  180.0000000  1.5341333  2
    149    148    150    167     4  180.0000000  1.5341333  2
    137    138    146    136     4  180.0000000  1.5341333  2
     49     48     50     58     4  180.0000000  1.5341333  2
    135    134    136    157     4  180.0000000  1.5341333  2
     23     19     24     42     4  180.0000000  1.5341333  2
    142    141    143    110     4  180.0000000  1.5341333  2
     51     74     50     52     4  180.0000000  1.5341333  2
    145    138    144    165     4  180.0000000  1.5341333  2
     54     22     53     55     4  180.0000000  1.5341333  2
     51     52     74     50     4  180.0000000  1.5341333  2
    151    152    155    150     4  180.0000000  1.5341333  2
    106    124    105    107     4  180.0000000  1.5341333  2
      7     30      6      8     4  180.0000000  1.5341333  2
     67     86     63     68     4  180.0000000  1.5341333  2
    113    103    132     91     4  180.0000000  1.5341333  2
    110    142    108    129     4  180.0000000  1.3946667  2
     56     76     53     57     4  180.0000000  1.5341333  2
      3      4     25      2     4  180.0000000  1.5341333  2
    111    112    130    107     4  180.0000000  1.5341333  2
     54     53     55     22     4  180.0000000  1.5341333  2
    136    137    161    135     4  180.0000000  1.5341333  2
    135    157    134    136     4  180.0000000  1.5341333  2
    139    138    140    162     4  180.0000000  1.5341333  2
     96     95     97    119     4  180.0000000  1.5341333  2
     15     14     16     25     4  180.0000000  1.5341333  2
     10      9     11    178     4  180.0000000  14.6440000  2
     48     47     49     73     4  180.0000000  1.5341333  2
    103    113    102    104     4  180.0000000  1.5341333  2
     50     57     49     51     4  180.0000000  1.5341333  2
    144    164    141    145     4  180.0000000  1.5341333  2
     51     50     52     74     4  180.0000000  1.5341333  2
    113     91    103    132     4  180.0000000  1.5341333  2
      6      5      7     13     4  180.0000000  1.5341333  2
    101     94    100    121     4  180.0000000  1.5341333  2
    142    110    141    143     4  180.0000000  1.5341333  2
     69     59     88     47     4  180.0000000  1.5341333  2
     97    100     96     98     4  180.0000000  1.5341333  2
    110    129    142    108     4  180.0000000  1.3946667  2
    141    142    144    140     4  180.0000000  1.5341333  2
    151    150    152    155     4  180.0000000  1.5341333  2
    156    155    175    148     4  180.0000000  1.5341333  2
     10     11    178      9     4  180.0000000  14.6440000  2
     91    113     90     92     4  180.0000000  1.5341333  2
     25     44      3     15     4  180.0000000  1.5341333  2
      3      2      4     25     4  180.0000000  1.5341333  2
      6      7     13      5     4  180.0000000  1.5341333  2
     12     13     32      9     4  180.0000000  1.5341333  2
     16     15     17     24     4  180.0000000  1.5341333  2
     68     67     87     60     4  180.0000000  1.5341333  2
    100     97    101    120     4  180.0000000  1.5341333  2
     48     73     47     49     4  180.0000000  1.5341333  2
      9      8     10     12     4  180.0000000  1.5341333  2
     96     97    119     95     4  180.0000000  1.5341333  2
     54     55     22     53     4  180.0000000  1.5341333  2
     94    101     93     95     4  180.0000000  1.5341333  2
     93     92     94    102     4  180.0000000  1.5341333  2
     18     17     19     36     4  180.0000000  1.5341333  2
     95     96    118     94     4  180.0000000  1.5341333  2
    187    186    188    154     4  180.0000000  14.6440000  2
    139    140    162    138     4  180.0000000  1.5341333  2
    145    144    165    138     4  180.0000000  1.5341333  2
     98     66     97     99     4  180.0000000  1.5341333  2
    187    154    186    188     4  180.0000000  14.6440000  2
     92     91     93    117     4  180.0000000  1.5341333  2
    139    162    138    140     4  180.0000000  1.5341333  2
      9     10     12      8     4  180.0000000  1.5341333  2
    144    145    164    141     4  180.0000000  1.5341333  2
    149    150    167    148     4  180.0000000  1.5341333  2
     50     51     57     49     4  180.0000000  1.5341333  2
    146    147    166    137     4  180.0000000  1.5341333  2
     97     96     98    100     4  180.0000000  1.5341333  2
    147    148    157    146     4  180.0000000  1.5341333  2
    155    151    156    174     4  180.0000000  1.5341333  2
    110    108    129    142     4  180.0000000  1.3946667  2
    101    100    121     94     4  180.0000000  1.5341333  2
     48     49     73     47     4  180.0000000  1.5341333  2
    150    149    151    168     4  180.0000000  1.5341333  2
     63     67     62     64     4  180.0000000  1.5341333  2
      3     25      2      4     4  180.0000000  1.5341333  2
     14     34      5     15     4  180.0000000  1.5341333  2
    104    105    112    103     4  180.0000000  1.5341333  2
    138    139    145    137     4  180.0000000  1.5341333  2
     14      5     15     34     4  180.0000000  1.5341333  2
     59     60     69     58     4  180.0000000  1.5341333  2
     57     77     50     56     4  180.0000000  1.5341333  2
     24     43     16     23     4  180.0000000  1.5341333  2
      7      8     30      6     4  180.0000000  1.5341333  2
    103    102    104    113     4  180.0000000  1.5341333  2
     18     19     36     17     4  180.0000000  1.5341333  2
     68     60     67     87     4  180.0000000  1.5341333  2
     98     99     66     97     4  180.0000000  1.5341333  2
    146    166    137    147     4  180.0000000  1.5341333  2
     61     60     62     79     4  180.0000000  1.5341333  2
     69     88     47     59     4  180.0000000  1.5341333  2
    147    146    148    157     4  180.0000000  1.5341333  2
     57     56     77     50     4  180.0000000  1.5341333  2
     92     93    117     91     4  180.0000000  1.5341333  2
    156    148    155    175     4  180.0000000  1.5341333  2
    113    132     91    103     4  180.0000000  1.5341333  2
     17     16     18     35     4  180.0000000  1.5341333  2
     15     16     25     14     4  180.0000000  1.5341333  2
     24     23     43     16     4  180.0000000  1.5341333  2
     22     41     54     20     4  180.0000000  1.3946667  2
    102     93    103    122     4  180.0000000  1.5341333  2
    137    146    136    138     4  180.0000000  1.5341333  2
     13     12     33      6     4  180.0000000  1.5341333  2
     24     16     23     43     4  180.0000000  1.5341333  2
    106    107    124    105     4  180.0000000  1.5341333  2
      4      3      5     29     4  180.0000000  1.5341333  2
     15     25     14     16     4  180.0000000  1.5341333  2
     18     36     17     19     4  180.0000000  1.5341333  2
     14     15     34      5     4  180.0000000  1.5341333  2
    141    144    140    142     4  180.0000000  1.5341333  2
     68     87     60     67     4  180.0000000  1.5341333  2
     17     18     35     16     4  180.0000000  1.5341333  2
     49     58     48     50     4  180.0000000  1.5341333  2
    156    175    148    155     4  180.0000000  1.5341333  2
     58     59     78     49     4  180.0000000  1.5341333  2
     16     17     24     15     4  180.0000000  1.5341333  2
    154    152    173    187     4  180.0000000  1.3946667  2
     19     20     23     18     4  180.0000000  1.5341333  2
     53     52     54     56     4  180.0000000  1.5341333  2
      8     31      7      9     4  180.0000000  1.5341333  2
     52     51     53     75     4  180.0000000  1.5341333  2
     53     54     56     52     4  180.0000000  1.5341333  2
     13     33      6     12     4  180.0000000  1.5341333  2
    155    174    151    156     4  180.0000000  1.5341333  2
    142    143    110    141     4  180.0000000  1.5341333  2
    101    121     94    100     4  180.0000000  1.5341333  2
     23     24     42     19     4  180.0000000  1.5341333  2
    137    136    138    146     4  180.0000000  1.5341333  2
    112    111    131    104     4  180.0000000  1.5341333  2
    100    120     97    101     4  180.0000000  1.5341333  2
     25      3     15     44     4  180.0000000  1.5341333  2
     63     64     67     62     4  180.0000000  1.5341333  2
     61     62     79     60     4  180.0000000  1.5341333  2
     56     57     76     53     4  180.0000000  1.5341333  2
    151    155    150    152     4  180.0000000  1.5341333  2
    146    137    147    166     4  180.0000000  1.5341333  2
      6     13      5      7     4  180.0000000  1.5341333  2
     93    102     92     94     4  180.0000000  1.5341333  2
     61     79     60     62     4  180.0000000  1.5341333  2
    138    137    139    145     4  180.0000000  1.5341333  2
      4     29      3      5     4  180.0000000  1.5341333  2
      9     12      8     10     4  180.0000000  1.5341333  2
    140    141    163    139     4  180.0000000  1.5341333  2
     22     54     20     41     4  180.0000000  1.3946667  2
     13      6     12     33     4  180.0000000  1.5341333  2
     60     68     59     61     4  180.0000000  1.5341333  2
     95    118     94     96     4  180.0000000  1.5341333  2
     47     69     46     48     4  180.0000000  1.5341333  2
    107    108    111    106     4  180.0000000  1.5341333  2
     59     69     58     60     4  180.0000000  1.5341333  2
    157    176    135    147     4  180.0000000  1.5341333  2
    149    167    148    150     4  180.0000000  1.5341333  2
     57     50     56     77     4  180.0000000  1.5341333  2
      5     14      4      6     4  180.0000000  1.5341333  2
     66     98     64     85     4  180.0000000  1.3946667  2
     96    119     95     97     4  180.0000000  1.5341333  2
    104    103    105    112     4  180.0000000  1.5341333  2
     97     98    100     96     4  180.0000000  1.5341333  2
     69     47     59     88     4  180.0000000  1.5341333  2
     50     49     51     57     4  180.0000000  1.5341333  2
     23     42     19     24     4  180.0000000  1.5341333  2
    144    141    145    164     4  180.0000000  1.5341333  2
    102    122     93    103     4  180.0000000  1.5341333  2
     47     46     48     69     4  180.0000000  1.5341333  2
    148    147    149    156     4  180.0000000  1.5341333  2
     67     63     68     86     4  180.0000000  1.5341333  2
    150    168    149    151     4  180.0000000  1.5341333  2
    147    157    146    148     4  180.0000000  1.5341333  2
     59     58     60     69     4  180.0000000  1.5341333  2
    148    149    156    147     4  180.0000000  1.5341333  2
      7      6      8     30     4  180.0000000  1.5341333  2
     49     50     58     48     4  180.0000000  1.5341333  2
    136    135    137    161     4  180.0000000  1.5341333  2
     94     93     95    101     4  180.0000000  1.5341333  2
    107    111    106    108     4  180.0000000  1.5341333  2
     10    178      9     11     4  180.0000000  14.6440000  2
     58     78     49     59     4  180.0000000  1.5341333  2
     91     92    113     90     4  180.0000000  1.5341333  2
    157    135    147    176     4  180.0000000  1.5341333  2
    100    101    120     97     4  180.0000000  1.5341333  2
    150    151    168    149     4  180.0000000  1.5341333  2
      8      9     31      7     4  180.0000000  1.5341333  2
    105    123    104    106     4  180.0000000  1.5341333  2
    111    107    112    130     4  180.0000000  1.5341333  2
     62     80     61     63     4  180.0000000  1.5341333  2
     66     64     85     98     4  180.0000000  1.3946667  2
    187    188    154    186     4  180.0000000  14.6440000  2
     63     62     64     67     4  180.0000000  1.5341333  2
     52     53     75     51     4  180.0000000  1.5341333  2
    102    103    122     93     4  180.0000000  1.5341333  2
     66     85     98     64     4  180.0000000  1.3946667  2
    157    147    176    135     4  180.0000000  1.5341333  2
    136    161    135    137     4  180.0000000  1.5341333  2
     47     48     69     46     4  180.0000000  1.5341333  2
    105    106    123    104     4  180.0000000  1.5341333  2
     16     24     15     17     4  180.0000000  1.5341333  2
    112    131    104    111     4  180.0000000  1.5341333  2
     19     23     18     20     4  180.0000000  1.5341333  2
    138    145    137    139     4  180.0000000  1.5341333  2
     19     18     20     23     4  180.0000000  1.5341333  2
     52     75     51     53     4  180.0000000  1.5341333  2
    104    112    103    105     4  180.0000000  1.5341333  2
    154    187    152    173     4  180.0000000  1.3946667  2
     60     61     68     59     4  180.0000000  1.5341333  2
    155    156    174    151     4  180.0000000  1.5341333  2
     17     35     16     18     4  180.0000000  1.5341333  2
     91     90     92    113     4  180.0000000  1.5341333  2
    105    104    106    123     4  180.0000000  1.5341333  2
      4      5     29      3     4  180.0000000  1.5341333  2
      5      4      6     14     4  180.0000000  1.5341333  2
     93     94    102     92     4  180.0000000  1.5341333  2
      8      7      9     31     4  180.0000000  1.5341333  2
     67     68     86     63     4  180.0000000  1.5341333  2
    140    163    139    141     4  180.0000000  1.5341333  2
    107    106    108    111     4  180.0000000  1.5341333  2
     60     59     61     68     4  180.0000000  1.5341333  2
     12     32      9     13     4  180.0000000  1.5341333  2
     53     56     52     54     4  180.0000000  1.5341333  2
    154    173    187    152     4  180.0000000  1.3946667  2
     12      9     13     32     4  180.0000000  1.5341333  2
    135    136    157    134     4  180.0000000  1.5341333  2
     62     61     63     80     4  180.0000000  1.5341333  2
    106    105    107    124     4  180.0000000  1.5341333  2
    140    139    141    163     4  180.0000000  1.5341333  2
     25     15     44      3     4  180.0000000  1.5341333  2
     56     53     57     76     4  180.0000000  1.5341333  2
     58     49     59     78     4  180.0000000  1.5341333  2
    103    104    113    102     4  180.0000000  1.5341333  2
     98     97     99     66     4  180.0000000  1.5341333  2
     94     95    101     93     4  180.0000000  1.5341333  2
    141    140    142    144     4  180.0000000  1.5341333  2
    112    104    111    131     4  180.0000000  1.5341333  2
    111    130    107    112     4  180.0000000  1.5341333  2
    148    156    147    149     4  180.0000000  1.5341333  2
     62     63     80     61     4  180.0000000  1.5341333  2
     22     20     41     54     4  180.0000000  1.3946667  2
    145    165    138    144     4  180.0000000  1.5341333  2
      5      6     14      4     4  180.0000000  1.5341333  2


[ moleculetype ]
; Name            nrexcl
MOL1          3

[ atoms ]
;   nr       type  resnr residue  atom   cgnr    charge       mass  typeB    chargeB      massB
; residue    1 MOL1 rtp MOL1 q -0.0
    1     MOL1_0      1   MOL1     Cl      1 -0.11398000  35.453200   ; qtot -0.113980
    2     MOL1_1      1   MOL1      C      2 0.22337000   9.994886   ; qtot 0.109390
    3     MOL1_2      1   MOL1     Cl      3 -0.11398000  35.453200   ; qtot -0.004590
    4     MOL1_3      1   MOL1     Cl      4 -0.11398000  35.453200   ; qtot -0.118570
    5     MOL1_4      1   MOL1      H      5 0.11857000   3.023841   ; qtot -0.000000

[ bonds ]
;    ai     aj funct         c0         c1         c2         c3
      1      2     1   0.17915 144269.526419
      2      3     1   0.17915 144269.526419
      2      4     1   0.17915 144269.526419
      2      5     1   0.10939 309655.084322

[ angles ]
;    ai     aj     ak funct         c0         c1         c2         c3
      1      2      5     1   116.5475863 445.222087
      3      2      4     1   116.5475863 445.222087
      1      2      3     1   116.5475863 445.222087
      3      2      5     1   116.5475863 445.222087
      1      2      4     1   116.5475863 445.222087
      4      2      5     1   116.5475863 445.222087

[ system ]
; Name
FOO

[ molecules ]
; Compound       #mols
pmp_tetramer.pdb      1
MOL1               634
