Generated by Interchange
3367
    1mop_t    C    1   1.722   3.988   4.462
    1mop_t    O    2   1.799   3.989   4.556
    1mop_t    C    3   1.609   4.081   4.449
    1mop_t    C    4   1.497   4.056   4.369
    1mop_t    C    5   1.397   4.154   4.359
    1mop_t    C    6   1.409   4.276   4.427
    1mop_t    C    7   1.306   4.381   4.420
    1mop_t    C    8   1.171   4.359   4.456
    1mop_t    C    9   1.076   4.460   4.435
    1mop_t    C   10   1.112   4.586   4.387
    1mop_t    O   11   1.008   4.673   4.375
    1mop_t    C   12   1.039   4.804   4.332
    1mop_t    C   13   1.246   4.611   4.359
    1mop_t    C   14   1.341   4.509   4.374
    1mop_t    C   15   1.125   4.233   4.513
    1mop_t    C   16   1.182   4.177   4.629
    1mop_t    C   17   1.141   4.053   4.677
    1mop_t    C   18   1.040   3.987   4.613
    1mop_t    C   19   0.980   4.044   4.498
    1mop_t    C   20   1.025   4.165   4.447
    1mop_t    C   21   0.876   3.970   4.421
    1mop_t    N   22   0.948   3.852   4.374
    1mop_t    C   23   0.763   3.950   4.524
    1mop_t    C   24   1.522   4.298   4.508
    1mop_t    C   25   1.620   4.201   4.520
    1mop_t    H   26   1.486   3.962   4.316
    1mop_t    H   27   1.310   4.132   4.298
    1mop_t    H   28   0.971   4.441   4.457
    1mop_t    H   29   0.947   4.862   4.330
    1mop_t    H   30   1.081   4.804   4.230
    1mop_t    H   31   1.108   4.853   4.402
    1mop_t    H   32   1.280   4.708   4.324
    1mop_t    H   33   1.444   4.530   4.348
    1mop_t    H   34   1.262   4.228   4.681
    1mop_t    H   35   1.188   4.008   4.764
    1mop_t    H   36   1.009   3.890   4.648
    1mop_t    H   37   0.983   4.202   4.354
    1mop_t    H   38   0.839   4.026   4.335
    1mop_t    H   39   0.969   3.789   4.447
    1mop_t    H   40   0.789   3.877   4.601
    1mop_t    H   41   0.668   3.920   4.484
    1mop_t    H   42   0.740   4.045   4.574
    1mop_t    H   43   1.532   4.389   4.566
    1mop_t    H   44   1.706   4.219   4.584
    1mop_t    C   45   1.041   3.860   4.270
    1mop_t    O   46   1.029   3.938   4.174
    1mop_t    C   47   1.163   3.773   4.283
    1mop_t    C   48   1.175   3.676   4.385
    1mop_t    C   49   1.294   3.605   4.405
    1mop_t    C   50   1.405   3.624   4.322
    1mop_t    C   51   1.530   3.547   4.343
    1mop_t    C   52   1.542   3.408   4.331
    1mop_t    C   53   1.663   3.340   4.359
    1mop_t    C   54   1.776   3.409   4.398
    1mop_t    O   55   1.890   3.337   4.422
    1mop_t    C   56   2.008   3.413   4.448
    1mop_t    C   57   1.763   3.545   4.413
    1mop_t    C   58   1.643   3.612   4.386
    1mop_t    C   59   1.426   3.329   4.299
    1mop_t    C   60   1.352   3.348   4.181
    1mop_t    C   61   1.235   3.277   4.158
    1mop_t    C   62   1.197   3.184   4.252
    1mop_t    C   63   1.273   3.166   4.370
    1mop_t    C   64   1.384   3.241   4.396
    1mop_t    C   65   1.230   3.070   4.475
    1mop_t    N   66   1.105   3.126   4.518
    1mop_t    C   67   1.234   2.936   4.399
    1mop_t    C   68   1.393   3.719   4.219
    1mop_t    C   69   1.273   3.793   4.200
    1mop_t    H   70   1.094   3.653   4.452
    1mop_t    H   71   1.298   3.534   4.488
    1mop_t    H   72   1.668   3.231   4.353
    1mop_t    H   73   2.090   3.343   4.467
    1mop_t    H   74   1.998   3.476   4.536
    1mop_t    H   75   2.036   3.473   4.360
    1mop_t    H   76   1.848   3.602   4.447
    1mop_t    H   77   1.635   3.719   4.401
    1mop_t    H   78   1.383   3.423   4.110
    1mop_t    H   79   1.175   3.295   4.070
    1mop_t    H   80   1.105   3.127   4.236
    1mop_t    H   81   1.435   3.233   4.492
    1mop_t    H   82   1.299   3.067   4.561
    1mop_t    H   83   1.034   3.117   4.447
    1mop_t    H   84   1.153   2.927   4.326
    1mop_t    H   85   1.230   2.847   4.460
    1mop_t    H   86   1.329   2.925   4.346
    1mop_t    H   87   1.477   3.739   4.154
    1mop_t    H   88   1.269   3.868   4.121
    1mop_t    C   89   1.097   3.242   4.595
    1mop_t    O   90   1.184   3.274   4.679
    1mop_t    C   91   0.981   3.334   4.566
    1mop_t    C   92   0.880   3.297   4.475
    1mop_t    C   93   0.783   3.387   4.434
    1mop_t    C   94   0.777   3.516   4.484
    1mop_t    C   95   0.672   3.607   4.433
    1mop_t    C   96   0.535   3.594   4.459
    1mop_t    C   97   0.444   3.691   4.407
    1mop_t    C   98   0.487   3.799   4.331
    1mop_t    O   99   0.392   3.893   4.302
    1mop_t    C  100   0.438   4.020   4.256
    1mop_t    C  101   0.619   3.801   4.291
    1mop_t    C  102   0.707   3.703   4.339
    1mop_t    C  103   0.482   3.475   4.524
    1mop_t    C  104   0.521   3.437   4.653
    1mop_t    C  105   0.477   3.316   4.706
    1mop_t    C  106   0.392   3.234   4.632
    1mop_t    C  107   0.352   3.271   4.503
    1mop_t    C  108   0.399   3.391   4.450
    1mop_t    C  109   0.267   3.182   4.414
    1mop_t    N  110   0.341   3.059   4.390
    1mop_t    C  111   0.132   3.158   4.481
    1mop_t    C  112   0.874   3.553   4.580
    1mop_t    C  113   0.975   3.463   4.620
    1mop_t    H  114   0.874   3.199   4.432
    1mop_t    H  115   0.710   3.354   4.360
    1mop_t    H  116   0.337   3.680   4.427
    1mop_t    H  117   0.349   4.081   4.233
    1mop_t    H  118   0.496   4.012   4.163
    1mop_t    H  119   0.494   4.074   4.333
    1mop_t    H  120   0.660   3.882   4.232
    1mop_t    H  121   0.809   3.703   4.304
    1mop_t    H  122   0.589   3.498   4.710
    1mop_t    H  123   0.512   3.285   4.805
    1mop_t    H  124   0.360   3.140   4.676
    1mop_t    H  125   0.376   3.416   4.346
    1mop_t    H  126   0.249   3.230   4.317
    1mop_t    H  127   0.340   2.997   4.469
    1mop_t    H  128   0.142   3.106   4.577
    1mop_t    H  129   0.066   3.098   4.418
    1mop_t    H  130   0.082   3.254   4.501
    1mop_t    H  131   0.873   3.653   4.624
    1mop_t    H  132   1.052   3.495   4.691
    1mop_t    C  133   0.459   3.069   4.315
    1mop_t    O  134   0.468   3.140   4.215
    1mop_t    C  135   0.580   2.998   4.367
    1mop_t    C  136   0.576   2.924   4.485
    1mop_t    C  137   0.689   2.861   4.538
    1mop_t    C  138   0.812   2.868   4.474
    1mop_t    C  139   0.928   2.798   4.537
    1mop_t    C  140   0.946   2.659   4.543
    1mop_t    C  141   1.063   2.605   4.603
    1mop_t    C  142   1.162   2.686   4.659
    1mop_t    O  143   1.276   2.623   4.700
    1mop_t    C  144   1.391   2.704   4.726
    1mop_t    C  145   1.135   2.821   4.669
    1mop_t    C  146   1.018   2.873   4.612
    1mop_t    C  147   0.840   2.568   4.501
    1mop_t    C  148   0.787   2.568   4.372
    1mop_t    C  149   0.677   2.489   4.340
    1mop_t    C  150   0.619   2.408   4.437
    1mop_t    C  151   0.670   2.407   4.568
    1mop_t    C  152   0.780   2.487   4.598
    1mop_t    C  153   0.604   2.330   4.680
    1mop_t    N  154   0.472   2.385   4.706
    1mop_t    C  155   0.609   2.181   4.650
    1mop_t    C  156   0.819   2.945   4.356
    1mop_t    C  157   0.705   3.010   4.304
    1mop_t    H  158   0.486   2.917   4.542
    1mop_t    H  159   0.680   2.804   4.631
    1mop_t    H  160   1.077   2.498   4.608
    1mop_t    H  161   1.470   2.638   4.764
    1mop_t    H  162   1.372   2.780   4.802
    1mop_t    H  163   1.429   2.750   4.634
    1mop_t    H  164   1.207   2.892   4.710
    1mop_t    H  165   0.996   2.978   4.625
    1mop_t    H  166   0.829   2.634   4.296
    1mop_t    H  167   0.634   2.494   4.240
    1mop_t    H  168   0.532   2.349   4.412
    1mop_t    H  169   0.815   2.493   4.701
    1mop_t    H  170   0.661   2.345   4.773
    1mop_t    H  171   0.393   2.357   4.649
    1mop_t    H  172   0.553   2.154   4.560
    1mop_t    H  173   0.570   2.122   4.733
    1mop_t    H  174   0.713   2.150   4.633
    1mop_t    H  175   0.913   2.957   4.304
    1mop_t    H  176   0.713   3.072   4.215
    1mop_t    C  177   1.854   3.839   4.346
    1mop_t    O  178   1.734   3.916   4.349
    1mop_t    H  179   1.937   3.900   4.313
    1mop_t    H  180   1.840   3.757   4.274
    1mop_t    H  181   1.876   3.797   4.445
    1mop_t    C  182   0.158   2.710   4.825
    1mop_t    C  183   0.309   2.692   4.812
    1mop_t    C  184   0.357   2.790   4.705
    1mop_t    C  185   0.374   2.726   4.947
    1mop_t    O  186   0.334   2.555   4.767
    1mop_t    C  187   0.463   2.511   4.760
    1mop_t    O  188   0.560   2.577   4.795
    1mop_t    H  189   0.132   2.812   4.856
    1mop_t    H  190   0.107   2.689   4.731
    1mop_t    H  191   0.117   2.641   4.900
    1mop_t    H  192   0.317   2.763   4.606
    1mop_t    H  193   0.466   2.785   4.699
    1mop_t    H  194   0.329   2.893   4.727
    1mop_t    H  195   0.347   2.653   5.023
    1mop_t    H  196   0.483   2.728   4.942
    1mop_t    H  197   0.344   2.826   4.981
    2MOL1    Cl  198   4.185   0.408   2.641
    2MOL1     C  199   4.351   0.353   2.668
    2MOL1    Cl  200   4.422   0.433   2.809
    2MOL1    Cl  201   4.355   0.177   2.688
    2MOL1     H  202   4.411   0.378   2.580
    2MOL1    Cl  203   1.678   2.713   4.316
    2MOL1     C  204   1.782   2.571   4.336
    2MOL1    Cl  205   1.913   2.605   4.450
    2MOL1    Cl  206   1.687   2.432   4.390
    2MOL1     H  207   1.826   2.546   4.239
    2MOL1    Cl  208   1.989   2.396   0.950
    2MOL1     C  209   1.823   2.340   0.974
    2MOL1    Cl  210   1.808   2.169   0.931
    2MOL1    Cl  211   1.771   2.368   1.141
    2MOL1     H  212   1.758   2.398   0.907
    2MOL1    Cl  213   2.670   0.562   3.874
    2MOL1     C  214   2.626   0.692   3.762
    2MOL1    Cl  215   2.460   0.670   3.705
    2MOL1    Cl  216   2.645   0.850   3.840
    2MOL1     H  217   2.693   0.688   3.676
    2MOL1    Cl  218   2.155   1.831   2.838
    2MOL1     C  219   2.321   1.770   2.832
    2MOL1    Cl  220   2.375   1.752   2.664
    2MOL1    Cl  221   2.430   1.877   2.922
    2MOL1     H  222   2.323   1.671   2.879
    2MOL1    Cl  223   5.013   1.109   0.567
    2MOL1     C  224   5.032   1.285   0.563
    2MOL1    Cl  225   5.193   1.332   0.618
    2MOL1    Cl  226   5.002   1.346   0.399
    2MOL1     H  227   4.958   1.329   0.630
    2MOL1    Cl  228   3.022   0.889   2.471
    2MOL1     C  229   2.883   0.803   2.538
    2MOL1    Cl  230   2.930   0.642   2.596
    2MOL1    Cl  231   2.809   0.897   2.669
    2MOL1     H  232   2.808   0.791   2.459
    2MOL1    Cl  233   3.913   3.979   4.836
    2MOL1     C  234   3.764   4.073   4.825
    2MOL1    Cl  235   3.735   4.126   4.658
    2MOL1    Cl  236   3.626   3.979   4.885
    2MOL1     H  237   3.775   4.162   4.887
    2MOL1    Cl  238   0.800   4.261   3.320
    2MOL1     C  239   0.768   4.186   3.477
    2MOL1    Cl  240   0.773   4.009   3.465
    2MOL1    Cl  241   0.884   4.243   3.598
    2MOL1     H  242   0.668   4.216   3.509
    2MOL1    Cl  243   3.831   1.270   2.696
    2MOL1     C  244   3.932   1.342   2.570
    2MOL1    Cl  245   4.023   1.216   2.484
    2MOL1    Cl  246   3.834   1.436   2.457
    2MOL1     H  247   4.004   1.409   2.618
    2MOL1    Cl  248   4.981   3.057   4.310
    2MOL1     C  249   4.890   3.105   4.454
    2MOL1    Cl  250   4.998   3.176   4.576
    2MOL1    Cl  251   4.761   3.219   4.412
    2MOL1     H  252   4.844   3.016   4.497
    2MOL1    Cl  253   0.490   2.841   1.640
    2MOL1     C  254   0.572   2.870   1.486
    2MOL1    Cl  255   0.616   2.717   1.409
    2MOL1    Cl  256   0.471   2.967   1.378
    2MOL1     H  257   0.664   2.926   1.506
    2MOL1    Cl  258   1.542   1.770   2.378
    2MOL1     C  259   1.530   1.936   2.440
    2MOL1    Cl  260   1.686   1.990   2.505
    2MOL1    Cl  261   1.474   2.045   2.312
    2MOL1     H  262   1.456   1.937   2.520
    2MOL1    Cl  263   4.347   4.278   0.643
    2MOL1     C  264   4.295   4.432   0.714
    2MOL1    Cl  265   4.119   4.435   0.734
    2MOL1    Cl  266   4.376   4.460   0.869
    2MOL1     H  267   4.323   4.513   0.646
    2MOL1    Cl  268   2.553   5.232   3.893
    2MOL1     C  269   2.669   5.207   3.762
    2MOL1    Cl  270   2.789   5.338   3.759
    2MOL1    Cl  271   2.749   5.050   3.779
    2MOL1     H  272   2.615   5.208   3.667
    2MOL1    Cl  273   3.029   1.792   3.085
    2MOL1     C  274   2.878   1.882   3.109
    2MOL1    Cl  275   2.905   2.056   3.093
    2MOL1    Cl  276   2.754   1.827   2.995
    2MOL1     H  277   2.842   1.862   3.211
    2MOL1    Cl  278   0.607   3.192   5.146
    2MOL1     C  279   0.692   3.108   5.016
    2MOL1    Cl  280   0.581   3.065   4.885
    2MOL1    Cl  281   0.826   3.206   4.955
    2MOL1     H  282   0.734   3.015   5.057
    2MOL1    Cl  283   4.688   3.554   2.294
    2MOL1     C  284   4.590   3.558   2.147
    2MOL1    Cl  285   4.656   3.447   2.025
    2MOL1    Cl  286   4.421   3.517   2.183
    2MOL1     H  287   4.592   3.659   2.106
    2MOL1    Cl  288   5.236   3.527   4.996
    2MOL1     C  289   5.199   3.681   4.916
    2MOL1    Cl  290   5.033   3.732   4.953
    2MOL1    Cl  291   5.315   3.805   4.964
    2MOL1     H  292   5.206   3.666   4.808
    2MOL1    Cl  293   2.124   1.014   3.380
    2MOL1     C  294   2.152   1.158   3.480
    2MOL1    Cl  295   2.303   1.238   3.434
    2MOL1    Cl  296   2.016   1.270   3.466
    2MOL1     H  297   2.160   1.126   3.584
    2MOL1    Cl  298   1.495   2.056   2.919
    2MOL1     C  299   1.359   2.034   2.808
    2MOL1    Cl  300   1.212   2.105   2.876
    2MOL1    Cl  301   1.395   2.105   2.650
    2MOL1     H  302   1.342   1.927   2.795
    2MOL1    Cl  303   3.208   4.818   4.893
    2MOL1     C  304   3.118   4.696   4.801
    2MOL1    Cl  305   3.062   4.566   4.908
    2MOL1    Cl  306   2.982   4.770   4.716
    2MOL1     H  307   3.186   4.653   4.727
    2MOL1    Cl  308   2.857   2.561   1.975
    2MOL1     C  309   2.707   2.472   2.005
    2MOL1    Cl  310   2.715   2.387   2.160
    2MOL1    Cl  311   2.567   2.581   2.001
    2MOL1     H  312   2.694   2.398   1.926
    2MOL1    Cl  313   2.891   1.963   5.033
    2MOL1     C  314   2.735   2.038   5.067
    2MOL1    Cl  315   2.637   1.935   5.173
    2MOL1    Cl  316   2.757   2.198   5.139
    2MOL1     H  317   2.681   2.050   4.972
    2MOL1    Cl  318   4.785   0.163   1.343
    2MOL1     C  319   4.876   0.298   1.271
    2MOL1    Cl  320   4.926   0.413   1.396
    2MOL1    Cl  321   5.016   0.237   1.182
    2MOL1     H  322   4.810   0.350   1.201
    2MOL1    Cl  323   2.882   0.823   1.293
    2MOL1     C  324   3.057   0.842   1.280
    2MOL1    Cl  325   3.123   0.732   1.156
    2MOL1    Cl  326   3.099   1.010   1.242
    2MOL1     H  327   3.102   0.816   1.376
    2MOL1    Cl  328   3.795   3.343   1.856
    2MOL1     C  329   3.942   3.245   1.855
    2MOL1    Cl  330   3.919   3.100   1.756
    2MOL1    Cl  331   4.080   3.339   1.796
    2MOL1     H  332   3.963   3.213   1.957
    2MOL1    Cl  333   1.196   0.982   3.538
    2MOL1     C  334   1.147   0.863   3.660
    2MOL1    Cl  335   1.090   0.944   3.807
    2MOL1    Cl  336   1.021   0.756   3.595
    2MOL1     H  337   1.234   0.802   3.686
    2MOL1    Cl  338   0.525   5.183   4.202
    2MOL1     C  339   0.687   5.176   4.130
    2MOL1    Cl  340   0.689   5.062   3.994
    2MOL1    Cl  341   0.740   5.336   4.077
    2MOL1     H  342   0.757   5.139   4.206
    2MOL1    Cl  343   3.011   3.750   3.432
    2MOL1     C  344   2.869   3.661   3.490
    2MOL1    Cl  345   2.907   3.574   3.639
    2MOL1    Cl  346   2.733   3.771   3.514
    2MOL1     H  347   2.841   3.588   3.413
    2MOL1    Cl  348   0.534   0.997   2.445
    2MOL1     C  349   0.376   0.918   2.451
    2MOL1    Cl  350   0.261   1.002   2.344
    2MOL1    Cl  351   0.389   0.747   2.406
    2MOL1     H  352   0.338   0.924   2.553
    2MOL1    Cl  353   5.053   1.849   2.082
    2MOL1     C  354   5.016   2.017   2.124
    2MOL1    Cl  355   5.056   2.124   1.989
    2MOL1    Cl  356   4.846   2.034   2.169
    2MOL1     H  357   5.078   2.045   2.210
    2MOL1    Cl  358   1.322   3.696   2.228
    2MOL1     C  359   1.240   3.558   2.301
    2MOL1    Cl  360   1.282   3.408   2.217
    2MOL1    Cl  361   1.280   3.546   2.474
    2MOL1     H  362   1.132   3.573   2.292
    2MOL1    Cl  363   3.957   1.330   2.196
    2MOL1     C  364   3.920   1.414   2.045
    2MOL1    Cl  365   3.995   1.575   2.043
    2MOL1    Cl  366   3.974   1.319   1.906
    2MOL1     H  367   3.812   1.426   2.038
    2MOL1    Cl  368   0.842   1.995   2.016
    2MOL1     C  369   0.826   2.139   2.117
    2MOL1    Cl  370   0.836   2.097   2.289
    2MOL1    Cl  371   0.950   2.258   2.076
    2MOL1     H  372   0.728   2.184   2.098
    2MOL1    Cl  373   2.262   3.684   1.809
    2MOL1     C  374   2.107   3.754   1.762
    2MOL1    Cl  375   2.131   3.901   1.666
    2MOL1    Cl  376   2.010   3.636   1.672
    2MOL1     H  377   2.052   3.781   1.853
    2MOL1    Cl  378   1.210   4.562   1.127
    2MOL1     C  379   1.034   4.555   1.127
    2MOL1    Cl  380   0.965   4.716   1.156
    2MOL1    Cl  381   0.974   4.490   0.973
    2MOL1     H  382   1.002   4.489   1.207
    2MOL1    Cl  383   0.391   1.386   4.793
    2MOL1     C  384   0.260   1.269   4.816
    2MOL1    Cl  385   0.312   1.136   4.920
    2MOL1    Cl  386   0.116   1.348   4.882
    2MOL1     H  387   0.234   1.228   4.718
    2MOL1    Cl  388   1.487   3.713   4.826
    2MOL1     C  389   1.373   3.849   4.818
    2MOL1    Cl  390   1.418   3.961   4.689
    2MOL1    Cl  391   1.208   3.790   4.796
    2MOL1     H  392   1.378   3.903   4.913
    2MOL1    Cl  393   0.409   0.836   4.726
    2MOL1     C  394   0.312   0.747   4.844
    2MOL1    Cl  395   0.400   0.604   4.901
    2MOL1    Cl  396   0.269   0.852   4.980
    2MOL1     H  397   0.220   0.714   4.796
    2MOL1    Cl  398   1.162   4.116   2.242
    2MOL1     C  399   1.092   4.278   2.225
    2MOL1    Cl  400   1.210   4.402   2.271
    2MOL1    Cl  401   1.036   4.304   2.059
    2MOL1     H  402   1.006   4.285   2.291
    2MOL1    Cl  403   3.637   4.043   0.020
    2MOL1     C  404   3.686   4.112   0.175
    2MOL1    Cl  405   3.849   4.180   0.164
    2MOL1    Cl  406   3.570   4.235   0.229
    2MOL1     H  407   3.687   4.031   0.250
    2MOL1    Cl  408   1.456   1.440   1.532
    2MOL1     C  409   1.577   1.513   1.425
    2MOL1    Cl  410   1.503   1.636   1.322
    2MOL1    Cl  411   1.709   1.584   1.520
    2MOL1     H  412   1.619   1.435   1.362
    2MOL1    Cl  413   3.512   0.509   2.244
    2MOL1     C  414   3.484   0.678   2.288
    2MOL1    Cl  415   3.335   0.693   2.383
    2MOL1    Cl  416   3.622   0.744   2.376
    2MOL1     H  417   3.471   0.736   2.196
    2MOL1    Cl  418   0.014   0.532   2.016
    2MOL1     C  419   0.160   0.629   1.993
    2MOL1    Cl  420   0.153   0.717   1.840
    2MOL1    Cl  421   0.181   0.742   2.128
    2MOL1     H  422   0.246   0.562   1.991
    2MOL1    Cl  423   3.799   2.634   0.968
    2MOL1     C  424   3.858   2.640   1.135
    2MOL1    Cl  425   3.804   2.498   1.226
    2MOL1    Cl  426   4.035   2.652   1.138
    2MOL1     H  427   3.817   2.729   1.183
    2MOL1    Cl  428   4.997   1.932   3.488
    2MOL1     C  429   4.953   1.772   3.427
    2MOL1    Cl  430   4.994   1.646   3.545
    2MOL1    Cl  431   4.780   1.765   3.388
    2MOL1     H  432   5.009   1.753   3.335
    2MOL1    Cl  433   2.137   3.498   2.467
    2MOL1     C  434   2.005   3.602   2.412
    2MOL1    Cl  435   2.061   3.712   2.285
    2MOL1    Cl  436   1.869   3.504   2.354
    2MOL1     H  437   1.970   3.662   2.497
    2MOL1    Cl  438   0.578   0.222   4.714
    2MOL1     C  439   0.563   0.262   4.886
    2MOL1    Cl  440   0.579   0.116   4.985
    2MOL1    Cl  441   0.683   0.383   4.932
    2MOL1     H  442   0.463   0.304   4.902
    2MOL1    Cl  443   4.674   0.521   4.485
    2MOL1     C  444   4.575   0.661   4.532
    2MOL1    Cl  445   4.440   0.610   4.636
    2MOL1    Cl  446   4.674   0.783   4.613
    2MOL1     H  447   4.533   0.705   4.441
    2MOL1    Cl  448   3.946   4.536   1.465
    2MOL1     C  449   3.854   4.679   1.515
    2MOL1    Cl  450   3.790   4.657   1.679
    2MOL1    Cl  451   3.955   4.824   1.507
    2MOL1     H  452   3.770   4.691   1.447
    2MOL1    Cl  453   4.375   4.440   4.904
    2MOL1     C  454   4.488   4.576   4.902
    2MOL1    Cl  455   4.488   4.659   5.058
    2MOL1    Cl  456   4.651   4.520   4.861
    2MOL1     H  457   4.456   4.646   4.825
    2MOL1    Cl  458   4.192   4.244   1.622
    2MOL1     C  459   4.100   4.341   1.738
    2MOL1    Cl  460   4.185   4.491   1.777
    2MOL1    Cl  461   3.938   4.376   1.675
    2MOL1     H  462   4.089   4.283   1.830
    2MOL1    Cl  463   3.790   3.953   3.292
    2MOL1     C  464   3.856   4.091   3.381
    2MOL1    Cl  465   3.736   4.220   3.393
    2MOL1    Cl  466   3.910   4.040   3.543
    2MOL1     H  467   3.943   4.129   3.327
    2MOL1    Cl  468   0.283   0.770   3.363
    2MOL1     C  469   0.373   0.911   3.422
    2MOL1    Cl  470   0.542   0.903   3.368
    2MOL1    Cl  471   0.298   1.061   3.366
    2MOL1     H  472   0.372   0.910   3.531
    2MOL1    Cl  473   2.960   2.568   2.980
    2MOL1     C  474   3.050   2.662   2.861
    2MOL1    Cl  475   3.067   2.571   2.710
    2MOL1    Cl  476   2.971   2.817   2.831
    2MOL1     H  477   3.150   2.682   2.901
    2MOL1    Cl  478   3.853   2.417   2.377
    2MOL1     C  479   3.678   2.428   2.404
    2MOL1    Cl  480   3.620   2.285   2.491
    2MOL1    Cl  481   3.638   2.576   2.492
    2MOL1     H  482   3.629   2.431   2.306
    2MOL1    Cl  483   5.061   0.647   2.606
    2MOL1     C  484   5.015   0.687   2.440
    2MOL1    Cl  485   5.158   0.711   2.339
    2MOL1    Cl  486   4.911   0.560   2.372
    2MOL1     H  487   4.958   0.780   2.442
    2MOL1    Cl  488   0.385   0.308   3.021
    2MOL1     C  489   0.364   0.142   3.077
    2MOL1    Cl  490   0.194   0.095   3.070
    2MOL1    Cl  491   0.464   0.030   2.983
    2MOL1     H  492   0.397   0.137   3.182
    2MOL1    Cl  493   5.202   3.667   1.479
    2MOL1     C  494   5.162   3.708   1.312
    2MOL1    Cl  495   4.987   3.709   1.287
    2MOL1    Cl  496   5.233   3.864   1.267
    2MOL1     H  497   5.205   3.631   1.247
    2MOL1    Cl  498   1.418   3.266   1.066
    2MOL1     C  499   1.516   3.300   0.922
    2MOL1    Cl  500   1.445   3.222   0.779
    2MOL1    Cl  501   1.531   3.474   0.897
    2MOL1     H  502   1.616   3.259   0.938
    2MOL1    Cl  503   2.781   4.572   4.282
    2MOL1     C  504   2.755   4.409   4.220
    2MOL1    Cl  505   2.886   4.301   4.272
    2MOL1    Cl  506   2.598   4.346   4.272
    2MOL1     H  507   2.756   4.413   4.110
    2MOL1    Cl  508   4.479   1.838   0.308
    2MOL1     C  509   4.636   1.760   0.327
    2MOL1    Cl  510   4.655   1.627   0.211
    2MOL1    Cl  511   4.767   1.877   0.309
    2MOL1     H  512   4.641   1.718   0.428
    2MOL1    Cl  513   2.948   4.637   4.434
    2MOL1     C  514   2.919   4.810   4.459
    2MOL1    Cl  515   2.785   4.836   4.572
    2MOL1    Cl  516   3.066   4.889   4.519
    2MOL1     H  517   2.893   4.855   4.363
    2MOL1    Cl  518   3.745   4.084   2.245
    2MOL1     C  519   3.753   4.134   2.076
    2MOL1    Cl  520   3.647   4.273   2.047
    2MOL1    Cl  521   3.920   4.173   2.030
    2MOL1     H  522   3.719   4.051   2.013
    2MOL1    Cl  523   0.820   0.319   3.375
    2MOL1     C  524   0.939   0.206   3.442
    2MOL1    Cl  525   0.886   0.039   3.416
    2MOL1    Cl  526   1.098   0.233   3.369
    2MOL1     H  527   0.946   0.224   3.549
    2MOL1    Cl  528   0.805   1.423   2.596
    2MOL1     C  529   0.978   1.386   2.610
    2MOL1    Cl  530   1.038   1.430   2.771
    2MOL1    Cl  531   1.008   1.215   2.577
    2MOL1     H  532   1.031   1.446   2.536
    2MOL1    Cl  533   1.275   0.932   2.310
    2MOL1     C  534   1.140   0.818   2.322
    2MOL1    Cl  535   1.065   0.795   2.163
    2MOL1    Cl  536   1.195   0.664   2.389
    2MOL1     H  537   1.065   0.860   2.390
    2MOL1    Cl  538   2.760   1.126   3.879
    2MOL1     C  539   2.925   1.183   3.908
    2MOL1    Cl  540   2.924   1.327   4.011
    2MOL1    Cl  541   3.024   1.055   3.980
    2MOL1     H  542   2.969   1.210   3.811
    2MOL1    Cl  543   4.568   5.261   1.140
    2MOL1     C  544   4.634   5.141   1.253
    2MOL1    Cl  545   4.688   5.219   1.402
    2MOL1    Cl  546   4.514   5.016   1.288
    2MOL1     H  547   4.720   5.093   1.206
    2MOL1    Cl  548   0.681   4.460   0.389
    2MOL1     C  549   0.522   4.414   0.327
    2MOL1    Cl  550   0.404   4.543   0.357
    2MOL1    Cl  551   0.531   4.376   0.154
    2MOL1     H  552   0.489   4.324   0.380
    2MOL1    Cl  553   2.330   3.567   2.256
    2MOL1     C  554   2.430   3.427   2.214
    2MOL1    Cl  555   2.592   3.443   2.284
    2MOL1    Cl  556   2.353   3.277   2.270
    2MOL1     H  557   2.439   3.422   2.106
    2MOL1    Cl  558   0.380   3.311   1.033
    2MOL1     C  559   0.371   3.143   1.088
    2MOL1    Cl  560   0.377   3.135   1.265
    2MOL1    Cl  561   0.224   3.065   1.027
    2MOL1     H  562   0.457   3.089   1.048
    2MOL1    Cl  563   3.453   3.789   1.031
    2MOL1     C  564   3.368   3.634   1.030
    2MOL1    Cl  565   3.482   3.501   1.000
    2MOL1    Cl  566   3.282   3.610   1.183
    2MOL1     H  567   3.295   3.635   0.949
    2MOL1    Cl  568   3.133   2.897   4.999
    2MOL1     C  569   3.238   3.004   4.906
    2MOL1    Cl  570   3.228   3.170   4.968
    2MOL1    Cl  571   3.406   2.946   4.910
    2MOL1     H  572   3.205   3.004   4.802
    2MOL1    Cl  573   1.023   1.440   1.959
    2MOL1     C  574   1.097   1.288   1.907
    2MOL1    Cl  575   1.218   1.234   2.024
    2MOL1    Cl  576   0.973   1.163   1.883
    2MOL1     H  577   1.147   1.305   1.811
    2MOL1    Cl  578   1.978   2.704   4.634
    2MOL1     C  579   1.984   2.653   4.804
    2MOL1    Cl  580   1.951   2.790   4.911
    2MOL1    Cl  581   1.870   2.521   4.833
    2MOL1     H  582   2.085   2.617   4.825
    2MOL1    Cl  583   2.083   4.226   4.202
    2MOL1     C  584   2.211   4.106   4.225
    2MOL1    Cl  585   2.345   4.175   4.318
    2MOL1    Cl  586   2.148   3.961   4.305
    2MOL1     H  587   2.249   4.077   4.126
    2MOL1    Cl  588   0.950   0.376   0.166
    2MOL1     C  589   0.776   0.349   0.152
    2MOL1    Cl  590   0.696   0.489   0.078
    2MOL1    Cl  591   0.743   0.202   0.058
    2MOL1     H  592   0.735   0.335   0.252
    2MOL1    Cl  593   1.117   0.514   3.068
    2MOL1     C  594   1.086   0.658   2.968
    2MOL1    Cl  595   0.924   0.721   2.999
    2MOL1    Cl  596   1.209   0.782   2.998
    2MOL1     H  597   1.092   0.628   2.863
    2MOL1    Cl  598   4.642   3.305   3.149
    2MOL1     C  599   4.529   3.212   3.249
    2MOL1    Cl  600   4.478   3.307   3.390
    2MOL1    Cl  601   4.389   3.161   3.154
    2MOL1     H  602   4.581   3.123   3.285
    2MOL1    Cl  603   3.322   4.832   5.285
    2MOL1     C  604   3.160   4.784   5.231
    2MOL1    Cl  605   3.094   4.903   5.117
    2MOL1    Cl  606   3.165   4.623   5.156
    2MOL1     H  607   3.094   4.780   5.318
    2MOL1    Cl  608   1.712   0.069   3.665
    2MOL1     C  609   1.834   0.109   3.543
    2MOL1    Cl  610   1.797   0.029   3.389
    2MOL1    Cl  611   1.845   0.284   3.522
    2MOL1     H  612   1.931   0.073   3.578
    2MOL1    Cl  613   1.139   0.873   4.015
    2MOL1     C  614   0.980   0.809   4.061
    2MOL1    Cl  615   0.851   0.914   4.001
    2MOL1    Cl  616   0.960   0.643   4.001
    2MOL1     H  617   0.975   0.807   4.170
    2MOL1    Cl  618   1.960   5.246   2.291
    2MOL1     C  619   2.057   5.144   2.398
    2MOL1    Cl  620   2.088   5.228   2.552
    2MOL1    Cl  621   1.976   4.989   2.428
    2MOL1     H  622   2.153   5.124   2.350
    2MOL1    Cl  623   1.150   1.408   2.354
    2MOL1     C  624   1.276   1.343   2.460
    2MOL1    Cl  625   1.341   1.192   2.394
    2MOL1    Cl  626   1.406   1.462   2.482
    2MOL1     H  627   1.232   1.322   2.558
    2MOL1    Cl  628   1.572   1.782   0.078
    2MOL1     C  629   1.625   1.643   0.174
    2MOL1    Cl  630   1.523   1.625   0.318
    2MOL1    Cl  631   1.622   1.495   0.077
    2MOL1     H  632   1.728   1.661   0.207
    2MOL1    Cl  633   4.066   3.145   2.513
    2MOL1     C  634   4.238   3.111   2.487
    2MOL1    Cl  635   4.258   2.972   2.379
    2MOL1    Cl  636   4.320   3.253   2.421
    2MOL1     H  637   4.283   3.087   2.583
    2MOL1    Cl  638   3.058   4.856   1.263
    2MOL1     C  639   2.947   4.935   1.376
    2MOL1    Cl  640   2.793   4.972   1.296
    2MOL1    Cl  641   2.921   4.834   1.519
    2MOL1     H  642   2.992   5.030   1.408
    2MOL1    Cl  643   4.412   2.486   3.490
    2MOL1     C  644   4.316   2.462   3.343
    2MOL1    Cl  645   4.394   2.541   3.205
    2MOL1    Cl  646   4.293   2.289   3.312
    2MOL1     H  647   4.218   2.508   3.358
    2MOL1    Cl  648   4.141   0.841   3.633
    2MOL1     C  649   4.311   0.798   3.657
    2MOL1    Cl  650   4.337   0.733   3.820
    2MOL1    Cl  651   4.363   0.681   3.534
    2MOL1     H  652   4.372   0.888   3.646
    2MOL1    Cl  653   4.122   1.104   3.358
    2MOL1     C  654   4.263   1.010   3.306
    2MOL1    Cl  655   4.218   0.899   3.175
    2MOL1    Cl  656   4.394   1.118   3.253
    2MOL1     H  657   4.298   0.951   3.390
    2MOL1    Cl  658   2.115   0.161   3.481
    2MOL1     C  659   2.117   0.312   3.388
    2MOL1    Cl  660   2.069   0.283   3.220
    2MOL1    Cl  661   2.012   0.433   3.464
    2MOL1     H  662   2.220   0.350   3.389
    2MOL1    Cl  663   0.663   4.502   3.571
    2MOL1     C  664   0.517   4.477   3.667
    2MOL1    Cl  665   0.546   4.358   3.795
    2MOL1    Cl  666   0.462   4.631   3.736
    2MOL1     H  667   0.438   4.439   3.601
    2MOL1    Cl  668   0.198   1.948   4.959
    2MOL1     C  669   0.296   1.985   4.816
    2MOL1    Cl  670   0.467   1.956   4.849
    2MOL1    Cl  671   0.242   1.888   4.677
    2MOL1     H  672   0.282   2.090   4.792
    2MOL1    Cl  673   1.168   5.254   5.291
    2MOL1     C  674   1.070   5.136   5.204
    2MOL1    Cl  675   0.956   5.218   5.095
    2MOL1    Cl  676   1.173   5.024   5.113
    2MOL1     H  677   1.012   5.078   5.277
    2MOL1    Cl  678   1.048   2.326   1.211
    2MOL1     C  679   0.899   2.296   1.120
    2MOL1    Cl  680   0.765   2.391   1.186
    2MOL1    Cl  681   0.923   2.333   0.948
    2MOL1     H  682   0.874   2.190   1.129
    2MOL1    Cl  683   4.959   1.659   2.326
    2MOL1     C  684   4.794   1.711   2.366
    2MOL1    Cl  685   4.749   1.854   2.271
    2MOL1    Cl  686   4.679   1.580   2.339
    2MOL1     H  687   4.792   1.738   2.472
    2MOL1    Cl  688   3.074   1.263   2.646
    2MOL1     C  689   2.923   1.344   2.601
    2MOL1    Cl  690   2.939   1.422   2.443
    2MOL1    Cl  691   2.788   1.229   2.600
    2MOL1     H  692   2.902   1.421   2.675
    2MOL1    Cl  693   3.099   0.498   2.523
    2MOL1     C  694   3.220   0.538   2.647
    2MOL1    Cl  695   3.159   0.496   2.808
    2MOL1    Cl  696   3.372   0.454   2.614
    2MOL1     H  697   3.239   0.645   2.643
    2MOL1    Cl  698   2.466   4.777   1.082
    2MOL1     C  699   2.391   4.629   1.143
    2MOL1    Cl  700   2.514   4.512   1.193
    2MOL1    Cl  701   2.282   4.666   1.278
    2MOL1     H  702   2.332   4.584   1.063
    2MOL1    Cl  703   0.658   3.489   4.192
    2MOL1     C  704   0.544   3.447   4.062
    2MOL1    Cl  705   0.551   3.567   3.932
    2MOL1    Cl  706   0.578   3.285   3.999
    2MOL1     H  707   0.443   3.447   4.104
    2MOL1    Cl  708   2.623   0.241   1.702
    2MOL1     C  709   2.472   0.150   1.719
    2MOL1    Cl  710   2.406   0.109   1.560
    2MOL1    Cl  711   2.498   0.004   1.815
    2MOL1     H  712   2.400   0.213   1.771
    2MOL1    Cl  713   2.673   4.992   3.580
    2MOL1     C  714   2.548   4.914   3.678
    2MOL1    Cl  715   2.597   4.907   3.848
    2MOL1    Cl  716   2.393   5.000   3.661
    2MOL1     H  717   2.534   4.812   3.641
    2MOL1    Cl  718   3.778   3.534   4.912
    2MOL1     C  719   3.629   3.577   4.827
    2MOL1    Cl  720   3.590   3.748   4.851
    2MOL1    Cl  721   3.643   3.540   4.654
    2MOL1     H  722   3.548   3.516   4.868
    2MOL1    Cl  723   1.719   0.438   4.722
    2MOL1     C  724   1.692   0.264   4.747
    2MOL1    Cl  725   1.815   0.196   4.854
    2MOL1    Cl  726   1.529   0.235   4.812
    2MOL1     H  727   1.699   0.214   4.650
    2MOL1    Cl  728   3.477   3.939   1.878
    2MOL1     C  729   3.403   3.781   1.905
    2MOL1    Cl  730   3.340   3.714   1.753
    2MOL1    Cl  731   3.520   3.670   1.979
    2MOL1     H  732   3.319   3.794   1.974
    2MOL1    Cl  733   0.001   2.609   2.208
    2MOL1     C  734   0.144   2.709   2.236
    2MOL1    Cl  735   0.256   2.628   2.347
    2MOL1    Cl  736   0.225   2.747   2.083
    2MOL1     H  737   0.112   2.803   2.283
    2MOL1    Cl  738   2.014   0.872   3.674
    2MOL1     C  739   1.876   0.912   3.571
    2MOL1    Cl  740   1.814   0.767   3.490
    2MOL1    Cl  741   1.748   0.989   3.665
    2MOL1     H  742   1.909   0.982   3.494
    2MOL1    Cl  743   1.596   4.488   3.720
    2MOL1     C  744   1.440   4.560   3.678
    2MOL1    Cl  745   1.397   4.689   3.791
    2MOL1    Cl  746   1.443   4.621   3.511
    2MOL1     H  747   1.363   4.482   3.684
    2MOL1    Cl  748   1.191   3.329   3.475
    2MOL1     C  749   1.308   3.264   3.590
    2MOL1    Cl  750   1.424   3.158   3.508
    2MOL1    Cl  751   1.392   3.395   3.674
    2MOL1     H  752   1.254   3.204   3.664
    2MOL1    Cl  753   4.781   2.494   2.498
    2MOL1     C  754   4.860   2.338   2.472
    2MOL1    Cl  755   4.941   2.284   2.619
    2MOL1    Cl  756   4.743   2.217   2.416
    2MOL1     H  757   4.935   2.351   2.394
    2MOL1    Cl  758   2.271   1.325   1.701
    2MOL1     C  759   2.360   1.418   1.823
    2MOL1    Cl  760   2.270   1.564   1.869
    2MOL1    Cl  761   2.392   1.317   1.966
    2MOL1     H  762   2.456   1.448   1.780
    2MOL1    Cl  763   1.260   0.239   3.576
    2MOL1     C  764   1.316   0.150   3.718
    2MOL1    Cl  765   1.223   0.001   3.740
    2MOL1    Cl  766   1.489   0.113   3.704
    2MOL1     H  767   1.302   0.213   3.806
    2MOL1    Cl  768   4.392   3.971   2.879
    2MOL1     C  769   4.352   3.816   2.802
    2MOL1    Cl  770   4.276   3.843   2.644
    2MOL1    Cl  771   4.497   3.716   2.785
    2MOL1     H  772   4.281   3.763   2.866
    2MOL1    Cl  773   4.618   1.300   4.071
    2MOL1     C  774   4.441   1.297   4.068
    2MOL1    Cl  775   4.375   1.455   4.112
    2MOL1    Cl  776   4.382   1.247   3.909
    2MOL1     H  777   4.407   1.224   4.142
    2MOL1    Cl  778   3.645   2.106   2.678
    2MOL1     C  779   3.816   2.075   2.714
    2MOL1    Cl  780   3.838   1.908   2.771
    2MOL1    Cl  781   3.916   2.105   2.571
    2MOL1     H  782   3.847   2.143   2.793
    2MOL1    Cl  783   5.151   4.079   3.287
    2MOL1     C  784   4.991   4.028   3.340
    2MOL1    Cl  785   5.001   3.939   3.493
    2MOL1    Cl  786   4.883   4.167   3.355
    2MOL1     H  787   4.949   3.961   3.264
    2MOL1    Cl  788   0.401   1.756   0.639
    2MOL1     C  789   0.464   1.904   0.565
    2MOL1    Cl  790   0.604   1.868   0.463
    2MOL1    Cl  791   0.337   1.985   0.471
    2MOL1     H  792   0.496   1.971   0.645
    2MOL1    Cl  793   3.795   1.655   3.626
    2MOL1     C  794   3.644   1.748   3.618
    2MOL1    Cl  795   3.658   1.898   3.712
    2MOL1    Cl  796   3.603   1.784   3.449
    2MOL1     H  797   3.564   1.688   3.660
    2MOL1    Cl  798   1.444   2.576   3.042
    2MOL1     C  799   1.447   2.413   2.972
    2MOL1    Cl  800   1.528   2.300   3.081
    2MOL1    Cl  801   1.283   2.358   2.934
    2MOL1     H  802   1.504   2.418   2.878
    2MOL1    Cl  803   0.469   3.055   0.034
    2MOL1     C  804   0.317   3.052   0.125
    2MOL1    Cl  805   0.230   3.205   0.105
    2MOL1    Cl  806   0.216   2.916   0.074
    2MOL1     H  807   0.340   3.040   0.231
    2MOL1    Cl  808   0.750   4.507   5.014
    2MOL1     C  809   0.817   4.671   5.020
    2MOL1    Cl  810   0.932   4.697   4.888
    2MOL1    Cl  811   0.687   4.792   5.015
    2MOL1     H  812   0.870   4.683   5.115
    2MOL1    Cl  813   4.815   4.919   0.081
    2MOL1     C  814   4.670   4.835   0.138
    2MOL1    Cl  815   4.548   4.829   0.010
    2MOL1    Cl  816   4.711   4.671   0.193
    2MOL1     H  817   4.629   4.890   0.223
    2MOL1    Cl  818   0.796   1.487   0.684
    2MOL1     C  819   0.810   1.525   0.857
    2MOL1    Cl  820   0.652   1.509   0.936
    2MOL1    Cl  821   0.930   1.420   0.934
    2MOL1     H  822   0.843   1.629   0.867
    2MOL1    Cl  823   2.486   0.459   3.540
    2MOL1     C  824   2.478   0.301   3.621
    2MOL1    Cl  825   2.420   0.319   3.787
    2MOL1    Cl  826   2.373   0.190   3.530
    2MOL1     H  827   2.578   0.258   3.624
    2MOL1    Cl  828   0.318   1.633   3.379
    2MOL1     C  829   0.466   1.538   3.358
    2MOL1    Cl  830   0.427   1.370   3.318
    2MOL1    Cl  831   0.568   1.610   3.232
    2MOL1     H  832   0.521   1.539   3.452
    2MOL1    Cl  833   0.133   4.333   4.992
    2MOL1     C  834   0.303   4.385   4.993
    2MOL1    Cl  835   0.313   4.562   4.987
    2MOL1    Cl  836   0.386   4.323   5.136
    2MOL1     H  837   0.352   4.345   4.904
    2MOL1    Cl  838   4.245   1.601   2.223
    2MOL1     C  839   4.310   1.438   2.200
    2MOL1    Cl  840   4.374   1.374   2.353
    2MOL1    Cl  841   4.186   1.330   2.135
    2MOL1     H  842   4.392   1.444   2.128
    2MOL1    Cl  843   1.623   0.580   1.879
    2MOL1     C  844   1.494   0.663   1.791
    2MOL1    Cl  845   1.343   0.570   1.798
    2MOL1    Cl  846   1.469   0.826   1.856
    2MOL1     H  847   1.523   0.672   1.686
    2MOL1    Cl  848   0.251   4.944   3.553
    2MOL1     C  849   0.143   5.081   3.582
    2MOL1    Cl  850   0.012   5.035   3.692
    2MOL1    Cl  851   0.233   5.219   3.647
    2MOL1     H  852   0.099   5.110   3.487
    2MOL1    Cl  853   2.204   1.837   3.608
    2MOL1     C  854   2.104   1.842   3.462
    2MOL1    Cl  855   2.072   1.678   3.403
    2MOL1    Cl  856   1.953   1.928   3.493
    2MOL1     H  857   2.159   1.896   3.384
    2MOL1    Cl  858   2.750   3.654   3.849
    2MOL1     C  859   2.633   3.551   3.766
    2MOL1    Cl  860   2.715   3.423   3.676
    2MOL1    Cl  861   2.518   3.481   3.882
    2MOL1     H  862   2.577   3.612   3.696
    2MOL1    Cl  863   0.980   1.506   3.629
    2MOL1     C  864   0.870   1.382   3.691
    2MOL1    Cl  865   0.952   1.280   3.810
    2MOL1    Cl  866   0.726   1.457   3.761
    2MOL1     H  867   0.838   1.320   3.607
    2MOL1    Cl  868   0.870   4.574   1.946
    2MOL1     C  869   0.779   4.423   1.941
    2MOL1    Cl  870   0.639   4.438   1.834
    2MOL1    Cl  871   0.883   4.289   1.887
    2MOL1     H  872   0.744   4.400   2.042
    2MOL1    Cl  873   3.586   4.320   2.581
    2MOL1     C  874   3.705   4.194   2.615
    2MOL1    Cl  875   3.820   4.248   2.738
    2MOL1    Cl  876   3.624   4.045   2.666
    2MOL1     H  877   3.760   4.173   2.523
    2MOL1    Cl  878   0.658   2.629   3.513
    2MOL1     C  879   0.624   2.475   3.593
    2MOL1    Cl  880   0.698   2.470   3.753
    2MOL1    Cl  881   0.449   2.449   3.604
    2MOL1     H  882   0.666   2.394   3.532
    2MOL1    Cl  883   1.930   3.960   1.815
    2MOL1     C  884   1.758   3.921   1.796
    2MOL1    Cl  885   1.676   4.048   1.703
    2MOL1    Cl  886   1.738   3.764   1.717
    2MOL1     H  887   1.712   3.916   1.895
    2MOL1    Cl  888   1.857   1.722   2.645
    2MOL1     C  889   1.685   1.683   2.650
    2MOL1    Cl  890   1.642   1.574   2.517
    2MOL1    Cl  891   1.641   1.612   2.806
    2MOL1     H  892   1.628   1.776   2.637
    2MOL1    Cl  893   3.925   0.272   4.109
    2MOL1     C  894   3.945   0.109   4.044
    2MOL1    Cl  895   3.959   0.112   3.868
    2MOL1    Cl  896   4.087   0.030   4.117
    2MOL1     H  897   3.857   0.050   4.071
    2MOL1    Cl  898   0.267   4.433   4.680
    2MOL1     C  899   0.161   4.554   4.607
    2MOL1    Cl  900   0.256   4.682   4.529
    2MOL1    Cl  901   0.051   4.478   4.490
    2MOL1     H  902   0.101   4.599   4.686
    2MOL1    Cl  903   1.002   1.696   0.601
    2MOL1     C  904   1.125   1.749   0.718
    2MOL1    Cl  905   1.172   1.615   0.824
    2MOL1    Cl  906   1.267   1.814   0.634
    2MOL1     H  907   1.082   1.828   0.779
    2MOL1    Cl  908   2.841   2.620   0.278
    2MOL1     C  909   2.750   2.771   0.300
    2MOL1    Cl  910   2.604   2.743   0.396
    2MOL1    Cl  911   2.852   2.895   0.376
    2MOL1     H  912   2.720   2.808   0.201
    2MOL1    Cl  913   3.518   1.386   3.513
    2MOL1     C  914   3.694   1.401   3.499
    2MOL1    Cl  915   3.766   1.248   3.445
    2MOL1    Cl  916   3.736   1.532   3.387
    2MOL1     H  917   3.735   1.425   3.597
    2MOL1    Cl  918   3.496   0.505   1.983
    2MOL1     C  919   3.521   0.334   1.946
    2MOL1    Cl  920   3.628   0.258   2.065
    2MOL1    Cl  921   3.365   0.248   1.939
    2MOL1     H  922   3.568   0.326   1.848
    2MOL1    Cl  923   4.078   2.759   1.660
    2MOL1     C  924   4.137   2.693   1.507
    2MOL1    Cl  925   4.278   2.588   1.534
    2MOL1    Cl  926   4.008   2.604   1.424
    2MOL1     H  927   4.168   2.776   1.443
    2MOL1    Cl  928   2.880   4.132   2.787
    2MOL1     C  929   2.954   4.278   2.718
    2MOL1    Cl  930   3.130   4.271   2.731
    2MOL1    Cl  931   2.905   4.298   2.549
    2MOL1     H  932   2.918   4.365   2.774
    2MOL1    Cl  933   4.286   1.151   2.820
    2MOL1     C  934   4.456   1.125   2.776
    2MOL1    Cl  935   4.516   0.975   2.849
    2MOL1    Cl  936   4.475   1.120   2.600
    2MOL1     H  937   4.515   1.208   2.815
    2MOL1    Cl  938   1.139   2.194   5.057
    2MOL1     C  939   1.086   2.059   4.956
    2MOL1    Cl  940   1.012   2.118   4.806
    2MOL1    Cl  941   1.223   1.952   4.920
    2MOL1     H  942   1.011   2.002   5.011
    2MOL1    Cl  943   2.619   4.619   4.580
    2MOL1     C  944   2.443   4.622   4.559
    2MOL1    Cl  945   2.373   4.761   4.645
    2MOL1    Cl  946   2.401   4.628   4.387
    2MOL1     H  947   2.402   4.531   4.602
    2MOL1    Cl  948   2.232   5.133   5.015
    2MOL1     C  949   2.377   5.130   5.117
    2MOL1    Cl  950   2.502   5.027   5.044
    2MOL1    Cl  951   2.439   5.294   5.142
    2MOL1     H  952   2.351   5.087   5.214
    2MOL1    Cl  953   2.182   1.372   2.993
    2MOL1     C  954   2.029   1.284   3.009
    2MOL1    Cl  955   2.023   1.149   2.893
    2MOL1    Cl  956   2.008   1.225   3.174
    2MOL1     H  957   1.947   1.352   2.986
    2MOL1    Cl  958   1.809   2.198   5.034
    2MOL1     C  959   1.930   2.224   5.159
    2MOL1    Cl  960   1.990   2.070   5.222
    2MOL1    Cl  961   2.064   2.322   5.097
    2MOL1     H  962   1.884   2.279   5.242
    2MOL1    Cl  963   2.394   1.758   1.591
    2MOL1     C  964   2.323   1.872   1.707
    2MOL1    Cl  965   2.318   2.035   1.639
    2MOL1    Cl  966   2.161   1.820   1.755
    2MOL1     H  967   2.386   1.874   1.796
    2MOL1    Cl  968   2.813   2.519   0.782
    2MOL1     C  969   2.708   2.657   0.818
    2MOL1    Cl  970   2.621   2.630   0.971
    2MOL1    Cl  971   2.802   2.807   0.826
    2MOL1     H  972   2.634   2.666   0.738
    2MOL1    Cl  973   3.043   1.706   1.997
    2MOL1     C  974   3.055   1.883   1.996
    2MOL1    Cl  975   2.998   1.950   2.149
    2MOL1    Cl  976   3.222   1.934   1.964
    2MOL1     H  977   2.992   1.921   1.916
    2MOL1    Cl  978   4.531   4.650   2.634
    2MOL1     C  979   4.669   4.593   2.729
    2MOL1    Cl  980   4.698   4.700   2.867
    2MOL1    Cl  981   4.643   4.427   2.784
    2MOL1     H  982   4.758   4.595   2.665
    2MOL1    Cl  983   3.163   0.610   4.980
    2MOL1     C  984   3.260   0.472   4.927
    2MOL1    Cl  985   3.178   0.384   4.796
    2MOL1    Cl  986   3.421   0.526   4.874
    2MOL1     H  987   3.273   0.404   5.011
    2MOL1    Cl  988   3.904   3.914   4.281
    2MOL1     C  989   3.967   4.004   4.142
    2MOL1    Cl  990   4.137   3.961   4.112
    2MOL1    Cl  991   3.869   3.974   3.998
    2MOL1     H  992   3.963   4.110   4.166
    2MOL1    Cl  993   1.958   1.489   2.466
    2MOL1     C  994   1.990   1.435   2.631
    2MOL1    Cl  995   1.848   1.352   2.698
    2MOL1    Cl  996   2.132   1.329   2.635
    2MOL1     H  997   2.011   1.523   2.692
    2MOL1    Cl  998   2.293   2.884   2.065
    2MOL1     C  999   2.452   2.951   2.028
    2MOL1    Cl 1000   2.458   3.124   2.068
    2MOL1    Cl 1001   2.579   2.863   2.116
    2MOL1     H 1002   2.470   2.940   1.921
    2MOL1    Cl 1003   1.206   5.088   1.580
    2MOL1     C 1004   1.101   4.949   1.613
    2MOL1    Cl 1005   1.181   4.833   1.719
    2MOL1    Cl 1006   0.947   5.003   1.684
    2MOL1     H 1007   1.079   4.900   1.518
    2MOL1    Cl 1008   4.398   2.429   4.365
    2MOL1     C 1009   4.268   2.318   4.410
    2MOL1    Cl 1010   4.116   2.406   4.432
    2MOL1    Cl 1011   4.250   2.191   4.288
    2MOL1     H 1012   4.294   2.271   4.505
    2MOL1    Cl 1013   1.734   4.974   5.122
    2MOL1     C 1014   1.884   5.066   5.143
    2MOL1    Cl 1015   1.848   5.236   5.181
    2MOL1    Cl 1016   1.984   4.994   5.270
    2MOL1     H 1017   1.940   5.063   5.050
    2MOL1    Cl 1018   3.431   4.020   0.637
    2MOL1     C 1019   3.468   3.850   0.601
    2MOL1    Cl 1020   3.340   3.779   0.501
    2MOL1    Cl 1021   3.625   3.836   0.521
    2MOL1     H 1022   3.472   3.795   0.695
    2MOL1    Cl 1023   4.568   0.972   1.227
    2MOL1     C 1024   4.647   0.993   1.070
    2MOL1    Cl 1025   4.786   1.102   1.085
    2MOL1    Cl 1026   4.697   0.836   1.005
    2MOL1     H 1027   4.575   1.038   1.001
    2MOL1    Cl 1028   4.242   1.891   1.790
    2MOL1     C 1029   4.163   1.838   1.939
    2MOL1    Cl 1030   4.275   1.845   2.076
    2MOL1    Cl 1031   4.019   1.936   1.971
    2MOL1     H 1032   4.131   1.734   1.926
    2MOL1    Cl 1033   4.208   1.887   0.174
    2MOL1     C 1034   4.125   1.734   0.144
    2MOL1    Cl 1035   4.002   1.752   0.019
    2MOL1    Cl 1036   4.242   1.608   0.099
    2MOL1     H 1037   4.076   1.703   0.237
    2MOL1    Cl 1038   3.923   3.297   4.664
    2MOL1     C 1039   4.007   3.254   4.814
    2MOL1    Cl 1040   3.901   3.277   4.954
    2MOL1    Cl 1041   4.065   3.086   4.806
    2MOL1     H 1042   4.094   3.319   4.825
    2MOL1    Cl 1043   1.089   0.485   3.829
    2MOL1     C 1044   1.255   0.542   3.855
    2MOL1    Cl 1045   1.257   0.685   3.959
    2MOL1    Cl 1046   1.354   0.413   3.924
    2MOL1     H 1047   1.297   0.569   3.758
    2MOL1    Cl 1048   3.442   0.570   1.327
    2MOL1     C 1049   3.502   0.416   1.393
    2MOL1    Cl 1050   3.639   0.357   1.298
    2MOL1    Cl 1051   3.548   0.436   1.563
    2MOL1     H 1052   3.421   0.343   1.387
    2MOL1    Cl 1053   1.125   0.426   4.366
    2MOL1     C 1054   1.168   0.429   4.194
    2MOL1    Cl 1055   1.261   0.285   4.151
    2MOL1    Cl 1056   1.023   0.443   4.093
    2MOL1     H 1057   1.231   0.517   4.176
    2MOL1    Cl 1058   3.136   5.107   3.693
    2MOL1     C 1059   3.181   5.261   3.617
    2MOL1    Cl 1060   3.350   5.301   3.653
    2MOL1    Cl 1061   3.155   5.253   3.442
    2MOL1     H 1062   3.117   5.339   3.658
    2MOL1    Cl 1063   2.162   0.998   4.307
    2MOL1     C 1064   2.285   1.089   4.219
    2MOL1    Cl 1065   2.221   1.149   4.065
    2MOL1    Cl 1066   2.346   1.223   4.317
    2MOL1     H 1067   2.369   1.022   4.197
    2MOL1    Cl 1068   3.490   0.675   0.308
    2MOL1     C 1069   3.331   0.740   0.352
    2MOL1    Cl 1070   3.259   0.825   0.215
    2MOL1    Cl 1071   3.225   0.610   0.408
    2MOL1     H 1072   3.344   0.811   0.434
    2MOL1    Cl 1073   1.675   2.085   2.792
    2MOL1     C 1074   1.692   2.229   2.690
    2MOL1    Cl 1075   1.811   2.201   2.562
    2MOL1    Cl 1076   1.535   2.275   2.620
    2MOL1     H 1077   1.727   2.312   2.752
    2MOL1    Cl 1078   4.852   3.965   4.764
    2MOL1     C 1079   5.011   4.003   4.698
    2MOL1    Cl 1080   5.074   3.868   4.602
    2MOL1    Cl 1081   5.005   4.151   4.600
    2MOL1     H 1082   5.080   4.021   4.782
    2MOL1    Cl 1083   0.775   0.898   2.563
    2MOL1     C 1084   0.895   0.926   2.690
    2MOL1    Cl 1085   0.821   1.010   2.828
    2MOL1    Cl 1086   0.968   0.773   2.742
    2MOL1     H 1087   0.974   0.990   2.649
    2MOL1    Cl 1088   4.659   1.132   3.585
    2MOL1     C 1089   4.716   0.986   3.667
    2MOL1    Cl 1090   4.702   0.844   3.561
    2MOL1    Cl 1091   4.883   1.006   3.721
    2MOL1     H 1092   4.653   0.969   3.755
    2MOL1    Cl 1093   4.960   4.911   0.616
    2MOL1     C 1094   5.117   4.842   0.657
    2MOL1    Cl 1095   5.123   4.670   0.614
    2MOL1    Cl 1096   5.247   4.931   0.575
    2MOL1     H 1097   5.132   4.851   0.765
    2MOL1    Cl 1098   0.556   3.433   0.284
    2MOL1     C 1099   0.721   3.394   0.336
    2MOL1    Cl 1100   0.760   3.480   0.486
    2MOL1    Cl 1101   0.740   3.219   0.358
    2MOL1     H 1102   0.790   3.427   0.258
    2MOL1    Cl 1103   0.998   2.417   4.797
    2MOL1     C 1104   1.173   2.404   4.820
    2MOL1    Cl 1105   1.255   2.381   4.665
    2MOL1    Cl 1106   1.235   2.548   4.903
    2MOL1     H 1107   1.193   2.317   4.883
    2MOL1    Cl 1108   1.712   4.019   0.000
    2MOL1     C 1109   1.609   4.113   0.110
    2MOL1    Cl 1110   1.705   4.183   0.241
    2MOL1    Cl 1111   1.523   4.239   0.021
    2MOL1     H 1112   1.535   4.045   0.154
    2MOL1    Cl 1113   0.626   3.375   0.677
    2MOL1     C 1114   0.768   3.274   0.706
    2MOL1    Cl 1115   0.862   3.336   0.843
    2MOL1    Cl 1116   0.719   3.106   0.737
    2MOL1     H 1117   0.831   3.275   0.617
    2MOL1    Cl 1118   4.167   1.781   2.573
    2MOL1     C 1119   4.253   1.633   2.618
    2MOL1    Cl 1120   4.255   1.518   2.483
    2MOL1    Cl 1121   4.419   1.671   2.669
    2MOL1     H 1122   4.201   1.587   2.702
    2MOL1    Cl 1123   2.014   0.550   4.496
    2MOL1     C 1124   2.126   0.588   4.364
    2MOL1    Cl 1125   2.182   0.439   4.286
    2MOL1    Cl 1126   2.050   0.696   4.246
    2MOL1     H 1127   2.213   0.639   4.407
    2MOL1    Cl 1128   0.300   0.289   2.646
    2MOL1     C 1129   0.434   0.178   2.615
    2MOL1    Cl 1130   0.381   0.044   2.512
    2MOL1    Cl 1131   0.570   0.264   2.539
    2MOL1     H 1132   0.468   0.138   2.710
    2MOL1    Cl 1133   1.759   4.700   4.514
    2MOL1     C 1134   1.877   4.570   4.499
    2MOL1    Cl 1135   2.005   4.587   4.620
    2MOL1    Cl 1136   1.798   4.412   4.515
    2MOL1     H 1137   1.923   4.575   4.400
    2MOL1    Cl 1138   4.224   4.766   1.703
    2MOL1     C 1139   4.243   4.641   1.579
    2MOL1    Cl 1140   4.274   4.714   1.421
    2MOL1    Cl 1141   4.375   4.530   1.623
    2MOL1     H 1142   4.151   4.583   1.573
    2MOL1    Cl 1143   1.077   2.445   0.641
    2MOL1     C 1144   1.043   2.615   0.603
    2MOL1    Cl 1145   1.182   2.689   0.522
    2MOL1    Cl 1146   0.898   2.629   0.503
    2MOL1     H 1147   1.026   2.668   0.696
    2MOL1    Cl 1148   1.211   0.893   4.356
    2MOL1     C 1149   1.353   0.961   4.274
    2MOL1    Cl 1150   1.332   1.135   4.246
    2MOL1    Cl 1151   1.500   0.931   4.369
    2MOL1     H 1152   1.364   0.911   4.178
    2MOL1    Cl 1153   2.024   1.602   0.969
    2MOL1     C 1154   1.889   1.541   0.871
    2MOL1    Cl 1155   1.903   1.365   0.849
    2MOL1    Cl 1156   1.734   1.583   0.945
    2MOL1     H 1157   1.894   1.588   0.772
    2MOL1    Cl 1158   1.161   4.457   1.395
    2MOL1     C 1159   1.266   4.576   1.472
    2MOL1    Cl 1160   1.238   4.738   1.406
    2MOL1    Cl 1161   1.242   4.576   1.648
    2MOL1     H 1162   1.370   4.548   1.452
    2MOL1    Cl 1163   4.858   2.885   2.659
    2MOL1     C 1164   4.996   2.778   2.635
    2MOL1    Cl 1165   4.959   2.614   2.693
    2MOL1    Cl 1166   5.042   2.774   2.464
    2MOL1     H 1167   5.080   2.817   2.692
    2MOL1    Cl 1168   0.784   2.384   0.200
    2MOL1     C 1169   0.939   2.467   0.183
    2MOL1    Cl 1170   1.072   2.350   0.172
    2MOL1    Cl 1171   0.938   2.573   0.041
    2MOL1     H 1172   0.955   2.529   0.272
    2MOL1    Cl 1173   3.659   4.920   3.430
    2MOL1     C 1174   3.676   4.746   3.460
    2MOL1    Cl 1175   3.797   4.716   3.585
    2MOL1    Cl 1176   3.520   4.676   3.506
    2MOL1     H 1177   3.709   4.698   3.368
    2MOL1    Cl 1178   2.171   0.859   2.502
    2MOL1     C 1179   2.177   1.013   2.416
    2MOL1    Cl 1180   2.234   1.142   2.524
    2MOL1    Cl 1181   2.281   1.002   2.273
    2MOL1     H 1182   2.076   1.038   2.383
    2MOL1    Cl 1183   0.796   4.470   4.587
    2MOL1     C 1184   0.686   4.588   4.514
    2MOL1    Cl 1185   0.628   4.530   4.357
    2MOL1    Cl 1186   0.550   4.622   4.622
    2MOL1     H 1187   0.741   4.681   4.498
    2MOL1    Cl 1188   1.909   4.881   4.020
    2MOL1     C 1189   2.057   4.856   3.925
    2MOL1    Cl 1190   2.179   4.772   4.022
    2MOL1    Cl 1191   2.021   4.766   3.777
    2MOL1     H 1192   2.096   4.954   3.897
    2MOL1    Cl 1193   1.185   0.224   1.400
    2MOL1     C 1194   1.208   0.347   1.275
    2MOL1    Cl 1195   1.055   0.431   1.241
    2MOL1    Cl 1196   1.333   0.463   1.324
    2MOL1     H 1197   1.241   0.298   1.183
    2MOL1    Cl 1198   2.486   3.141   1.271
    2MOL1     C 1199   2.527   3.109   1.102
    2MOL1    Cl 1200   2.643   2.975   1.091
    2MOL1    Cl 1201   2.381   3.073   1.008
    2MOL1     H 1202   2.574   3.198   1.061
    2MOL1    Cl 1203   1.019   3.777   1.012
    2MOL1     C 1204   1.023   3.625   1.103
    2MOL1    Cl 1205   0.927   3.639   1.252
    2MOL1    Cl 1206   0.963   3.491   1.003
    2MOL1     H 1207   1.126   3.604   1.130
    2MOL1    Cl 1208   3.730   2.500   2.118
    2MOL1     C 1209   3.845   2.378   2.060
    2MOL1    Cl 1210   3.766   2.266   1.947
    2MOL1    Cl 1211   3.985   2.456   1.982
    2MOL1     H 1212   3.881   2.321   2.146
    2MOL1    Cl 1213   2.708   2.309   1.231
    2MOL1     C 1214   2.775   2.473   1.233
    2MOL1    Cl 1215   2.703   2.568   1.363
    2MOL1    Cl 1216   2.952   2.467   1.250
    2MOL1     H 1217   2.751   2.521   1.137
    2MOL1    Cl 1218   2.582   3.523   4.319
    2MOL1     C 1219   2.757   3.509   4.297
    2MOL1    Cl 1220   2.812   3.345   4.337
    2MOL1    Cl 1221   2.802   3.550   4.130
    2MOL1     H 1222   2.806   3.579   4.364
    2MOL1    Cl 1223   1.273   2.696   4.038
    2MOL1     C 1224   1.134   2.786   4.102
    2MOL1    Cl 1225   1.089   2.725   4.262
    2MOL1    Cl 1226   1.170   2.959   4.109
    2MOL1     H 1227   1.049   2.771   4.035
    2MOL1    Cl 1228   1.323   2.917   3.466
    2MOL1     C 1229   1.499   2.926   3.483
    2MOL1    Cl 1230   1.566   3.042   3.367
    2MOL1    Cl 1231   1.544   2.970   3.648
    2MOL1     H 1232   1.541   2.828   3.461
    2MOL1    Cl 1233   3.909   4.661   3.874
    2MOL1     C 1234   3.787   4.787   3.895
    2MOL1    Cl 1235   3.662   4.734   4.010
    2MOL1    Cl 1236   3.862   4.938   3.949
    2MOL1     H 1237   3.739   4.805   3.799
    2MOL1    Cl 1238   0.325   3.257   0.586
    2MOL1     C 1239   0.164   3.219   0.521
    2MOL1    Cl 1240   0.096   3.360   0.437
    2MOL1    Cl 1241   0.173   3.080   0.411
    2MOL1     H 1242   0.098   3.193   0.604
    2MOL1    Cl 1243   1.572   2.326   5.196
    2MOL1     C 1244   1.460   2.279   5.068
    2MOL1    Cl 1245   1.435   2.104   5.068
    2MOL1    Cl 1246   1.306   2.364   5.085
    2MOL1     H 1247   1.505   2.307   4.972
    2MOL1    Cl 1248   0.178   2.030   2.990
    2MOL1     C 1249   0.306   1.943   3.075
    2MOL1    Cl 1250   0.391   2.050   3.187
    2MOL1    Cl 1251   0.240   1.802   3.160
    2MOL1     H 1252   0.378   1.907   3.000
    2MOL1    Cl 1253   3.763   0.074   4.970
    2MOL1     C 1254   3.628   0.188   4.961
    2MOL1    Cl 1255   3.623   0.292   5.104
    2MOL1    Cl 1256   3.639   0.286   4.813
    2MOL1     H 1257   3.535   0.131   4.957
    2MOL1    Cl 1258   1.854   2.842   2.012
    2MOL1     C 1259   1.764   2.800   2.158
    2MOL1    Cl 1260   1.590   2.822   2.133
    2MOL1    Cl 1261   1.799   2.633   2.207
    2MOL1     H 1262   1.796   2.866   2.239
    2MOL1    Cl 1263   4.104   0.620   4.400
    2MOL1     C 1264   4.180   0.672   4.249
    2MOL1    Cl 1265   4.195   0.536   4.137
    2MOL1    Cl 1266   4.087   0.804   4.175
    2MOL1     H 1267   4.280   0.709   4.272
    2MOL1    Cl 1268   0.486   3.776   1.586
    2MOL1     C 1269   0.319   3.833   1.587
    2MOL1    Cl 1270   0.312   4.003   1.639
    2MOL1    Cl 1271   0.244   3.814   1.428
    2MOL1     H 1272   0.262   3.773   1.659
    2MOL1    Cl 1273   0.222   1.805   0.904
    2MOL1     C 1274   0.256   1.632   0.897
    2MOL1    Cl 1275   0.421   1.604   0.837
    2MOL1    Cl 1276   0.235   1.557   1.056
    2MOL1     H 1277   0.186   1.585   0.828
    2MOL1    Cl 1278   3.900   2.566   2.887
    2MOL1     C 1279   3.727   2.536   2.864
    2MOL1    Cl 1280   3.670   2.610   2.714
    2MOL1    Cl 1281   3.693   2.362   2.865
    2MOL1     H 1282   3.673   2.582   2.948
    2MOL1    Cl 1283   0.319   4.981   2.749
    2MOL1     C 1284   0.262   4.821   2.799
    2MOL1    Cl 1285   0.085   4.819   2.810
    2MOL1    Cl 1286   0.319   4.696   2.687
    2MOL1     H 1287   0.303   4.800   2.898
    2MOL1    Cl 1288   0.571   2.587   2.499
    2MOL1     C 1289   0.652   2.629   2.347
    2MOL1    Cl 1290   0.669   2.486   2.243
    2MOL1    Cl 1291   0.563   2.757   2.262
    2MOL1     H 1292   0.752   2.667   2.370
    2MOL1    Cl 1293   0.674   3.928   2.745
    2MOL1     C 1294   0.588   4.024   2.867
    2MOL1    Cl 1295   0.675   4.175   2.900
    2MOL1    Cl 1296   0.422   4.058   2.814
    2MOL1     H 1297   0.583   3.966   2.959
    2MOL1    Cl 1298   2.361   0.693   3.901
    2MOL1     C 1299   2.426   0.787   4.036
    2MOL1    Cl 1300   2.303   0.808   4.162
    2MOL1    Cl 1301   2.571   0.710   4.102
    2MOL1     H 1302   2.454   0.886   3.999
    2MOL1    Cl 1303   1.613   1.807   2.049
    2MOL1     C 1304   1.719   1.918   2.138
    2MOL1    Cl 1305   1.886   1.857   2.139
    2MOL1    Cl 1306   1.712   2.080   2.069
    2MOL1     H 1307   1.684   1.922   2.241
    2MOL1    Cl 1308   0.845   3.238   2.200
    2MOL1     C 1309   0.966   3.227   2.329
    2MOL1    Cl 1310   0.925   3.336   2.462
    2MOL1    Cl 1311   0.981   3.061   2.387
    2MOL1     H 1312   1.063   3.258   2.288
    2MOL1    Cl 1313   4.885   3.775   3.004
    2MOL1     C 1314   4.740   3.763   3.104
    2MOL1    Cl 1315   4.733   3.897   3.220
    2MOL1    Cl 1316   4.594   3.761   3.003
    2MOL1     H 1317   4.744   3.669   3.160
    2MOL1    Cl 1318   4.453   0.925   4.504
    2MOL1     C 1319   4.286   0.976   4.532
    2MOL1    Cl 1320   4.242   1.108   4.422
    2MOL1    Cl 1321   4.175   0.840   4.512
    2MOL1     H 1322   4.278   1.013   4.634
    2MOL1    Cl 1323   0.220   3.093   4.838
    2MOL1     C 1324   0.045   3.095   4.812
    2MOL1    Cl 1325  -0.001   3.227   4.703
    2MOL1    Cl 1326  -0.010   2.939   4.747
    2MOL1     H 1327  -0.004   3.111   4.908
    2MOL1    Cl 1328   0.973   1.788   0.378
    2MOL1     C 1329   1.064   1.920   0.303
    2MOL1    Cl 1330   1.139   1.866   0.152
    2MOL1    Cl 1331   0.959   2.060   0.274
    2MOL1     H 1332   1.143   1.951   0.372
    2MOL1    Cl 1333   1.835   2.165   1.647
    2MOL1     C 1334   1.937   2.131   1.787
    2MOL1    Cl 1335   2.092   2.063   1.736
    2MOL1    Cl 1336   1.962   2.277   1.884
    2MOL1     H 1337   1.886   2.057   1.850
    2MOL1    Cl 1338   2.399   4.575   3.848
    2MOL1     C 1339   2.540   4.471   3.880
    2MOL1    Cl 1340   2.487   4.309   3.928
    2MOL1    Cl 1341   2.645   4.463   3.738
    2MOL1     H 1342   2.596   4.515   3.963
    2MOL1    Cl 1343   3.227   0.447   1.588
    2MOL1     C 1344   3.196   0.550   1.728
    2MOL1    Cl 1345   3.302   0.504   1.863
    2MOL1    Cl 1346   3.217   0.721   1.687
    2MOL1     H 1347   3.092   0.534   1.759
    2MOL1    Cl 1348   2.304   4.858   4.831
    2MOL1     C 1349   2.476   4.832   4.865
    2MOL1    Cl 1350   2.537   4.692   4.775
    2MOL1    Cl 1351   2.571   4.977   4.825
    2MOL1     H 1352   2.487   4.812   4.972
    2MOL1    Cl 1353   2.596   1.974   3.279
    2MOL1     C 1354   2.686   1.893   3.408
    2MOL1    Cl 1355   2.849   1.961   3.422
    2MOL1    Cl 1356   2.600   1.905   3.562
    2MOL1     H 1357   2.695   1.787   3.382
    2MOL1    Cl 1358   0.714   1.682   4.979
    2MOL1     C 1359   0.811   1.829   4.996
    2MOL1    Cl 1360   0.730   1.946   5.101
    2MOL1    Cl 1361   0.972   1.791   5.058
    2MOL1     H 1362   0.822   1.874   4.897
    2MOL1    Cl 1363   2.981   1.183   3.094
    2MOL1     C 1364   3.155   1.173   3.123
    2MOL1    Cl 1365   3.188   1.112   3.286
    2MOL1    Cl 1366   3.233   1.070   3.001
    2MOL1     H 1367   3.197   1.274   3.115
    2MOL1    Cl 1368   3.707   0.663   1.763
    2MOL1     C 1369   3.714   0.829   1.702
    2MOL1    Cl 1370   3.833   0.843   1.572
    2MOL1    Cl 1371   3.554   0.881   1.646
    2MOL1     H 1372   3.744   0.894   1.784
    2MOL1    Cl 1373   0.485   0.370   0.583
    2MOL1     C 1374   0.413   0.528   0.617
    2MOL1    Cl 1375   0.291   0.515   0.744
    2MOL1    Cl 1376   0.538   0.646   0.662
    2MOL1     H 1377   0.364   0.564   0.526
    2MOL1    Cl 1378   0.861   3.720   3.919
    2MOL1     C 1379   0.873   3.818   3.772
    2MOL1    Cl 1380   1.001   3.756   3.667
    2MOL1    Cl 1381   0.718   3.820   3.686
    2MOL1     H 1382   0.897   3.920   3.800
    2MOL1    Cl 1383   5.032   4.302   4.379
    2MOL1     C 1384   5.188   4.249   4.444
    2MOL1    Cl 1385   5.318   4.281   4.328
    2MOL1    Cl 1386   5.222   4.329   4.598
    2MOL1     H 1387   5.183   4.141   4.461
    2MOL1    Cl 1388   3.869   1.767   0.809
    2MOL1     C 1389   3.762   1.803   0.945
    2MOL1    Cl 1390   3.705   1.971   0.936
    2MOL1    Cl 1391   3.625   1.691   0.948
    2MOL1     H 1392   3.819   1.791   1.038
    2MOL1    Cl 1393   3.487   4.370   3.600
    2MOL1     C 1394   3.427   4.469   3.734
    2MOL1    Cl 1395   3.546   4.476   3.864
    2MOL1    Cl 1396   3.387   4.632   3.677
    2MOL1     H 1397   3.336   4.424   3.773
    2MOL1    Cl 1398   1.616   4.739   3.378
    2MOL1     C 1399   1.671   4.726   3.211
    2MOL1    Cl 1400   1.788   4.853   3.173
    2MOL1    Cl 1401   1.741   4.566   3.181
    2MOL1     H 1402   1.584   4.738   3.145
    2MOL1    Cl 1403   2.488   0.453   2.584
    2MOL1     C 1404   2.616   0.571   2.614
    2MOL1    Cl 1405   2.556   0.706   2.712
    2MOL1    Cl 1406   2.754   0.493   2.695
    2MOL1     H 1407   2.650   0.610   2.518
    2MOL1    Cl 1408   3.208   2.096   4.116
    2MOL1     C 1409   3.326   2.147   4.238
    2MOL1    Cl 1410   3.301   2.060   4.390
    2MOL1    Cl 1411   3.491   2.123   4.178
    2MOL1     H 1412   3.312   2.254   4.256
    2MOL1    Cl 1413   3.041   2.476   0.744
    2MOL1     C 1414   2.936   2.433   0.608
    2MOL1    Cl 1415   2.805   2.327   0.662
    2MOL1    Cl 1416   2.871   2.579   0.531
    2MOL1     H 1417   2.996   2.379   0.534
    2MOL1    Cl 1418   1.796   0.539   4.915
    2MOL1     C 1419   1.716   0.473   5.059
    2MOL1    Cl 1420   1.765   0.563   5.204
    2MOL1    Cl 1421   1.540   0.476   5.040
    2MOL1     H 1422   1.748   0.369   5.071
    2MOL1    Cl 1423   0.807   1.639   1.523
    2MOL1     C 1424   0.753   1.653   1.691
    2MOL1    Cl 1425   0.616   1.545   1.722
    2MOL1    Cl 1426   0.887   1.618   1.802
    2MOL1     H 1427   0.720   1.756   1.708
    2MOL1    Cl 1428   4.920   3.307   0.224
    2MOL1     C 1429   4.998   3.173   0.310
    2MOL1    Cl 1430   4.932   3.018   0.256
    2MOL1    Cl 1431   5.174   3.177   0.286
    2MOL1     H 1432   4.977   3.184   0.416
    2MOL1    Cl 1433   0.720   1.854   4.077
    2MOL1     C 1434   0.654   1.697   4.028
    2MOL1    Cl 1435   0.626   1.693   3.853
    2MOL1    Cl 1436   0.764   1.566   4.076
    2MOL1     H 1437   0.559   1.682   4.078
    2MOL1    Cl 1438   0.845   0.760   0.367
    2MOL1     C 1439   0.996   0.796   0.453
    2MOL1    Cl 1440   0.964   0.899   0.594
    2MOL1    Cl 1441   1.077   0.647   0.502
    2MOL1     H 1442   1.062   0.851   0.385
    2MOL1    Cl 1443   3.564   4.767   4.827
    2MOL1     C 1444   3.523   4.916   4.914
    2MOL1    Cl 1445   3.437   4.880   5.065
    2MOL1    Cl 1446   3.669   5.011   4.946
    2MOL1     H 1447   3.456   4.976   4.850
    2MOL1    Cl 1448   2.922   3.950   3.734
    2MOL1     C 1449   3.076   3.903   3.660
    2MOL1    Cl 1450   3.091   3.727   3.655
    2MOL1    Cl 1451   3.090   3.971   3.496
    2MOL1     H 1452   3.157   3.943   3.720
    2MOL1    Cl 1453   2.775   4.126   3.273
    2MOL1     C 1454   2.898   4.252   3.294
    2MOL1    Cl 1455   2.836   4.382   3.399
    2MOL1    Cl 1456   3.047   4.184   3.360
    2MOL1     H 1457   2.920   4.295   3.196
    2MOL1    Cl 1458   3.482   1.226   2.831
    2MOL1     C 1459   3.502   1.364   2.722
    2MOL1    Cl 1460   3.345   1.440   2.689
    2MOL1    Cl 1461   3.615   1.482   2.791
    2MOL1     H 1462   3.543   1.328   2.628
    2MOL1    Cl 1463   4.412   2.116   5.229
    2MOL1     C 1464   4.568   2.065   5.163
    2MOL1    Cl 1465   4.545   1.977   5.010
    2MOL1    Cl 1466   4.674   2.205   5.138
    2MOL1     H 1467   4.616   1.998   5.234
    2MOL1    Cl 1468   3.237   2.158   0.933
    2MOL1     C 1469   3.210   2.142   0.759
    2MOL1    Cl 1470   3.344   2.053   0.683
    2MOL1    Cl 1471   3.056   2.061   0.727
    2MOL1     H 1472   3.207   2.242   0.715
    2MOL1    Cl 1473   4.566   4.650   1.623
    2MOL1     C 1474   4.563   4.812   1.552
    2MOL1    Cl 1475   4.678   4.919   1.635
    2MOL1    Cl 1476   4.600   4.804   1.378
    2MOL1     H 1477   4.463   4.854   1.563
    2MOL1    Cl 1478   4.812   0.724   3.223
    2MOL1     C 1479   4.636   0.718   3.229
    2MOL1    Cl 1480   4.581   0.591   3.339
    2MOL1    Cl 1481   4.570   0.876   3.278
    2MOL1     H 1482   4.598   0.696   3.129
    2MOL1    Cl 1483   3.685   2.333   0.468
    2MOL1     C 1484   3.564   2.212   0.423
    2MOL1    Cl 1485   3.616   2.050   0.472
    2MOL1    Cl 1486   3.407   2.251   0.495
    2MOL1     H 1487   3.553   2.214   0.314
    2MOL1    Cl 1488   1.767   0.001   2.678
    2MOL1     C 1489   1.757   0.170   2.727
    2MOL1    Cl 1490   1.766   0.185   2.904
    2MOL1    Cl 1491   1.885   0.266   2.650
    2MOL1     H 1492   1.660   0.210   2.695
    2MOL1    Cl 1493   1.279   4.497   5.057
    2MOL1     C 1494   1.269   4.639   5.163
    2MOL1    Cl 1495   1.226   4.591   5.328
    2MOL1    Cl 1496   1.422   4.728   5.162
    2MOL1     H 1497   1.191   4.705   5.124
    2MOL1    Cl 1498   4.956   0.282   4.464
    2MOL1     C 1499   5.127   0.281   4.509
    2MOL1    Cl 1500   5.203   0.437   4.474
    2MOL1    Cl 1501   5.146   0.240   4.681
    2MOL1     H 1502   5.178   0.204   4.450
    2MOL1    Cl 1503   4.381   5.034   0.246
    2MOL1     C 1504   4.342   4.862   0.244
    2MOL1    Cl 1505   4.444   4.773   0.359
    2MOL1    Cl 1506   4.171   4.836   0.279
    2MOL1     H 1507   4.363   4.823   0.144
    2MOL1    Cl 1508   0.647   2.706   4.153
    2MOL1     C 1509   0.620   2.626   3.997
    2MOL1    Cl 1510   0.774   2.602   3.913
    2MOL1    Cl 1511   0.537   2.471   4.021
    2MOL1     H 1512   0.556   2.690   3.936
    2MOL1    Cl 1513   4.250   1.394   1.676
    2MOL1     C 1514   4.091   1.326   1.639
    2MOL1    Cl 1515   4.078   1.161   1.703
    2MOL1    Cl 1516   3.962   1.429   1.705
    2MOL1     H 1517   4.080   1.321   1.531
    2MOL1    Cl 1518   1.384   4.776   0.377
    2MOL1     C 1519   1.483   4.921   0.352
    2MOL1    Cl 1520   1.574   4.960   0.499
    2MOL1    Cl 1521   1.593   4.899   0.215
    2MOL1     H 1522   1.416   5.005   0.330
    2MOL1    Cl 1523   3.126   1.096   4.180
    2MOL1     C 1524   3.234   1.113   4.040
    2MOL1    Cl 1525   3.243   0.960   3.950
    2MOL1    Cl 1526   3.179   1.244   3.934
    2MOL1     H 1527   3.334   1.137   4.077
    2MOL1    Cl 1528   4.561   3.407   3.615
    2MOL1     C 1529   4.637   3.525   3.723
    2MOL1    Cl 1530   4.527   3.661   3.754
    2MOL1    Cl 1531   4.686   3.449   3.875
    2MOL1     H 1532   4.726   3.564   3.674
    2MOL1    Cl 1533   1.399   0.854   0.444
    2MOL1     C 1534   1.342   0.882   0.609
    2MOL1    Cl 1535   1.188   0.799   0.636
    2MOL1    Cl 1536   1.463   0.828   0.727
    2MOL1     H 1537   1.327   0.989   0.623
    2MOL1    Cl 1538   1.173   2.088   1.296
    2MOL1     C 1539   1.165   1.998   1.143
    2MOL1    Cl 1540   1.021   1.894   1.139
    2MOL1    Cl 1541   1.166   2.109   1.006
    2MOL1     H 1542   1.253   1.934   1.137
    2MOL1    Cl 1543   3.309   3.065   2.513
    2MOL1     C 1544   3.464   3.054   2.428
    2MOL1    Cl 1545   3.574   2.943   2.513
    2MOL1    Cl 1546   3.440   3.001   2.261
    2MOL1     H 1547   3.510   3.153   2.426
    2MOL1    Cl 1548   3.132   3.427   2.845
    2MOL1     C 1549   3.241   3.567   2.837
    2MOL1    Cl 1550   3.231   3.662   2.986
    2MOL1    Cl 1551   3.408   3.515   2.807
    2MOL1     H 1552   3.209   3.631   2.754
    2MOL1    Cl 1553   1.238   1.310   0.277
    2MOL1     C 1554   1.324   1.156   0.295
    2MOL1    Cl 1555   1.386   1.138   0.460
    2MOL1    Cl 1556   1.217   1.020   0.254
    2MOL1     H 1557   1.408   1.156   0.226
    2MOL1    Cl 1558   3.075   0.186   0.711
    2MOL1     C 1559   3.048   0.236   0.879
    2MOL1    Cl 1560   3.172   0.167   0.985
    2MOL1    Cl 1561   3.045   0.413   0.892
    2MOL1     H 1562   2.950   0.198   0.910
    2MOL1    Cl 1563   1.805   3.348   1.046
    2MOL1     C 1564   1.971   3.405   1.068
    2MOL1    Cl 1565   1.973   3.572   1.126
    2MOL1    Cl 1566   2.058   3.299   1.180
    2MOL1     H 1567   2.022   3.401   0.971
    2MOL1    Cl 1568   2.885   3.813   2.131
    2MOL1     C 1569   2.954   3.774   1.973
    2MOL1    Cl 1570   3.063   3.903   1.919
    2MOL1    Cl 1571   3.040   3.619   1.979
    2MOL1     H 1572   2.873   3.766   1.900
    2MOL1    Cl 1573   4.448   0.520   4.242
    2MOL1     C 1574   4.591   0.475   4.148
    2MOL1    Cl 1575   4.628   0.598   4.026
    2MOL1    Cl 1576   4.730   0.450   4.256
    2MOL1     H 1577   4.571   0.381   4.097
    2MOL1    Cl 1578   4.507   3.068   4.850
    2MOL1     C 1579   4.668   3.008   4.809
    2MOL1    Cl 1580   4.741   3.106   4.681
    2MOL1    Cl 1581   4.772   3.005   4.952
    2MOL1     H 1582   4.658   2.905   4.772
    2MOL1    Cl 1583   1.048   4.560   2.524
    2MOL1     C 1584   1.074   4.706   2.426
    2MOL1    Cl 1585   1.246   4.745   2.418
    2MOL1    Cl 1586   1.006   4.685   2.264
    2MOL1     H 1587   1.022   4.789   2.475
    2MOL1    Cl 1588   5.081   0.067   0.356
    2MOL1     C 1589   5.145   0.232   0.353
    2MOL1    Cl 1590   5.077   0.323   0.217
    2MOL1    Cl 1591   5.110   0.315   0.506
    2MOL1     H 1592   5.253   0.227   0.341
    2MOL1    Cl 1593   4.462   0.251   3.057
    2MOL1     C 1594   4.448   0.074   3.046
    2MOL1    Cl 1595   4.357   0.027   2.902
    2MOL1    Cl 1596   4.609   0.000   3.045
    2MOL1     H 1597   4.395   0.038   3.134
    2MOL1    Cl 1598   4.528   0.354   3.614
    2MOL1     C 1599   4.617   0.487   3.690
    2MOL1    Cl 1600   4.524   0.558   3.823
    2MOL1    Cl 1601   4.775   0.431   3.748
    2MOL1     H 1602   4.634   0.565   3.615
    2MOL1    Cl 1603   3.670   5.035   4.602
    2MOL1     C 1604   3.616   5.123   4.458
    2MOL1    Cl 1605   3.720   5.085   4.319
    2MOL1    Cl 1606   3.447   5.084   4.421
    2MOL1     H 1607   3.623   5.230   4.479
    2MOL1    Cl 1608   1.575   1.914   1.420
    2MOL1     C 1609   1.455   1.932   1.549
    2MOL1    Cl 1610   1.333   1.804   1.539
    2MOL1    Cl 1611   1.534   1.931   1.708
    2MOL1     H 1612   1.405   2.029   1.536
    2MOL1    Cl 1613   5.340   0.059   1.508
    2MOL1     C 1614   5.289   0.222   1.462
    2MOL1    Cl 1615   5.113   0.228   1.439
    2MOL1    Cl 1616   5.340   0.340   1.583
    2MOL1     H 1617   5.337   0.247   1.367
    2MOL1    Cl 1618   3.185   1.892   2.885
    2MOL1     C 1619   3.305   1.803   2.790
    2MOL1    Cl 1620   3.455   1.784   2.881
    2MOL1    Cl 1621   3.241   1.645   2.741
    2MOL1     H 1622   3.327   1.860   2.699
    2MOL1    Cl 1623   3.581   0.250   0.521
    2MOL1     C 1624   3.627   0.421   0.528
    2MOL1    Cl 1625   3.621   0.494   0.367
    2MOL1    Cl 1626   3.523   0.509   0.641
    2MOL1     H 1627   3.730   0.426   0.565
    2MOL1    Cl 1628   0.538   1.497   1.979
    2MOL1     C 1629   0.687   1.402   1.973
    2MOL1    Cl 1630   0.715   1.321   2.128
    2MOL1    Cl 1631   0.680   1.283   1.842
    2MOL1     H 1632   0.770   1.470   1.954
    2MOL1    Cl 1633   3.015   3.793   1.359
    2MOL1     C 1634   2.838   3.793   1.356
    2MOL1    Cl 1635   2.776   3.635   1.306
    2MOL1    Cl 1636   2.773   3.838   1.514
    2MOL1     H 1637   2.805   3.868   1.283
    2MOL1    Cl 1638   2.225   2.538   4.415
    2MOL1     C 1639   2.399   2.555   4.390
    2MOL1    Cl 1640   2.454   2.451   4.258
    2MOL1    Cl 1641   2.442   2.724   4.359
    2MOL1     H 1642   2.450   2.523   4.482
    2MOL1    Cl 1643   0.452   2.215   0.941
    2MOL1     C 1644   0.598   2.290   0.874
    2MOL1    Cl 1645   0.623   2.451   0.943
    2MOL1    Cl 1646   0.740   2.188   0.903
    2MOL1     H 1647   0.585   2.301   0.766
    2MOL1    Cl 1648   2.615   0.642   1.622
    2MOL1     C 1649   2.610   0.466   1.646
    2MOL1    Cl 1650   2.552   0.385   1.500
    2MOL1    Cl 1651   2.771   0.406   1.691
    2MOL1     H 1652   2.541   0.445   1.727
    2MOL1    Cl 1653   2.462   3.756   0.039
    2MOL1     C 1654   2.445   3.593   0.106
    2MOL1    Cl 1655   2.559   3.568   0.239
    2MOL1    Cl 1656   2.279   3.564   0.159
    2MOL1     H 1657   2.468   3.521   0.027
    2MOL1    Cl 1658   0.117   3.599   5.039
    2MOL1     C 1659   0.159   3.438   4.979
    2MOL1    Cl 1660   0.063   3.398   4.836
    2MOL1    Cl 1661   0.332   3.428   4.942
    2MOL1     H 1662   0.137   3.365   5.057
    2MOL1    Cl 1663   4.026   1.862   1.764
    2MOL1     C 1664   3.858   1.903   1.804
    2MOL1    Cl 1665   3.790   1.784   1.916
    2MOL1    Cl 1666   3.849   2.066   1.872
    2MOL1     H 1667   3.800   1.901   1.712
    2MOL1    Cl 1668   2.309   2.961   2.740
    2MOL1     C 1669   2.225   2.806   2.741
    2MOL1    Cl 1670   2.320   2.684   2.829
    2MOL1    Cl 1671   2.064   2.822   2.812
    2MOL1     H 1672   2.214   2.772   2.637
    2MOL1    Cl 1673   4.565   2.948   0.828
    2MOL1     C 1674   4.524   2.919   0.658
    2MOL1    Cl 1675   4.564   3.061   0.560
    2MOL1    Cl 1676   4.608   2.776   0.598
    2MOL1     H 1677   4.417   2.902   0.651
    2MOL1    Cl 1678   5.017   4.287   1.646
    2MOL1     C 1679   5.124   4.279   1.787
    2MOL1    Cl 1680   5.063   4.383   1.917
    2MOL1    Cl 1681   5.140   4.112   1.844
    2MOL1     H 1682   5.222   4.316   1.758
    2MOL1    Cl 1683   3.133   1.588   3.824
    2MOL1     C 1684   3.254   1.718   3.817
    2MOL1    Cl 1685   3.223   1.838   3.943
    2MOL1    Cl 1686   3.417   1.652   3.831
    2MOL1     H 1687   3.245   1.767   3.720
    2MOL1    Cl 1688   0.767   3.849   2.446
    2MOL1     C 1689   0.929   3.787   2.411
    2MOL1    Cl 1690   0.929   3.692   2.261
    2MOL1    Cl 1691   1.045   3.921   2.400
    2MOL1     H 1692   0.960   3.722   2.493
    2MOL1    Cl 1693   2.987   3.987   2.334
    2MOL1     C 1694   3.054   4.138   2.272
    2MOL1    Cl 1695   3.199   4.184   2.364
    2MOL1    Cl 1696   3.092   4.124   2.100
    2MOL1     H 1697   2.979   4.217   2.284
    2MOL1    Cl 1698   1.222   3.125   2.485
    2MOL1     C 1699   1.324   3.054   2.359
    2MOL1    Cl 1700   1.476   2.995   2.429
    2MOL1    Cl 1701   1.239   2.924   2.276
    2MOL1     H 1702   1.348   3.132   2.287
    2MOL1    Cl 1703   4.563   0.315   5.099
    2MOL1     C 1704   4.614   0.159   5.166
    2MOL1    Cl 1705   4.725   0.183   5.302
    2MOL1    Cl 1706   4.474   0.064   5.215
    2MOL1     H 1707   4.668   0.105   5.087
    2MOL1    Cl 1708   4.312   4.870   2.441
    2MOL1     C 1709   4.161   4.949   2.394
    2MOL1    Cl 1710   4.053   4.833   2.314
    2MOL1    Cl 1711   4.082   5.020   2.536
    2MOL1     H 1712   4.184   5.029   2.324
    2MOL1    Cl 1713   1.392   5.164   3.016
    2MOL1     C 1714   1.456   5.041   3.126
    2MOL1    Cl 1715   1.523   5.116   3.272
    2MOL1    Cl 1716   1.330   4.924   3.168
    2MOL1     H 1717   1.537   4.988   3.075
    2MOL1    Cl 1718   3.357   4.853   3.857
    2MOL1     C 1719   3.444   4.985   3.778
    2MOL1    Cl 1720   3.374   5.021   3.620
    2MOL1    Cl 1721   3.444   5.130   3.881
    2MOL1     H 1722   3.548   4.953   3.764
    2MOL1    Cl 1723   3.511   2.181   4.760
    2MOL1     C 1724   3.640   2.187   4.881
    2MOL1    Cl 1725   3.797   2.220   4.804
    2MOL1    Cl 1726   3.605   2.310   5.004
    2MOL1     H 1727   3.646   2.090   4.930
    2MOL1    Cl 1728   4.918   4.075   2.460
    2MOL1     C 1729   4.891   4.219   2.560
    2MOL1    Cl 1730   4.820   4.350   2.463
    2MOL1    Cl 1731   4.786   4.181   2.698
    2MOL1     H 1732   4.987   4.253   2.599
    2MOL1    Cl 1733   5.126   3.283   2.379
    2MOL1     C 1734   5.093   3.123   2.447
    2MOL1    Cl 1735   5.201   3.090   2.583
    2MOL1    Cl 1736   4.923   3.112   2.499
    2MOL1     H 1737   5.110   3.049   2.370
    2MOL1    Cl 1738   1.547   2.440   0.954
    2MOL1     C 1739   1.425   2.315   0.920
    2MOL1    Cl 1740   1.502   2.156   0.904
    2MOL1    Cl 1741   1.302   2.312   1.047
    2MOL1     H 1742   1.377   2.339   0.826
    2MOL1    Cl 1743   1.062   2.049   4.214
    2MOL1     C 1744   1.116   2.002   4.052
    2MOL1    Cl 1745   1.267   1.911   4.060
    2MOL1    Cl 1746   0.990   1.908   3.970
    2MOL1     H 1747   1.134   2.093   3.994
    2MOL1    Cl 1748   4.228   3.463   1.258
    2MOL1     C 1749   4.092   3.573   1.285
    2MOL1    Cl 1750   3.972   3.499   1.391
    2MOL1    Cl 1751   4.149   3.727   1.352
    2MOL1     H 1752   4.045   3.593   1.188
    2MOL1    Cl 1753   0.402   5.118   2.217
    2MOL1     C 1754   0.247   5.162   2.145
    2MOL1    Cl 1755   0.245   5.334   2.102
    2MOL1    Cl 1756   0.213   5.062   2.002
    2MOL1     H 1757   0.168   5.145   2.218
    2MOL1    Cl 1758   1.477   2.555   1.838
    2MOL1     C 1759   1.318   2.543   1.761
    2MOL1    Cl 1760   1.315   2.635   1.610
    2MOL1    Cl 1761   1.276   2.373   1.732
    2MOL1     H 1762   1.244   2.585   1.829
    2MOL1    Cl 1763   0.890   2.255   3.888
    2MOL1     C 1764   0.928   2.359   4.026
    2MOL1    Cl 1765   0.786   2.380   4.130
    2MOL1    Cl 1766   1.064   2.294   4.118
    2MOL1     H 1767   0.957   2.458   3.988
    2MOL1    Cl 1768   1.131   0.758   5.130
    2MOL1     C 1769   1.092   0.926   5.171
    2MOL1    Cl 1770   0.923   0.940   5.223
    2MOL1    Cl 1771   1.202   0.987   5.296
    2MOL1     H 1772   1.106   0.987   5.081
    2MOL1    Cl 1773   3.553   3.019   1.078
    2MOL1     C 1774   3.692   2.960   0.986
    2MOL1    Cl 1775   3.832   2.936   1.092
    2MOL1    Cl 1776   3.652   2.809   0.902
    2MOL1     H 1777   3.718   3.034   0.911
    2MOL1    Cl 1778   3.837   4.930   2.988
    2MOL1     C 1779   3.677   4.995   3.030
    2MOL1    Cl 1780   3.668   5.167   2.989
    2MOL1    Cl 1781   3.550   4.904   2.947
    2MOL1     H 1782   3.663   4.984   3.138
    2MOL1    Cl 1783   4.745   3.296   5.135
    2MOL1     C 1784   4.609   3.198   5.191
    2MOL1    Cl 1785   4.456   3.286   5.172
    2MOL1    Cl 1786   4.604   3.044   5.104
    2MOL1     H 1787   4.624   3.177   5.297
    2MOL1    Cl 1788   4.550   2.776   2.835
    2MOL1     C 1789   4.464   2.849   2.971
    2MOL1    Cl 1790   4.294   2.878   2.929
    2MOL1    Cl 1791   4.475   2.746   3.115
    2MOL1     H 1792   4.511   2.945   2.994
    2MOL1    Cl 1793   2.449   4.613   3.548
    2MOL1     C 1794   2.353   4.465   3.569
    2MOL1    Cl 1795   2.444   4.344   3.661
    2MOL1    Cl 1796   2.199   4.502   3.649
    2MOL1     H 1797   2.331   4.424   3.470
    2MOL1    Cl 1798   3.572   2.180   0.830
    2MOL1     C 1799   3.555   2.285   0.972
    2MOL1    Cl 1800   3.674   2.242   1.096
    2MOL1    Cl 1801   3.571   2.455   0.926
    2MOL1     H 1802   3.455   2.270   1.014
    2MOL1    Cl 1803   2.298   2.196   2.711
    2MOL1     C 1804   2.285   2.044   2.620
    2MOL1    Cl 1805   2.124   1.974   2.638
    2MOL1    Cl 1806   2.322   2.071   2.449
    2MOL1     H 1807   2.358   1.974   2.660
    2MOL1    Cl 1808   2.820   2.973   3.407
    2MOL1     C 1809   2.952   2.908   3.505
    2MOL1    Cl 1810   3.040   3.039   3.586
    2MOL1    Cl 1811   2.890   2.792   3.624
    2MOL1     H 1812   3.021   2.856   3.438
    2MOL1    Cl 1813   5.077   1.747   1.708
    2MOL1     C 1814   5.010   1.910   1.696
    2MOL1    Cl 1815   4.995   1.959   1.527
    2MOL1    Cl 1816   4.853   1.919   1.778
    2MOL1     H 1817   5.078   1.979   1.746
    2MOL1    Cl 1818   1.495   1.308   3.633
    2MOL1     C 1819   1.656   1.379   3.609
    2MOL1    Cl 1820   1.776   1.252   3.580
    2MOL1    Cl 1821   1.653   1.494   3.474
    2MOL1     H 1822   1.683   1.433   3.700
    2MOL1    Cl 1823   3.371   4.307   2.123
    2MOL1     C 1824   3.413   4.186   2.245
    2MOL1    Cl 1825   3.403   4.255   2.408
    2MOL1    Cl 1826   3.309   4.044   2.230
    2MOL1     H 1827   3.517   4.154   2.228
    2MOL1    Cl 1828   2.106   3.727   0.560
    2MOL1     C 1829   2.066   3.572   0.483
    2MOL1    Cl 1830   1.928   3.590   0.374
    2MOL1    Cl 1831   2.206   3.508   0.396
    2MOL1     H 1832   2.039   3.501   0.562
    2MOL1    Cl 1833   4.493   2.257   3.219
    2MOL1     C 1834   4.621   2.137   3.246
    2MOL1    Cl 1835   4.735   2.195   3.368
    2MOL1    Cl 1836   4.551   1.982   3.295
    2MOL1     H 1837   4.675   2.122   3.152
    2MOL1    Cl 1838   2.502   3.760   1.386
    2MOL1     C 1839   2.391   3.896   1.410
    2MOL1    Cl 1840   2.463   4.047   1.351
    2MOL1    Cl 1841   2.236   3.866   1.329
    2MOL1     H 1842   2.372   3.907   1.517
    2MOL1    Cl 1843   0.897   4.864   4.664
    2MOL1     C 1844   1.042   4.929   4.741
    2MOL1    Cl 1845   1.188   4.861   4.668
    2MOL1    Cl 1846   1.044   5.106   4.732
    2MOL1     H 1847   1.040   4.901   4.847
    2MOL1    Cl 1848   3.536   3.164   3.591
    2MOL1     C 1849   3.670   3.234   3.684
    2MOL1    Cl 1850   3.612   3.370   3.782
    2MOL1    Cl 1851   3.746   3.111   3.785
    2MOL1     H 1852   3.744   3.272   3.613
    2MOL1    Cl 1853   3.631   3.733   1.262
    2MOL1     C 1854   3.786   3.818   1.245
    2MOL1    Cl 1855   3.818   3.854   1.075
    2MOL1    Cl 1856   3.786   3.967   1.341
    2MOL1     H 1857   3.865   3.752   1.283
    2MOL1    Cl 1858   2.615   1.306   4.098
    2MOL1     C 1859   2.532   1.301   3.942
    2MOL1    Cl 1860   2.358   1.327   3.962
    2MOL1    Cl 1861   2.601   1.421   3.831
    2MOL1     H 1862   2.547   1.202   3.898
    2MOL1    Cl 1863   2.031   3.739   4.853
    2MOL1     C 1864   2.112   3.594   4.914
    2MOL1    Cl 1865   2.024   3.448   4.864
    2MOL1    Cl 1866   2.280   3.588   4.858
    2MOL1     H 1867   2.113   3.598   5.023
    2MOL1    Cl 1868   4.248   3.927   3.082
    2MOL1     C 1869   4.280   3.789   3.188
    2MOL1    Cl 1870   4.434   3.809   3.273
    2MOL1    Cl 1871   4.148   3.769   3.305
    2MOL1     H 1872   4.285   3.699   3.127
    2MOL1    Cl 1873   3.108   1.424   5.056
    2MOL1     C 1874   3.090   1.593   5.006
    2MOL1    Cl 1875   3.180   1.623   4.856
    2MOL1    Cl 1876   2.919   1.634   4.986
    2MOL1     H 1877   3.132   1.656   5.085
    2MOL1    Cl 1878   2.505   4.157   5.180
    2MOL1     C 1879   2.548   3.997   5.243
    2MOL1    Cl 1880   2.403   3.904   5.284
    2MOL1    Cl 1881   2.647   3.908   5.126
    2MOL1     H 1882   2.607   4.011   5.334
    2MOL1    Cl 1883   0.623   0.488   4.226
    2MOL1     C 1884   0.662   0.630   4.128
    2MOL1    Cl 1885   0.692   0.583   3.960
    2MOL1    Cl 1886   0.532   0.750   4.136
    2MOL1     H 1887   0.753   0.675   4.168
    2MOL1    Cl 1888   3.705   0.849   2.106
    2MOL1     C 1889   3.561   0.899   2.014
    2MOL1    Cl 1890   3.603   1.026   1.898
    2MOL1    Cl 1891   3.488   0.760   1.932
    2MOL1     H 1892   3.488   0.940   2.085
    2MOL1    Cl 1893   2.610   4.560   2.638
    2MOL1     C 1894   2.698   4.578   2.485
    2MOL1    Cl 1895   2.671   4.437   2.381
    2MOL1    Cl 1896   2.650   4.727   2.403
    2MOL1     H 1897   2.805   4.584   2.508
    2MOL1    Cl 1898   0.819   0.929   2.337
    2MOL1     C 1899   0.876   1.001   2.185
    2MOL1    Cl 1900   1.049   1.035   2.193
    2MOL1    Cl 1901   0.839   0.894   2.049
    2MOL1     H 1902   0.823   1.096   2.170
    2MOL1    Cl 1903   2.527   4.432   3.116
    2MOL1     C 1904   2.357   4.405   3.157
    2MOL1    Cl 1905   2.342   4.276   3.278
    2MOL1    Cl 1906   2.283   4.554   3.216
    2MOL1     H 1907   2.304   4.374   3.067
    2MOL1    Cl 1908   4.104   1.767   4.825
    2MOL1     C 1909   4.262   1.839   4.792
    2MOL1    Cl 1910   4.250   1.961   4.664
    2MOL1    Cl 1911   4.329   1.911   4.940
    2MOL1     H 1912   4.330   1.760   4.759
    2MOL1    Cl 1913   0.221   0.452   0.371
    2MOL1     C 1914   0.379   0.456   0.290
    2MOL1    Cl 1915   0.460   0.611   0.320
    2MOL1    Cl 1916   0.480   0.321   0.345
    2MOL1     H 1917   0.363   0.445   0.183
    2MOL1    Cl 1918   3.834   3.880   5.016
    2MOL1     C 1919   3.936   3.889   5.160
    2MOL1    Cl 1920   3.982   4.057   5.194
    2MOL1    Cl 1921   3.853   3.818   5.300
    2MOL1     H 1922   4.027   3.832   5.141
    2MOL1    Cl 1923   1.925   2.226   2.795
    2MOL1     C 1924   1.976   2.396   2.798
    2MOL1    Cl 1925   1.968   2.461   2.962
    2MOL1    Cl 1926   2.139   2.413   2.732
    2MOL1     H 1927   1.907   2.453   2.735
    2MOL1    Cl 1928   2.005   4.116   1.608
    2MOL1     C 1929   2.166   4.182   1.577
    2MOL1    Cl 1930   2.159   4.308   1.452
    2MOL1    Cl 1931   2.236   4.248   1.726
    2MOL1     H 1932   2.231   4.102   1.541
    2MOL1    Cl 1933   4.118   3.793   1.833
    2MOL1     C 1934   4.087   3.634   1.905
    2MOL1    Cl 1935   4.210   3.595   2.026
    2MOL1    Cl 1936   3.925   3.629   1.977
    2MOL1     H 1937   4.092   3.559   1.826
    2MOL1    Cl 1938   2.593   4.446   0.681
    2MOL1     C 1939   2.612   4.588   0.578
    2MOL1    Cl 1940   2.715   4.709   0.656
    2MOL1    Cl 1941   2.679   4.543   0.420
    2MOL1     H 1942   2.513   4.633   0.562
    2MOL1    Cl 1943   2.861   2.198   4.765
    2MOL1     C 1944   2.826   2.372   4.754
    2MOL1    Cl 1945   2.972   2.463   4.714
    2MOL1    Cl 1946   2.699   2.402   4.634
    2MOL1     H 1947   2.789   2.406   4.851
    2MOL1    Cl 1948   1.635   3.497   2.656
    2MOL1     C 1949   1.550   3.342   2.674
    2MOL1    Cl 1950   1.613   3.253   2.814
    2MOL1    Cl 1951   1.376   3.369   2.690
    2MOL1     H 1952   1.568   3.283   2.585
    2MOL1    Cl 1953   0.703   4.095   4.803
    2MOL1     C 1954   0.712   4.232   4.916
    2MOL1    Cl 1955   0.589   4.216   5.042
    2MOL1    Cl 1956   0.873   4.243   4.987
    2MOL1     H 1957   0.692   4.324   4.860
    2MOL1    Cl 1958   0.296   2.431   1.585
    2MOL1     C 1959   0.204   2.426   1.737
    2MOL1    Cl 1960   0.088   2.559   1.744
    2MOL1    Cl 1961   0.122   2.270   1.755
    2MOL1     H 1962   0.275   2.437   1.820
    2MOL1    Cl 1963   4.313   0.930   4.120
    2MOL1     C 1964   4.486   0.931   4.156
    2MOL1    Cl 1965   4.524   1.057   4.276
    2MOL1    Cl 1966   4.539   0.773   4.215
    2MOL1     H 1967   4.541   0.954   4.064
    2MOL1    Cl 1968   3.912   0.975   0.452
    2MOL1     C 1969   4.007   1.124   0.432
    2MOL1    Cl 1970   3.901   1.265   0.424
    2MOL1    Cl 1971   4.124   1.141   0.564
    2MOL1     H 1972   4.062   1.117   0.338
    2MOL1    Cl 1973   1.839   1.652   4.142
    2MOL1     C 1974   1.871   1.772   4.016
    2MOL1    Cl 1975   1.946   1.695   3.875
    2MOL1    Cl 1976   1.722   1.855   3.969
    2MOL1     H 1977   1.940   1.846   4.056
    2MOL1    Cl 1978   0.272   1.903   2.284
    2MOL1     C 1979   0.256   1.904   2.108
    2MOL1    Cl 1980   0.185   2.058   2.054
    2MOL1    Cl 1981   0.413   1.877   2.030
    2MOL1     H 1982   0.188   1.823   2.079
    2MOL1    Cl 1983   1.771   0.506   3.513
    2MOL1     C 1984   1.658   0.607   3.422
    2MOL1    Cl 1985   1.598   0.740   3.523
    2MOL1    Cl 1986   1.736   0.671   3.276
    2MOL1     H 1987   1.573   0.546   3.392
    2MOL1    Cl 1988   2.346   4.336   1.191
    2MOL1     C 1989   2.228   4.224   1.121
    2MOL1    Cl 1990   2.220   4.074   1.215
    2MOL1    Cl 1991   2.068   4.301   1.113
    2MOL1     H 1992   2.259   4.200   1.020
    2MOL1    Cl 1993   3.594   1.713   4.404
    2MOL1     C 1994   3.433   1.773   4.363
    2MOL1    Cl 1995   3.444   1.909   4.250
    2MOL1    Cl 1996   3.334   1.644   4.294
    2MOL1     H 1997   3.385   1.809   4.454
    2MOL1    Cl 1998   2.179   3.854   4.107
    2MOL1     C 1999   2.300   3.745   4.178
    2MOL1    Cl 2000   2.459   3.772   4.106
    2MOL1    Cl 2001   2.307   3.768   4.354
    2MOL1     H 2002   2.269   3.642   4.158
    2MOL1    Cl 2003   3.084   1.133   4.996
    2MOL1     C 2004   3.166   0.985   4.944
    2MOL1    Cl 2005   3.338   0.993   4.985
    2MOL1    Cl 2006   3.091   0.843   5.018
    2MOL1     H 2007   3.157   0.976   4.836
    2MOL1    Cl 2008   3.055   2.643   2.429
    2MOL1     C 2009   3.130   2.801   2.456
    2MOL1    Cl 2010   3.039   2.893   2.577
    2MOL1    Cl 2011   3.299   2.782   2.507
    2MOL1     H 2012   3.128   2.857   2.362
    2MOL1    Cl 2013   4.608   4.341   0.821
    2MOL1     C 2014   4.760   4.261   0.864
    2MOL1    Cl 2015   4.852   4.360   0.979
    2MOL1    Cl 2016   4.729   4.100   0.930
    2MOL1     H 2017   4.820   4.250   0.773
    2MOL1    Cl 2018   1.981   2.900   4.474
    2MOL1     C 2019   2.150   2.876   4.430
    2MOL1    Cl 2020   2.246   3.021   4.467
    2MOL1    Cl 2021   2.217   2.734   4.513
    2MOL1     H 2022   2.156   2.858   4.322
    2MOL1    Cl 2023   2.557   4.129   4.281
    2MOL1     C 2024   2.617   4.134   4.448
    2MOL1    Cl 2025   2.484   4.107   4.562
    2MOL1    Cl 2026   2.745   4.013   4.471
    2MOL1     H 2027   2.659   4.233   4.466
    2MOL1    Cl 2028   4.470   5.175   2.487
    2MOL1     C 2029   4.415   5.169   2.655
    2MOL1    Cl 2030   4.382   5.002   2.704
    2MOL1    Cl 2031   4.534   5.244   2.762
    2MOL1     H 2032   4.321   5.226   2.662
    2MOL1    Cl 2033   2.013   3.816   2.079
    2MOL1     C 2034   1.913   3.670   2.062
    2MOL1    Cl 2035   1.748   3.701   2.118
    2MOL1    Cl 2036   1.913   3.616   1.893
    2MOL1     H 2037   1.957   3.591   2.124
    2MOL1    Cl 2038   3.576   0.661   1.051
    2MOL1     C 2039   3.484   0.812   1.049
    2MOL1    Cl 2040   3.568   0.936   0.955
    2MOL1    Cl 2041   3.321   0.784   0.984
    2MOL1     H 2042   3.474   0.847   1.152
    2MOL1    Cl 2043   0.470   3.808   3.146
    2MOL1     C 2044   0.342   3.745   3.041
    2MOL1    Cl 2045   0.353   3.569   3.028
    2MOL1    Cl 2046   0.183   3.794   3.101
    2MOL1     H 2047   0.356   3.788   2.941
    2MOL1    Cl 2048   3.018   2.657   4.858
    2MOL1     C 2049   2.886   2.765   4.811
    2MOL1    Cl 2050   2.738   2.673   4.781
    2MOL1    Cl 2051   2.859   2.888   4.936
    2MOL1     H 2052   2.914   2.816   4.719
    2MOL1    Cl 2053   2.347   0.801   0.599
    2MOL1     C 2054   2.277   0.672   0.698
    2MOL1    Cl 2055   2.104   0.700   0.724
    2MOL1    Cl 2056   2.303   0.514   0.622
    2MOL1     H 2057   2.327   0.671   0.795
    2MOL1    Cl 2058   2.845   0.425   2.347
    2MOL1     C 2059   2.946   0.319   2.247
    2MOL1    Cl 2060   3.064   0.232   2.347
    2MOL1    Cl 2061   2.845   0.204   2.157
    2MOL1     H 2062   3.000   0.380   2.176
    2MOL1    Cl 2063   1.771   3.425   4.618
    2MOL1     C 2064   1.813   3.573   4.705
    2MOL1    Cl 2065   1.759   3.716   4.614
    2MOL1    Cl 2066   1.742   3.572   4.868
    2MOL1     H 2067   1.921   3.578   4.715
    2MOL1    Cl 2068   0.693   2.782   0.610
    2MOL1     C 2069   0.801   2.831   0.741
    2MOL1    Cl 2070   0.855   2.689   0.833
    2MOL1    Cl 2071   0.940   2.921   0.678
    2MOL1     H 2072   0.745   2.896   0.809
    2MOL1    Cl 2073   3.013   0.392   3.421
    2MOL1     C 2074   3.008   0.217   3.445
    2MOL1    Cl 2075   2.932   0.177   3.599
    2MOL1    Cl 2076   2.923   0.138   3.311
    2MOL1     H 2077   3.111   0.180   3.446
    2MOL1    Cl 2078   2.070   2.886   1.260
    2MOL1     C 2079   2.092   2.999   1.125
    2MOL1    Cl 2080   2.205   2.932   1.006
    2MOL1    Cl 2081   1.936   3.036   1.049
    2MOL1     H 2082   2.134   3.092   1.164
    2MOL1    Cl 2083   2.976   5.335   4.148
    2MOL1     C 2084   3.085   5.206   4.093
    2MOL1    Cl 2085   3.218   5.273   3.997
    2MOL1    Cl 2086   3.148   5.116   4.232
    2MOL1     H 2087   3.028   5.138   4.030
    2MOL1    Cl 2088   0.401   0.360   4.151
    2MOL1     C 2089   0.242   0.393   4.221
    2MOL1    Cl 2090   0.245   0.372   4.397
    2MOL1    Cl 2091   0.187   0.556   4.179
    2MOL1     H 2092   0.170   0.321   4.179
    2MOL1    Cl 2093   2.325   2.559   4.093
    2MOL1     C 2094   2.445   2.659   4.009
    2MOL1    Cl 2095   2.489   2.799   4.108
    2MOL1    Cl 2096   2.588   2.563   3.969
    2MOL1     H 2097   2.400   2.695   3.916
    2MOL1    Cl 2098   0.742   1.538   0.126
    2MOL1     C 2099   0.759   1.372   0.183
    2MOL1    Cl 2100   0.665   1.261   0.082
    2MOL1    Cl 2101   0.930   1.324   0.185
    2MOL1     H 2102   0.721   1.366   0.285
    2MOL1    Cl 2103   4.780   2.919   2.048
    2MOL1     C 2104   4.672   3.000   1.933
    2MOL1    Cl 2105   4.606   2.884   1.816
    2MOL1    Cl 2106   4.541   3.083   2.019
    2MOL1     H 2107   4.730   3.075   1.878
    2MOL1    Cl 2108   3.015   3.133   0.666
    2MOL1     C 2109   3.113   3.259   0.590
    2MOL1    Cl 2110   3.243   3.312   0.700
    2MOL1    Cl 2111   3.181   3.202   0.437
    2MOL1     H 2112   3.049   3.345   0.570
    2MOL1    Cl 2113   2.715   4.818   1.728
    2MOL1     C 2114   2.584   4.886   1.629
    2MOL1    Cl 2115   2.511   5.026   1.711
    2MOL1    Cl 2116   2.645   4.933   1.469
    2MOL1     H 2117   2.508   4.810   1.616
    2MOL1    Cl 2118   2.805   3.957   4.886
    2MOL1     C 2119   2.668   4.058   4.836
    2MOL1    Cl 2120   2.518   4.001   4.910
    2MOL1    Cl 2121   2.698   4.228   4.879
    2MOL1     H 2122   2.658   4.051   4.728
    2MOL1    Cl 2123   4.146   3.962   2.781
    2MOL1     C 2124   3.982   3.988   2.721
    2MOL1    Cl 2125   3.984   4.083   2.571
    2MOL1    Cl 2126   3.900   3.832   2.695
    2MOL1     H 2127   3.926   4.044   2.796
    2MOL1    Cl 2128   2.209   1.610   2.599
    2MOL1     C 2129   2.344   1.557   2.497
    2MOL1    Cl 2130   2.289   1.440   2.376
    2MOL1    Cl 2131   2.421   1.696   2.419
    2MOL1     H 2132   2.418   1.508   2.561
    2MOL1    Cl 2133   4.954   2.387   0.799
    2MOL1     C 2134   4.900   2.351   0.634
    2MOL1    Cl 2135   4.881   2.501   0.541
    2MOL1    Cl 2136   5.013   2.241   0.553
    2MOL1     H 2137   4.802   2.302   0.639
    2MOL1    Cl 2138   4.285   0.462   3.116
    2MOL1     C 2139   4.241   0.622   3.179
    2MOL1    Cl 2140   4.108   0.609   3.295
    2MOL1    Cl 2141   4.382   0.700   3.253
    2MOL1     H 2142   4.208   0.684   3.095
    2MOL1    Cl 2143   4.748   2.289   0.310
    2MOL1     C 2144   4.842   2.353   0.174
    2MOL1    Cl 2145   4.955   2.230   0.114
    2MOL1    Cl 2146   4.734   2.407   0.045
    2MOL1     H 2147   4.899   2.439   0.209
    2MOL1    Cl 2148   3.287   1.350   1.019
    2MOL1     C 2149   3.396   1.218   1.064
    2MOL1    Cl 2150   3.306   1.085   1.138
    2MOL1    Cl 2151   3.486   1.161   0.922
    2MOL1     H 2152   3.468   1.256   1.137
    2MOL1    Cl 2153   2.835   4.592   4.674
    2MOL1     C 2154   2.767   4.454   4.762
    2MOL1    Cl 2155   2.594   4.437   4.726
    2MOL1    Cl 2156   2.854   4.305   4.721
    2MOL1     H 2157   2.778   4.473   4.869
    2MOL1    Cl 2158   1.619   5.200   0.756
    2MOL1     C 2159   1.490   5.232   0.640
    2MOL1    Cl 2160   1.540   5.187   0.476
    2MOL1    Cl 2161   1.342   5.145   0.686
    2MOL1     H 2162   1.468   5.339   0.641
    2MOL1    Cl 2163   1.630   3.273   4.692
    2MOL1     C 2164   1.523   3.412   4.717
    2MOL1    Cl 2165   1.600   3.561   4.658
    2MOL1    Cl 2166   1.368   3.387   4.635
    2MOL1     H 2167   1.504   3.423   4.824
    2MOL1    Cl 2168   1.036   2.241   2.454
    2MOL1     C 2169   1.182   2.325   2.400
    2MOL1    Cl 2170   1.280   2.219   2.297
    2MOL1    Cl 2171   1.141   2.474   2.314
    2MOL1     H 2172   1.241   2.351   2.488
    2MOL1    Cl 2173   1.280   1.255   0.721
    2MOL1     C 2174   1.369   1.399   0.670
    2MOL1    Cl 2175   1.529   1.356   0.607
    2MOL1    Cl 2176   1.277   1.490   0.549
    2MOL1     H 2177   1.383   1.463   0.758
    2MOL1    Cl 2178   0.285   5.335   3.287
    2MOL1     C 2179   0.335   5.168   3.252
    2MOL1    Cl 2180   0.466   5.166   3.132
    2MOL1    Cl 2181   0.385   5.086   3.400
    2MOL1     H 2182   0.249   5.115   3.210
    2MOL1    Cl 2183   2.817   4.050   0.470
    2MOL1     C 2184   2.820   3.981   0.308
    2MOL1    Cl 2185   2.700   4.060   0.204
    2MOL1    Cl 2186   2.982   3.994   0.237
    2MOL1     H 2187   2.794   3.875   0.315
    2MOL1    Cl 2188   4.947   2.000   0.915
    2MOL1     C 2189   5.101   1.913   0.897
    2MOL1    Cl 2190   5.076   1.758   0.815
    2MOL1    Cl 2191   5.218   2.012   0.808
    2MOL1     H 2192   5.141   1.893   0.996
    2MOL1    Cl 2193   0.268   2.477   0.810
    2MOL1     C 2194   0.117   2.554   0.758
    2MOL1    Cl 2195   0.049   2.470   0.618
    2MOL1    Cl 2196   0.000   2.559   0.891
    2MOL1     H 2197   0.140   2.657   0.729
    2MOL1    Cl 2198   3.131   4.691   4.186
    2MOL1     C 2199   3.256   4.761   4.082
    2MOL1    Cl 2200   3.317   4.642   3.967
    2MOL1    Cl 2201   3.194   4.904   3.997
    2MOL1     H 2202   3.340   4.793   4.146
    2MOL1    Cl 2203   0.274   3.228   3.336
    2MOL1     C 2204   0.420   3.272   3.426
    2MOL1    Cl 2205   0.385   3.283   3.599
    2MOL1    Cl 2206   0.549   3.153   3.396
    2MOL1     H 2207   0.455   3.369   3.391
    2MOL1    Cl 2208   2.884   0.648   1.833
    2MOL1     C 2209   2.872   0.505   1.936
    2MOL1    Cl 2210   2.720   0.419   1.906
    2MOL1    Cl 2211   3.011   0.398   1.911
    2MOL1     H 2212   2.872   0.538   2.041
    2MOL1    Cl 2213   4.995   5.058   4.289
    2MOL1     C 2214   4.840   5.001   4.350
    2MOL1    Cl 2215   4.789   5.096   4.491
    2MOL1    Cl 2216   4.716   5.008   4.223
    2MOL1     H 2217   4.851   4.897   4.382
    2MOL1    Cl 2218   4.152   1.112   2.069
    2MOL1     C 2219   4.032   0.986   2.037
    2MOL1    Cl 2220   4.040   0.860   2.161
    2MOL1    Cl 2221   3.869   1.056   2.031
    2MOL1     H 2222   4.053   0.942   1.940
    2MOL1    Cl 2223   2.367   4.924   2.408
    2MOL1     C 2224   2.329   4.751   2.409
    2MOL1    Cl 2225   2.400   4.672   2.551
    2MOL1    Cl 2226   2.153   4.727   2.406
    2MOL1     H 2227   2.371   4.706   2.319
    2MOL1    Cl 2228   2.278   2.449   0.886
    2MOL1     C 2229   2.284   2.625   0.906
    2MOL1    Cl 2230   2.336   2.703   0.755
    2MOL1    Cl 2231   2.125   2.687   0.956
    2MOL1     H 2232   2.356   2.649   0.984
    2MOL1    Cl 2233   2.224   4.635   0.554
    2MOL1     C 2234   2.269   4.778   0.459
    2MOL1    Cl 2235   2.370   4.732   0.321
    2MOL1    Cl 2236   2.125   4.865   0.404
    2MOL1     H 2237   2.327   4.845   0.523
    2MOL1    Cl 2238   3.778   1.105   2.522
    2MOL1     C 2239   3.641   1.122   2.411
    2MOL1    Cl 2240   3.697   1.144   2.245
    2MOL1    Cl 2241   3.534   0.980   2.423
    2MOL1     H 2242   3.584   1.210   2.440
    2MOL1    Cl 2243   3.713   4.114   0.674
    2MOL1     C 2244   3.737   4.042   0.835
    2MOL1    Cl 2245   3.789   4.165   0.951
    2MOL1    Cl 2246   3.588   3.963   0.890
    2MOL1     H 2247   3.815   3.967   0.827
    2MOL1    Cl 2248   1.801   4.471   2.135
    2MOL1     C 2249   1.704   4.326   2.164
    2MOL1    Cl 2250   1.800   4.201   2.244
    2MOL1    Cl 2251   1.560   4.366   2.260
    2MOL1     H 2252   1.671   4.287   2.067
    2MOL1    Cl 2253   5.196   2.742   3.027
    2MOL1     C 2254   5.028   2.794   3.045
    2MOL1    Cl 2255   4.997   2.938   2.946
    2MOL1    Cl 2256   4.917   2.664   3.000
    2MOL1     H 2257   5.011   2.820   3.149
    2MOL1    Cl 2258   1.731   1.330   2.157
    2MOL1     C 2259   1.568   1.272   2.195
    2MOL1    Cl 2260   1.574   1.145   2.318
    2MOL1    Cl 2261   1.465   1.406   2.248
    2MOL1     H 2262   1.525   1.229   2.104
    2MOL1    Cl 2263   0.900   4.266   0.187
    2MOL1     C 2264   1.072   4.312   0.187
    2MOL1    Cl 2265   1.175   4.169   0.169
    2MOL1    Cl 2266   1.105   4.429   0.058
    2MOL1     H 2267   1.094   4.360   0.283
    2MOL1    Cl 2268   3.113   2.623   0.905
    2MOL1     C 2269   3.051   2.775   0.971
    2MOL1    Cl 2270   3.129   2.813   1.125
    2MOL1    Cl 2271   3.076   2.908   0.855
    2MOL1     H 2272   2.944   2.764   0.988
    2MOL1    Cl 2273   0.471   2.086   2.584
    2MOL1     C 2274   0.605   2.000   2.506
    2MOL1    Cl 2275   0.747   2.104   2.493
    2MOL1    Cl 2276   0.643   1.852   2.595
    2MOL1     H 2277   0.573   1.972   2.405
    2MOL1    Cl 2278   2.605   0.673   4.862
    2MOL1     C 2279   2.634   0.784   4.997
    2MOL1    Cl 2280   2.522   0.921   4.989
    2MOL1    Cl 2281   2.618   0.699   5.151
    2MOL1     H 2282   2.736   0.822   4.988
    2MOL1    Cl 2283   0.231   4.302   4.196
    2MOL1     C 2284   0.385   4.373   4.248
    2MOL1    Cl 2285   0.449   4.285   4.388
    2MOL1    Cl 2286   0.502   4.373   4.115
    2MOL1     H 2287   0.366   4.476   4.278
    2MOL1    Cl 2288   4.956   4.059   1.605
    2MOL1     C 2289   5.123   4.014   1.564
    2MOL1    Cl 2290   5.152   3.843   1.602
    2MOL1    Cl 2291   5.156   4.047   1.394
    2MOL1     H 2292   5.190   4.075   1.625
    2MOL1    Cl 2293   2.530   2.224   0.483
    2MOL1     C 2294   2.635   2.338   0.397
    2MOL1    Cl 2295   2.632   2.497   0.475
    2MOL1    Cl 2296   2.801   2.276   0.389
    2MOL1     H 2297   2.598   2.349   0.295
    2MOL1    Cl 2298   3.405   2.478   2.031
    2MOL1     C 2299   3.337   2.477   2.195
    2MOL1    Cl 2300   3.210   2.600   2.210
    2MOL1    Cl 2301   3.274   2.317   2.235
    2MOL1     H 2302   3.417   2.502   2.265
    2MOL1    Cl 2303   4.030   1.448   5.174
    2MOL1     C 2304   4.108   1.291   5.197
    2MOL1    Cl 2305   4.213   1.294   5.339
    2MOL1    Cl 2306   3.987   1.163   5.211
    2MOL1     H 2307   4.170   1.270   5.109
    2MOL1    Cl 2308   1.076   2.118   4.582
    2MOL1     C 2309   1.216   2.020   4.538
    2MOL1    Cl 2310   1.248   1.897   4.661
    2MOL1    Cl 2311   1.192   1.945   4.379
    2MOL1     H 2312   1.304   2.086   4.531
    2MOL1    Cl 2313   0.565   0.301   2.185
    2MOL1     C 2314   0.405   0.367   2.149
    2MOL1    Cl 2315   0.384   0.389   1.975
    2MOL1    Cl 2316   0.278   0.261   2.214
    2MOL1     H 2317   0.396   0.465   2.198
    2MOL1    Cl 2318   3.709   0.527   1.165
    2MOL1     C 2319   3.827   0.426   1.080
    2MOL1    Cl 2320   3.806   0.441   0.905
    2MOL1    Cl 2321   3.992   0.470   1.127
    2MOL1     H 2322   3.809   0.322   1.108
    2MOL1    Cl 2323   3.057   2.371   3.757
    2MOL1     C 2324   3.138   2.293   3.619
    2MOL1    Cl 2325   3.089   2.124   3.606
    2MOL1    Cl 2326   3.103   2.381   3.469
    2MOL1     H 2327   3.246   2.297   3.636
    2MOL1    Cl 2328   3.593   2.854   3.527
    2MOL1     C 2329   3.765   2.858   3.568
    2MOL1    Cl 2330   3.847   2.987   3.478
    2MOL1    Cl 2331   3.786   2.880   3.743
    2MOL1     H 2332   3.809   2.762   3.540
    2MOL1    Cl 2333   3.080   4.333   1.824
    2MOL1     C 2334   3.200   4.464   1.818
    2MOL1    Cl 2335   3.347   4.411   1.735
    2MOL1    Cl 2336   3.132   4.607   1.739
    2MOL1     H 2337   3.226   4.491   1.921
    2MOL1    Cl 2338   0.556   1.273   4.054
    2MOL1     C 2339   0.522   1.338   4.215
    2MOL1    Cl 2340   0.509   1.206   4.333
    2MOL1    Cl 2341   0.648   1.453   4.264
    2MOL1     H 2342   0.427   1.390   4.212
    2MOL1    Cl 2343   0.493   1.824   1.551
    2MOL1     C 2344   0.349   1.843   1.652
    2MOL1    Cl 2345   0.365   1.748   1.801
    2MOL1    Cl 2346   0.322   2.014   1.689
    2MOL1     H 2347   0.263   1.806   1.596
    2MOL1    Cl 2348   0.156   2.849   1.527
    2MOL1     C 2349   0.109   2.945   1.386
    2MOL1    Cl 2350   0.184   3.105   1.391
    2MOL1    Cl 2351   0.151   2.861   1.236
    2MOL1     H 2352   0.000   2.958   1.389
    2MOL1    Cl 2353   1.004   3.614   0.225
    2MOL1     C 2354   0.895   3.677   0.101
    2MOL1    Cl 2355   0.744   3.583   0.098
    2MOL1    Cl 2356   0.860   3.848   0.129
    2MOL1     H 2357   0.944   3.667   0.004
    2MOL1    Cl 2358   3.541   1.335   1.352
    2MOL1     C 2359   3.624   1.327   1.508
    2MOL1    Cl 2360   3.794   1.285   1.486
    2MOL1    Cl 2361   3.608   1.480   1.595
    2MOL1     H 2362   3.576   1.248   1.568
    2MOL1    Cl 2363   3.556   1.574   4.713
    2MOL1     C 2364   3.513   1.735   4.773
    2MOL1    Cl 2365   3.484   1.730   4.948
    2MOL1    Cl 2366   3.639   1.852   4.734
    2MOL1     H 2367   3.420   1.766   4.724
    2MOL1    Cl 2368   0.692   4.062   4.075
    2MOL1     C 2369   0.752   4.206   4.159
    2MOL1    Cl 2370   0.707   4.202   4.330
    2MOL1    Cl 2371   0.928   4.219   4.141
    2MOL1     H 2372   0.707   4.294   4.113
    2MOL1    Cl 2373   3.462   3.292   5.235
    2MOL1     C 2374   3.610   3.217   5.174
    2MOL1    Cl 2375   3.738   3.338   5.154
    2MOL1    Cl 2376   3.663   3.088   5.284
    2MOL1     H 2377   3.589   3.173   5.077
    2MOL1    Cl 2378   1.123   2.769   1.478
    2MOL1     C 2379   0.958   2.707   1.493
    2MOL1    Cl 2380   0.911   2.617   1.347
    2MOL1    Cl 2381   0.942   2.604   1.637
    2MOL1     H 2382   0.890   2.792   1.504
    2MOL1    Cl 2383   4.334   1.208   0.465
    2MOL1     C 2384   4.379   1.124   0.315
    2MOL1    Cl 2385   4.254   1.147   0.191
    2MOL1    Cl 2386   4.536   1.182   0.257
    2MOL1     H 2387   4.387   1.018   0.337
    2MOL1    Cl 2388   3.239   0.885   3.410
    2MOL1     C 2389   3.096   0.848   3.507
    2MOL1    Cl 2390   3.050   0.678   3.488
    2MOL1    Cl 2391   3.125   0.885   3.678
    2MOL1     H 2392   3.013   0.910   3.472
    2MOL1    Cl 2393   4.332   1.490   4.752
    2MOL1     C 2394   4.372   1.375   4.881
    2MOL1    Cl 2395   4.413   1.217   4.812
    2MOL1    Cl 2396   4.505   1.436   4.981
    2MOL1     H 2397   4.284   1.363   4.944
    2MOL1    Cl 2398   4.608   2.202   3.767
    2MOL1     C 2399   4.775   2.154   3.805
    2MOL1    Cl 2400   4.837   2.250   3.940
    2MOL1    Cl 2401   4.783   1.981   3.843
    2MOL1     H 2402   4.837   2.173   3.718
    2MOL1    Cl 2403   3.365   0.777   3.980
    2MOL1     C 2404   3.408   0.742   3.811
    2MOL1    Cl 2405   3.334   0.590   3.758
    2MOL1    Cl 2406   3.360   0.876   3.706
    2MOL1     H 2407   3.517   0.731   3.805
    2MOL1    Cl 2408   3.785   3.659   1.689
    2MOL1     C 2409   3.883   3.803   1.657
    2MOL1    Cl 2410   4.030   3.761   1.569
    2MOL1    Cl 2411   3.789   3.924   1.568
    2MOL1     H 2412   3.912   3.847   1.753
    2MOL1    Cl 2413   0.582   0.020   1.292
    2MOL1     C 2414   0.537   0.168   1.377
    2MOL1    Cl 2415   0.680   0.263   1.419
    2MOL1    Cl 2416   0.425   0.264   1.279
    2MOL1     H 2417   0.485   0.140   1.470
    2MOL1    Cl 2418   2.163   3.908   3.529
    2MOL1     C 2419   2.167   3.983   3.689
    2MOL1    Cl 2420   2.103   3.872   3.811
    2MOL1    Cl 2421   2.332   4.033   3.730
    2MOL1     H 2422   2.104   4.072   3.687
    2MOL1    Cl 2423   4.648   4.074   1.284
    2MOL1     C 2424   4.516   3.974   1.347
    2MOL1    Cl 2425   4.395   3.943   1.222
    2MOL1    Cl 2426   4.578   3.822   1.413
    2MOL1     H 2427   4.467   4.029   1.429
    2MOL1    Cl 2428   2.996   4.270   4.508
    2MOL1     C 2429   3.124   4.367   4.582
    2MOL1    Cl 2430   3.103   4.374   4.758
    2MOL1    Cl 2431   3.284   4.301   4.541
    2MOL1     H 2432   3.118   4.468   4.543
    2MOL1    Cl 2433   1.988   1.710   4.815
    2MOL1     C 2434   2.066   1.868   4.808
    2MOL1    Cl 2435   2.215   1.860   4.711
    2MOL1    Cl 2436   1.956   1.990   4.743
    2MOL1     H 2437   2.094   1.897   4.910
    2MOL1    Cl 2438   1.663   3.563   1.939
    2MOL1     C 2439   1.555   3.490   2.059
    2MOL1    Cl 2440   1.622   3.336   2.117
    2MOL1    Cl 2441   1.528   3.601   2.194
    2MOL1     H 2442   1.459   3.469   2.011
    2MOL1    Cl 2443   4.210   4.578   3.856
    2MOL1     C 2444   4.188   4.429   3.764
    2MOL1    Cl 2445   4.332   4.327   3.776
    2MOL1    Cl 2446   4.044   4.342   3.820
    2MOL1     H 2447   4.173   4.456   3.659
    2MOL1    Cl 2448   0.647   1.123   3.664
    2MOL1     C 2449   0.704   1.028   3.803
    2MOL1    Cl 2450   0.702   1.126   3.950
    2MOL1    Cl 2451   0.605   0.883   3.823
    2MOL1     H 2452   0.807   0.997   3.783
    2MOL1    Cl 2453   1.541   4.528   0.757
    2MOL1     C 2454   1.698   4.455   0.720
    2MOL1    Cl 2455   1.680   4.319   0.609
    2MOL1    Cl 2456   1.808   4.577   0.652
    2MOL1     H 2457   1.742   4.418   0.813
    2MOL1    Cl 2458   3.197   0.594   0.142
    2MOL1     C 2459   3.261   0.431   0.113
    2MOL1    Cl 2460   3.434   0.438   0.075
    2MOL1    Cl 2461   3.233   0.327   0.253
    2MOL1     H 2462   3.209   0.388   0.027
    2MOL1    Cl 2463   3.945   0.985   3.252
    2MOL1     C 2464   3.804   0.883   3.282
    2MOL1    Cl 2465   3.845   0.750   3.393
    2MOL1    Cl 2466   3.670   0.979   3.347
    2MOL1     H 2467   3.772   0.839   3.187
    2MOL1    Cl 2468   0.334   4.565   4.005
    2MOL1     C 2469   0.169   4.627   4.000
    2MOL1    Cl 2470   0.154   4.756   3.879
    2MOL1    Cl 2471   0.054   4.496   3.966
    2MOL1     H 2472   0.145   4.669   4.098
    2MOL1    Cl 2473   4.307   1.690   5.058
    2MOL1     C 2474   4.387   1.729   5.211
    2MOL1    Cl 2475   4.351   1.896   5.260
    2MOL1    Cl 2476   4.339   1.615   5.338
    2MOL1     H 2477   4.495   1.721   5.197
    2MOL1    Cl 2478   0.439   0.820   2.872
    2MOL1     C 2479   0.441   0.663   2.791
    2MOL1    Cl 2480   0.394   0.679   2.621
    2MOL1    Cl 2481   0.602   0.588   2.803
    2MOL1     H 2482   0.369   0.597   2.841
    2MOL1    Cl 2483   0.347   2.240   2.214
    2MOL1     C 2484   0.458   2.168   2.097
    2MOL1    Cl 2485   0.549   2.294   2.012
    2MOL1    Cl 2486   0.568   2.055   2.177
    2MOL1     H 2487   0.399   2.112   2.024
    2MOL1    Cl 2488   3.785   2.056   1.552
    2MOL1     C 2489   3.711   2.214   1.583
    2MOL1    Cl 2490   3.570   2.197   1.690
    2MOL1    Cl 2491   3.829   2.326   1.653
    2MOL1     H 2492   3.676   2.255   1.488
    2MOL1    Cl 2493   2.655   0.985   4.181
    2MOL1     C 2494   2.624   0.930   4.347
    2MOL1    Cl 2495   2.484   0.822   4.352
    2MOL1    Cl 2496   2.767   0.849   4.413
    2MOL1     H 2497   2.603   1.018   4.409
    2MOL1    Cl 2498   4.568   2.578   5.087
    2MOL1     C 2499   4.652   2.530   4.939
    2MOL1    Cl 2500   4.680   2.671   4.834
    2MOL1    Cl 2501   4.806   2.451   4.977
    2MOL1     H 2502   4.590   2.459   4.885
    2MOL1    Cl 2503   3.669   0.773   2.926
    2MOL1     C 2504   3.828   0.772   2.847
    2MOL1    Cl 2505   3.846   0.914   2.743
    2MOL1    Cl 2506   3.958   0.767   2.968
    2MOL1     H 2507   3.835   0.683   2.785
    2MOL1    Cl 2508   3.330   2.281   3.258
    2MOL1     C 2509   3.374   2.110   3.271
    2MOL1    Cl 2510   3.519   2.090   3.370
    2MOL1    Cl 2511   3.239   2.016   3.338
    2MOL1     H 2512   3.395   2.072   3.170
    2MOL1    Cl 2513   3.828   1.826   1.388
    2MOL1     C 2514   3.806   1.694   1.504
    2MOL1    Cl 2515   3.759   1.545   1.421
    2MOL1    Cl 2516   3.953   1.669   1.599
    2MOL1     H 2517   3.725   1.722   1.573
    2MOL1    Cl 2518   0.584   3.464   1.667
    2MOL1     C 2519   0.423   3.407   1.620
    2MOL1    Cl 2520   0.305   3.443   1.746
    2MOL1    Cl 2521   0.374   3.480   1.466
    2MOL1     H 2522   0.427   3.299   1.606
    2MOL1    Cl 2523   2.448   3.640   4.675
    2MOL1     C 2524   2.487   3.808   4.633
    2MOL1    Cl 2525   2.566   3.816   4.475
    2MOL1    Cl 2526   2.341   3.909   4.635
    2MOL1     H 2527   2.556   3.847   4.709
    2MOL1    Cl 2528   1.825   1.678   1.937
    2MOL1     C 2529   1.980   1.594   1.920
    2MOL1    Cl 2530   2.094   1.647   2.046
    2MOL1    Cl 2531   1.957   1.419   1.927
    2MOL1     H 2532   2.022   1.620   1.823
    2MOL1    Cl 2533   4.680   2.637   0.281
    2MOL1     C 2534   4.541   2.547   0.343
    2MOL1    Cl 2535   4.501   2.412   0.236
    2MOL1    Cl 2536   4.573   2.488   0.507
    2MOL1     H 2537   4.455   2.615   0.347
    2MOL1    Cl 2538   3.047   4.664   3.733
    2MOL1     C 2539   3.084   4.598   3.573
    2MOL1    Cl 2540   2.955   4.638   3.458
    2MOL1    Cl 2541   3.240   4.659   3.515
    2MOL1     H 2542   3.090   4.489   3.581
    2MOL1    Cl 2543   5.066   4.046   5.248
    2MOL1     C 2544   5.030   3.876   5.212
    2MOL1    Cl 2545   4.883   3.863   5.114
    2MOL1    Cl 2546   5.167   3.801   5.128
    2MOL1     H 2547   5.014   3.824   5.306
    2MOL1    Cl 2548   1.366   2.604   3.300
    2MOL1     C 2549   1.202   2.666   3.323
    2MOL1    Cl 2550   1.088   2.583   3.214
    2MOL1    Cl 2551   1.151   2.647   3.492
    2MOL1     H 2552   1.201   2.772   3.299
    2MOL1    Cl 2553   2.589   2.745   1.477
    2MOL1     C 2554   2.585   2.828   1.320
    2MOL1    Cl 2555   2.592   2.710   1.188
    2MOL1    Cl 2556   2.440   2.929   1.307
    2MOL1     H 2557   2.673   2.892   1.313
    2MOL1    Cl 2558   0.073   3.733   3.539
    2MOL1     C 2559   0.131   3.570   3.577
    2MOL1    Cl 2560   0.125   3.541   3.752
    2MOL1    Cl 2561   0.035   3.449   3.491
    2MOL1     H 2562   0.235   3.562   3.545
    2MOL1    Cl 2563   2.426   4.766   3.201
    2MOL1     C 2564   2.497   4.841   3.345
    2MOL1    Cl 2565   2.541   5.010   3.312
    2MOL1    Cl 2566   2.384   4.832   3.481
    2MOL1     H 2567   2.588   4.786   3.372
    2MOL1    Cl 2568   5.173   2.750   4.286
    2MOL1     C 2569   5.013   2.719   4.217
    2MOL1    Cl 2570   4.978   2.833   4.085
    2MOL1    Cl 2571   5.001   2.552   4.159
    2MOL1     H 2572   4.938   2.733   4.295
    2MOL1    Cl 2573   2.713   2.329   3.460
    2MOL1     C 2574   2.579   2.251   3.545
    2MOL1    Cl 2575   2.553   2.325   3.704
    2MOL1    Cl 2576   2.430   2.259   3.448
    2MOL1     H 2577   2.604   2.145   3.559
    2MOL1    Cl 2578   2.112   0.922   4.107
    2MOL1     C 2579   1.943   0.923   4.054
    2MOL1    Cl 2580   1.887   1.089   4.026
    2MOL1    Cl 2581   1.923   0.825   3.907
    2MOL1     H 2582   1.882   0.879   4.133
    2MOL1    Cl 2583   0.801   0.252   0.831
    2MOL1     C 2584   0.911   0.386   0.869
    2MOL1    Cl 2585   0.890   0.438   1.037
    2MOL1    Cl 2586   1.079   0.338   0.840
    2MOL1     H 2587   0.887   0.470   0.804
    2MOL1    Cl 2588   4.255   1.543   3.777
    2MOL1     C 2589   4.170   1.436   3.665
    2MOL1    Cl 2590   4.063   1.326   3.753
    2MOL1    Cl 2591   4.078   1.530   3.546
    2MOL1     H 2592   4.245   1.376   3.612
    2MOL1    Cl 2593   3.095   4.922   3.504
    2MOL1     C 2594   3.208   4.917   3.368
    2MOL1    Cl 2595   3.182   5.054   3.259
    2MOL1    Cl 2596   3.376   4.915   3.427
    2MOL1     H 2597   3.191   4.824   3.312
    2MOL1    Cl 2598   2.288   2.489   2.940
    2MOL1     C 2599   2.217   2.561   3.085
    2MOL1    Cl 2600   2.088   2.674   3.041
    2MOL1    Cl 2601   2.154   2.435   3.193
    2MOL1     H 2602   2.295   2.616   3.138
    2MOL1    Cl 2603   1.381   0.534   5.224
    2MOL1     C 2604   1.444   0.699   5.236
    2MOL1    Cl 2605   1.336   0.800   5.334
    2MOL1    Cl 2606   1.608   0.698   5.303
    2MOL1     H 2607   1.447   0.741   5.135
    2MOL1    Cl 2608   2.379   4.420   4.319
    2MOL1     C 2609   2.203   4.433   4.328
    2MOL1    Cl 2610   2.134   4.455   4.166
    2MOL1    Cl 2611   2.133   4.291   4.406
    2MOL1     H 2612   2.178   4.521   4.387
    2MOL1    Cl 2613   0.619   3.693   5.058
    2MOL1     C 2614   0.775   3.776   5.052
    2MOL1    Cl 2615   0.776   3.917   5.160
    2MOL1    Cl 2616   0.907   3.665   5.094
    2MOL1     H 2617   0.792   3.811   4.950
    2MOL1    Cl 2618   5.252   2.977   1.898
    2MOL1     C 2619   5.101   3.070   1.883
    2MOL1    Cl 2620   5.111   3.184   1.749
    2MOL1    Cl 2621   4.963   2.960   1.862
    2MOL1     H 2622   5.086   3.126   1.976
    2MOL1    Cl 2623   3.257   1.350   3.577
    2MOL1     C 2624   3.345   1.197   3.583
    2MOL1    Cl 2625   3.439   1.184   3.732
    2MOL1    Cl 2626   3.232   1.060   3.568
    2MOL1     H 2627   3.414   1.193   3.498
    2MOL1    Cl 2628   1.485   0.200   1.174
    2MOL1     C 2629   1.552   0.078   1.284
    2MOL1    Cl 2630   1.695   0.002   1.212
    2MOL1    Cl 2631   1.592   0.150   1.441
    2MOL1     H 2632   1.476   0.001   1.299
    2MOL1    Cl 2633   2.711   2.851   3.761
    2MOL1     C 2634   2.761   2.934   3.910
    2MOL1    Cl 2635   2.934   2.969   3.907
    2MOL1    Cl 2636   2.668   3.084   3.932
    2MOL1     H 2637   2.740   2.868   3.994
    2MOL1    Cl 2638   5.156   3.195   1.194
    2MOL1     C 2639   5.119   3.361   1.244
    2MOL1    Cl 2640   4.946   3.378   1.280
    2MOL1    Cl 2641   5.217   3.407   1.383
    2MOL1     H 2642   5.143   3.427   1.161
    2MOL1    Cl 2643   1.832   0.409   0.085
    2MOL1     C 2644   1.883   0.278   0.194
    2MOL1    Cl 2645   1.936   0.137   0.101
    2MOL1    Cl 2646   2.011   0.334   0.303
    2MOL1     H 2647   1.797   0.249   0.255
    2MOL1    Cl 2648   1.104   1.923   2.815
    2MOL1     C 2649   1.122   1.879   2.986
    2MOL1    Cl 2650   1.273   1.792   3.012
    2MOL1    Cl 2651   1.114   2.024   3.088
    2MOL1     H 2652   1.039   1.814   3.013
    2MOL1    Cl 2653   2.561   3.939   2.399
    2MOL1     C 2654   2.715   3.884   2.468
    2MOL1    Cl 2655   2.796   4.017   2.552
    2MOL1    Cl 2656   2.688   3.747   2.577
    2MOL1     H 2657   2.779   3.850   2.386
    2MOL1    Cl 2658   1.635   0.471   2.857
    2MOL1     C 2659   1.506   0.580   2.908
    2MOL1    Cl 2660   1.410   0.508   3.038
    2MOL1    Cl 2661   1.573   0.736   2.960
    2MOL1     H 2662   1.440   0.598   2.822
    2MOL1    Cl 2663   5.011   4.886   2.769
    2MOL1     C 2664   5.070   5.036   2.842
    2MOL1    Cl 2665   4.935   5.135   2.901
    2MOL1    Cl 2666   5.183   5.000   2.974
    2MOL1     H 2667   5.124   5.093   2.765
    2MOL1    Cl 2668   2.771   3.872   3.302
    2MOL1     C 2669   2.617   3.845   3.219
    2MOL1    Cl 2670   2.559   3.994   3.145
    2MOL1    Cl 2671   2.632   3.717   3.098
    2MOL1     H 2672   2.543   3.813   3.294
    2MOL1    Cl 2673   5.234   5.114   0.247
    2MOL1     C 2674   5.082   5.024   0.262
    2MOL1    Cl 2675   5.096   4.865   0.184
    2MOL1    Cl 2676   5.037   5.007   0.432
    2MOL1     H 2677   5.004   5.081   0.211
    2MOL1    Cl 2678   1.636   4.148   5.066
    2MOL1     C 2679   1.522   4.061   5.169
    2MOL1    Cl 2680   1.506   3.893   5.117
    2MOL1    Cl 2681   1.573   4.070   5.339
    2MOL1     H 2682   1.424   4.109   5.161
    2MOL1    Cl 2683   0.694   1.939   3.466
    2MOL1     C 2684   0.520   1.959   3.489
    2MOL1    Cl 2685   0.433   1.814   3.439
    2MOL1    Cl 2686   0.484   1.998   3.658
    2MOL1     H 2687   0.486   2.043   3.427
    2MOL1    Cl 2688   4.729   0.570   4.784
    2MOL1     C 2689   4.605   0.446   4.812
    2MOL1    Cl 2690   4.464   0.516   4.892
    2MOL1    Cl 2691   4.558   0.369   4.659
    2MOL1     H 2692   4.647   0.369   4.877
    2MOL1    Cl 2693   4.380   2.288   2.422
    2MOL1     C 2694   4.291   2.421   2.498
    2MOL1    Cl 2695   4.316   2.422   2.673
    2MOL1    Cl 2696   4.340   2.576   2.427
    2MOL1     H 2697   4.184   2.407   2.478
    2MOL1    Cl 2698   3.578   4.772   1.534
    2MOL1     C 2699   3.515   4.657   1.652
    2MOL1    Cl 2700   3.621   4.515   1.664
    2MOL1    Cl 2701   3.495   4.734   1.810
    2MOL1     H 2702   3.416   4.623   1.618
    2MOL1    Cl 2703   5.192   5.159   0.574
    2MOL1     C 2704   5.203   5.200   0.746
    2MOL1    Cl 2705   5.061   5.294   0.796
    2MOL1    Cl 2706   5.219   5.054   0.844
    2MOL1     H 2707   5.292   5.262   0.761
    2MOL1    Cl 2708   3.936   5.015   0.165
    2MOL1     C 2709   3.976   5.154   0.267
    2MOL1    Cl 2710   4.152   5.172   0.280
    2MOL1    Cl 2711   3.903   5.302   0.203
    2MOL1     H 2712   3.936   5.136   0.367
    2MOL1    Cl 2713   0.716   4.975   2.517
    2MOL1     C 2714   0.638   5.133   2.494
    2MOL1    Cl 2715   0.727   5.229   2.375
    2MOL1    Cl 2716   0.470   5.112   2.444
    2MOL1     H 2717   0.640   5.186   2.589
    2MOL1    Cl 2718   3.011   5.213   4.455
    2MOL1     C 2719   2.860   5.145   4.392
    2MOL1    Cl 2720   2.892   5.045   4.248
    2MOL1    Cl 2721   2.778   5.050   4.516
    2MOL1     H 2722   2.795   5.227   4.362
    2MOL1    Cl 2723   4.486   4.039   1.838
    2MOL1     C 2724   4.416   4.201   1.840
    2MOL1    Cl 2725   4.275   4.206   1.947
    2MOL1    Cl 2726   4.536   4.321   1.891
    2MOL1     H 2727   4.383   4.226   1.739
    2MOL1    Cl 2728   3.131   3.696   4.912
    2MOL1     C 2729   3.302   3.689   4.866
    2MOL1    Cl 2730   3.327   3.569   4.739
    2MOL1    Cl 2731   3.358   3.849   4.813
    2MOL1     H 2732   3.360   3.660   4.954
    2MOL1    Cl 2733   2.687   0.621   4.272
    2MOL1     C 2734   2.791   0.527   4.380
    2MOL1    Cl 2735   2.729   0.362   4.398
    2MOL1    Cl 2736   2.957   0.525   4.320
    2MOL1     H 2737   2.790   0.575   4.478
    2MOL1    Cl 2738   3.277   3.474   1.774
    2MOL1     C 2739   3.364   3.325   1.812
    2MOL1    Cl 2740   3.443   3.337   1.970
    2MOL1    Cl 2741   3.253   3.186   1.810
    2MOL1     H 2742   3.440   3.308   1.736
    2MOL1    Cl 2743   0.385   3.050   3.534
    2MOL1     C 2744   0.211   3.078   3.540
    2MOL1    Cl 2745   0.141   3.009   3.687
    2MOL1    Cl 2746   0.175   3.252   3.531
    2MOL1     H 2747   0.165   3.029   3.454
    2MOL1    Cl 2748   1.608   3.754   3.011
    2MOL1     C 2749   1.505   3.847   3.121
    2MOL1    Cl 2750   1.551   4.018   3.120
    2MOL1    Cl 2751   1.334   3.827   3.078
    2MOL1     H 2752   1.520   3.808   3.222
    2MOL1    Cl 2753   2.929   4.156   1.679
    2MOL1     C 2754   2.799   4.264   1.734
    2MOL1    Cl 2755   2.746   4.218   1.897
    2MOL1    Cl 2756   2.853   4.433   1.731
    2MOL1     H 2757   2.714   4.253   1.666
    2MOL1    Cl 2758   5.139   1.840   2.968
    2MOL1     C 2759   5.134   1.664   2.953
    2MOL1    Cl 2760   5.272   1.605   2.860
    2MOL1    Cl 2761   5.130   1.588   3.113
    2MOL1     H 2762   5.042   1.637   2.900
    2MOL1    Cl 2763   4.566   3.548   3.049
    2MOL1     C 2764   4.430   3.438   3.021
    2MOL1    Cl 2765   4.356   3.390   3.175
    2MOL1    Cl 2766   4.310   3.513   2.915
    2MOL1     H 2767   4.468   3.348   2.972
    2MOL1    Cl 2768   2.720   5.031   2.578
    2MOL1     C 2769   2.770   4.882   2.660
    2MOL1    Cl 2770   2.876   4.919   2.797
    2MOL1    Cl 2771   2.629   4.790   2.713
    2MOL1     H 2772   2.826   4.821   2.588
    2MOL1    Cl 2773   2.957   3.433   2.404
    2MOL1     C 2774   3.033   3.275   2.423
    2MOL1    Cl 2775   3.090   3.213   2.267
    2MOL1    Cl 2776   3.167   3.284   2.539
    2MOL1     H 2777   2.959   3.205   2.463
    2MOL1    Cl 2778   1.767   3.501   4.131
    2MOL1     C 2779   1.942   3.508   4.111
    2MOL1    Cl 2780   2.012   3.635   4.213
    2MOL1    Cl 2781   2.015   3.351   4.148
    2MOL1     H 2782   1.964   3.531   4.006
    2MOL1    Cl 2783   5.098   1.808   0.522
    2MOL1     C 2784   4.934   1.753   0.561
    2MOL1    Cl 2785   4.939   1.618   0.676
    2MOL1    Cl 2786   4.837   1.886   0.626
    2MOL1     H 2787   4.887   1.718   0.469
    2MOL1    Cl 2788   2.083   2.883   2.172
    2MOL1     C 2789   2.062   3.049   2.112
    2MOL1    Cl 2790   2.199   3.096   2.010
    2MOL1    Cl 2791   1.910   3.064   2.023
    2MOL1     H 2792   2.058   3.116   2.198
    2MOL1    Cl 2793   2.032   0.928   5.128
    2MOL1     C 2794   1.988   0.966   4.961
    2MOL1    Cl 2795   2.130   0.956   4.855
    2MOL1    Cl 2796   1.860   0.858   4.904
    2MOL1     H 2797   1.950   1.068   4.958
    2MOL1    Cl 2798   0.338   4.926   3.980
    2MOL1     C 2799   0.307   5.097   4.009
    2MOL1    Cl 2800   0.409   5.198   3.906
    2MOL1    Cl 2801   0.136   5.135   3.984
    2MOL1     H 2802   0.332   5.119   4.114
    2MOL1    Cl 2803   1.599   4.553   1.861
    2MOL1     C 2804   1.661   4.496   1.705
    2MOL1    Cl 2805   1.827   4.551   1.680
    2MOL1    Cl 2806   1.651   4.320   1.694
    2MOL1     H 2807   1.598   4.539   1.626
    2MOL1    Cl 2808   4.760   1.188   4.266
    2MOL1     C 2809   4.908   1.093   4.283
    2MOL1    Cl 2810   4.872   0.933   4.350
    2MOL1    Cl 2811   4.990   1.078   4.127
    2MOL1     H 2812   4.975   1.145   4.352
    2MOL1    Cl 2813   2.194   3.326   0.248
    2MOL1     C 2814   2.367   3.308   0.281
    2MOL1    Cl 2815   2.427   3.444   0.377
    2MOL1    Cl 2816   2.398   3.155   0.365
    2MOL1     H 2817   2.420   3.306   0.186
    2MOL1    Cl 2818   2.774   4.062   1.523
    2MOL1     C 2819   2.761   4.197   1.409
    2MOL1    Cl 2820   2.834   4.153   1.253
    2MOL1    Cl 2821   2.592   4.245   1.388
    2MOL1     H 2822   2.816   4.282   1.449
    2MOL1    Cl 2823   1.440   0.818   3.965
    2MOL1     C 2824   1.591   0.905   3.997
    2MOL1    Cl 2825   1.701   0.893   3.858
    2MOL1    Cl 2826   1.558   1.074   4.036
    2MOL1     H 2827   1.640   0.858   4.083
    2MOL1    Cl 2828   1.694   0.989   2.840
    2MOL1     C 2829   1.619   1.147   2.869
    2MOL1    Cl 2830   1.484   1.132   2.983
    2MOL1    Cl 2831   1.739   1.263   2.929
    2MOL1     H 2832   1.580   1.185   2.774
    2MOL1    Cl 2833   1.843   3.202   3.547
    2MOL1     C 2834   2.000   3.190   3.466
    2MOL1    Cl 2835   2.043   3.344   3.389
    2MOL1    Cl 2836   2.126   3.140   3.580
    2MOL1     H 2837   1.993   3.113   3.387
    2MOL1    Cl 2838   4.020   4.239   3.063
    2MOL1     C 2839   3.847   4.269   3.037
    2MOL1    Cl 2840   3.823   4.392   2.913
    2MOL1    Cl 2841   3.764   4.118   2.992
    2MOL1     H 2842   3.804   4.305   3.131
    2MOL1    Cl 2843   2.590   5.080   0.373
    2MOL1     C 2844   2.685   5.109   0.520
    2MOL1    Cl 2845   2.703   5.283   0.549
    2MOL1    Cl 2846   2.609   5.030   0.659
    2MOL1     H 2847   2.784   5.066   0.505
    2MOL1    Cl 2848   1.511   3.960   4.050
    2MOL1     C 2849   1.632   3.850   3.981
    2MOL1    Cl 2850   1.698   3.744   4.106
    2MOL1    Cl 2851   1.562   3.755   3.849
    2MOL1     H 2852   1.714   3.910   3.941
    2MOL1    Cl 2853   2.400   2.170   1.183
    2MOL1     C 2854   2.375   2.249   1.339
    2MOL1    Cl 2855   2.318   2.415   1.317
    2MOL1    Cl 2856   2.260   2.157   1.438
    2MOL1     H 2857   2.471   2.252   1.392
    2MOL1    Cl 2858   2.179   1.394   2.104
    2MOL1     C 2859   2.026   1.334   2.170
    2MOL1    Cl 2860   1.906   1.463   2.175
    2MOL1    Cl 2861   1.967   1.197   2.075
    2MOL1     H 2862   2.044   1.299   2.272
    2MOL1    Cl 2863   2.289   2.699   0.304
    2MOL1     C 2864   2.246   2.864   0.352
    2MOL1    Cl 2865   2.073   2.876   0.386
    2MOL1    Cl 2866   2.342   2.916   0.492
    2MOL1     H 2867   2.270   2.931   0.268
    2MOL1    Cl 2868   3.632   2.480   4.224
    2MOL1     C 2869   3.542   2.534   4.367
    2MOL1    Cl 2870   3.393   2.617   4.319
    2MOL1    Cl 2871   3.506   2.397   4.473
    2MOL1     H 2872   3.605   2.604   4.422
    2MOL1    Cl 2873   0.800   0.346   2.109
    2MOL1     C 2874   0.706   0.399   1.968
    2MOL1    Cl 2875   0.810   0.417   1.826
    2MOL1    Cl 2876   0.574   0.285   1.935
    2MOL1     H 2877   0.662   0.496   1.992
    2MOL1    Cl 2878   0.226   2.867   3.833
    2MOL1     C 2879   0.050   2.871   3.858
    2MOL1    Cl 2880  -0.000   2.741   3.968
    2MOL1    Cl 2881  -0.000   3.029   3.920
    2MOL1     H 2882   0.002   2.855   3.761
    2MOL1    Cl 2883   4.152   4.960   0.722
    2MOL1     C 2884   4.295   4.891   0.800
    2MOL1    Cl 2885   4.257   4.839   0.965
    2MOL1    Cl 2886   4.358   4.755   0.704
    2MOL1     H 2887   4.372   4.968   0.805
    2MOL1    Cl 2888   0.442   4.263   1.084
    2MOL1     C 2889   0.278   4.313   1.126
    2MOL1    Cl 2890   0.271   4.488   1.153
    2MOL1    Cl 2891   0.163   4.265   0.999
    2MOL1     H 2892   0.249   4.262   1.219
    2MOL1    Cl 2893   2.323   2.406   3.879
    2MOL1     C 2894   2.209   2.323   3.772
    2MOL1    Cl 2895   2.096   2.439   3.699
    2MOL1    Cl 2896   2.296   2.233   3.647
    2MOL1     H 2897   2.151   2.252   3.832
    2MOL1    Cl 2898   0.594   4.264   1.255
    2MOL1     C 2899   0.588   4.087   1.246
    2MOL1    Cl 2900   0.744   4.017   1.296
    2MOL1    Cl 2901   0.457   4.024   1.346
    2MOL1     H 2902   0.570   4.058   1.142
    2MOL1    Cl 2903   1.624   3.829   0.366
    2MOL1     C 2904   1.460   3.896   0.362
    2MOL1    Cl 2905   1.353   3.805   0.470
    2MOL1    Cl 2906   1.461   4.068   0.405
    2MOL1     H 2907   1.421   3.886   0.260
    2MOL1    Cl 2908   3.104   2.159   2.408
    2MOL1     C 2909   3.199   2.094   2.543
    2MOL1    Cl 2910   3.372   2.120   2.515
    2MOL1    Cl 2911   3.148   2.168   2.696
    2MOL1     H 2912   3.181   1.987   2.549
    2MOL1    Cl 2913   1.847   2.636   2.457
    2MOL1     C 2914   1.946   2.759   2.538
    2MOL1    Cl 2915   2.080   2.809   2.434
    2MOL1    Cl 2916   1.847   2.898   2.584
    2MOL1     H 2917   1.988   2.715   2.629
    2MOL1    Cl 2918   3.415   5.308   2.095
    2MOL1     C 2919   3.417   5.131   2.102
    2MOL1    Cl 2920   3.321   5.074   2.240
    2MOL1    Cl 2921   3.356   5.062   1.951
    2MOL1     H 2922   3.520   5.098   2.116
    2MOL1    Cl 2923   3.763   0.001   1.509
    2MOL1     C 2924   3.699   0.091   1.648
    2MOL1    Cl 2925   3.527   0.125   1.625
    2MOL1    Cl 2926   3.726   0.001   1.798
    2MOL1     H 2927   3.752   0.186   1.654
    2MOL1    Cl 2928   0.943   2.383   4.439
    2MOL1     C 2929   1.067   2.458   4.337
    2MOL1    Cl 2930   1.191   2.340   4.292
    2MOL1    Cl 2931   0.993   2.529   4.192
    2MOL1     H 2932   1.114   2.538   4.394
    2MOL1    Cl 2933   4.471   3.875   4.883
    2MOL1     C 2934   4.629   3.887   4.961
    2MOL1    Cl 2935   4.751   3.799   4.867
    2MOL1    Cl 2936   4.677   4.056   4.982
    2MOL1     H 2937   4.622   3.841   5.060
    2MOL1    Cl 2938   4.826   1.768   4.229
    2MOL1     C 2939   4.937   1.890   4.166
    2MOL1    Cl 2940   4.995   1.845   4.004
    2MOL1    Cl 2941   4.859   2.049   4.161
    2MOL1     H 2942   5.023   1.897   4.232
    2MOL1    Cl 2943   4.179   2.412   2.855
    2MOL1     C 2944   4.044   2.303   2.818
    2MOL1    Cl 2945   3.920   2.388   2.724
    2MOL1    Cl 2946   4.101   2.160   2.731
    2MOL1     H 2947   3.999   2.271   2.912
    2MOL1    Cl 2948   1.452   2.828   5.034
    2MOL1     C 2949   1.466   2.838   5.210
    2MOL1    Cl 2950   1.305   2.857   5.284
    2MOL1    Cl 2951   1.548   2.695   5.274
    2MOL1     H 2952   1.525   2.926   5.235
    2MOL1    Cl 2953   3.616   2.002   3.166
    2MOL1     C 2954   3.661   2.168   3.125
    2MOL1    Cl 2955   3.645   2.275   3.266
    2MOL1    Cl 2956   3.827   2.174   3.062
    2MOL1     H 2957   3.594   2.204   3.047
    2MOL1    Cl 2958   2.876   4.801   0.886
    2MOL1     C 2959   2.754   4.849   1.005
    2MOL1    Cl 2960   2.600   4.885   0.926
    2MOL1    Cl 2961   2.733   4.723   1.128
    2MOL1     H 2962   2.789   4.940   1.055
    2MOL1    Cl 2963   1.557   3.748   0.965
    2MOL1     C 2964   1.675   3.853   0.884
    2MOL1    Cl 2965   1.742   3.772   0.741
    2MOL1    Cl 2966   1.601   4.008   0.839
    2MOL1     H 2967   1.757   3.873   0.954
    2MOL1    Cl 2968   5.023   3.269   4.994
    2MOL1     C 2969   5.081   3.217   5.153
    2MOL1    Cl 2970   4.959   3.120   5.236
    2MOL1    Cl 2971   5.233   3.127   5.137
    2MOL1     H 2972   5.101   3.306   5.213
    2MOL1    Cl 2973   3.017   4.895   3.109
    2MOL1     C 2974   2.933   5.050   3.099
    2MOL1    Cl 2975   2.966   5.129   2.944
    2MOL1    Cl 2976   2.758   5.028   3.120
    2MOL1     H 2977   2.969   5.114   3.179
    2MOL1    Cl 2978   4.863   4.015   3.719
    2MOL1     C 2979   4.819   3.850   3.671
    2MOL1    Cl 2980   4.714   3.854   3.528
    2MOL1    Cl 2981   4.963   3.753   3.640
    2MOL1     H 2982   4.763   3.804   3.753
    2MOL1    Cl 2983   1.595   0.945   3.032
    2MOL1     C 2984   1.591   0.969   3.208
    2MOL1    Cl 2985   1.524   1.128   3.248
    2MOL1    Cl 2986   1.496   0.841   3.285
    2MOL1     H 2987   1.693   0.964   3.246
    2MOL1    Cl 2988   3.382   2.836   4.721
    2MOL1     C 2989   3.314   2.682   4.666
    2MOL1    Cl 2990   3.152   2.706   4.600
    2MOL1    Cl 2991   3.420   2.607   4.545
    2MOL1     H 2992   3.307   2.615   4.752
    2MOL1    Cl 2993   2.470   4.355   0.501
    2MOL1     C 2994   2.345   4.291   0.609
    2MOL1    Cl 2995   2.383   4.124   0.656
    2MOL1    Cl 2996   2.326   4.394   0.752
    2MOL1     H 2997   2.250   4.290   0.554
    2MOL1    Cl 2998   3.330   1.488   0.371
    2MOL1     C 2999   3.239   1.612   0.282
    2MOL1    Cl 3000   3.214   1.563   0.114
    2MOL1    Cl 3001   3.084   1.645   0.362
    2MOL1     H 3002   3.298   1.704   0.283
    2MOL1    Cl 3003   2.455   1.962   4.122
    2MOL1     C 3004   2.393   1.800   4.090
    2MOL1    Cl 3005   2.257   1.762   4.197
    2MOL1    Cl 3006   2.344   1.784   3.920
    2MOL1     H 3007   2.473   1.728   4.109
    2MOL1    Cl 3008   1.204   0.949   2.841
    2MOL1     C 3009   1.286   0.942   2.685
    2MOL1    Cl 3010   1.175   0.985   2.554
    2MOL1    Cl 3011   1.428   1.049   2.685
    2MOL1     H 3012   1.320   0.839   2.669
    2MOL1    Cl 3013   2.918   4.485   5.146
    2MOL1     C 3014   2.828   4.333   5.144
    2MOL1    Cl 3015   2.654   4.363   5.131
    2MOL1    Cl 3016   2.884   4.229   5.011
    2MOL1     H 3017   2.847   4.281   5.238
    2MOL1    Cl 3018   2.397   4.608   1.651
    2MOL1     C 3019   2.280   4.491   1.587
    2MOL1    Cl 3020   2.181   4.566   1.461
    2MOL1    Cl 3021   2.363   4.348   1.524
    2MOL1     H 3022   2.215   4.460   1.668
    2MOL1    Cl 3023   0.943   2.652   5.040
    2MOL1     C 3024   0.983   2.524   5.155
    2MOL1    Cl 3025   0.937   2.366   5.090
    2MOL1    Cl 3026   1.156   2.527   5.195
    2MOL1     H 3027   0.926   2.541   5.247
    2MOL1    Cl 3028   1.771   1.113   1.707
    2MOL1     C 3029   1.690   1.186   1.847
    2MOL1    Cl 3030   1.517   1.208   1.815
    2MOL1    Cl 3031   1.714   1.086   1.992
    2MOL1     H 3032   1.734   1.284   1.865
    2MOL1    Cl 3033   0.502   3.807   3.645
    2MOL1     C 3034   0.483   3.631   3.647
    2MOL1    Cl 3035   0.458   3.569   3.483
    2MOL1    Cl 3036   0.624   3.554   3.722
    2MOL1     H 3037   0.395   3.606   3.707
    2MOL1    Cl 3038   0.320   0.101   3.933
    2MOL1     C 3039   0.284   0.182   3.780
    2MOL1    Cl 3040   0.432   0.210   3.687
    2MOL1    Cl 3041   0.168   0.088   3.685
    2MOL1     H 3042   0.239   0.279   3.802
    2MOL1    Cl 3043   4.156   5.124   3.408
    2MOL1     C 3044   4.278   5.208   3.311
    2MOL1    Cl 3045   4.398   5.093   3.250
    2MOL1    Cl 3046   4.202   5.295   3.176
    2MOL1     H 3047   4.328   5.281   3.374
    2MOL1    Cl 3048   3.186   4.051   1.667
    2MOL1     C 3049   3.302   4.037   1.534
    2MOL1    Cl 3050   3.467   4.017   1.597
    2MOL1    Cl 3051   3.260   3.902   1.428
    2MOL1     H 3052   3.299   4.130   1.476
    2MOL1    Cl 3053   4.527   4.176   3.876
    2MOL1     C 3054   4.667   4.282   3.866
    2MOL1    Cl 3055   4.670   4.396   4.001
    2MOL1    Cl 3056   4.817   4.188   3.861
    2MOL1     H 3057   4.660   4.340   3.773
    2MOL1    Cl 3058   0.755   3.761   0.558
    2MOL1     C 3059   0.859   3.754   0.415
    2MOL1    Cl 3060   0.874   3.914   0.341
    2MOL1    Cl 3061   1.019   3.689   0.457
    2MOL1     H 3062   0.813   3.686   0.342
    2MOL1    Cl 3063   5.143   2.204   5.008
    2MOL1     C 3064   5.099   2.344   5.108
    2MOL1    Cl 3065   5.232   2.386   5.218
    2MOL1    Cl 3066   5.057   2.483   5.006
    2MOL1     H 3067   5.012   2.317   5.168
    2MOL1    Cl 3068   0.915   5.039   2.381
    2MOL1     C 3069   1.030   5.164   2.431
    2MOL1    Cl 3070   1.186   5.140   2.351
    2MOL1    Cl 3071   0.967   5.325   2.396
    2MOL1     H 3072   1.045   5.156   2.539
    2MOL1    Cl 3073   1.146   1.341   4.180
    2MOL1     C 3074   0.998   1.248   4.209
    2MOL1    Cl 3075   0.860   1.323   4.127
    2MOL1    Cl 3076   1.018   1.080   4.155
    2MOL1     H 3077   0.979   1.247   4.316
    2MOL1    Cl 3078   4.072   2.641   4.214
    2MOL1     C 3079   3.915   2.723   4.225
    2MOL1    Cl 3080   3.809   2.641   4.341
    2MOL1    Cl 3081   3.938   2.893   4.271
    2MOL1     H 3082   3.868   2.720   4.127
    2MOL1    Cl 3083   2.362   3.416   5.338
    2MOL1     C 3084   2.342   3.528   5.203
    2MOL1    Cl 3085   2.296   3.441   5.056
    2MOL1    Cl 3086   2.222   3.652   5.242
    2MOL1     H 3087   2.438   3.578   5.185
    2MOL1    Cl 3088   1.133   0.544   1.004
    2MOL1     C 3089   1.293   0.604   0.958
    2MOL1    Cl 3090   1.288   0.778   0.928
    2MOL1    Cl 3091   1.413   0.565   1.082
    2MOL1     H 3092   1.322   0.554   0.865
    2MOL1    Cl 3093   0.538   3.722   0.639
    2MOL1     C 3094   0.404   3.658   0.541
    2MOL1    Cl 3095   0.418   3.483   0.523
    2MOL1    Cl 3096   0.248   3.702   0.612
    2MOL1     H 3097   0.410   3.703   0.441
    2MOL1    Cl 3098   3.347   1.646   3.491
    2MOL1     C 3099   3.191   1.724   3.456
    2MOL1    Cl 3100   3.138   1.685   3.291
    2MOL1    Cl 3101   3.069   1.674   3.574
    2MOL1     H 3102   3.204   1.832   3.463
    2MOL1    Cl 3103   2.685   4.862   0.412
    2MOL1     C 3104   2.795   4.763   0.315
    2MOL1    Cl 3105   2.705   4.647   0.216
    2MOL1    Cl 3106   2.897   4.866   0.212
    2MOL1     H 3107   2.860   4.708   0.383
    2MOL1    Cl 3108   3.644   3.377   3.363
    2MOL1     C 3109   3.698   3.522   3.450
    2MOL1    Cl 3110   3.819   3.610   3.355
    2MOL1    Cl 3111   3.560   3.626   3.489
    2MOL1     H 3112   3.744   3.490   3.544
    2MOL1    Cl 3113   2.907   3.879   0.954
    2MOL1     C 3114   2.840   4.042   0.963
    2MOL1    Cl 3115   2.713   4.051   1.087
    2MOL1    Cl 3116   2.968   4.161   0.996
    2MOL1     H 3117   2.795   4.067   0.866
    2MOL1    Cl 3118   4.583   4.404   1.235
    2MOL1     C 3119   4.443   4.312   1.177
    2MOL1    Cl 3120   4.496   4.172   1.082
    2MOL1    Cl 3121   4.342   4.260   1.313
    2MOL1     H 3122   4.384   4.377   1.113
    2MOL1    Cl 3123   4.677   2.957   0.378
    2MOL1     C 3124   4.594   3.071   0.271
    2MOL1    Cl 3125   4.663   3.233   0.288
    2MOL1    Cl 3126   4.602   3.017   0.103
    2MOL1     H 3127   4.489   3.076   0.301
    2MOL1    Cl 3128   2.995   1.151   2.299
    2MOL1     C 3129   2.869   1.026   2.288
    2MOL1    Cl 3130   2.744   1.074   2.172
    2MOL1    Cl 3131   2.940   0.870   2.242
    2MOL1     H 3132   2.823   1.015   2.386
    2MOL1    Cl 3133   3.415   4.454   2.944
    2MOL1     C 3134   3.449   4.621   2.992
    2MOL1    Cl 3135   3.309   4.693   3.072
    2MOL1    Cl 3136   3.591   4.627   3.098
    2MOL1     H 3137   3.471   4.679   2.902
    2MOL1    Cl 3138   3.574   3.492   3.967
    2MOL1     C 3139   3.746   3.504   3.926
    2MOL1    Cl 3140   3.826   3.347   3.946
    2MOL1    Cl 3141   3.767   3.564   3.761
    2MOL1     H 3142   3.793   3.575   3.995
    2MOL1    Cl 3143   4.077   0.198   0.259
    2MOL1     C 3144   4.184   0.330   0.212
    2MOL1    Cl 3145   4.311   0.272   0.102
    2MOL1    Cl 3146   4.092   0.461   0.137
    2MOL1     H 3147   4.232   0.369   0.302
    2MOL1    Cl 3148   3.232   3.009   3.396
    2MOL1     C 3149   3.263   3.173   3.454
    2MOL1    Cl 3150   3.426   3.226   3.407
    2MOL1    Cl 3151   3.141   3.285   3.392
    2MOL1     H 3152   3.257   3.173   3.563
    2MOL1    Cl 3153   0.515   2.741   1.938
    2MOL1     C 3154   0.632   2.626   1.871
    2MOL1    Cl 3155   0.549   2.502   1.776
    2MOL1    Cl 3156   0.752   2.710   1.772
    2MOL1     H 3157   0.684   2.577   1.954
    2MOL1    Cl 3158   5.036   4.275   3.055
    2MOL1     C 3159   5.205   4.306   3.013
    2MOL1    Cl 3160   5.279   4.415   3.131
    2MOL1    Cl 3161   5.296   4.154   3.002
    2MOL1     H 3162   5.208   4.354   2.915
    2MOL1    Cl 3163   2.274   3.712   1.551
    2MOL1     C 3164   2.347   3.550   1.544
    2MOL1    Cl 3165   2.499   3.546   1.635
    2MOL1    Cl 3166   2.234   3.429   1.607
    2MOL1     H 3167   2.368   3.526   1.440
    2MOL1    Cl 3168   5.024   1.468   2.584
    2MOL1     C 3169   5.080   1.381   2.441
    2MOL1    Cl 3170   5.234   1.300   2.473
    2MOL1    Cl 3171   4.959   1.264   2.387
    2MOL1     H 3172   5.096   1.454   2.360
    2MOL1    Cl 3173   4.182   3.110   3.841
    2MOL1     C 3174   4.182   3.122   4.018
    2MOL1    Cl 3175   4.214   2.964   4.091
    2MOL1    Cl 3176   4.302   3.241   4.073
    2MOL1     H 3177   4.083   3.156   4.050
    2MOL1    Cl 3178   1.682   3.554   3.597
    2MOL1     C 3179   1.608   3.566   3.436
    2MOL1    Cl 3180   1.693   3.461   3.321
    2MOL1    Cl 3181   1.436   3.524   3.444
    2MOL1     H 3182   1.617   3.669   3.402
    2MOL1    Cl 3183   2.577   3.171   2.511
    2MOL1     C 3184   2.522   3.265   2.651
    2MOL1    Cl 3185   2.639   3.253   2.783
    2MOL1    Cl 3186   2.495   3.434   2.606
    2MOL1     H 3187   2.427   3.223   2.685
    2MOL1    Cl 3188   1.868   3.036   0.159
    2MOL1     C 3189   1.921   2.867   0.149
    2MOL1    Cl 3190   1.820   2.777   0.035
    2MOL1    Cl 3191   2.092   2.859   0.101
    2MOL1     H 3192   1.911   2.822   0.248
    2MOL1    Cl 3193   4.751   0.936   2.999
    2MOL1     C 3194   4.827   0.823   2.887
    2MOL1    Cl 3195   4.710   0.767   2.766
    2MOL1    Cl 3196   4.967   0.897   2.808
    2MOL1     H 3197   4.861   0.736   2.944
    2MOL1    Cl 3198   4.776   1.928   1.296
    2MOL1     C 3199   4.869   2.060   1.226
    2MOL1    Cl 3200   4.799   2.217   1.270
    2MOL1    Cl 3201   5.039   2.051   1.278
    2MOL1     H 3202   4.866   2.051   1.117
    2MOL1    Cl 3203   3.083   3.866   0.474
    2MOL1     C 3204   3.154   4.025   0.505
    2MOL1    Cl 3205   3.278   4.063   0.383
    2MOL1    Cl 3206   3.029   4.150   0.506
    2MOL1     H 3207   3.202   4.023   0.603
    2MOL1    Cl 3208   2.614   4.048   3.650
    2MOL1     C 3209   2.749   4.158   3.615
    2MOL1    Cl 3210   2.860   4.084   3.498
    2MOL1    Cl 3211   2.689   4.313   3.556
    2MOL1     H 3212   2.804   4.175   3.708
    2MOL1    Cl 3213   2.234   4.558   2.192
    2MOL1     C 3214   2.066   4.503   2.194
    2MOL1    Cl 3215   2.041   4.383   2.321
    2MOL1    Cl 3216   1.955   4.640   2.214
    2MOL1     H 3217   2.044   4.456   2.097
    2MOL1    Cl 3218   1.663   1.610   0.699
    2MOL1     C 3219   1.562   1.756   0.700
    2MOL1    Cl 3220   1.645   1.889   0.783
    2MOL1    Cl 3221   1.519   1.803   0.534
    2MOL1     H 3222   1.470   1.733   0.754
    2MOL1    Cl 3223   0.421   2.839   4.338
    2MOL1     C 3224   0.249   2.816   4.301
    2MOL1    Cl 3225   0.229   2.754   4.136
    2MOL1    Cl 3226   0.174   2.706   4.418
    2MOL1     H 3227   0.199   2.913   4.307
    2MOL1    Cl 3228   0.356   1.676   4.755
    2MOL1     C 3229   0.502   1.597   4.696
    2MOL1    Cl 3230   0.586   1.514   4.827
    2MOL1    Cl 3231   0.463   1.484   4.565
    2MOL1     H 3232   0.569   1.674   4.656
    2MOL1    Cl 3233   4.780   2.957   0.666
    2MOL1     C 3234   4.935   2.897   0.724
    2MOL1    Cl 3235   4.923   2.847   0.894
    2MOL1    Cl 3236   4.992   2.763   0.624
    2MOL1     H 3237   5.008   2.978   0.718
    2MOL1    Cl 3238   2.313   4.338   4.783
    2MOL1     C 3239   2.230   4.194   4.844
    2MOL1    Cl 3240   2.303   4.140   4.996
    2MOL1    Cl 3241   2.057   4.227   4.866
    2MOL1     H 3242   2.240   4.114   4.770
    2MOL1    Cl 3243   3.100   3.507   3.422
    2MOL1     C 3244   3.059   3.485   3.251
    2MOL1    Cl 3245   3.052   3.642   3.168
    2MOL1    Cl 3246   3.176   3.378   3.172
    2MOL1     H 3247   2.960   3.439   3.245
    2MOL1    Cl 3248   2.853   4.432   0.325
    2MOL1     C 3249   3.020   4.407   0.378
    2MOL1    Cl 3250   3.100   4.284   0.278
    2MOL1    Cl 3251   3.110   4.560   0.372
    2MOL1     H 3252   3.019   4.372   0.481
    2MOL1    Cl 3253   3.469   4.607   0.446
    2MOL1     C 3254   3.401   4.444   0.453
    2MOL1    Cl 3255   3.512   4.334   0.536
    2MOL1    Cl 3256   3.243   4.446   0.535
    2MOL1     H 3257   3.386   4.409   0.351
    2MOL1    Cl 3258   2.293   3.904   1.097
    2MOL1     C 3259   2.387   3.761   1.049
    2MOL1    Cl 3260   2.427   3.663   1.190
    2MOL1    Cl 3261   2.298   3.665   0.929
    2MOL1     H 3262   2.480   3.796   1.003
    2MOL1    Cl 3263   4.024   4.087   3.726
    2MOL1     C 3264   4.092   3.925   3.745
    2MOL1    Cl 3265   4.256   3.933   3.812
    2MOL1    Cl 3266   3.988   3.826   3.849
    2MOL1     H 3267   4.097   3.878   3.647
    2MOL1    Cl 3268   5.290   4.640   4.244
    2MOL1     C 3269   5.206   4.788   4.194
    2MOL1    Cl 3270   5.077   4.827   4.309
    2MOL1    Cl 3271   5.319   4.923   4.180
    2MOL1     H 3272   5.161   4.770   4.096
    2MOL1    Cl 3273   4.223   0.443   3.709
    2MOL1     C 3274   4.158   0.324   3.595
    2MOL1    Cl 3275   4.044   0.216   3.677
    2MOL1    Cl 3276   4.081   0.405   3.458
    2MOL1     H 3277   4.241   0.264   3.557
    2MOL1    Cl 3278   2.340   2.546   3.420
    2MOL1     C 3279   2.449   2.683   3.446
    2MOL1    Cl 3280   2.374   2.802   3.555
    2MOL1    Cl 3281   2.604   2.628   3.511
    2MOL1     H 3282   2.467   2.731   3.350
    2MOL1    Cl 3283   4.913   4.762   2.564
    2MOL1     C 3284   5.036   4.641   2.605
    2MOL1    Cl 3285   5.060   4.633   2.780
    2MOL1    Cl 3286   4.990   4.482   2.542
    2MOL1     H 3287   5.130   4.670   2.559
    2MOL1    Cl 3288   2.520   0.719   2.018
    2MOL1     C 3289   2.383   0.828   2.043
    2MOL1    Cl 3290   2.281   0.771   2.176
    2MOL1    Cl 3291   2.439   0.993   2.073
    2MOL1     H 3292   2.322   0.828   1.952
    2MOL1    Cl 3293   0.414   2.381   2.981
    2MOL1     C 3294   0.248   2.361   3.038
    2MOL1    Cl 3295   0.152   2.270   2.920
    2MOL1    Cl 3296   0.245   2.281   3.196
    2MOL1     H 3297   0.204   2.460   3.049
    2MOL1    Cl 3298   1.162   4.198   1.154
    2MOL1     C 3299   1.090   4.047   1.096
    2MOL1    Cl 3300   1.215   3.932   1.049
    2MOL1    Cl 3301   0.985   3.977   1.221
    2MOL1     H 3302   1.028   4.070   1.009
    2MOL1    Cl 3303   2.485   3.040   0.604
    2MOL1     C 3304   2.635   3.053   0.698
    2MOL1    Cl 3305   2.701   3.217   0.689
    2MOL1    Cl 3306   2.606   3.007   0.867
    2MOL1     H 3307   2.708   2.984   0.656
    2MOL1    Cl 3308   0.799   0.687   1.009
    2MOL1     C 3309   0.703   0.651   0.865
    2MOL1    Cl 3310   0.638   0.486   0.873
    2MOL1    Cl 3311   0.571   0.768   0.846
    2MOL1     H 3312   0.768   0.657   0.778
    2MOL1    Cl 3313   5.137   2.068   3.305
    2MOL1     C 3314   5.046   2.188   3.212
    2MOL1    Cl 3315   5.150   2.264   3.090
    2MOL1    Cl 3316   4.905   2.113   3.135
    2MOL1     H 3317   5.010   2.265   3.280
    2MOL1    Cl 3318   2.540   1.181   3.448
    2MOL1     C 3319   2.529   1.013   3.502
    2MOL1    Cl 3320   2.687   0.955   3.556
    2MOL1    Cl 3321   2.410   0.998   3.633
    2MOL1     H 3322   2.496   0.952   3.418
    2MOL1    Cl 3323   5.216   1.027   2.335
    2MOL1     C 3324   5.087   1.038   2.215
    2MOL1    Cl 3325   5.138   0.965   2.062
    2MOL1    Cl 3326   4.939   0.961   2.275
    2MOL1     H 3327   5.066   1.144   2.197
    2MOL1    Cl 3328   4.095   0.458   4.592
    2MOL1     C 3329   3.949   0.556   4.569
    2MOL1    Cl 3330   3.833   0.527   4.700
    2MOL1    Cl 3331   3.991   0.728   4.561
    2MOL1     H 3332   3.902   0.528   4.475
    2MOL1    Cl 3333   5.146   1.045   5.058
    2MOL1     C 3334   5.108   0.872   5.063
    2MOL1    Cl 3335   5.236   0.783   5.148
    2MOL1    Cl 3336   4.951   0.845   5.141
    2MOL1     H 3337   5.103   0.834   4.961
    2MOL1    Cl 3338   2.780   0.604   1.428
    2MOL1     C 3339   2.944   0.589   1.490
    2MOL1    Cl 3340   2.975   0.710   1.616
    2MOL1    Cl 3341   2.972   0.426   1.553
    2MOL1     H 3342   3.014   0.606   1.408
    2MOL1    Cl 3343   2.133   1.508   3.761
    2MOL1     C 3344   2.121   1.349   3.839
    2MOL1    Cl 3345   1.958   1.282   3.820
    2MOL1    Cl 3346   2.243   1.238   3.773
    2MOL1     H 3347   2.141   1.362   3.946
    2MOL1    Cl 3348   3.527   1.554   2.191
    2MOL1     C 3349   3.468   1.410   2.107
    2MOL1    Cl 3350   3.602   1.302   2.067
    2MOL1    Cl 3351   3.348   1.325   2.206
    2MOL1     H 3352   3.419   1.441   2.014
    2MOL1    Cl 3353   3.869   2.299   4.284
    2MOL1     C 3354   3.875   2.138   4.358
    2MOL1    Cl 3355   3.926   2.150   4.528
    2MOL1    Cl 3356   3.718   2.058   4.346
    2MOL1     H 3357   3.949   2.078   4.305
    2MOL1    Cl 3358   1.331   2.174   4.329
    2MOL1     C 3359   1.451   2.302   4.305
    2MOL1    Cl 3360   1.583   2.244   4.201
    2MOL1    Cl 3361   1.375   2.446   4.235
    2MOL1     H 3362   1.492   2.328   4.402
    2MOL1    Cl 3363   0.979   0.519   1.961
    2MOL1     C 3364   1.105   0.469   2.075
    2MOL1    Cl 3365   1.057   0.321   2.160
    2MOL1    Cl 3366   1.260   0.446   1.991
    2MOL1     H 3367   1.118   0.549   2.149
  5.5400000  5.5400000  5.5400000
