Generated by Interchange
3367
    1mop_t    C    1   0.623   2.846   4.700
    1mop_t    O    2   0.528   2.855   4.776
    1mop_t    C    3   0.751   2.784   4.738
    1mop_t    C    4   0.872   2.812   4.673
    1mop_t    C    5   0.987   2.742   4.709
    1mop_t    C    6   0.982   2.644   4.810
    1mop_t    C    7   1.102   2.569   4.852
    1mop_t    C    8   1.217   2.632   4.903
    1mop_t    C    9   1.331   2.555   4.932
    1mop_t    C   10   1.330   2.417   4.920
    1mop_t    O   11   1.449   2.357   4.953
    1mop_t    C   12   1.453   2.216   4.947
    1mop_t    C   13   1.215   2.353   4.877
    1mop_t    C   14   1.102   2.429   4.842
    1mop_t    C   15   1.223   2.776   4.924
    1mop_t    C   16   1.132   2.845   5.006
    1mop_t    C   17   1.136   2.984   5.020
    1mop_t    C   18   1.236   3.053   4.955
    1mop_t    C   19   1.329   2.984   4.875
    1mop_t    C   20   1.322   2.848   4.858
    1mop_t    C   21   1.434   3.059   4.799
    1mop_t    N   22   1.357   3.139   4.705
    1mop_t    C   23   1.514   3.132   4.908
    1mop_t    C   24   0.860   2.620   4.876
    1mop_t    C   25   0.746   2.690   4.841
    1mop_t    H   26   0.877   2.888   4.595
    1mop_t    H   27   1.081   2.765   4.659
    1mop_t    H   28   1.422   2.604   4.967
    1mop_t    H   29   1.554   2.184   4.976
    1mop_t    H   30   1.436   2.180   4.844
    1mop_t    H   31   1.382   2.171   5.017
    1mop_t    H   32   1.208   2.246   4.867
    1mop_t    H   33   1.013   2.377   4.806
    1mop_t    H   34   1.053   2.791   5.057
    1mop_t    H   35   1.063   3.036   5.080
    1mop_t    H   36   1.239   3.161   4.964
    1mop_t    H   37   1.392   2.797   4.791
    1mop_t    H   38   1.500   2.992   4.742
    1mop_t    H   39   1.308   3.213   4.751
    1mop_t    H   40   1.458   3.215   4.953
    1mop_t    H   41   1.608   3.173   4.875
    1mop_t    H   42   1.541   3.063   4.988
    1mop_t    H   43   0.855   2.547   4.956
    1mop_t    H   44   0.652   2.670   4.892
    1mop_t    C   45   1.293   3.082   4.594
    1mop_t    O   46   1.339   2.985   4.534
    1mop_t    C   47   1.158   3.138   4.558
    1mop_t    C   48   1.107   3.253   4.620
    1mop_t    C   49   0.975   3.295   4.598
    1mop_t    C   50   0.890   3.227   4.510
    1mop_t    C   51   0.751   3.273   4.488
    1mop_t    C   52   0.717   3.396   4.430
    1mop_t    C   53   0.582   3.439   4.419
    1mop_t    C   54   0.478   3.358   4.460
    1mop_t    O   55   0.352   3.406   4.443
    1mop_t    C   56   0.246   3.313   4.463
    1mop_t    C   57   0.511   3.238   4.519
    1mop_t    C   58   0.645   3.197   4.533
    1mop_t    C   59   0.820   3.490   4.392
    1mop_t    C   60   0.921   3.459   4.299
    1mop_t    C   61   1.025   3.547   4.275
    1mop_t    C   62   1.024   3.669   4.340
    1mop_t    C   63   0.921   3.699   4.431
    1mop_t    C   64   0.822   3.610   4.459
    1mop_t    C   65   0.919   3.827   4.508
    1mop_t    N   66   1.039   3.818   4.589
    1mop_t    C   67   0.911   3.933   4.397
    1mop_t    C   68   0.943   3.114   4.444
    1mop_t    C   69   1.075   3.070   4.468
    1mop_t    H   70   1.166   3.313   4.687
    1mop_t    H   71   0.939   3.383   4.652
    1mop_t    H   72   0.559   3.538   4.379
    1mop_t    H   73   0.151   3.363   4.443
    1mop_t    H   74   0.242   3.278   4.567
    1mop_t    H   75   0.254   3.228   4.394
    1mop_t    H   76   0.433   3.174   4.557
    1mop_t    H   77   0.669   3.105   4.584
    1mop_t    H   78   0.922   3.362   4.250
    1mop_t    H   79   1.106   3.522   4.208
    1mop_t    H   80   1.105   3.739   4.322
    1mop_t    H   81   0.749   3.631   4.538
    1mop_t    H   82   0.832   3.836   4.574
    1mop_t    H   83   1.122   3.832   4.534
    1mop_t    H   84   1.004   3.943   4.340
    1mop_t    H   85   0.883   4.032   4.430
    1mop_t    H   86   0.831   3.907   4.325
    1mop_t    H   87   0.881   3.059   4.374
    1mop_t    H   88   1.111   2.980   4.418
    1mop_t    C   89   1.049   3.729   4.696
    1mop_t    O   90   0.952   3.696   4.765
    1mop_t    C   91   1.185   3.663   4.716
    1mop_t    C   92   1.295   3.697   4.635
    1mop_t    C   93   1.414   3.628   4.642
    1mop_t    C   94   1.434   3.523   4.730
    1mop_t    C   95   1.562   3.450   4.728
    1mop_t    C   96   1.684   3.502   4.776
    1mop_t    C   97   1.801   3.421   4.774
    1mop_t    C   98   1.798   3.290   4.726
    1mop_t    O   99   1.913   3.218   4.742
    1mop_t    C  100   1.903   3.076   4.732
    1mop_t    C  101   1.683   3.246   4.664
    1mop_t    C  102   1.569   3.328   4.662
    1mop_t    C  103   1.698   3.643   4.810
    1mop_t    C  104   1.622   3.704   4.910
    1mop_t    C  105   1.629   3.842   4.930
    1mop_t    C  106   1.713   3.919   4.850
    1mop_t    C  107   1.790   3.860   4.749
    1mop_t    C  108   1.780   3.723   4.729
    1mop_t    C  109   1.875   3.940   4.652
    1mop_t    N  110   1.787   4.029   4.577
    1mop_t    C  111   1.984   4.014   4.729
    1mop_t    C  112   1.327   3.492   4.817
    1mop_t    C  113   1.202   3.561   4.810
    1mop_t    H  114   1.292   3.777   4.563
    1mop_t    H  115   1.497   3.657   4.572
    1mop_t    H  116   1.895   3.461   4.809
    1mop_t    H  117   2.004   3.035   4.742
    1mop_t    H  118   1.865   3.045   4.634
    1mop_t    H  119   1.841   3.034   4.812
    1mop_t    H  120   1.673   3.145   4.624
    1mop_t    H  121   1.482   3.294   4.608
    1mop_t    H  122   1.554   3.645   4.971
    1mop_t    H  123   1.566   3.889   5.005
    1mop_t    H  124   1.716   4.027   4.866
    1mop_t    H  125   1.832   3.677   4.644
    1mop_t    H  126   1.923   3.874   4.579
    1mop_t    H  127   1.761   4.111   4.629
    1mop_t    H  128   1.942   4.087   4.800
    1mop_t    H  129   2.050   4.069   4.661
    1mop_t    H  130   2.045   3.943   4.786
    1mop_t    H  131   1.338   3.413   4.891
    1mop_t    H  132   1.121   3.532   4.875
    1mop_t    C  133   1.694   3.972   4.491
    1mop_t    O  134   1.720   3.876   4.419
    1mop_t    C  135   1.553   4.024   4.496
    1mop_t    C  136   1.517   4.125   4.585
    1mop_t    C  137   1.386   4.172   4.596
    1mop_t    C  138   1.284   4.118   4.519
    1mop_t    C  139   1.147   4.171   4.538
    1mop_t    C  140   1.103   4.297   4.493
    1mop_t    C  141   0.967   4.335   4.513
    1mop_t    C  142   0.875   4.252   4.577
    1mop_t    O  143   0.746   4.294   4.577
    1mop_t    C  144   0.645   4.196   4.603
    1mop_t    C  145   0.924   4.137   4.636
    1mop_t    C  146   1.059   4.101   4.620
    1mop_t    C  147   1.198   4.396   4.442
    1mop_t    C  148   1.277   4.375   4.330
    1mop_t    C  149   1.376   4.467   4.294
    1mop_t    C  150   1.394   4.583   4.370
    1mop_t    C  151   1.316   4.606   4.483
    1mop_t    C  152   1.218   4.513   4.518
    1mop_t    C  153   1.340   4.724   4.576
    1mop_t    N  154   1.469   4.711   4.642
    1mop_t    C  155   1.319   4.856   4.501
    1mop_t    C  156   1.318   4.013   4.430
    1mop_t    C  157   1.451   3.967   4.420
    1mop_t    H  158   1.589   4.169   4.650
    1mop_t    H  159   1.363   4.252   4.666
    1mop_t    H  160   0.934   4.433   4.480
    1mop_t    H  161   0.548   4.247   4.603
    1mop_t    H  162   0.657   4.151   4.702
    1mop_t    H  163   0.642   4.120   4.525
    1mop_t    H  164   0.859   4.067   4.688
    1mop_t    H  165   1.096   4.014   4.672
    1mop_t    H  166   1.267   4.284   4.272
    1mop_t    H  167   1.440   4.447   4.209
    1mop_t    H  168   1.473   4.652   4.342
    1mop_t    H  169   1.162   4.526   4.611
    1mop_t    H  170   1.264   4.722   4.656
    1mop_t    H  171   1.552   4.743   4.596
    1mop_t    H  172   1.391   4.869   4.419
    1mop_t    H  173   1.329   4.941   4.569
    1mop_t    H  174   1.218   4.859   4.457
    1mop_t    H  175   1.242   3.966   4.369
    1mop_t    H  176   1.475   3.883   4.354
    1mop_t    C  177   0.497   2.919   4.520
    1mop_t    O  178   0.624   2.875   4.568
    1mop_t    H  179   0.436   2.834   4.492
    1mop_t    H  180   0.514   2.981   4.431
    1mop_t    H  181   0.444   2.979   4.595
    1mop_t    C  182   1.799   4.518   4.907
    1mop_t    C  183   1.654   4.493   4.864
    1mop_t    C  184   1.651   4.362   4.786
    1mop_t    C  185   1.567   4.481   4.990
    1mop_t    O  186   1.615   4.602   4.775
    1mop_t    C  187   1.486   4.611   4.735
    1mop_t    O  188   1.395   4.539   4.773
    1mop_t    H  189   1.836   4.436   4.971
    1mop_t    H  190   1.866   4.525   4.820
    1mop_t    H  191   1.808   4.611   4.963
    1mop_t    H  192   1.706   4.371   4.691
    1mop_t    H  193   1.548   4.338   4.761
    1mop_t    H  194   1.692   4.279   4.843
    1mop_t    H  195   1.561   4.577   5.042
    1mop_t    H  196   1.465   4.450   4.968
    1mop_t    H  197   1.607   4.406   5.058
    2MOL1    Cl  198   4.506   0.349   2.739
    2MOL1     C  199   4.343   0.362   2.672
    2MOL1    Cl  200   4.309   0.226   2.563
    2MOL1    Cl  201   4.222   0.368   2.801
    2MOL1     H  202   4.336   0.454   2.614
    2MOL1    Cl  203   1.776   2.760   4.357
    2MOL1     C  204   1.753   2.584   4.358
    2MOL1    Cl  205   1.854   2.508   4.482
    2MOL1    Cl  206   1.582   2.543   4.383
    2MOL1     H  207   1.783   2.545   4.260
    2MOL1    Cl  208   1.672   2.313   0.927
    2MOL1     C  209   1.848   2.304   0.945
    2MOL1    Cl  210   1.900   2.391   1.091
    2MOL1    Cl  211   1.901   2.135   0.951
    2MOL1     H  212   1.893   2.352   0.859
    2MOL1    Cl  213   2.781   0.593   3.741
    2MOL1     C  214   2.614   0.615   3.795
    2MOL1    Cl  215   2.503   0.614   3.657
    2MOL1    Cl  216   2.569   0.490   3.912
    2MOL1     H  217   2.606   0.712   3.845
    2MOL1    Cl  218   2.306   1.695   3.046
    2MOL1     C  219   2.323   1.762   2.883
    2MOL1    Cl  220   2.172   1.841   2.833
    2MOL1    Cl  221   2.458   1.875   2.876
    2MOL1     H  222   2.343   1.680   2.814
    2MOL1    Cl  223   4.879   1.254   0.494
    2MOL1     C  224   5.041   1.273   0.563
    2MOL1    Cl  225   5.163   1.287   0.435
    2MOL1    Cl  226   5.047   1.414   0.670
    2MOL1     H  227   5.064   1.184   0.622
    2MOL1    Cl  228   2.823   0.923   2.581
    2MOL1     C  229   2.896   0.778   2.511
    2MOL1    Cl  230   2.788   0.706   2.391
    2MOL1    Cl  231   3.054   0.816   2.439
    2MOL1     H  232   2.912   0.705   2.592
    2MOL1    Cl  233   3.732   4.159   4.684
    2MOL1     C  234   3.794   4.035   4.794
    2MOL1    Cl  235   3.785   3.874   4.719
    2MOL1    Cl  236   3.961   4.072   4.843
    2MOL1     H  237   3.732   4.034   4.884
    2MOL1    Cl  238   0.875   4.092   3.403
    2MOL1     C  239   0.756   4.203   3.473
    2MOL1    Cl  240   0.617   4.221   3.364
    2MOL1    Cl  241   0.703   4.146   3.632
    2MOL1     H  242   0.803   4.301   3.485
    2MOL1    Cl  243   3.969   1.414   2.443
    2MOL1     C  244   3.920   1.311   2.579
    2MOL1    Cl  245   3.963   1.142   2.549
    2MOL1    Cl  246   3.994   1.369   2.730
    2MOL1     H  247   3.811   1.318   2.589
    2MOL1    Cl  248   4.904   3.055   4.614
    2MOL1     C  249   4.945   3.141   4.465
    2MOL1    Cl  250   5.043   3.039   4.359
    2MOL1    Cl  251   4.798   3.194   4.381
    2MOL1     H  252   5.003   3.229   4.491
    2MOL1    Cl  253   0.592   2.787   1.265
    2MOL1     C  254   0.552   2.850   1.426
    2MOL1    Cl  255   0.604   3.019   1.442
    2MOL1    Cl  256   0.379   2.835   1.457
    2MOL1     H  257   0.606   2.790   1.501
    2MOL1    Cl  258   1.409   1.925   2.237
    2MOL1     C  259   1.421   1.972   2.407
    2MOL1    Cl  260   1.510   2.124   2.424
    2MOL1    Cl  261   1.259   1.986   2.479
    2MOL1     H  262   1.475   1.894   2.460
    2MOL1    Cl  263   4.339   4.429   0.881
    2MOL1     C  264   4.291   4.424   0.711
    2MOL1    Cl  265   4.361   4.282   0.631
    2MOL1    Cl  266   4.115   4.422   0.697
    2MOL1     H  267   4.329   4.513   0.662
    2MOL1    Cl  268   2.665   5.161   3.620
    2MOL1     C  269   2.588   5.242   3.757
    2MOL1    Cl  270   2.414   5.259   3.730
    2MOL1    Cl  271   2.619   5.153   3.907
    2MOL1     H  272   2.631   5.342   3.767
    2MOL1    Cl  273   2.997   1.658   3.057
    2MOL1     C  274   2.920   1.816   3.033
    2MOL1    Cl  275   2.884   1.893   3.189
    2MOL1    Cl  276   3.024   1.921   2.934
    2MOL1     H  277   2.826   1.801   2.979
    2MOL1    Cl  278   0.739   2.967   5.092
    2MOL1     C  279   0.698   3.133   5.044
    2MOL1    Cl  280   0.808   3.191   4.919
    2MOL1    Cl  281   0.530   3.142   4.989
    2MOL1     H  282   0.708   3.198   5.132
    2MOL1    Cl  283   4.510   3.626   2.287
    2MOL1     C  284   4.592   3.539   2.156
    2MOL1    Cl  285   4.477   3.496   2.028
    2MOL1    Cl  286   4.725   3.636   2.091
    2MOL1     H  287   4.634   3.447   2.197
    2MOL1    Cl  288   5.291   3.629   5.051
    2MOL1     C  289   5.226   3.695   4.899
    2MOL1    Cl  290   5.340   3.667   4.766
    2MOL1    Cl  291   5.069   3.623   4.862
    2MOL1     H  292   5.213   3.802   4.911
    2MOL1    Cl  293   2.129   1.065   3.691
    2MOL1     C  294   2.152   1.155   3.540
    2MOL1    Cl  295   2.027   1.278   3.521
    2MOL1    Cl  296   2.314   1.229   3.536
    2MOL1     H  297   2.145   1.085   3.456
    2MOL1    Cl  298   1.323   1.852   2.679
    2MOL1     C  299   1.442   1.956   2.759
    2MOL1    Cl  300   1.593   1.959   2.667
    2MOL1    Cl  301   1.377   2.119   2.780
    2MOL1     H  302   1.462   1.914   2.858
    2MOL1    Cl  303   3.186   4.612   4.817
    2MOL1     C  304   3.102   4.765   4.785
    2MOL1    Cl  305   2.974   4.791   4.905
    2MOL1    Cl  306   3.217   4.899   4.786
    2MOL1     H  307   3.057   4.759   4.686
    2MOL1    Cl  308   2.776   2.524   2.162
    2MOL1     C  309   2.716   2.465   2.006
    2MOL1    Cl  310   2.611   2.324   2.029
    2MOL1    Cl  311   2.631   2.594   1.919
    2MOL1     H  312   2.802   2.434   1.945
    2MOL1    Cl  313   2.884   2.120   5.038
    2MOL1     C  314   2.734   2.031   5.069
    2MOL1    Cl  315   2.743   1.946   5.224
    2MOL1    Cl  316   2.595   2.140   5.065
    2MOL1     H  317   2.722   1.957   4.989
    2MOL1    Cl  318   4.942   0.128   1.149
    2MOL1     C  319   4.918   0.278   1.240
    2MOL1    Cl  320   4.778   0.264   1.348
    2MOL1    Cl  321   5.064   0.319   1.332
    2MOL1     H  322   4.899   0.359   1.169
    2MOL1    Cl  323   2.934   0.714   1.175
    2MOL1     C  324   3.021   0.866   1.208
    2MOL1    Cl  325   3.059   0.879   1.381
    2MOL1    Cl  326   3.168   0.876   1.111
    2MOL1     H  327   2.956   0.949   1.181
    2MOL1    Cl  328   3.926   3.092   1.948
    2MOL1     C  329   3.903   3.245   1.860
    2MOL1    Cl  330   4.042   3.278   1.756
    2MOL1    Cl  331   3.753   3.241   1.766
    2MOL1     H  332   3.896   3.326   1.934
    2MOL1    Cl  333   1.088   1.079   3.581
    2MOL1     C  334   1.117   0.924   3.661
    2MOL1    Cl  335   1.026   0.794   3.583
    2MOL1    Cl  336   1.291   0.886   3.662
    2MOL1     H  337   1.084   0.932   3.765
    2MOL1    Cl  338   0.657   5.082   4.021
    2MOL1     C  339   0.686   5.179   4.166
    2MOL1    Cl  340   0.795   5.314   4.130
    2MOL1    Cl  341   0.533   5.239   4.232
    2MOL1     H  342   0.734   5.115   4.241
    2MOL1    Cl  343   2.578   3.490   3.363
    2MOL1     C  344   2.708   3.590   3.428
    2MOL1    Cl  345   2.842   3.490   3.485
    2MOL1    Cl  346   2.764   3.706   3.306
    2MOL1     H  347   2.669   3.647   3.513
    2MOL1    Cl  348   0.466   1.054   2.400
    2MOL1     C  349   0.330   0.944   2.431
    2MOL1    Cl  350   0.359   0.850   2.578
    2MOL1    Cl  351   0.178   1.034   2.443
    2MOL1     H  352   0.322   0.875   2.346
    2MOL1    Cl  353   5.105   2.063   2.062
    2MOL1     C  354   4.964   1.990   2.140
    2MOL1    Cl  355   4.817   2.022   2.047
    2MOL1    Cl  356   4.988   1.816   2.161
    2MOL1     H  357   4.952   2.035   2.239
    2MOL1    Cl  358   1.155   3.506   2.445
    2MOL1     C  359   1.236   3.560   2.297
    2MOL1    Cl  360   1.118   3.610   2.175
    2MOL1    Cl  361   1.349   3.692   2.332
    2MOL1     H  362   1.294   3.476   2.257
    2MOL1    Cl  363   4.059   1.487   1.952
    2MOL1     C  364   3.912   1.416   2.022
    2MOL1    Cl  365   3.920   1.239   2.018
    2MOL1    Cl  366   3.889   1.474   2.188
    2MOL1     H  367   3.826   1.449   1.963
    2MOL1    Cl  368   0.647   2.299   2.180
    2MOL1     C  369   0.822   2.289   2.208
    2MOL1    Cl  370   0.879   2.123   2.187
    2MOL1    Cl  371   0.908   2.398   2.098
    2MOL1     H  372   0.843   2.320   2.310
    2MOL1    Cl  373   2.115   3.946   1.800
    2MOL1     C  374   2.201   3.805   1.736
    2MOL1    Cl  375   2.291   3.723   1.865
    2MOL1    Cl  376   2.088   3.693   1.659
    2MOL1     H  377   2.273   3.839   1.661
    2MOL1    Cl  378   0.860   4.456   1.141
    2MOL1     C  379   0.991   4.575   1.141
    2MOL1    Cl  380   1.147   4.495   1.119
    2MOL1    Cl  381   0.965   4.697   1.016
    2MOL1     H  382   0.991   4.625   1.238
    2MOL1    Cl  383   0.415   1.342   4.884
    2MOL1     C  384   0.255   1.294   4.828
    2MOL1    Cl  385   0.141   1.429   4.840
    2MOL1    Cl  386   0.262   1.234   4.661
    2MOL1     H  387   0.219   1.213   4.892
    2MOL1    Cl  388   1.413   4.059   4.900
    2MOL1     C  389   1.327   3.923   4.825
    2MOL1    Cl  390   1.423   3.775   4.837
    2MOL1    Cl  391   1.168   3.901   4.900
    2MOL1     H  392   1.312   3.947   4.719
    2MOL1    Cl  393   0.359   0.589   4.888
    2MOL1     C  394   0.313   0.758   4.860
    2MOL1    Cl  395   0.432   0.839   4.756
    2MOL1    Cl  396   0.151   0.767   4.787
    2MOL1     H  397   0.310   0.810   4.956
    2MOL1    Cl  398   1.035   4.434   2.203
    2MOL1     C  399   1.052   4.268   2.262
    2MOL1    Cl  400   1.222   4.225   2.283
    2MOL1    Cl  401   0.963   4.247   2.414
    2MOL1     H  402   1.008   4.200   2.187
    2MOL1    Cl  403   3.805   4.006   0.215
    2MOL1     C  404   3.673   4.117   0.175
    2MOL1    Cl  405   3.692   4.270   0.262
    2MOL1    Cl  406   3.665   4.145   0.000
    2MOL1     H  407   3.579   4.071   0.207
    2MOL1    Cl  408   1.507   1.516   1.321
    2MOL1     C  409   1.616   1.540   1.458
    2MOL1    Cl  410   1.700   1.696   1.444
    2MOL1    Cl  411   1.528   1.531   1.611
    2MOL1     H  412   1.691   1.461   1.457
    2MOL1    Cl  413   3.411   0.750   2.460
    2MOL1     C  414   3.429   0.689   2.295
    2MOL1    Cl  415   3.318   0.772   2.185
    2MOL1    Cl  416   3.597   0.707   2.240
    2MOL1     H  417   3.404   0.582   2.295
    2MOL1    Cl  418   0.179   0.461   1.929
    2MOL1     C  419   0.161   0.628   1.983
    2MOL1    Cl  420   0.009   0.649   2.072
    2MOL1    Cl  421   0.298   0.677   2.083
    2MOL1     H  422   0.158   0.693   1.895
    2MOL1    Cl  423   3.755   2.561   1.109
    2MOL1     C  424   3.920   2.613   1.147
    2MOL1    Cl  425   3.990   2.703   1.011
    2MOL1    Cl  426   3.921   2.712   1.294
    2MOL1     H  427   3.981   2.525   1.165
    2MOL1    Cl  428   4.825   1.766   3.270
    2MOL1     C  429   4.933   1.805   3.405
    2MOL1    Cl  430   4.922   1.681   3.531
    2MOL1    Cl  431   5.100   1.820   3.348
    2MOL1     H  432   4.902   1.900   3.447
    2MOL1    Cl  433   2.007   3.709   2.427
    2MOL1     C  434   2.031   3.534   2.432
    2MOL1    Cl  435   2.145   3.491   2.561
    2MOL1    Cl  436   1.877   3.450   2.455
    2MOL1     H  437   2.074   3.502   2.337
    2MOL1    Cl  438   0.677   0.149   4.957
    2MOL1     C  439   0.562   0.267   4.892
    2MOL1    Cl  440   0.636   0.361   4.762
    2MOL1    Cl  441   0.416   0.185   4.835
    2MOL1     H  442   0.534   0.335   4.973
    2MOL1    Cl  443   4.431   0.475   4.396
    2MOL1     C  444   4.478   0.605   4.508
    2MOL1    Cl  445   4.465   0.550   4.676
    2MOL1    Cl  446   4.642   0.660   4.473
    2MOL1     H  447   4.409   0.689   4.493
    2MOL1    Cl  448   3.980   4.814   1.506
    2MOL1     C  449   3.844   4.701   1.512
    2MOL1    Cl  450   3.845   4.595   1.370
    2MOL1    Cl  451   3.850   4.605   1.661
    2MOL1     H  452   3.751   4.758   1.511
    2MOL1    Cl  453   4.626   4.513   4.818
    2MOL1     C  454   4.481   4.565   4.904
    2MOL1    Cl  455   4.478   4.497   5.068
    2MOL1    Cl  456   4.472   4.742   4.910
    2MOL1     H  457   4.394   4.528   4.850
    2MOL1    Cl  458   4.016   4.157   1.775
    2MOL1     C  459   4.032   4.331   1.808
    2MOL1    Cl  460   3.912   4.383   1.927
    2MOL1    Cl  461   4.196   4.369   1.863
    2MOL1     H  462   4.014   4.385   1.714
    2MOL1    Cl  463   3.999   4.110   3.272
    2MOL1     C  464   3.853   4.074   3.365
    2MOL1    Cl  465   3.753   4.219   3.383
    2MOL1    Cl  466   3.761   3.943   3.289
    2MOL1     H  467   3.884   4.041   3.465
    2MOL1    Cl  468   0.305   0.767   3.332
    2MOL1     C  469   0.371   0.916   3.401
    2MOL1    Cl  470   0.242   1.034   3.431
    2MOL1    Cl  471   0.460   0.881   3.551
    2MOL1     H  472   0.441   0.959   3.329
    2MOL1    Cl  473   2.944   2.521   2.811
    2MOL1     C  474   3.035   2.661   2.869
    2MOL1    Cl  475   3.204   2.653   2.815
    2MOL1    Cl  476   2.959   2.812   2.813
    2MOL1     H  477   3.034   2.660   2.978
    2MOL1    Cl  478   3.807   2.458   2.535
    2MOL1     C  479   3.651   2.526   2.485
    2MOL1    Cl  480   3.673   2.691   2.423
    2MOL1    Cl  481   3.574   2.424   2.364
    2MOL1     H  482   3.586   2.531   2.573
    2MOL1    Cl  483   5.185   0.706   2.407
    2MOL1     C  484   5.015   0.669   2.438
    2MOL1    Cl  485   4.994   0.606   2.603
    2MOL1    Cl  486   4.914   0.812   2.413
    2MOL1     H  487   4.983   0.591   2.368
    2MOL1    Cl  488   0.370   0.109   3.220
    2MOL1     C  489   0.390   0.170   3.055
    2MOL1    Cl  490   0.559   0.156   3.003
    2MOL1    Cl  491   0.283   0.082   2.943
    2MOL1     H  492   0.362   0.275   3.053
    2MOL1    Cl  493   5.228   3.898   1.406
    2MOL1     C  494   5.185   3.736   1.350
    2MOL1    Cl  495   5.068   3.745   1.217
    2MOL1    Cl  496   5.329   3.647   1.299
    2MOL1     H  497   5.139   3.681   1.432
    2MOL1    Cl  498   1.584   3.240   1.065
    2MOL1     C  499   1.491   3.279   0.919
    2MOL1    Cl  500   1.388   3.420   0.946
    2MOL1    Cl  501   1.601   3.308   0.782
    2MOL1     H  502   1.428   3.194   0.894
    2MOL1    Cl  503   2.674   4.445   4.378
    2MOL1     C  504   2.744   4.424   4.216
    2MOL1    Cl  505   2.656   4.300   4.125
    2MOL1    Cl  506   2.744   4.578   4.128
    2MOL1     H  507   2.848   4.391   4.228
    2MOL1    Cl  508   4.738   1.552   0.245
    2MOL1     C  509   4.668   1.714   0.265
    2MOL1    Cl  510   4.556   1.717   0.403
    2MOL1    Cl  511   4.795   1.835   0.286
    2MOL1     H  512   4.611   1.738   0.175
    2MOL1    Cl  513   2.951   4.907   4.450
    2MOL1     C  514   2.835   4.777   4.415
    2MOL1    Cl  515   2.742   4.814   4.269
    2MOL1    Cl  516   2.919   4.622   4.398
    2MOL1     H  517   2.766   4.770   4.500
    2MOL1    Cl  518   3.723   4.020   2.124
    2MOL1     C  519   3.774   4.182   2.075
    2MOL1    Cl  520   3.773   4.292   2.214
    2MOL1    Cl  521   3.936   4.176   2.002
    2MOL1     H  522   3.704   4.219   2.001
    2MOL1    Cl  523   0.909   0.155   3.586
    2MOL1     C  524   1.008   0.163   3.440
    2MOL1    Cl  525   1.059   0.330   3.408
    2MOL1    Cl  526   1.149   0.057   3.455
    2MOL1     H  527   0.948   0.128   3.355
    2MOL1    Cl  528   1.113   1.300   2.607
    2MOL1     C  529   0.956   1.367   2.654
    2MOL1    Cl  530   0.892   1.473   2.527
    2MOL1    Cl  531   0.841   1.237   2.690
    2MOL1     H  532   0.970   1.427   2.744
    2MOL1    Cl  533   0.994   0.709   2.361
    2MOL1     C  534   1.168   0.742   2.360
    2MOL1    Cl  535   1.238   0.715   2.520
    2MOL1    Cl  536   1.249   0.643   2.238
    2MOL1     H  537   1.182   0.848   2.333
    2MOL1    Cl  538   2.806   1.360   3.856
    2MOL1     C  539   2.891   1.216   3.913
    2MOL1    Cl  540   2.856   1.077   3.808
    2MOL1    Cl  541   3.066   1.245   3.920
    2MOL1     H  542   2.857   1.193   4.014
    2MOL1    Cl  543   4.475   5.212   1.284
    2MOL1     C  544   4.631   5.131   1.261
    2MOL1    Cl  545   4.741   5.168   1.395
    2MOL1    Cl  546   4.608   4.956   1.246
    2MOL1     H  547   4.676   5.168   1.168
    2MOL1    Cl  548   0.414   4.500   0.206
    2MOL1     C  549   0.527   4.423   0.318
    2MOL1    Cl  550   0.563   4.530   0.454
    2MOL1    Cl  551   0.461   4.269   0.375
    2MOL1     H  552   0.620   4.402   0.264
    2MOL1    Cl  553   2.593   3.453   2.259
    2MOL1     C  554   2.419   3.422   2.245
    2MOL1    Cl  555   2.326   3.566   2.287
    2MOL1    Cl  556   2.378   3.366   2.082
    2MOL1     H  557   2.393   3.342   2.316
    2MOL1    Cl  558   0.192   3.173   1.095
    2MOL1     C  559   0.365   3.135   1.088
    2MOL1    Cl  560   0.458   3.247   1.189
    2MOL1    Cl  561   0.393   2.967   1.138
    2MOL1     H  562   0.399   3.145   0.985
    2MOL1    Cl  563   3.374   3.799   0.981
    2MOL1     C  564   3.379   3.629   1.033
    2MOL1    Cl  565   3.451   3.615   1.194
    2MOL1    Cl  566   3.216   3.559   1.031
    2MOL1     H  567   3.441   3.574   0.962
    2MOL1    Cl  568   3.209   3.247   4.930
    2MOL1     C  569   3.182   3.073   4.916
    2MOL1    Cl  570   3.331   2.984   4.949
    2MOL1    Cl  571   3.052   3.020   5.025
    2MOL1     H  572   3.151   3.051   4.813
    2MOL1    Cl  573   1.145   1.472   1.903
    2MOL1     C  574   1.116   1.302   1.861
    2MOL1    Cl  575   1.269   1.212   1.856
    2MOL1    Cl  576   1.004   1.227   1.976
    2MOL1     H  577   1.071   1.299   1.761
    2MOL1    Cl  578   1.794   2.735   4.806
    2MOL1     C  579   1.961   2.684   4.778
    2MOL1    Cl  580   2.061   2.715   4.921
    2MOL1    Cl  581   1.967   2.512   4.735
    2MOL1     H  582   2.001   2.742   4.695
    2MOL1    Cl  583   2.151   4.012   4.064
    2MOL1     C  584   2.029   4.140   4.072
    2MOL1    Cl  585   1.874   4.084   4.006
    2MOL1    Cl  586   2.008   4.195   4.239
    2MOL1     H  587   2.063   4.224   4.012
    2MOL1    Cl  588   0.629   0.427   0.192
    2MOL1     C  589   0.775   0.346   0.133
    2MOL1    Cl  590   0.887   0.462   0.061
    2MOL1    Cl  591   0.853   0.255   0.263
    2MOL1     H  592   0.745   0.275   0.055
    2MOL1    Cl  593   1.167   0.813   3.017
    2MOL1     C  594   1.090   0.656   2.991
    2MOL1    Cl  595   0.952   0.672   2.880
    2MOL1    Cl  596   1.207   0.539   2.927
    2MOL1     H  597   1.053   0.619   3.087
    2MOL1    Cl  598   4.522   3.047   3.311
    2MOL1     C  599   4.541   3.219   3.273
    2MOL1    Cl  600   4.408   3.313   3.342
    2MOL1    Cl  601   4.697   3.279   3.331
    2MOL1     H  602   4.539   3.231   3.164
    2MOL1    Cl  603   3.225   4.906   5.051
    2MOL1     C  604   3.177   4.825   5.201
    2MOL1    Cl  605   3.261   4.897   5.340
    2MOL1    Cl  606   3.001   4.833   5.223
    2MOL1     H  607   3.206   4.720   5.194
    2MOL1    Cl  608   2.015   0.166   3.723
    2MOL1     C  609   1.854   0.177   3.648
    2MOL1    Cl  610   1.845   0.319   3.543
    2MOL1    Cl  611   1.817   0.030   3.558
    2MOL1     H  612   1.780   0.188   3.728
    2MOL1    Cl  613   0.896   0.882   4.050
    2MOL1     C  614   1.009   0.745   4.057
    2MOL1    Cl  615   1.128   0.770   4.186
    2MOL1    Cl  616   0.921   0.593   4.082
    2MOL1     H  617   1.062   0.739   3.962
    2MOL1    Cl  618   1.984   5.123   2.565
    2MOL1     C  619   2.026   5.163   2.398
    2MOL1    Cl  620   2.190   5.231   2.389
    2MOL1    Cl  621   2.012   5.021   2.293
    2MOL1     H  622   1.956   5.239   2.362
    2MOL1    Cl  623   1.010   1.366   2.311
    2MOL1     C  624   1.180   1.332   2.347
    2MOL1    Cl  625   1.245   1.452   2.460
    2MOL1    Cl  626   1.198   1.168   2.413
    2MOL1     H  627   1.237   1.338   2.254
    2MOL1    Cl  628   1.720   1.740   0.083
    2MOL1     C  629   1.601   1.651   0.179
    2MOL1    Cl  630   1.492   1.559   0.073
    2MOL1    Cl  631   1.682   1.543   0.293
    2MOL1     H  632   1.541   1.723   0.235
    2MOL1    Cl  633   4.188   3.256   2.384
    2MOL1     C  634   4.241   3.117   2.481
    2MOL1    Cl  635   4.140   3.099   2.625
    2MOL1    Cl  636   4.239   2.969   2.384
    2MOL1     H  637   4.344   3.135   2.513
    2MOL1    Cl  638   2.796   4.948   1.358
    2MOL1     C  639   2.964   4.893   1.345
    2MOL1    Cl  640   2.973   4.735   1.265
    2MOL1    Cl  641   3.062   5.012   1.259
    2MOL1     H  642   3.004   4.882   1.447
    2MOL1    Cl  643   4.399   2.323   3.269
    2MOL1     C  644   4.326   2.473   3.330
    2MOL1    Cl  645   4.163   2.444   3.391
    2MOL1    Cl  646   4.428   2.544   3.456
    2MOL1     H  647   4.320   2.544   3.247
    2MOL1    Cl  648   4.392   0.784   3.822
    2MOL1     C  649   4.304   0.825   3.674
    2MOL1    Cl  650   4.412   0.897   3.554
    2MOL1    Cl  651   4.225   0.680   3.607
    2MOL1     H  652   4.226   0.898   3.699
    2MOL1    Cl  653   4.128   1.162   3.231
    2MOL1     C  654   4.208   1.026   3.311
    2MOL1    Cl  655   4.124   0.981   3.460
    2MOL1    Cl  656   4.218   0.887   3.201
    2MOL1     H  657   4.310   1.056   3.336
    2MOL1    Cl  658   2.026   0.085   3.310
    2MOL1     C  659   2.086   0.251   3.305
    2MOL1    Cl  660   2.150   0.290   3.144
    2MOL1    Cl  661   1.958   0.365   3.351
    2MOL1     H  662   2.168   0.260   3.377
    2MOL1    Cl  663   0.530   4.316   3.721
    2MOL1     C  664   0.522   4.489   3.683
    2MOL1    Cl  665   0.608   4.524   3.533
    2MOL1    Cl  666   0.353   4.542   3.672
    2MOL1     H  667   0.570   4.544   3.764
    2MOL1    Cl  668   0.424   1.927   4.709
    2MOL1     C  669   0.285   1.936   4.818
    2MOL1    Cl  670   0.309   1.831   4.958
    2MOL1    Cl  671   0.258   2.104   4.870
    2MOL1     H  672   0.197   1.903   4.764
    2MOL1    Cl  673   1.009   5.115   5.340
    2MOL1     C  674   1.078   5.099   5.178
    2MOL1    Cl  675   1.250   5.056   5.186
    2MOL1    Cl  676   0.988   4.979   5.083
    2MOL1     H  677   1.069   5.196   5.127
    2MOL1    Cl  678   0.910   2.125   1.271
    2MOL1     C  679   0.852   2.280   1.209
    2MOL1    Cl  680   0.972   2.408   1.239
    2MOL1    Cl  681   0.814   2.269   1.037
    2MOL1     H  682   0.760   2.306   1.263
    2MOL1    Cl  683   4.978   1.739   2.399
    2MOL1     C  684   4.822   1.710   2.322
    2MOL1    Cl  685   4.734   1.862   2.299
    2MOL1    Cl  686   4.843   1.627   2.167
    2MOL1     H  687   4.763   1.646   2.387
    2MOL1    Cl  688   3.035   1.206   2.598
    2MOL1     C  689   2.921   1.342   2.605
    2MOL1    Cl  690   2.969   1.470   2.492
    2MOL1    Cl  691   2.756   1.286   2.569
    2MOL1     H  692   2.922   1.383   2.706
    2MOL1    Cl  693   3.325   0.590   2.666
    2MOL1     C  694   3.162   0.522   2.677
    2MOL1    Cl  695   3.121   0.434   2.529
    2MOL1    Cl  696   3.148   0.415   2.818
    2MOL1     H  697   3.091   0.604   2.689
    2MOL1    Cl  698   2.236   4.558   1.095
    2MOL1     C  699   2.395   4.628   1.126
    2MOL1    Cl  700   2.478   4.541   1.256
    2MOL1    Cl  701   2.493   4.627   0.978
    2MOL1     H  702   2.382   4.732   1.157
    2MOL1    Cl  703   0.691   3.503   4.015
    2MOL1     C  704   0.533   3.440   4.062
    2MOL1    Cl  705   0.551   3.291   4.157
    2MOL1    Cl  706   0.442   3.561   4.155
    2MOL1     H  707   0.476   3.416   3.972
    2MOL1    Cl  708   2.507   0.236   1.767
    2MOL1     C  709   2.492   0.073   1.700
    2MOL1    Cl  710   2.391   0.074   1.555
    2MOL1    Cl  711   2.652   0.005   1.664
    2MOL1     H  712   2.444   0.010   1.775
    2MOL1    Cl  713   2.795   4.844   3.751
    2MOL1     C  714   2.641   4.909   3.692
    2MOL1    Cl  715   2.657   4.963   3.524
    2MOL1    Cl  716   2.512   4.788   3.706
    2MOL1     H  717   2.614   4.995   3.754
    2MOL1    Cl  718   3.753   3.506   4.826
    2MOL1     C  719   3.642   3.637   4.869
    2MOL1    Cl  720   3.531   3.586   4.997
    2MOL1    Cl  721   3.732   3.781   4.919
    2MOL1     H  722   3.583   3.663   4.781
    2MOL1    Cl  723   1.593   0.096   4.725
    2MOL1     C  724   1.692   0.224   4.797
    2MOL1    Cl  725   1.850   0.161   4.844
    2MOL1    Cl  726   1.709   0.360   4.685
    2MOL1     H  727   1.641   0.260   4.887
    2MOL1    Cl  728   3.581   3.824   1.885
    2MOL1     C  729   3.411   3.775   1.883
    2MOL1    Cl  730   3.393   3.610   1.944
    2MOL1    Cl  731   3.313   3.888   1.979
    2MOL1     H  732   3.375   3.778   1.780
    2MOL1    Cl  733   0.349   2.749   2.182
    2MOL1     C  734   0.180   2.719   2.137
    2MOL1    Cl  735   0.139   2.806   1.989
    2MOL1    Cl  736   0.151   2.545   2.118
    2MOL1     H  737   0.116   2.756   2.218
    2MOL1    Cl  738   1.985   0.914   3.520
    2MOL1     C  739   1.821   0.926   3.586
    2MOL1    Cl  740   1.714   1.009   3.472
    2MOL1    Cl  741   1.758   0.766   3.626
    2MOL1     H  742   1.826   0.985   3.678
    2MOL1    Cl  743   1.470   4.402   3.640
    2MOL1     C  744   1.437   4.574   3.667
    2MOL1    Cl  745   1.304   4.595   3.782
    2MOL1    Cl  746   1.583   4.656   3.726
    2MOL1     H  747   1.409   4.619   3.572
    2MOL1    Cl  748   1.449   3.241   3.646
    2MOL1     C  749   1.293   3.289   3.577
    2MOL1    Cl  750   1.236   3.440   3.652
    2MOL1    Cl  751   1.306   3.308   3.401
    2MOL1     H  752   1.220   3.211   3.598
    2MOL1    Cl  753   4.706   2.405   2.430
    2MOL1     C  754   4.857   2.347   2.501
    2MOL1    Cl  755   4.923   2.213   2.405
    2MOL1    Cl  756   4.975   2.478   2.513
    2MOL1     H  757   4.836   2.309   2.601
    2MOL1    Cl  758   2.505   1.462   2.034
    2MOL1     C  759   2.376   1.479   1.913
    2MOL1    Cl  760   2.283   1.329   1.900
    2MOL1    Cl  761   2.270   1.615   1.953
    2MOL1     H  762   2.423   1.499   1.816
    2MOL1    Cl  763   1.375   0.013   3.734
    2MOL1     C  764   1.302   0.174   3.733
    2MOL1    Cl  765   1.197   0.196   3.874
    2MOL1    Cl  766   1.428   0.299   3.729
    2MOL1     H  767   1.241   0.184   3.643
    2MOL1    Cl  768   4.332   3.862   2.571
    2MOL1     C  769   4.303   3.755   2.709
    2MOL1    Cl  770   4.188   3.627   2.666
    2MOL1    Cl  771   4.456   3.685   2.766
    2MOL1     H  772   4.260   3.814   2.790
    2MOL1    Cl  773   4.332   1.449   4.103
    2MOL1     C  774   4.402   1.289   4.076
    2MOL1    Cl  775   4.374   1.235   3.910
    2MOL1    Cl  776   4.576   1.290   4.113
    2MOL1     H  777   4.354   1.218   4.144
    2MOL1    Cl  778   3.787   1.801   2.541
    2MOL1     C  779   3.846   1.959   2.596
    2MOL1    Cl  780   3.993   2.005   2.507
    2MOL1    Cl  781   3.721   2.083   2.576
    2MOL1     H  782   3.871   1.952   2.702
    2MOL1    Cl  783   5.119   4.072   3.408
    2MOL1     C  784   4.952   4.109   3.362
    2MOL1    Cl  785   4.947   4.249   3.254
    2MOL1    Cl  786   4.876   3.968   3.285
    2MOL1     H  787   4.896   4.132   3.453
    2MOL1    Cl  788   0.668   1.900   0.565
    2MOL1     C  789   0.493   1.872   0.552
    2MOL1    Cl  790   0.460   1.702   0.517
    2MOL1    Cl  791   0.411   1.922   0.701
    2MOL1     H  792   0.455   1.933   0.470
    2MOL1    Cl  793   3.667   1.733   3.428
    2MOL1     C  794   3.704   1.824   3.575
    2MOL1    Cl  795   3.803   1.727   3.685
    2MOL1    Cl  796   3.787   1.976   3.534
    2MOL1     H  797   3.610   1.849   3.625
    2MOL1    Cl  798   1.542   2.547   3.117
    2MOL1     C  799   1.414   2.490   3.009
    2MOL1    Cl  800   1.277   2.603   3.009
    2MOL1    Cl  801   1.476   2.468   2.844
    2MOL1     H  802   1.379   2.393   3.045
    2MOL1    Cl  803   0.292   3.220   0.169
    2MOL1     C  804   0.312   3.056   0.106
    2MOL1    Cl  805   0.401   2.955   0.220
    2MOL1    Cl  806   0.154   2.984   0.070
    2MOL1     H  807   0.369   3.061   0.013
    2MOL1    Cl  808   0.855   4.458   5.054
    2MOL1     C  809   0.863   4.633   5.081
    2MOL1    Cl  810   0.985   4.706   4.976
    2MOL1    Cl  811   0.704   4.707   5.053
    2MOL1     H  812   0.891   4.651   5.185
    2MOL1    Cl  813   4.685   4.601   0.161
    2MOL1     C  814   4.727   4.761   0.223
    2MOL1    Cl  815   4.804   4.860   0.098
    2MOL1    Cl  816   4.583   4.843   0.287
    2MOL1     H  817   4.798   4.749   0.306
    2MOL1    Cl  818   0.661   1.385   0.727
    2MOL1     C  819   0.758   1.532   0.745
    2MOL1    Cl  820   0.927   1.502   0.705
    2MOL1    Cl  821   0.692   1.662   0.644
    2MOL1     H  822   0.752   1.564   0.850
    2MOL1    Cl  823   2.537   0.505   3.468
    2MOL1     C  824   2.496   0.340   3.518
    2MOL1    Cl  825   2.590   0.294   3.662
    2MOL1    Cl  826   2.322   0.326   3.550
    2MOL1     H  827   2.522   0.272   3.437
    2MOL1    Cl  828   0.697   1.686   3.396
    2MOL1     C  829   0.601   1.538   3.413
    2MOL1    Cl  830   0.576   1.499   3.584
    2MOL1    Cl  831   0.446   1.555   3.330
    2MOL1     H  832   0.656   1.456   3.367
    2MOL1    Cl  833   0.147   4.493   5.050
    2MOL1     C  834   0.317   4.457   5.015
    2MOL1    Cl  835   0.334   4.292   4.954
    2MOL1    Cl  836   0.383   4.573   4.900
    2MOL1     H  837   0.373   4.465   5.108
    2MOL1    Cl  838   4.147   1.358   2.158
    2MOL1     C  839   4.305   1.436   2.176
    2MOL1    Cl  840   4.289   1.593   2.255
    2MOL1    Cl  841   4.416   1.331   2.267
    2MOL1     H  842   4.347   1.451   2.076
    2MOL1    Cl  843   1.412   0.822   1.812
    2MOL1     C  844   1.492   0.665   1.796
    2MOL1    Cl  845   1.558   0.612   1.952
    2MOL1    Cl  846   1.380   0.544   1.731
    2MOL1     H  847   1.575   0.676   1.725
    2MOL1    Cl  848   0.277   5.027   3.646
    2MOL1     C  849   0.125   5.075   3.569
    2MOL1    Cl  850   0.000   4.952   3.597
    2MOL1    Cl  851   0.072   5.233   3.630
    2MOL1     H  852   0.142   5.084   3.462
    2MOL1    Cl  853   2.172   1.833   3.622
    2MOL1     C  854   2.018   1.881   3.548
    2MOL1    Cl  855   1.886   1.781   3.611
    2MOL1    Cl  856   1.986   2.052   3.577
    2MOL1     H  857   2.026   1.865   3.440
    2MOL1    Cl  858   2.760   3.494   3.997
    2MOL1     C  859   2.700   3.566   3.846
    2MOL1    Cl  860   2.728   3.456   3.710
    2MOL1    Cl  861   2.528   3.606   3.859
    2MOL1     H  862   2.756   3.658   3.827
    2MOL1    Cl  863   0.942   1.465   3.842
    2MOL1     C  864   0.840   1.438   3.699
    2MOL1    Cl  865   0.919   1.327   3.586
    2MOL1    Cl  866   0.681   1.377   3.747
    2MOL1     H  867   0.826   1.534   3.649
    2MOL1    Cl  868   0.723   4.564   1.821
    2MOL1     C  869   0.769   4.418   1.910
    2MOL1    Cl  870   0.916   4.446   2.004
    2MOL1    Cl  871   0.637   4.365   2.016
    2MOL1     H  872   0.789   4.338   1.838
    2MOL1    Cl  873   3.844   4.270   2.625
    2MOL1     C  874   3.709   4.160   2.592
    2MOL1    Cl  875   3.592   4.236   2.483
    2MOL1    Cl  876   3.769   4.008   2.523
    2MOL1     H  877   3.659   4.137   2.686
    2MOL1    Cl  878   0.533   2.668   3.549
    2MOL1     C  879   0.664   2.551   3.577
    2MOL1    Cl  880   0.785   2.618   3.686
    2MOL1    Cl  881   0.599   2.399   3.641
    2MOL1     H  882   0.711   2.530   3.481
    2MOL1    Cl  883   1.645   3.884   1.780
    2MOL1     C  884   1.810   3.945   1.765
    2MOL1    Cl  885   1.841   4.073   1.883
    2MOL1    Cl  886   1.927   3.813   1.785
    2MOL1     H  887   1.823   3.987   1.665
    2MOL1    Cl  888   1.702   1.683   2.789
    2MOL1     C  889   1.716   1.653   2.615
    2MOL1    Cl  890   1.757   1.483   2.585
    2MOL1    Cl  891   1.566   1.697   2.532
    2MOL1     H  892   1.797   1.715   2.576
    2MOL1    Cl  893   4.028   0.252   3.958
    2MOL1     C  894   3.943   0.125   4.047
    2MOL1    Cl  895   3.883   0.000   3.937
    2MOL1    Cl  896   4.049   0.053   4.170
    2MOL1     H  897   3.857   0.170   4.098
    2MOL1    Cl  898   0.128   4.708   4.666
    2MOL1     C  899   0.149   4.544   4.601
    2MOL1    Cl  900   0.163   4.548   4.425
    2MOL1    Cl  901   0.290   4.466   4.674
    2MOL1     H  902   0.060   4.486   4.627
    2MOL1    Cl  903   1.075   1.736   0.978
    2MOL1     C  904   1.094   1.737   0.802
    2MOL1    Cl  905   1.195   1.873   0.751
    2MOL1    Cl  906   1.164   1.584   0.746
    2MOL1     H  907   0.996   1.749   0.756
    2MOL1    Cl  908   2.617   2.770   0.220
    2MOL1     C  909   2.749   2.801   0.333
    2MOL1    Cl  910   2.703   2.753   0.497
    2MOL1    Cl  911   2.896   2.716   0.283
    2MOL1     H  912   2.770   2.908   0.334
    2MOL1    Cl  913   3.725   1.499   3.433
    2MOL1     C  914   3.636   1.350   3.471
    2MOL1    Cl  915   3.728   1.251   3.585
    2MOL1    Cl  916   3.476   1.389   3.537
    2MOL1     H  917   3.622   1.294   3.379
    2MOL1    Cl  918   3.360   0.253   2.038
    2MOL1     C  919   3.516   0.331   2.012
    2MOL1    Cl  920   3.611   0.242   1.892
    2MOL1    Cl  921   3.494   0.499   1.961
    2MOL1     H  922   3.571   0.331   2.106
    2MOL1    Cl  923   4.055   2.841   1.522
    2MOL1     C  924   4.137   2.685   1.505
    2MOL1    Cl  925   4.256   2.664   1.634
    2MOL1    Cl  926   4.020   2.553   1.506
    2MOL1     H  927   4.189   2.685   1.409
    2MOL1    Cl  928   2.911   4.282   2.832
    2MOL1     C  929   2.985   4.265   2.672
    2MOL1    Cl  930   3.128   4.161   2.680
    2MOL1    Cl  931   2.868   4.201   2.555
    2MOL1     H  932   3.016   4.364   2.638
    2MOL1    Cl  933   4.343   1.000   2.848
    2MOL1     C  934   4.442   1.128   2.774
    2MOL1    Cl  935   4.600   1.139   2.855
    2MOL1    Cl  936   4.463   1.099   2.601
    2MOL1     H  937   4.390   1.223   2.787
    2MOL1    Cl  938   0.816   2.020   4.906
    2MOL1     C  939   0.976   2.093   4.888
    2MOL1    Cl  940   1.103   1.971   4.908
    2MOL1    Cl  941   0.991   2.173   4.731
    2MOL1     H  942   0.988   2.168   4.966
    2MOL1    Cl  943   2.378   4.561   4.913
    2MOL1     C  944   2.441   4.535   4.749
    2MOL1    Cl  945   2.566   4.654   4.710
    2MOL1    Cl  946   2.504   4.370   4.732
    2MOL1     H  947   2.358   4.548   4.679
    2MOL1    Cl  948   2.244   5.030   5.086
    2MOL1     C  949   2.354   5.142   5.168
    2MOL1    Cl  950   2.518   5.076   5.171
    2MOL1    Cl  951   2.351   5.300   5.090
    2MOL1     H  952   2.320   5.154   5.271
    2MOL1    Cl  953   2.081   1.114   2.935
    2MOL1     C  954   2.041   1.272   3.006
    2MOL1    Cl  955   2.174   1.386   2.981
    2MOL1    Cl  956   1.891   1.335   2.937
    2MOL1     H  957   2.027   1.259   3.113
    2MOL1    Cl  958   2.086   2.285   5.191
    2MOL1     C  959   1.923   2.228   5.154
    2MOL1    Cl  960   1.906   2.198   4.980
    2MOL1    Cl  961   1.885   2.082   5.247
    2MOL1     H  962   1.852   2.306   5.183
    2MOL1    Cl  963   2.177   1.707   1.535
    2MOL1     C  964   2.266   1.820   1.638
    2MOL1    Cl  965   2.375   1.733   1.747
    2MOL1    Cl  966   2.358   1.935   1.538
    2MOL1     H  967   2.195   1.876   1.698
    2MOL1    Cl  968   2.662   2.760   0.737
    2MOL1     C  969   2.715   2.672   0.881
    2MOL1    Cl  970   2.782   2.783   1.002
    2MOL1    Cl  971   2.582   2.577   0.949
    2MOL1     H  972   2.794   2.602   0.851
    2MOL1    Cl  973   3.194   1.902   1.899
    2MOL1     C  974   3.052   1.872   2.000
    2MOL1    Cl  975   3.101   1.817   2.161
    2MOL1    Cl  976   2.951   2.017   2.012
    2MOL1     H  977   2.992   1.793   1.953
    2MOL1    Cl  978   4.610   4.678   2.878
    2MOL1     C  979   4.638   4.531   2.783
    2MOL1    Cl  980   4.799   4.465   2.819
    2MOL1    Cl  981   4.513   4.410   2.815
    2MOL1     H  982   4.635   4.557   2.677
    2MOL1    Cl  983   3.351   0.569   4.876
    2MOL1     C  984   3.271   0.420   4.928
    2MOL1    Cl  985   3.299   0.391   5.100
    2MOL1    Cl  986   3.097   0.428   4.894
    2MOL1     H  987   3.313   0.337   4.871
    2MOL1    Cl  988   4.135   4.007   4.173
    2MOL1     C  989   3.960   3.995   4.150
    2MOL1    Cl  990   3.903   4.123   4.041
    2MOL1    Cl  991   3.916   3.835   4.088
    2MOL1     H  992   3.912   4.009   4.247
    2MOL1    Cl  993   1.852   1.309   2.687
    2MOL1     C  994   2.005   1.375   2.628
    2MOL1    Cl  995   2.136   1.258   2.650
    2MOL1    Cl  996   1.991   1.421   2.457
    2MOL1     H  997   2.029   1.464   2.686
    2MOL1    Cl  998   2.691   0.499   0.005
    2MOL1     C  999   2.668   0.503   0.180
    2MOL1    Cl 1000   2.526   0.407   0.227
    2MOL1    Cl 1001   2.812   0.444   0.264
    2MOL1     H 1002   2.651   0.607   0.211
    2MOL1    Cl 1003   2.589   2.854   1.964
    2MOL1     C 1004   2.451   2.907   2.061
    2MOL1    Cl 1005   2.382   2.771   2.151
    2MOL1    Cl 1006   2.498   3.038   2.171
    2MOL1     H 1007   2.374   2.946   1.993
    2MOL1    Cl 1008   1.264   4.929   1.518
    2MOL1     C 1009   1.114   4.947   1.609
    2MOL1    Cl 1010   1.091   4.810   1.719
    2MOL1    Cl 1011   1.113   5.100   1.700
    2MOL1     H 1012   1.031   4.949   1.538
    2MOL1    Cl 1013   4.396   2.431   4.365
    2MOL1     C 1014   4.266   2.319   4.411
    2MOL1    Cl 1015   4.114   2.408   4.433
    2MOL1    Cl 1016   4.247   2.192   4.288
    2MOL1     H 1017   4.292   2.272   4.506
    2MOL1    Cl 1018   1.732   5.110   5.088
    2MOL1     C 1019   1.897   5.066   5.134
    2MOL1    Cl 1020   1.982   5.206   5.202
    2MOL1    Cl 1021   1.897   4.931   5.249
    2MOL1     H 1022   1.950   5.035   5.044
    2MOL1    Cl 1023   3.372   3.942   0.705
    2MOL1     C 1024   3.505   3.865   0.616
    2MOL1    Cl 1025   3.447   3.721   0.529
    2MOL1    Cl 1026   3.580   3.979   0.504
    2MOL1     H 1027   3.580   3.833   0.689
    2MOL1    Cl 1028   4.566   0.974   1.229
    2MOL1     C 1029   4.646   0.995   1.072
    2MOL1    Cl 1030   4.785   1.103   1.086
    2MOL1    Cl 1031   4.696   0.838   1.006
    2MOL1     H 1032   4.574   1.039   1.002
    2MOL1    Cl 1033   4.266   1.870   1.828
    2MOL1     C 1034   4.182   1.851   1.983
    2MOL1    Cl 1035   4.299   1.836   2.116
    2MOL1    Cl 1036   4.072   1.986   2.012
    2MOL1     H 1037   4.123   1.759   1.979
    2MOL1    Cl 1038   4.206   1.888   0.175
    2MOL1     C 1039   4.123   1.735   0.145
    2MOL1    Cl 1040   3.999   1.755   0.020
    2MOL1    Cl 1041   4.239   1.609   0.099
    2MOL1     H 1042   4.074   1.704   0.238
    2MOL1    Cl 1043   3.920   3.299   4.664
    2MOL1     C 1044   4.004   3.255   4.814
    2MOL1    Cl 1045   3.899   3.278   4.954
    2MOL1    Cl 1046   4.062   3.088   4.806
    2MOL1     H 1047   4.091   3.321   4.825
    2MOL1    Cl 1048   1.052   0.642   3.754
    2MOL1     C 1049   1.194   0.540   3.783
    2MOL1    Cl 1050   1.333   0.639   3.831
    2MOL1    Cl 1051   1.159   0.418   3.906
    2MOL1     H 1052   1.219   0.489   3.690
    2MOL1    Cl 1053   3.456   0.562   1.343
    2MOL1     C 1054   3.508   0.401   1.396
    2MOL1    Cl 1055   3.621   0.331   1.279
    2MOL1    Cl 1056   3.582   0.409   1.557
    2MOL1     H 1057   3.420   0.336   1.402
    2MOL1    Cl 1058   1.112   0.496   4.330
    2MOL1     C 1059   1.170   0.437   4.174
    2MOL1    Cl 1060   1.316   0.338   4.194
    2MOL1    Cl 1061   1.043   0.343   4.092
    2MOL1     H 1062   1.195   0.523   4.111
    2MOL1    Cl 1063   2.200   1.002   4.287
    2MOL1     C 1064   2.304   1.140   4.252
    2MOL1    Cl 1065   2.398   1.186   4.395
    2MOL1    Cl 1066   2.412   1.104   4.116
    2MOL1     H 1067   2.241   1.225   4.224
    2MOL1    Cl 1068   3.212   0.618   0.385
    2MOL1     C 1069   3.332   0.744   0.355
    2MOL1    Cl 1070   3.279   0.850   0.223
    2MOL1    Cl 1071   3.362   0.838   0.502
    2MOL1     H 1072   3.425   0.696   0.325
    2MOL1    Cl 1073   1.765   2.050   2.800
    2MOL1     C 1074   1.671   2.191   2.853
    2MOL1    Cl 1075   1.576   2.257   2.719
    2MOL1    Cl 1076   1.566   2.147   2.989
    2MOL1     H 1077   1.741   2.268   2.887
    2MOL1    Cl 1078   4.862   4.007   4.644
    2MOL1     C 1079   5.008   4.026   4.742
    2MOL1    Cl 1080   5.149   3.964   4.655
    2MOL1    Cl 1081   5.031   4.197   4.785
    2MOL1     H 1082   4.995   3.969   4.834
    2MOL1    Cl 1083   0.755   0.859   2.795
    2MOL1     C 1084   0.857   0.955   2.687
    2MOL1    Cl 1085   0.961   0.851   2.589
    2MOL1    Cl 1086   0.757   1.058   2.583
    2MOL1     H 1087   0.920   1.020   2.748
    2MOL1    Cl 1088   4.666   1.065   3.512
    2MOL1     C 1089   4.732   0.993   3.659
    2MOL1    Cl 1090   4.644   1.049   3.802
    2MOL1    Cl 1091   4.728   0.816   3.649
    2MOL1     H 1092   4.837   1.024   3.669
    2MOL1    Cl 1093   5.067   4.954   0.611
    2MOL1     C 1094   5.082   4.796   0.690
    2MOL1    Cl 1095   5.060   4.665   0.572
    2MOL1    Cl 1096   5.239   4.781   0.770
    2MOL1     H 1097   5.004   4.788   0.766
    2MOL1    Cl 1098   0.622   3.579   0.274
    2MOL1     C 1099   0.702   3.444   0.355
    2MOL1    Cl 1100   0.617   3.292   0.321
    2MOL1    Cl 1101   0.872   3.433   0.304
    2MOL1     H 1102   0.699   3.462   0.462
    2MOL1    Cl 1103   1.301   2.313   4.615
    2MOL1     C 1104   1.248   2.475   4.566
    2MOL1    Cl 1105   1.092   2.515   4.640
    2MOL1    Cl 1106   1.371   2.596   4.610
    2MOL1     H 1107   1.236   2.476   4.458
    2MOL1    Cl 1108   1.497   4.016   0.081
    2MOL1     C 1109   1.646   4.112   0.082
    2MOL1    Cl 1110   1.609   4.284   0.057
    2MOL1    Cl 1111   1.733   4.089   0.234
    2MOL1     H 1112   1.709   4.078  -0.000
    2MOL1    Cl 1113   0.906   3.197   0.720
    2MOL1     C 1114   0.730   3.208   0.724
    2MOL1    Cl 1115   0.676   3.306   0.862
    2MOL1    Cl 1116   0.668   3.274   0.572
    2MOL1     H 1117   0.689   3.107   0.737
    2MOL1    Cl 1118   4.310   1.794   2.573
    2MOL1     C 1119   4.251   1.634   2.621
    2MOL1    Cl 1120   4.377   1.546   2.711
    2MOL1    Cl 1121   4.104   1.649   2.719
    2MOL1     H 1122   4.227   1.577   2.531
    2MOL1    Cl 1123   2.112   0.765   4.326
    2MOL1     C 1124   2.170   0.614   4.396
    2MOL1    Cl 1125   2.181   0.487   4.272
    2MOL1    Cl 1126   2.328   0.637   4.474
    2MOL1     H 1127   2.099   0.581   4.472
    2MOL1    Cl 1128   0.431   0.014   2.674
    2MOL1     C 1129   0.381   0.177   2.627
    2MOL1    Cl 1130   0.493   0.246   2.509
    2MOL1    Cl 1131   0.216   0.176   2.563
    2MOL1     H 1132   0.383   0.240   2.717
    2MOL1    Cl 1133   1.886   4.684   4.601
    2MOL1     C 1134   1.932   4.617   4.444
    2MOL1    Cl 1135   1.931   4.440   4.448
    2MOL1    Cl 1136   1.823   4.677   4.317
    2MOL1     H 1137   2.033   4.651   4.420
    2MOL1    Cl 1138   4.024   4.560   1.528
    2MOL1     C 1139   4.176   4.647   1.555
    2MOL1    Cl 1140   4.157   4.767   1.683
    2MOL1    Cl 1141   4.306   4.533   1.594
    2MOL1     H 1142   4.202   4.698   1.462
    2MOL1    Cl 1143   0.996   2.662   0.395
    2MOL1     C 1144   1.120   2.619   0.514
    2MOL1    Cl 1145   1.281   2.664   0.455
    2MOL1    Cl 1146   1.086   2.695   0.670
    2MOL1     H 1147   1.118   2.510   0.527
    2MOL1    Cl 1148   1.147   0.931   4.371
    2MOL1     C 1149   1.320   0.960   4.344
    2MOL1    Cl 1150   1.384   0.847   4.223
    2MOL1    Cl 1151   1.348   1.127   4.294
    2MOL1     H 1152   1.373   0.943   4.438
    2MOL1    Cl 1153   1.973   1.398   0.963
    2MOL1     C 1154   1.886   1.537   0.898
    2MOL1    Cl 1155   1.728   1.555   0.976
    2MOL1    Cl 1156   1.982   1.685   0.916
    2MOL1     H 1157   1.869   1.520   0.791
    2MOL1    Cl 1158   1.144   4.629   1.594
    2MOL1     C 1159   1.257   4.590   1.463
    2MOL1    Cl 1160   1.424   4.623   1.512
    2MOL1    Cl 1161   1.239   4.421   1.414
    2MOL1     H 1162   1.233   4.653   1.377
    2MOL1    Cl 1163   5.118   2.916   2.653
    2MOL1     C 1164   5.067   2.747   2.672
    2MOL1    Cl 1165   5.181   2.658   2.772
    2MOL1    Cl 1166   4.904   2.739   2.741
    2MOL1     H 1167   5.064   2.701   2.573
    2MOL1    Cl 1168   0.818   2.609   0.228
    2MOL1     C 1169   0.872   2.441   0.228
    2MOL1    Cl 1170   0.737   2.332   0.190
    2MOL1    Cl 1171   1.005   2.418   0.114
    2MOL1     H 1172   0.908   2.417   0.328
    2MOL1    Cl 1173   3.750   4.631   3.526
    2MOL1     C 1174   3.655   4.769   3.468
    2MOL1    Cl 1175   3.759   4.885   3.383
    2MOL1    Cl 1176   3.524   4.713   3.362
    2MOL1     H 1177   3.610   4.819   3.554
    2MOL1    Cl 1178   2.220   1.204   2.417
    2MOL1     C 1179   2.139   1.047   2.426
    2MOL1    Cl 1180   2.171   0.969   2.582
    2MOL1    Cl 1181   1.965   1.065   2.400
    2MOL1     H 1182   2.179   0.983   2.347
    2MOL1    Cl 1183   0.673   4.487   4.652
    2MOL1     C 1184   0.657   4.593   4.511
    2MOL1    Cl 1185   0.688   4.762   4.556
    2MOL1    Cl 1186   0.766   4.541   4.382
    2MOL1     H 1187   0.554   4.586   4.474
    2MOL1    Cl 1188   2.190   4.753   3.955
    2MOL1     C 1189   2.050   4.858   3.927
    2MOL1    Cl 1190   1.963   4.808   3.781
    2MOL1    Cl 1191   1.942   4.857   4.067
    2MOL1     H 1192   2.086   4.960   3.912
    2MOL1    Cl 1193   0.952   0.337   1.291
    2MOL1     C 1194   1.123   0.292   1.284
    2MOL1    Cl 1195   1.189   0.270   1.447
    2MOL1    Cl 1196   1.145   0.145   1.188
    2MOL1     H 1197   1.178   0.373   1.235
    2MOL1    Cl 1198   2.355   3.240   1.114
    2MOL1     C 1199   2.451   3.110   1.043
    2MOL1    Cl 1200   2.497   3.149   0.876
    2MOL1    Cl 1201   2.596   3.079   1.141
    2MOL1     H 1202   2.391   3.019   1.042
    2MOL1    Cl 1203   1.060   3.718   1.239
    2MOL1     C 1204   0.996   3.635   1.097
    2MOL1    Cl 1205   1.124   3.610   0.977
    2MOL1    Cl 1206   0.922   3.481   1.142
    2MOL1     H 1207   0.919   3.698   1.052
    2MOL1    Cl 1208   3.794   2.493   2.104
    2MOL1     C 1209   3.797   2.318   2.074
    2MOL1    Cl 1210   3.766   2.229   2.223
    2MOL1    Cl 1211   3.679   2.275   1.949
    2MOL1     H 1212   3.897   2.292   2.038
    2MOL1    Cl 1213   2.830   2.634   1.231
    2MOL1     C 1214   2.782   2.470   1.278
    2MOL1    Cl 1215   2.658   2.406   1.169
    2MOL1    Cl 1216   2.923   2.363   1.283
    2MOL1     H 1217   2.739   2.475   1.379
    2MOL1    Cl 1218   2.900   3.449   4.263
    2MOL1     C 1219   2.735   3.502   4.300
    2MOL1    Cl 1220   2.667   3.406   4.432
    2MOL1    Cl 1221   2.732   3.674   4.341
    2MOL1     H 1222   2.673   3.487   4.211
    2MOL1    Cl 1223   1.039   2.832   4.256
    2MOL1     C 1224   1.207   2.846   4.202
    2MOL1    Cl 1225   1.311   2.736   4.294
    2MOL1    Cl 1226   1.220   2.813   4.029
    2MOL1     H 1227   1.240   2.948   4.220
    2MOL1    Cl 1228   1.549   2.992   3.309
    2MOL1     C 1229   1.510   2.904   3.458
    2MOL1    Cl 1230   1.599   2.971   3.596
    2MOL1    Cl 1231   1.335   2.908   3.489
    2MOL1     H 1232   1.540   2.800   3.445
    2MOL1    Cl 1233   3.644   4.828   3.933
    2MOL1     C 1234   3.803   4.759   3.894
    2MOL1    Cl 1235   3.894   4.868   3.788
    2MOL1    Cl 1236   3.894   4.726   4.042
    2MOL1     H 1237   3.787   4.665   3.841
    2MOL1    Cl 1238   0.303   3.144   0.450
    2MOL1     C 1239   0.159   3.231   0.505
    2MOL1    Cl 1240   0.024   3.119   0.528
    2MOL1    Cl 1241   0.193   3.318   0.655
    2MOL1     H 1242   0.131   3.303   0.428
    2MOL1    Cl 1243   1.556   2.423   5.350
    2MOL1     C 1244   1.508   2.351   5.195
    2MOL1    Cl 1245   1.352   2.417   5.142
    2MOL1    Cl 1246   1.632   2.378   5.072
    2MOL1     H 1247   1.496   2.243   5.210
    2MOL1    Cl 1248   0.299   1.779   3.057
    2MOL1     C 1249   0.277   1.955   3.052
    2MOL1    Cl 1250   0.105   1.997   3.065
    2MOL1    Cl 1251   0.370   2.032   3.182
    2MOL1     H 1252   0.314   1.992   2.957
    2MOL1    Cl 1253   3.623   0.113   4.835
    2MOL1     C 1254   3.634   0.252   4.946
    2MOL1    Cl 1255   3.542   0.389   4.883
    2MOL1    Cl 1256   3.578   0.207   5.107
    2MOL1     H 1257   3.739   0.281   4.953
    2MOL1    Cl 1258   1.847   2.666   2.166
    2MOL1     C 1259   1.753   2.813   2.198
    2MOL1    Cl 1260   1.837   2.917   2.313
    2MOL1    Cl 1261   1.721   2.899   2.046
    2MOL1     H 1262   1.657   2.783   2.241
    2MOL1    Cl 1263   4.186   0.730   4.066
    2MOL1     C 1264   4.180   0.653   4.225
    2MOL1    Cl 1265   4.013   0.611   4.268
    2MOL1    Cl 1266   4.283   0.509   4.229
    2MOL1     H 1267   4.218   0.724   4.299
    2MOL1    Cl 1268   0.390   3.872   1.740
    2MOL1     C 1269   0.297   3.868   1.590
    2MOL1    Cl 1270   0.197   3.721   1.583
    2MOL1    Cl 1271   0.196   4.012   1.575
    2MOL1     H 1272   0.366   3.865   1.506
    2MOL1    Cl 1273   0.343   1.488   0.897
    2MOL1     C 1274   0.248   1.637   0.915
    2MOL1    Cl 1275   0.354   1.775   0.947
    2MOL1    Cl 1276   0.150   1.666   0.770
    2MOL1     H 1277   0.180   1.625   1.000
    2MOL1    Cl 1278   3.638   2.702   2.942
    2MOL1     C 1279   3.681   2.574   2.828
    2MOL1    Cl 1280   3.747   2.643   2.678
    2MOL1    Cl 1281   3.797   2.462   2.901
    2MOL1     H 1282   3.591   2.518   2.803
    2MOL1    Cl 1283   0.404   4.902   2.799
    2MOL1     C 1284   0.242   4.831   2.796
    2MOL1    Cl 1285   0.181   4.823   2.630
    2MOL1    Cl 1286   0.242   4.671   2.870
    2MOL1     H 1287   0.175   4.896   2.854
    2MOL1    Cl 1288   0.553   2.502   2.236
    2MOL1     C 1289   0.550   2.530   2.411
    2MOL1    Cl 1290   0.505   2.697   2.447
    2MOL1    Cl 1291   0.440   2.417   2.491
    2MOL1     H 1292   0.651   2.512   2.450
    2MOL1    Cl 1293   0.532   3.865   2.805
    2MOL1     C 1294   0.594   4.022   2.858
    2MOL1    Cl 1295   0.521   4.153   2.764
    2MOL1    Cl 1296   0.564   4.046   3.031
    2MOL1     H 1297   0.702   4.024   2.841
    2MOL1    Cl 1298   2.308   0.818   3.909
    2MOL1     C 1299   2.288   0.734   4.063
    2MOL1    Cl 1300   2.340   0.836   4.198
    2MOL1    Cl 1301   2.119   0.683   4.085
    2MOL1     H 1302   2.351   0.644   4.062
    2MOL1    Cl 1303   1.932   1.907   2.131
    2MOL1     C 1304   1.779   1.931   2.217
    2MOL1    Cl 1305   1.655   1.822   2.153
    2MOL1    Cl 1306   1.800   1.906   2.391
    2MOL1     H 1307   1.746   2.034   2.201
    2MOL1    Cl 1308   0.977   3.078   2.354
    2MOL1     C 1309   0.943   3.248   2.318
    2MOL1    Cl 1310   1.056   3.310   2.197
    2MOL1    Cl 1311   0.775   3.268   2.264
    2MOL1     H 1312   0.956   3.305   2.410
    2MOL1    Cl 1313   4.769   3.870   3.040
    2MOL1     C 1314   4.787   3.709   3.111
    2MOL1    Cl 1315   4.856   3.720   3.273
    2MOL1    Cl 1316   4.631   3.625   3.115
    2MOL1     H 1317   4.855   3.651   3.048
    2MOL1    Cl 1318   4.067   1.121   4.447
    2MOL1     C 1319   4.203   1.039   4.526
    2MOL1    Cl 1320   4.357   1.115   4.479
    2MOL1    Cl 1321   4.184   1.042   4.702
    2MOL1     H 1322   4.205   0.935   4.493
    2MOL1    Cl 1323   0.000   3.216   4.564
    2MOL1     C 1324   0.095   3.089   4.641
    2MOL1    Cl 1325   0.000   2.940   4.656
    2MOL1    Cl 1326   0.245   3.059   4.551
    2MOL1     H 1327   0.123   3.122   4.742
    2MOL1    Cl 1328   1.132   2.002   0.402
    2MOL1     C 1329   1.077   1.837   0.366
    2MOL1    Cl 1330   0.941   1.840   0.252
    2MOL1    Cl 1331   1.210   1.739   0.302
    2MOL1     H 1332   1.042   1.792   0.459
    2MOL1    Cl 1333   2.091   2.066   1.805
    2MOL1     C 1334   1.936   2.149   1.790
    2MOL1    Cl 1335   1.920   2.223   1.630
    2MOL1    Cl 1336   1.802   2.036   1.820
    2MOL1     H 1337   1.932   2.228   1.865
    2MOL1    Cl 1338   2.333   4.625   3.821
    2MOL1     C 1339   2.454   4.536   3.914
    2MOL1    Cl 1340   2.608   4.530   3.826
    2MOL1    Cl 1341   2.476   4.608   4.074
    2MOL1     H 1342   2.418   4.433   3.927
    2MOL1    Cl 1343   3.139   0.504   1.850
    2MOL1     C 1344   3.273   0.593   1.775
    2MOL1    Cl 1345   3.407   0.483   1.738
    2MOL1    Cl 1346   3.218   0.675   1.627
    2MOL1     H 1347   3.308   0.668   1.845
    2MOL1    Cl 1348   2.416   4.870   4.719
    2MOL1     C 1349   2.453   4.875   4.892
    2MOL1    Cl 1350   2.550   4.734   4.939
    2MOL1    Cl 1351   2.538   5.025   4.933
    2MOL1     H 1352   2.359   4.872   4.948
    2MOL1    Cl 1353   2.564   1.817   3.302
    2MOL1     C 1354   2.625   1.942   3.412
    2MOL1    Cl 1355   2.802   1.944   3.412
    2MOL1    Cl 1356   2.561   2.101   3.367
    2MOL1     H 1357   2.591   1.918   3.513
    2MOL1    Cl 1358   0.692   1.732   4.996
    2MOL1     C 1359   0.846   1.808   5.041
    2MOL1    Cl 1360   0.818   1.964   5.118
    2MOL1    Cl 1361   0.938   1.701   5.148
    2MOL1     H 1362   0.904   1.824   4.950
    2MOL1    Cl 1363   3.133   1.288   3.007
    2MOL1     C 1364   3.159   1.162   3.129
    2MOL1    Cl 1365   3.124   1.224   3.291
    2MOL1    Cl 1366   3.058   1.020   3.094
    2MOL1     H 1367   3.264   1.131   3.125
    2MOL1    Cl 1368   3.571   0.789   1.640
    2MOL1     C 1369   3.747   0.779   1.652
    2MOL1    Cl 1370   3.794   0.688   1.797
    2MOL1    Cl 1371   3.815   0.704   1.507
    2MOL1     H 1372   3.787   0.880   1.661
    2MOL1    Cl 1373   0.229   0.356   0.670
    2MOL1     C 1374   0.384   0.438   0.646
    2MOL1    Cl 1375   0.487   0.344   0.537
    2MOL1    Cl 1376   0.359   0.601   0.582
    2MOL1     H 1377   0.434   0.446   0.743
    2MOL1    Cl 1378   0.919   3.618   3.733
    2MOL1     C 1379   0.883   3.791   3.752
    2MOL1    Cl 1380   0.803   3.821   3.907
    2MOL1    Cl 1381   1.031   3.887   3.738
    2MOL1     H 1382   0.815   3.821   3.672
    2MOL1    Cl 1383   5.022   4.142   4.379
    2MOL1     C 1384   5.177   4.218   4.421
    2MOL1    Cl 1385   5.303   4.170   4.306
    2MOL1    Cl 1386   5.160   4.394   4.426
    2MOL1     H 1387   5.206   4.183   4.520
    2MOL1    Cl 1388   3.611   1.841   0.843
    2MOL1     C 1389   3.752   1.795   0.939
    2MOL1    Cl 1390   3.902   1.825   0.849
    2MOL1    Cl 1391   3.754   1.883   1.093
    2MOL1     H 1392   3.746   1.688   0.961
    2MOL1    Cl 1393   3.396   4.363   3.749
    2MOL1     C 1394   3.444   4.525   3.802
    2MOL1    Cl 1395   3.561   4.595   3.689
    2MOL1    Cl 1396   3.302   4.630   3.818
    2MOL1     H 1397   3.492   4.517   3.900
    2MOL1    Cl 1398   1.756   4.631   3.103
    2MOL1     C 1399   1.693   4.682   3.261
    2MOL1    Cl 1400   1.800   4.803   3.334
    2MOL1    Cl 1401   1.529   4.745   3.245
    2MOL1     H 1402   1.691   4.594   3.326
    2MOL1    Cl 1403   2.556   0.529   2.806
    2MOL1     C 1404   2.556   0.542   2.629
    2MOL1    Cl 1405   2.644   0.687   2.577
    2MOL1    Cl 1406   2.626   0.397   2.556
    2MOL1     H 1407   2.452   0.551   2.595
    2MOL1    Cl 1408   3.315   1.994   4.181
    2MOL1     C 1409   3.333   2.168   4.205
    2MOL1    Cl 1410   3.199   2.232   4.302
    2MOL1    Cl 1411   3.488   2.205   4.282
    2MOL1     H 1412   3.331   2.217   4.107
    2MOL1    Cl 1413   3.106   2.353   0.447
    2MOL1     C 1414   2.960   2.385   0.542
    2MOL1    Cl 1415   2.910   2.239   0.630
    2MOL1    Cl 1416   2.986   2.519   0.654
    2MOL1     H 1417   2.880   2.413   0.473
    2MOL1    Cl 1418   1.809   0.549   5.097
    2MOL1     C 1419   1.684   0.596   4.980
    2MOL1    Cl 1420   1.532   0.512   5.013
    2MOL1    Cl 1421   1.660   0.772   4.982
    2MOL1     H 1422   1.718   0.568   4.880
    2MOL1    Cl 1423   0.831   1.706   1.565
    2MOL1     C 1424   0.761   1.616   1.700
    2MOL1    Cl 1425   0.759   1.715   1.847
    2MOL1    Cl 1426   0.597   1.561   1.660
    2MOL1     H 1427   0.823   1.528   1.718
    2MOL1    Cl 1428   5.027   3.195   0.147
    2MOL1     C 1429   4.974   3.203   0.315
    2MOL1    Cl 1430   4.849   3.081   0.348
    2MOL1    Cl 1431   5.112   3.181   0.425
    2MOL1     H 1432   4.932   3.302   0.334
    2MOL1    Cl 1433   0.535   1.777   3.924
    2MOL1     C 1434   0.654   1.705   4.034
    2MOL1    Cl 1435   0.635   1.528   4.039
    2MOL1    Cl 1436   0.819   1.748   3.984
    2MOL1     H 1437   0.638   1.744   4.134
    2MOL1    Cl 1438   1.038   0.946   0.517
    2MOL1     C 1439   0.970   0.791   0.467
    2MOL1    Cl 1440   0.943   0.788   0.292
    2MOL1    Cl 1441   1.077   0.658   0.516
    2MOL1     H 1442   0.874   0.777   0.517
    2MOL1    Cl 1443   3.438   4.954   4.789
    2MOL1     C 1444   3.549   4.927   4.924
    2MOL1    Cl 1445   3.481   4.989   5.075
    2MOL1    Cl 1446   3.587   4.754   4.940
    2MOL1     H 1447   3.642   4.981   4.903
    2MOL1    Cl 1448   3.305   3.863   3.539
    2MOL1     C 1449   3.153   3.827   3.623
    2MOL1    Cl 1450   3.173   3.686   3.728
    2MOL1    Cl 1451   3.099   3.967   3.717
    2MOL1     H 1452   3.077   3.803   3.548
    2MOL1    Cl 1453   2.673   4.267   3.264
    2MOL1     C 1454   2.847   4.242   3.244
    2MOL1    Cl 1455   2.879   4.114   3.126
    2MOL1    Cl 1456   2.926   4.393   3.194
    2MOL1     H 1457   2.889   4.212   3.340
    2MOL1    Cl 1458   3.343   1.299   2.695
    2MOL1     C 1459   3.503   1.374   2.696
    2MOL1    Cl 1460   3.497   1.533   2.773
    2MOL1    Cl 1461   3.620   1.269   2.779
    2MOL1     H 1462   3.536   1.387   2.593
    2MOL1    Cl 1463   4.662   1.968   5.249
    2MOL1     C 1464   4.563   2.070   5.144
    2MOL1    Cl 1465   4.391   2.052   5.183
    2MOL1    Cl 1466   4.612   2.240   5.158
    2MOL1     H 1467   4.578   2.039   5.041
    2MOL1    Cl 1468   3.029   2.260   0.855
    2MOL1     C 1469   3.177   2.218   0.768
    2MOL1    Cl 1470   3.138   2.148   0.609
    2MOL1    Cl 1471   3.281   2.360   0.749
    2MOL1     H 1472   3.231   2.143   0.826
    2MOL1    Cl 1473   4.459   4.812   1.537
    2MOL1     C 1474   4.632   4.813   1.499
    2MOL1    Cl 1475   4.724   4.723   1.621
    2MOL1    Cl 1476   4.661   4.747   1.337
    2MOL1     H 1477   4.667   4.917   1.500
    2MOL1    Cl 1478   4.727   0.577   3.312
    2MOL1     C 1479   4.662   0.734   3.265
    2MOL1    Cl 1480   4.780   0.863   3.297
    2MOL1    Cl 1481   4.616   0.734   3.093
    2MOL1     H 1482   4.573   0.754   3.324
    2MOL1    Cl 1483   3.735   2.217   0.420
    2MOL1     C 1484   3.558   2.211   0.425
    2MOL1    Cl 1485   3.503   2.084   0.536
    2MOL1    Cl 1486   3.492   2.368   0.474
    2MOL1     H 1487   3.521   2.188   0.325
    2MOL1    Cl 1488   1.881   0.284   2.766
    2MOL1     C 1489   1.759   0.163   2.720
    2MOL1    Cl 1490   1.812   0.001   2.769
    2MOL1    Cl 1491   1.602   0.202   2.792
    2MOL1     H 1492   1.749   0.164   2.611
    2MOL1    Cl 1493   1.117   4.565   5.111
    2MOL1     C 1494   1.228   4.703   5.119
    2MOL1    Cl 1495   1.293   4.721   5.283
    2MOL1    Cl 1496   1.359   4.686   5.001
    2MOL1     H 1497   1.171   4.793   5.095
    2MOL1    Cl 1498   5.011   0.168   4.461
    2MOL1     C 1499   5.121   0.299   4.508
    2MOL1    Cl 1500   5.071   0.370   4.662
    2MOL1    Cl 1501   5.287   0.239   4.517
    2MOL1     H 1502   5.116   0.377   4.431
    2MOL1    Cl 1503   4.146   4.902   0.186
    2MOL1     C 1504   4.314   4.873   0.234
    2MOL1    Cl 1505   4.413   5.017   0.206
    2MOL1    Cl 1506   4.322   4.824   0.404
    2MOL1     H 1507   4.353   4.792   0.172
    2MOL1    Cl 1508   0.508   2.647   3.869
    2MOL1     C 1509   0.660   2.604   3.948
    2MOL1    Cl 1510   0.771   2.743   3.949
    2MOL1    Cl 1511   0.631   2.547   4.113
    2MOL1     H 1512   0.707   2.523   3.892
    2MOL1    Cl 1513   4.166   1.478   1.732
    2MOL1     C 1514   4.042   1.367   1.670
    2MOL1    Cl 1515   4.072   1.329   1.499
    2MOL1    Cl 1516   4.037   1.219   1.767
    2MOL1     H 1517   3.945   1.417   1.678
    2MOL1    Cl 1518   1.569   5.022   0.594
    2MOL1     C 1519   1.477   5.002   0.444
    2MOL1    Cl 1520   1.428   4.833   0.422
    2MOL1    Cl 1521   1.335   5.108   0.445
    2MOL1     H 1522   1.540   5.031   0.360
    2MOL1    Cl 1523   3.058   1.004   4.058
    2MOL1     C 1524   3.225   1.063   4.066
    2MOL1    Cl 1525   3.329   0.946   4.149
    2MOL1    Cl 1526   3.287   1.097   3.903
    2MOL1     H 1527   3.226   1.156   4.123
    2MOL1    Cl 1528   4.570   3.661   3.785
    2MOL1     C 1529   4.641   3.511   3.724
    2MOL1    Cl 1530   4.521   3.381   3.725
    2MOL1    Cl 1531   4.705   3.536   3.560
    2MOL1     H 1532   4.723   3.483   3.789
    2MOL1    Cl 1533   1.265   0.767   0.481
    2MOL1     C 1534   1.358   0.881   0.580
    2MOL1    Cl 1535   1.258   1.022   0.622
    2MOL1    Cl 1536   1.418   0.802   0.726
    2MOL1     H 1537   1.443   0.916   0.522
    2MOL1    Cl 1538   1.247   2.001   0.979
    2MOL1     C 1539   1.194   2.039   1.143
    2MOL1    Cl 1540   1.063   1.932   1.193
    2MOL1    Cl 1541   1.331   2.028   1.256
    2MOL1     H 1542   1.158   2.142   1.145
    2MOL1    Cl 1543   3.551   2.920   2.370
    2MOL1     C 1544   3.504   3.091   2.377
    2MOL1    Cl 1545   3.630   3.193   2.306
    2MOL1    Cl 1546   3.349   3.116   2.294
    2MOL1     H 1547   3.492   3.119   2.482
    2MOL1    Cl 1548   3.136   3.696   2.800
    2MOL1     C 1549   3.250   3.569   2.848
    2MOL1    Cl 1550   3.175   3.460   2.967
    2MOL1    Cl 1551   3.306   3.478   2.707
    2MOL1     H 1552   3.337   3.616   2.895
    2MOL1    Cl 1553   1.228   0.985   0.247
    2MOL1     C 1554   1.286   1.150   0.274
    2MOL1    Cl 1555   1.178   1.238   0.384
    2MOL1    Cl 1556   1.451   1.148   0.338
    2MOL1     H 1557   1.287   1.202   0.178
    2MOL1    Cl 1558   2.947   0.373   0.837
    2MOL1     C 1559   3.062   0.243   0.869
    2MOL1    Cl 1560   3.134   0.261   1.030
    2MOL1    Cl 1561   2.984   0.084   0.853
    2MOL1     H 1562   3.142   0.249   0.795
    2MOL1    Cl 1563   1.943   3.289   0.923
    2MOL1     C 1564   1.918   3.397   1.061
    2MOL1    Cl 1565   2.039   3.364   1.187
    2MOL1    Cl 1566   1.926   3.566   1.010
    2MOL1     H 1567   1.819   3.378   1.102
    2MOL1    Cl 1568   2.968   3.965   1.994
    2MOL1     C 1569   2.970   3.788   1.979
    2MOL1    Cl 1570   3.081   3.717   2.097
    2MOL1    Cl 1571   2.807   3.722   1.998
    2MOL1     H 1572   3.005   3.763   1.878
    2MOL1    Cl 1573   4.542   0.401   4.216
    2MOL1     C 1574   4.659   0.480   4.110
    2MOL1    Cl 1575   4.711   0.635   4.178
    2MOL1    Cl 1576   4.799   0.375   4.081
    2MOL1     H 1577   4.611   0.499   4.014
    2MOL1    Cl 1578   4.740   3.118   4.873
    2MOL1     C 1579   4.603   3.024   4.812
    2MOL1    Cl 1580   4.528   3.105   4.674
    2MOL1    Cl 1581   4.654   2.860   4.769
    2MOL1     H 1582   4.529   3.016   4.892
    2MOL1    Cl 1583   0.938   4.717   2.394
    2MOL1     C 1584   1.114   4.708   2.375
    2MOL1    Cl 1585   1.171   4.838   2.268
    2MOL1    Cl 1586   1.194   4.717   2.532
    2MOL1     H 1587   1.139   4.613   2.329
    2MOL1    Cl 1588   5.096   0.082   0.431
    2MOL1     C 1589   5.124   0.242   0.360
    2MOL1    Cl 1590   5.277   0.310   0.417
    2MOL1    Cl 1591   5.123   0.232   0.183
    2MOL1     H 1592   5.043   0.308   0.391
    2MOL1    Cl 1593   4.673   0.327   3.664
    2MOL1     C 1594   4.618   0.495   3.658
    2MOL1    Cl 1595   4.510   0.520   3.520
    2MOL1    Cl 1596   4.537   0.540   3.809
    2MOL1     H 1597   4.705   0.560   3.646
    2MOL1    Cl 1598   3.664   5.276   4.485
    2MOL1     C 1599   3.605   5.110   4.465
    2MOL1    Cl 1600   3.508   5.095   4.318
    2MOL1    Cl 1601   3.740   4.996   4.462
    2MOL1     H 1602   3.542   5.086   4.551
    2MOL1    Cl 1603   1.283   2.006   1.479
    2MOL1     C 1604   1.418   1.898   1.518
    2MOL1    Cl 1605   1.508   1.958   1.658
    2MOL1    Cl 1606   1.360   1.733   1.547
    2MOL1     H 1607   1.485   1.895   1.432
    2MOL1    Cl 1608   5.340   0.197   1.645
    2MOL1     C 1609   5.247   0.257   1.507
    2MOL1    Cl 1610   5.340   0.239   1.357
    2MOL1    Cl 1611   5.092   0.173   1.495
    2MOL1     H 1612   5.228   0.363   1.523
    2MOL1    Cl 1613   3.378   1.750   2.637
    2MOL1     C 1614   3.301   1.797   2.789
    2MOL1    Cl 1615   3.131   1.747   2.791
    2MOL1    Cl 1616   3.388   1.727   2.927
    2MOL1     H 1617   3.306   1.906   2.798
    2MOL1    Cl 1618   3.745   0.322   0.578
    2MOL1     C 1619   3.615   0.424   0.515
    2MOL1    Cl 1620   3.460   0.340   0.524
    2MOL1    Cl 1621   3.608   0.577   0.604
    2MOL1     H 1622   3.637   0.446   0.410
    2MOL1    Cl 1623   0.529   1.479   1.884
    2MOL1     C 1624   0.666   1.387   1.948
    2MOL1    Cl 1625   0.772   1.491   2.045
    2MOL1    Cl 1626   0.609   1.250   2.045
    2MOL1     H 1627   0.724   1.348   1.864
    2MOL1    Cl 1628   2.897   3.659   1.229
    2MOL1     C 1629   2.871   3.789   1.346
    2MOL1    Cl 1630   2.780   3.922   1.274
    2MOL1    Cl 1631   2.788   3.727   1.490
    2MOL1     H 1632   2.969   3.827   1.377
    2MOL1    Cl 1633   2.482   2.616   4.597
    2MOL1     C 1634   2.448   2.601   4.424
    2MOL1    Cl 1635   2.311   2.492   4.396
    2MOL1    Cl 1636   2.416   2.760   4.353
    2MOL1     H 1637   2.536   2.559   4.375
    2MOL1    Cl 1638   0.691   2.185   0.783
    2MOL1     C 1639   0.575   2.315   0.810
    2MOL1    Cl 1640   0.453   2.267   0.929
    2MOL1    Cl 1641   0.658   2.463   0.863
    2MOL1     H 1642   0.524   2.337   0.716
    2MOL1    Cl 1643   2.338   0.599   1.730
    2MOL1     C 1644   2.500   0.537   1.694
    2MOL1    Cl 1645   2.502   0.456   1.536
    2MOL1    Cl 1646   2.619   0.668   1.697
    2MOL1     H 1647   2.527   0.464   1.771
    2MOL1    Cl 1648   2.625   3.556   0.168
    2MOL1     C 1649   2.459   3.598   0.121
    2MOL1    Cl 1650   2.351   3.589   0.261
    2MOL1    Cl 1651   2.454   3.759   0.047
    2MOL1     H 1652   2.425   3.525   0.047
    2MOL1    Cl 1653   0.284   3.531   5.041
    2MOL1     C 1654   0.116   3.482   5.014
    2MOL1    Cl 1655   0.038   3.587   4.894
    2MOL1    Cl 1656   0.108   3.313   4.964
    2MOL1     H 1657   0.062   3.493   5.109
    2MOL1    Cl 1658   3.853   1.741   1.684
    2MOL1     C 1659   3.792   1.904   1.718
    2MOL1    Cl 1660   3.616   1.902   1.737
    2MOL1    Cl 1661   3.870   1.971   1.862
    2MOL1     H 1662   3.817   1.968   1.633
    2MOL1    Cl 1663   2.186   2.968   2.835
    2MOL1     C 1664   2.233   2.820   2.751
    2MOL1    Cl 1665   2.162   2.815   2.589
    2MOL1    Cl 1666   2.410   2.808   2.741
    2MOL1     H 1667   2.196   2.735   2.808
    2MOL1    Cl 1668   4.384   2.650   0.655
    2MOL1     C 1669   4.443   2.799   0.730
    2MOL1    Cl 1670   4.440   2.786   0.907
    2MOL1    Cl 1671   4.606   2.837   0.673
    2MOL1     H 1672   4.376   2.881   0.701
    2MOL1    Cl 1673   5.193   4.456   1.825
    2MOL1     C 1674   5.118   4.309   1.761
    2MOL1    Cl 1675   5.221   4.168   1.791
    2MOL1    Cl 1676   4.957   4.285   1.832
    2MOL1     H 1677   5.106   4.321   1.653
    2MOL1    Cl 1678   3.395   1.799   3.830
    2MOL1     C 1679   3.255   1.691   3.840
    2MOL1    Cl 1680   3.307   1.526   3.882
    2MOL1    Cl 1681   3.138   1.751   3.959
    2MOL1     H 1682   3.207   1.688   3.742
    2MOL1    Cl 1683   0.842   3.833   2.272
    2MOL1     C 1684   0.920   3.795   2.427
    2MOL1    Cl 1685   0.811   3.831   2.562
    2MOL1    Cl 1686   0.970   3.625   2.431
    2MOL1     H 1687   1.009   3.857   2.436
    2MOL1    Cl 1688   2.873   4.099   2.216
    2MOL1     C 1689   3.026   4.131   2.299
    2MOL1    Cl 1690   3.019   4.287   2.383
    2MOL1    Cl 1691   3.064   4.001   2.413
    2MOL1     H 1692   3.105   4.136   2.224
    2MOL1    Cl 1693   1.219   3.162   2.447
    2MOL1     C 1694   1.304   3.017   2.389
    2MOL1    Cl 1695   1.240   2.967   2.232
    2MOL1    Cl 1696   1.478   3.046   2.380
    2MOL1     H 1697   1.286   2.936   2.461
    2MOL1    Cl 1698   4.528   0.025   5.234
    2MOL1     C 1699   4.599   0.175   5.173
    2MOL1    Cl 1700   4.718   0.238   5.288
    2MOL1    Cl 1701   4.673   0.149   5.014
    2MOL1     H 1702   4.519   0.249   5.162
    2MOL1    Cl 1703   4.008   4.899   2.432
    2MOL1     C 1704   4.169   4.971   2.415
    2MOL1    Cl 1705   4.226   5.036   2.569
    2MOL1    Cl 1706   4.284   4.851   2.352
    2MOL1     H 1707   4.162   5.053   2.343
    2MOL1    Cl 1708   1.292   5.158   3.008
    2MOL1     C 1709   1.429   5.080   3.089
    2MOL1    Cl 1710   1.494   5.185   3.216
    2MOL1    Cl 1711   1.381   4.923   3.155
    2MOL1     H 1712   1.507   5.064   3.015
    2MOL1    Cl 1713   3.586   5.105   3.733
    2MOL1     C 1714   3.417   5.072   3.773
    2MOL1    Cl 1715   3.384   4.898   3.761
    2MOL1    Cl 1716   3.379   5.132   3.935
    2MOL1     H 1717   3.354   5.124   3.701
    2MOL1    Cl 1718   3.660   2.362   4.821
    2MOL1     C 1719   3.639   2.193   4.866
    2MOL1    Cl 1720   3.753   2.148   4.994
    2MOL1    Cl 1721   3.472   2.162   4.918
    2MOL1     H 1722   3.659   2.131   4.779
    2MOL1    Cl 1723   4.686   4.152   2.566
    2MOL1     C 1724   4.845   4.220   2.532
    2MOL1    Cl 1725   4.925   4.129   2.403
    2MOL1    Cl 1726   4.832   4.391   2.488
    2MOL1     H 1727   4.906   4.212   2.622
    2MOL1    Cl 1728   4.911   3.192   2.270
    2MOL1     C 1729   5.006   3.100   2.387
    2MOL1    Cl 1730   5.179   3.133   2.367
    2MOL1    Cl 1731   4.954   3.137   2.552
    2MOL1     H 1732   4.989   2.993   2.369
    2MOL1    Cl 1733   1.465   2.252   0.826
    2MOL1     C 1734   1.409   2.352   0.961
    2MOL1    Cl 1735   1.270   2.450   0.912
    2MOL1    Cl 1736   1.367   2.250   1.100
    2MOL1     H 1737   1.490   2.419   0.991
    2MOL1    Cl 1738   1.179   2.122   4.019
    2MOL1     C 1739   1.131   1.959   4.069
    2MOL1    Cl 1740   1.237   1.899   4.198
    2MOL1    Cl 1741   0.962   1.958   4.123
    2MOL1     H 1742   1.140   1.892   3.983
    2MOL1    Cl 1743   4.188   3.718   1.169
    2MOL1     C 1744   4.123   3.576   1.252
    2MOL1    Cl 1745   4.192   3.561   1.414
    2MOL1    Cl 1746   3.946   3.584   1.260
    2MOL1     H 1747   4.151   3.487   1.194
    2MOL1    Cl 1748   0.233   5.189   2.310
    2MOL1     C 1749   0.247   5.176   2.134
    2MOL1    Cl 1750   0.392   5.084   2.090
    2MOL1    Cl 1751   0.102   5.100   2.065
    2MOL1     H 1752   0.256   5.277   2.092
    2MOL1    Cl 1753   1.337   2.368   1.741
    2MOL1     C 1754   1.324   2.544   1.751
    2MOL1    Cl 1755   1.248   2.592   1.904
    2MOL1    Cl 1756   1.484   2.619   1.735
    2MOL1     H 1757   1.262   2.579   1.669
    2MOL1    Cl 1758   0.909   2.171   4.152
    2MOL1     C 1759   0.836   2.326   4.108
    2MOL1    Cl 1760   0.957   2.434   4.036
    2MOL1    Cl 1761   0.700   2.301   3.996
    2MOL1     H 1762   0.798   2.373   4.199
    2MOL1    Cl 1763   1.247   0.923   5.271
    2MOL1     C 1764   1.088   0.911   5.194
    2MOL1    Cl 1765   1.084   1.003   5.042
    2MOL1    Cl 1766   1.046   0.741   5.164
    2MOL1     H 1767   1.013   0.953   5.261
    2MOL1    Cl 1768   3.472   2.951   0.915
    2MOL1     C 1769   3.639   2.966   0.972
    2MOL1    Cl 1770   3.650   3.087   1.102
    2MOL1    Cl 1771   3.701   2.809   1.028
    2MOL1     H 1772   3.701   3.000   0.889
    2MOL1    Cl 1773   3.750   4.846   2.979
    2MOL1     C 1774   3.676   5.003   3.010
    2MOL1    Cl 1775   3.506   4.985   3.055
    2MOL1    Cl 1776   3.765   5.091   3.136
    2MOL1     H 1777   3.681   5.062   2.917
    2MOL1    Cl 1778   4.451   3.209   5.195
    2MOL1     C 1779   4.627   3.202   5.177
    2MOL1    Cl 1780   4.707   3.284   5.313
    2MOL1    Cl 1781   4.682   3.034   5.164
    2MOL1     H 1782   4.654   3.254   5.085
    2MOL1    Cl 1783   4.612   2.767   2.943
    2MOL1     C 1784   4.453   2.833   2.985
    2MOL1    Cl 1785   4.443   3.005   2.944
    2MOL1    Cl 1786   4.325   2.742   2.902
    2MOL1     H 1787   4.438   2.822   3.092
    2MOL1    Cl 1788   2.283   4.623   3.604
    2MOL1     C 1789   2.376   4.478   3.566
    2MOL1    Cl 1790   2.359   4.436   3.395
    2MOL1    Cl 1791   2.546   4.500   3.609
    2MOL1     H 1792   2.336   4.395   3.626
    2MOL1    Cl 1793   3.574   2.259   0.799
    2MOL1     C 1794   3.578   2.285   0.974
    2MOL1    Cl 1795   3.459   2.407   1.022
    2MOL1    Cl 1796   3.549   2.133   1.060
    2MOL1     H 1797   3.678   2.321   1.001
    2MOL1    Cl 1798   2.376   2.187   2.689
    2MOL1     C 1799   2.273   2.102   2.573
    2MOL1    Cl 1800   2.286   2.176   2.413
    2MOL1    Cl 1801   2.316   1.930   2.566
    2MOL1     H 1802   2.170   2.110   2.607
    2MOL1    Cl 1803   2.969   2.909   3.333
    2MOL1     C 1804   2.920   2.916   3.503
    2MOL1    Cl 1805   3.059   2.892   3.610
    2MOL1    Cl 1806   2.839   3.069   3.539
    2MOL1     H 1807   2.849   2.834   3.521
    2MOL1    Cl 1808   5.154   2.006   1.698
    2MOL1     C 1809   5.015   1.898   1.707
    2MOL1    Cl 1810   4.869   1.987   1.755
    2MOL1    Cl 1811   4.989   1.817   1.551
    2MOL1     H 1812   5.035   1.822   1.783
    2MOL1    Cl 1813   1.517   1.372   3.483
    2MOL1     C 1814   1.654   1.368   3.595
    2MOL1    Cl 1815   1.725   1.529   3.613
    2MOL1    Cl 1816   1.604   1.304   3.753
    2MOL1     H 1817   1.730   1.301   3.554
    2MOL1    Cl 1818   3.489   4.026   2.248
    2MOL1     C 1819   3.440   4.195   2.238
    2MOL1    Cl 1820   3.352   4.226   2.088
    2MOL1    Cl 1821   3.341   4.240   2.378
    2MOL1     H 1822   3.530   4.257   2.239
    2MOL1    Cl 1823   1.894   3.535   0.509
    2MOL1     C 1824   2.061   3.590   0.491
    2MOL1    Cl 1825   2.172   3.453   0.474
    2MOL1    Cl 1826   2.076   3.698   0.351
    2MOL1     H 1827   2.089   3.647   0.580
    2MOL1    Cl 1828   4.567   2.259   3.131
    2MOL1     C 1829   4.633   2.151   3.255
    2MOL1    Cl 1830   4.619   2.225   3.415
    2MOL1    Cl 1831   4.550   1.994   3.251
    2MOL1     H 1832   4.739   2.135   3.233
    2MOL1    Cl 1833   2.663   3.981   1.459
    2MOL1     C 1834   2.497   3.928   1.488
    2MOL1    Cl 1835   2.387   4.000   1.370
    2MOL1    Cl 1836   2.487   3.751   1.484
    2MOL1     H 1837   2.467   3.961   1.588
    2MOL1    Cl 1838   1.032   5.163   4.734
    2MOL1     C 1839   1.030   4.986   4.720
    2MOL1    Cl 1840   1.089   4.911   4.869
    2MOL1    Cl 1841   0.866   4.929   4.683
    2MOL1     H 1842   1.096   4.957   4.638
    2MOL1    Cl 1843   3.755   3.128   3.731
    2MOL1     C 1844   3.609   3.227   3.736
    2MOL1    Cl 1845   3.640   3.387   3.665
    2MOL1    Cl 1846   3.476   3.146   3.652
    2MOL1     H 1847   3.581   3.241   3.841
    2MOL1    Cl 1848   3.774   3.724   1.118
    2MOL1     C 1849   3.709   3.832   1.243
    2MOL1    Cl 1850   3.738   3.766   1.404
    2MOL1    Cl 1851   3.779   3.994   1.228
    2MOL1     H 1852   3.601   3.841   1.228
    2MOL1    Cl 1853   2.506   1.120   3.881
    2MOL1     C 1854   2.512   1.283   3.950
    2MOL1    Cl 1855   2.360   1.322   4.031
    2MOL1    Cl 1856   2.648   1.298   4.062
    2MOL1     H 1857   2.527   1.354   3.868
    2MOL1    Cl 1858   2.129   3.442   4.863
    2MOL1     C 1859   2.141   3.617   4.887
    2MOL1    Cl 1860   2.177   3.698   4.734
    2MOL1    Cl 1861   1.992   3.680   4.959
    2MOL1     H 1862   2.224   3.636   4.956
    2MOL1    Cl 1863   4.374   3.861   3.428
    2MOL1     C 1864   4.324   3.833   3.261
    2MOL1    Cl 1865   4.163   3.757   3.256
    2MOL1    Cl 1866   4.323   3.985   3.170
    2MOL1     H 1867   4.395   3.765   3.214
    2MOL1    Cl 1868   2.326   5.340   4.693
    2MOL1     C 1869   2.478   5.251   4.707
    2MOL1    Cl 1870   2.462   5.089   4.635
    2MOL1    Cl 1871   2.610   5.340   4.629
    2MOL1     H 1872   2.502   5.239   4.813
    2MOL1    Cl 1873   2.924   1.658   4.978
    2MOL1     C 1874   3.086   1.589   4.988
    2MOL1    Cl 1875   3.184   1.676   5.108
    2MOL1    Cl 1876   3.079   1.416   5.027
    2MOL1     H 1877   3.135   1.600   4.890
    2MOL1    Cl 1878   2.559   3.836   5.307
    2MOL1     C 1879   2.533   4.004   5.259
    2MOL1    Cl 1880   2.625   4.042   5.113
    2MOL1    Cl 1881   2.361   4.037   5.235
    2MOL1     H 1882   2.569   4.069   5.340
    2MOL1    Cl 1883   0.684   0.756   4.018
    2MOL1     C 1884   0.618   0.620   4.112
    2MOL1    Cl 1885   0.451   0.652   4.158
    2MOL1    Cl 1886   0.630   0.470   4.019
    2MOL1     H 1887   0.678   0.609   4.202
    2MOL1    Cl 1888   3.722   0.836   2.084
    2MOL1     C 1889   3.581   0.938   2.049
    2MOL1    Cl 1890   3.456   0.844   1.965
    2MOL1    Cl 1891   3.517   1.009   2.198
    2MOL1     H 1892   3.613   1.019   1.983
    2MOL1    Cl 1893   2.818   4.526   2.656
    2MOL1     C 1894   2.698   4.562   2.532
    2MOL1    Cl 1895   2.751   4.698   2.431
    2MOL1    Cl 1896   2.665   4.419   2.433
    2MOL1     H 1897   2.605   4.591   2.582
    2MOL1    Cl 1898   0.929   0.938   2.317
    2MOL1     C 1899   0.888   1.085   2.226
    2MOL1    Cl 1900   0.873   1.049   2.053
    2MOL1    Cl 1901   0.737   1.155   2.289
    2MOL1     H 1902   0.968   1.157   2.240
    2MOL1    Cl 1903   2.177   4.289   3.162
    2MOL1     C 1904   2.333   4.372   3.144
    2MOL1    Cl 1905   2.455   4.297   3.247
    2MOL1    Cl 1906   2.385   4.370   2.974
    2MOL1     H 1907   2.320   4.476   3.175
    2MOL1    Cl 1908   4.388   1.888   4.850
    2MOL1     C 1909   4.244   1.845   4.756
    2MOL1    Cl 1910   4.233   1.670   4.734
    2MOL1    Cl 1911   4.098   1.907   4.835
    2MOL1     H 1912   4.252   1.892   4.658
    2MOL1    Cl 1913   0.389   0.376   0.274
    2MOL1     C 1914   0.390   0.552   0.288
    2MOL1    Cl 1915   0.392   0.627   0.128
    2MOL1    Cl 1916   0.250   0.608   0.381
    2MOL1     H 1917   0.480   0.582   0.341
    2MOL1    Cl 1918   3.741   3.881   5.165
    2MOL1     C 1919   3.914   3.892   5.130
    2MOL1    Cl 1920   3.970   4.059   5.150
    2MOL1    Cl 1921   4.006   3.782   5.234
    2MOL1     H 1922   3.930   3.863   5.026
    2MOL1    Cl 1923   1.906   2.329   2.608
    2MOL1     C 1924   2.023   2.426   2.700
    2MOL1    Cl 1925   1.946   2.571   2.766
    2MOL1    Cl 1926   2.096   2.329   2.830
    2MOL1     H 1927   2.103   2.457   2.632
    2MOL1    Cl 1928   2.067   3.998   1.552
    2MOL1     C 1929   2.133   4.161   1.569
    2MOL1    Cl 1930   2.003   4.278   1.602
    2MOL1    Cl 1931   2.255   4.166   1.698
    2MOL1     H 1932   2.181   4.189   1.475
    2MOL1    Cl 1933   3.962   3.600   1.912
    2MOL1     C 1934   4.133   3.645   1.925
    2MOL1    Cl 1935   4.202   3.674   1.765
    2MOL1    Cl 1936   4.151   3.788   2.028
    2MOL1     H 1937   4.187   3.562   1.972
    2MOL1    Cl 1938   2.592   4.846   0.744
    2MOL1     C 1939   2.539   4.689   0.682
    2MOL1    Cl 1940   2.647   4.560   0.739
    2MOL1    Cl 1941   2.372   4.655   0.730
    2MOL1     H 1942   2.544   4.692   0.573
    2MOL1    Cl 1943   2.696   2.233   4.805
    2MOL1     C 1944   2.760   2.387   4.747
    2MOL1    Cl 1945   2.934   2.374   4.713
    2MOL1    Cl 1946   2.673   2.440   4.602
    2MOL1     H 1947   2.746   2.462   4.825
    2MOL1    Cl 1948   1.711   3.386   2.764
    2MOL1     C 1949   1.548   3.350   2.703
    2MOL1    Cl 1950   1.478   3.493   2.625
    2MOL1    Cl 1951   1.554   3.214   2.589
    2MOL1     H 1952   1.485   3.322   2.787
    2MOL1    Cl 1953   0.722   4.263   5.116
    2MOL1     C 1954   0.634   4.116   5.070
    2MOL1    Cl 1955   0.567   4.036   5.213
    2MOL1    Cl 1956   0.506   4.154   4.954
    2MOL1     H 1957   0.704   4.048   5.022
    2MOL1    Cl 1958   0.060   2.503   1.824
    2MOL1     C 1959   0.188   2.382   1.844
    2MOL1    Cl 1960   0.328   2.453   1.925
    2MOL1    Cl 1961   0.127   2.243   1.935
    2MOL1     H 1962   0.218   2.348   1.745
    2MOL1    Cl 1963   4.396   0.968   4.303
    2MOL1     C 1964   4.565   1.021   4.292
    2MOL1    Cl 1965   4.635   0.974   4.136
    2MOL1    Cl 1966   4.576   1.196   4.316
    2MOL1     H 1967   4.621   0.972   4.372
    2MOL1    Cl 1968   3.859   1.094   0.352
    2MOL1     C 1969   4.012   1.134   0.431
    2MOL1    Cl 1970   3.984   1.240   0.570
    2MOL1    Cl 1971   4.097   0.986   0.481
    2MOL1     H 1972   4.075   1.187   0.359
    2MOL1    Cl 1973   1.820   1.653   3.937
    2MOL1     C 1974   1.970   1.742   3.906
    2MOL1    Cl 1975   1.939   1.881   3.800
    2MOL1    Cl 1976   2.044   1.795   4.058
    2MOL1     H 1977   2.040   1.675   3.855
    2MOL1    Cl 1978   0.366   1.943   2.130
    2MOL1     C 1979   0.319   1.824   2.007
    2MOL1    Cl 1980   0.368   1.661   2.057
    2MOL1    Cl 1981   0.144   1.830   1.978
    2MOL1     H 1982   0.370   1.848   1.914
    2MOL1    Cl 1983   1.726   0.765   3.400
    2MOL1     C 1984   1.654   0.606   3.427
    2MOL1    Cl 1985   1.503   0.589   3.335
    2MOL1    Cl 1986   1.768   0.477   3.384
    2MOL1     H 1987   1.630   0.597   3.533
    2MOL1    Cl 1988   2.282   4.337   1.015
    2MOL1     C 1989   2.237   4.252   1.164
    2MOL1    Cl 1990   2.331   4.313   1.301
    2MOL1    Cl 1991   2.063   4.269   1.195
    2MOL1     H 1992   2.259   4.146   1.151
    2MOL1    Cl 1993   3.630   1.768   4.342
    2MOL1     C 1994   3.456   1.743   4.358
    2MOL1    Cl 1995   3.422   1.606   4.465
    2MOL1    Cl 1996   3.378   1.890   4.419
    2MOL1     H 1997   3.415   1.721   4.259
    2MOL1    Cl 1998   2.387   3.649   4.223
    2MOL1     C 1999   2.273   3.756   4.140
    2MOL1    Cl 2000   2.359   3.869   4.034
    2MOL1    Cl 2001   2.156   3.660   4.047
    2MOL1     H 2002   2.218   3.813   4.215
    2MOL1    Cl 2003   3.017   1.058   4.894
    2MOL1     C 2004   3.165   0.978   4.949
    2MOL1    Cl 2005   3.303   1.089   4.936
    2MOL1    Cl 2006   3.147   0.920   5.115
    2MOL1     H 2007   3.184   0.892   4.884
    2MOL1    Cl 2008   3.109   2.929   2.610
    2MOL1     C 2009   3.045   2.790   2.523
    2MOL1    Cl 2010   3.172   2.671   2.491
    2MOL1    Cl 2011   2.911   2.716   2.613
    2MOL1     H 2012   3.006   2.825   2.427
    2MOL1    Cl 2013   4.550   4.248   0.822
    2MOL1     C 2014   4.726   4.250   0.839
    2MOL1    Cl 2015   4.775   4.374   0.956
    2MOL1    Cl 2016   4.785   4.090   0.889
    2MOL1     H 2017   4.770   4.275   0.743
    2MOL1    Cl 2018   1.977   2.936   4.335
    2MOL1     C 2019   2.109   2.821   4.365
    2MOL1    Cl 2020   2.229   2.891   4.475
    2MOL1    Cl 2021   2.046   2.669   4.429
    2MOL1     H 2022   2.159   2.800   4.269
    2MOL1    Cl 2023   2.532   3.982   4.417
    2MOL1     C 2024   2.661   4.100   4.445
    2MOL1    Cl 2025   2.606   4.228   4.555
    2MOL1    Cl 2026   2.805   4.020   4.511
    2MOL1     H 2027   2.688   4.145   4.350
    2MOL1    Cl 2028   4.340   5.254   2.521
    2MOL1     C 2029   4.418   5.149   2.640
    2MOL1    Cl 2030   4.303   5.104   2.767
    2MOL1    Cl 2031   4.484   5.005   2.562
    2MOL1     H 2032   4.500   5.204   2.686
    2MOL1    Cl 2033   1.764   3.850   1.995
    2MOL1     C 2034   1.832   3.696   2.049
    2MOL1    Cl 2035   1.830   3.685   2.225
    2MOL1    Cl 2036   1.742   3.560   1.977
    2MOL1     H 2037   1.935   3.690   2.015
    2MOL1    Cl 2038   3.519   0.980   0.969
    2MOL1     C 2039   3.522   0.805   0.993
    2MOL1    Cl 2040   3.467   0.763   1.157
    2MOL1    Cl 2041   3.422   0.723   0.872
    2MOL1     H 2042   3.625   0.770   0.982
    2MOL1    Cl 2043   0.492   3.693   3.066
    2MOL1     C 2044   0.326   3.754   3.061
    2MOL1    Cl 2045   0.318   3.907   2.973
    2MOL1    Cl 2046   0.218   3.634   2.988
    2MOL1     H 2047   0.293   3.772   3.164
    2MOL1    Cl 2048   2.994   2.586   5.059
    2MOL1     C 2049   2.996   2.685   4.912
    2MOL1    Cl 2050   3.097   2.609   4.788
    2MOL1    Cl 2051   2.831   2.710   4.851
    2MOL1     H 2052   3.039   2.783   4.936
    2MOL1    Cl 2053   2.298   0.503   0.674
    2MOL1     C 2054   2.271   0.678   0.680
    2MOL1    Cl 2055   2.098   0.715   0.674
    2MOL1    Cl 2056   2.344   0.747   0.826
    2MOL1     H 2057   2.319   0.723   0.593
    2MOL1    Cl 2058   3.099   0.447   2.291
    2MOL1     C 2059   2.959   0.339   2.302
    2MOL1    Cl 2060   2.814   0.418   2.236
    2MOL1    Cl 2061   2.991   0.187   2.217
    2MOL1     H 2062   2.941   0.317   2.407
    2MOL1    Cl 2063   1.760   3.565   4.471
    2MOL1     C 2064   1.915   3.479   4.488
    2MOL1    Cl 2065   2.003   3.540   4.629
    2MOL1    Cl 2066   1.888   3.305   4.502
    2MOL1     H 2067   1.975   3.498   4.399
    2MOL1    Cl 2068   0.722   2.872   0.618
    2MOL1     C 2069   0.805   2.834   0.770
    2MOL1    Cl 2070   0.934   2.950   0.801
    2MOL1    Cl 2071   0.690   2.830   0.905
    2MOL1     H 2072   0.849   2.734   0.760
    2MOL1    Cl 2073   2.878   0.230   3.315
    2MOL1     C 2074   2.993   0.233   3.450
    2MOL1    Cl 2075   2.948   0.113   3.572
    2MOL1    Cl 2076   3.158   0.206   3.392
    2MOL1     H 2077   2.988   0.332   3.496
    2MOL1    Cl 2078   2.157   3.170   1.185
    2MOL1     C 2079   2.099   3.006   1.155
    2MOL1    Cl 2080   2.004   2.947   1.293
    2MOL1    Cl 2081   2.002   3.000   1.007
    2MOL1     H 2082   2.185   2.941   1.143
    2MOL1    Cl 2083   2.989   5.108   4.121
    2MOL1     C 2084   3.094   5.194   4.008
    2MOL1    Cl 2085   3.164   5.081   3.890
    2MOL1    Cl 2086   3.005   5.323   3.925
    2MOL1     H 2087   3.176   5.239   4.064
    2MOL1    Cl 2088   2.884   3.428   0.201
    2MOL1     C 2089   2.974   3.300   0.118
    2MOL1    Cl 2090   3.119   3.367   0.040
    2MOL1    Cl 2091   3.018   3.172   0.231
    2MOL1     H 2092   2.910   3.258   0.041
    2MOL1    Cl 2093   0.392   0.362   4.152
    2MOL1     C 2094   0.232   0.395   4.222
    2MOL1    Cl 2095   0.236   0.374   4.398
    2MOL1    Cl 2096   0.178   0.559   4.179
    2MOL1     H 2097   0.161   0.324   4.180
    2MOL1    Cl 2098   2.334   2.517   4.055
    2MOL1     C 2099   2.438   2.650   4.000
    2MOL1    Cl 2100   2.439   2.782   4.118
    2MOL1    Cl 2101   2.603   2.592   3.970
    2MOL1     H 2102   2.397   2.688   3.906
    2MOL1    Cl 2103   0.710   1.494   0.042
    2MOL1     C 2104   0.734   1.474   0.217
    2MOL1    Cl 2105   0.675   1.315   0.270
    2MOL1    Cl 2106   0.905   1.494   0.259
    2MOL1     H 2107   0.676   1.551   0.268
    2MOL1    Cl 2108   4.778   2.921   2.049
    2MOL1     C 2109   4.670   3.002   1.934
    2MOL1    Cl 2110   4.605   2.885   1.818
    2MOL1    Cl 2111   4.539   3.084   2.020
    2MOL1     H 2112   4.728   3.077   1.879
    2MOL1    Cl 2113   3.011   3.134   0.668
    2MOL1     C 2114   3.109   3.261   0.592
    2MOL1    Cl 2115   3.239   3.313   0.701
    2MOL1    Cl 2116   3.177   3.203   0.439
    2MOL1     H 2117   3.045   3.347   0.571
    2MOL1    Cl 2118   2.674   4.761   1.665
    2MOL1     C 2119   2.538   4.868   1.625
    2MOL1    Cl 2120   2.532   5.005   1.736
    2MOL1    Cl 2121   2.551   4.924   1.457
    2MOL1     H 2122   2.446   4.811   1.634
    2MOL1    Cl 2123   2.807   4.008   4.984
    2MOL1     C 2124   2.705   3.968   4.845
    2MOL1    Cl 2125   2.583   3.847   4.890
    2MOL1    Cl 2126   2.627   4.113   4.781
    2MOL1     H 2127   2.768   3.925   4.767
    2MOL1    Cl 2128   4.082   4.216   2.858
    2MOL1     C 2129   4.022   4.053   2.823
    2MOL1    Cl 2130   3.856   4.060   2.761
    2MOL1    Cl 2131   4.128   3.971   2.707
    2MOL1     H 2132   4.022   3.996   2.916
    2MOL1    Cl 2133   2.231   1.586   2.634
    2MOL1     C 2134   2.324   1.534   2.491
    2MOL1    Cl 2135   2.225   1.430   2.387
    2MOL1    Cl 2136   2.382   1.675   2.401
    2MOL1     H 2137   2.410   1.477   2.525
    2MOL1    Cl 2138   4.951   2.357   0.808
    2MOL1     C 2139   4.903   2.377   0.638
    2MOL1    Cl 2140   4.930   2.544   0.586
    2MOL1    Cl 2141   4.992   2.264   0.535
    2MOL1     H 2142   4.796   2.355   0.630
    2MOL1    Cl 2143   4.208   0.437   3.065
    2MOL1     C 2144   4.214   0.583   3.165
    2MOL1    Cl 2145   4.083   0.583   3.283
    2MOL1    Cl 2146   4.371   0.597   3.246
    2MOL1     H 2147   4.201   0.670   3.099
    2MOL1    Cl 2148   4.806   2.171   0.242
    2MOL1     C 2149   4.824   2.327   0.160
    2MOL1    Cl 2150   4.962   2.324   0.049
    2MOL1    Cl 2151   4.675   2.369   0.074
    2MOL1     H 2152   4.842   2.403   0.236
    2MOL1    Cl 2153   0.614   3.706   5.136
    2MOL1     C 2154   0.683   3.600   5.261
    2MOL1    Cl 2155   0.556   3.506   5.340
    2MOL1    Cl 2156   0.806   3.493   5.191
    2MOL1     H 2157   0.731   3.663   5.336
    2MOL1    Cl 2158   3.451   1.289   0.961
    2MOL1     C 2159   3.376   1.228   1.109
    2MOL1    Cl 2160   3.218   1.156   1.073
    2MOL1    Cl 2161   3.481   1.109   1.188
    2MOL1     H 2162   3.361   1.311   1.177
    2MOL1    Cl 2163   2.737   4.499   4.867
    2MOL1     C 2164   2.850   4.390   4.784
    2MOL1    Cl 2165   2.819   4.222   4.829
    2MOL1    Cl 2166   2.837   4.410   4.608
    2MOL1     H 2167   2.951   4.416   4.815
    2MOL1    Cl 2168   1.262   3.238   4.281
    2MOL1     C 2169   1.314   3.351   4.407
    2MOL1    Cl 2170   1.489   3.377   4.399
    2MOL1    Cl 2171   1.227   3.505   4.392
    2MOL1     H 2172   1.290   3.307   4.504
    2MOL1    Cl 2173   1.036   2.287   2.415
    2MOL1     C 2174   1.200   2.341   2.378
    2MOL1    Cl 2175   1.279   2.226   2.268
    2MOL1    Cl 2176   1.198   2.503   2.307
    2MOL1     H 2177   1.257   2.345   2.470
    2MOL1    Cl 2178   1.326   1.251   0.636
    2MOL1     C 2179   1.373   1.414   0.586
    2MOL1    Cl 2180   1.548   1.424   0.562
    2MOL1    Cl 2181   1.287   1.460   0.438
    2MOL1     H 2182   1.344   1.484   0.665
    2MOL1    Cl 2183   0.272   5.330   3.290
    2MOL1     C 2184   0.326   5.166   3.252
    2MOL1    Cl 2185   0.457   5.169   3.133
    2MOL1    Cl 2186   0.379   5.082   3.399
    2MOL1     H 2187   0.242   5.111   3.209
    2MOL1    Cl 2188   2.750   4.065   0.445
    2MOL1     C 2189   2.793   3.991   0.290
    2MOL1    Cl 2190   2.666   4.019   0.170
    2MOL1    Cl 2191   2.948   4.053   0.232
    2MOL1     H 2192   2.803   3.883   0.305
    2MOL1    Cl 2193   5.044   2.028   0.902
    2MOL1     C 2194   5.133   1.875   0.916
    2MOL1    Cl 2195   5.024   1.738   0.889
    2MOL1    Cl 2196   5.268   1.871   0.802
    2MOL1     H 2197   5.173   1.868   1.018
    2MOL1    Cl 2198   3.382   4.628   4.071
    2MOL1     C 2199   3.269   4.763   4.090
    2MOL1    Cl 2200   3.132   4.745   3.979
    2MOL1    Cl 2201   3.212   4.774   4.258
    2MOL1     H 2202   3.321   4.856   4.065
    2MOL1    Cl 2203   0.282   3.307   3.506
    2MOL1     C 2204   0.411   3.235   3.408
    2MOL1    Cl 2205   0.354   3.090   3.325
    2MOL1    Cl 2206   0.473   3.353   3.291
    2MOL1     H 2207   0.493   3.207   3.475
    2MOL1    Cl 2208   2.847   0.622   1.800
    2MOL1     C 2209   2.850   0.526   1.948
    2MOL1    Cl 2210   2.688   0.469   1.989
    2MOL1    Cl 2211   2.961   0.388   1.930
    2MOL1     H 2212   2.886   0.589   2.029
    2MOL1    Cl 2213   4.721   5.176   4.291
    2MOL1     C 2214   4.811   5.040   4.360
    2MOL1    Cl 2215   4.721   4.889   4.342
    2MOL1    Cl 2216   4.971   5.027   4.285
    2MOL1     H 2217   4.825   5.059   4.467
    2MOL1    Cl 2218   4.190   1.051   1.988
    2MOL1     C 2219   4.035   0.993   2.052
    2MOL1    Cl 2220   4.000   1.070   2.208
    2MOL1    Cl 2221   3.904   1.024   1.937
    2MOL1     H 2222   4.042   0.885   2.068
    2MOL1    Cl 2223   2.432   4.874   2.513
    2MOL1     C 2224   2.347   4.742   2.430
    2MOL1    Cl 2225   2.305   4.613   2.543
    2MOL1    Cl 2226   2.202   4.804   2.348
    2MOL1     H 2227   2.414   4.701   2.354
    2MOL1    Cl 2228   2.349   2.793   0.881
    2MOL1     C 2229   2.277   2.631   0.892
    2MOL1    Cl 2230   2.358   2.536   1.019
    2MOL1    Cl 2231   2.103   2.642   0.924
    2MOL1     H 2232   2.292   2.581   0.797
    2MOL1    Cl 2233   2.182   4.549   0.421
    2MOL1     C 2234   2.228   4.720   0.430
    2MOL1    Cl 2235   2.298   4.775   0.277
    2MOL1    Cl 2236   2.089   4.820   0.475
    2MOL1     H 2237   2.304   4.730   0.508
    2MOL1    Cl 2238   3.430   1.134   2.422
    2MOL1     C 2239   3.601   1.178   2.427
    2MOL1    Cl 2240   3.698   1.065   2.331
    2MOL1    Cl 2241   3.624   1.344   2.371
    2MOL1     H 2242   3.635   1.172   2.531
    2MOL1    Cl 2243   3.835   4.001   0.960
    2MOL1     C 2244   3.718   4.042   0.834
    2MOL1    Cl 2245   3.774   3.987   0.676
    2MOL1    Cl 2246   3.560   3.972   0.872
    2MOL1     H 2247   3.708   4.151   0.831
    2MOL1    Cl 2248   1.734   4.273   2.009
    2MOL1     C 2249   1.704   4.322   2.177
    2MOL1    Cl 2250   1.598   4.464   2.182
    2MOL1    Cl 2251   1.634   4.188   2.269
    2MOL1     H 2252   1.800   4.349   2.223
    2MOL1    Cl 2253   5.081   2.665   3.010
    2MOL1     C 2254   5.018   2.830   3.029
    2MOL1    Cl 2255   4.878   2.831   3.138
    2MOL1    Cl 2256   5.145   2.938   3.090
    2MOL1     H 2257   4.986   2.866   2.931
    2MOL1    Cl 2258   1.623   1.402   2.141
    2MOL1     C 2259   1.612   1.286   2.274
    2MOL1    Cl 2260   1.450   1.290   2.346
    2MOL1    Cl 2261   1.650   1.122   2.218
    2MOL1     H 2262   1.684   1.314   2.350
    2MOL1    Cl 2263   1.033   4.447   0.251
    2MOL1     C 2264   1.088   4.280   0.266
    2MOL1    Cl 2265   1.233   4.271   0.368
    2MOL1    Cl 2266   0.960   4.178   0.332
    2MOL1     H 2267   1.114   4.243   0.167
    2MOL1    Cl 2268   3.220   2.610   0.801
    2MOL1     C 2269   3.129   2.690   0.930
    2MOL1    Cl 2270   3.034   2.571   1.022
    2MOL1    Cl 2271   3.239   2.778   1.037
    2MOL1     H 2272   3.060   2.761   0.884
    2MOL1    Cl 2273   0.675   1.909   2.421
    2MOL1     C 2274   0.582   2.004   2.538
    2MOL1    Cl 2275   0.608   1.944   2.702
    2MOL1    Cl 2276   0.626   2.176   2.527
    2MOL1     H 2277   0.476   1.995   2.513
    2MOL1    Cl 2278   2.481   0.865   5.065
    2MOL1     C 2279   2.615   0.779   4.987
    2MOL1    Cl 2280   2.758   0.883   4.974
    2MOL1    Cl 2281   2.653   0.630   5.076
    2MOL1     H 2282   2.583   0.751   4.886
    2MOL1    Cl 2283   0.396   4.214   4.112
    2MOL1     C 2284   0.429   4.334   4.238
    2MOL1    Cl 2285   0.308   4.464   4.233
    2MOL1    Cl 2286   0.432   4.257   4.397
    2MOL1     H 2287   0.527   4.378   4.219
    2MOL1    Cl 2288   4.957   3.890   1.542
    2MOL1     C 2289   5.077   4.012   1.587
    2MOL1    Cl 2290   5.219   3.936   1.662
    2MOL1    Cl 2291   5.126   4.107   1.444
    2MOL1     H 2292   5.032   4.080   1.659
    2MOL1    Cl 2293   2.405   2.326   0.502
    2MOL1     C 2294   2.577   2.332   0.463
    2MOL1    Cl 2295   2.629   2.182   0.386
    2MOL1    Cl 2296   2.612   2.471   0.359
    2MOL1     H 2297   2.633   2.344   0.557
    2MOL1    Cl 2298   3.207   2.418   2.231
    2MOL1     C 2299   3.349   2.477   2.143
    2MOL1    Cl 2300   3.404   2.631   2.211
    2MOL1    Cl 2301   3.479   2.357   2.149
    2MOL1     H 2302   3.321   2.493   2.039
    2MOL1    Cl 2303   4.153   1.265   5.046
    2MOL1     C 2304   4.100   1.286   5.214
    2MOL1    Cl 2305   3.998   1.430   5.229
    2MOL1    Cl 2306   4.013   1.142   5.269
    2MOL1     H 2307   4.188   1.299   5.277
    2MOL1    Cl 2308   1.161   2.187   4.502
    2MOL1     C 2309   1.130   2.014   4.523
    2MOL1    Cl 2310   1.241   1.945   4.643
    2MOL1    Cl 2311   0.962   1.986   4.571
    2MOL1     H 2312   1.147   1.964   4.428
    2MOL1    Cl 2313   0.252   0.389   2.244
    2MOL1     C 2314   0.409   0.391   2.162
    2MOL1    Cl 2315   0.519   0.271   2.234
    2MOL1    Cl 2316   0.389   0.362   1.989
    2MOL1     H 2317   0.453   0.490   2.175
    2MOL1    Cl 2318   4.005   0.450   1.081
    2MOL1     C 2319   3.829   0.447   1.063
    2MOL1    Cl 2320   3.778   0.545   0.925
    2MOL1    Cl 2321   3.772   0.280   1.046
    2MOL1     H 2322   3.784   0.489   1.154
    2MOL1    Cl 2323   3.095   2.473   3.741
    2MOL1     C 2324   3.125   2.342   3.626
    2MOL1    Cl 2325   3.099   2.397   3.459
    2MOL1    Cl 2326   3.290   2.279   3.644
    2MOL1     H 2327   3.055   2.261   3.646
    2MOL1    Cl 2328   3.669   2.861   3.715
    2MOL1     C 2329   3.766   2.885   3.568
    2MOL1    Cl 2330   3.797   2.729   3.488
    2MOL1    Cl 2331   3.684   2.996   3.457
    2MOL1     H 2332   3.862   2.928   3.597
    2MOL1    Cl 2333   3.050   4.404   1.717
    2MOL1     C 2334   3.215   4.413   1.782
    2MOL1    Cl 2335   3.332   4.441   1.652
    2MOL1    Cl 2336   3.227   4.540   1.905
    2MOL1     H 2337   3.238   4.317   1.829
    2MOL1    Cl 2338   5.094   1.316   4.747
    2MOL1     C 2339   5.271   1.314   4.759
    2MOL1    Cl 2340   5.337   1.170   4.679
    2MOL1    Cl 2341   5.340   1.461   4.688
    2MOL1     H 2342   5.298   1.311   4.865
    2MOL1    Cl 2343   0.548   1.275   4.054
    2MOL1     C 2344   0.514   1.339   4.216
    2MOL1    Cl 2345   0.501   1.208   4.334
    2MOL1    Cl 2346   0.639   1.454   4.265
    2MOL1     H 2347   0.418   1.392   4.212
    2MOL1    Cl 2348   0.369   1.986   1.538
    2MOL1     C 2349   0.313   1.854   1.642
    2MOL1    Cl 2350   0.451   1.773   1.719
    2MOL1    Cl 2351   0.201   1.915   1.765
    2MOL1     H 2352   0.260   1.781   1.580
    2MOL1    Cl 2353   0.186   2.910   1.534
    2MOL1     C 2354   0.107   2.961   1.384
    2MOL1    Cl 2355   0.131   3.134   1.356
    2MOL1    Cl 2356   0.168   2.867   1.246
    2MOL1     H 2357  -0.000   2.942   1.394
    2MOL1    Cl 2358   1.038   3.660   0.214
    2MOL1     C 2359   0.903   3.668   0.100
    2MOL1    Cl 2360   0.786   3.540   0.132
    2MOL1    Cl 2361   0.825   3.827   0.107
    2MOL1     H 2362   0.942   3.654  -0.002
    2MOL1    Cl 2363   3.582   1.365   1.371
    2MOL1     C 2364   3.595   1.305   1.537
    2MOL1    Cl 2365   3.764   1.277   1.581
    2MOL1    Cl 2366   3.519   1.419   1.650
    2MOL1     H 2367   3.541   1.210   1.544
    2MOL1    Cl 2368   3.546   1.574   4.752
    2MOL1     C 2369   3.473   1.732   4.785
    2MOL1    Cl 2370   3.531   1.797   4.939
    2MOL1    Cl 2371   3.508   1.844   4.652
    2MOL1     H 2372   3.365   1.719   4.791
    2MOL1    Cl 2373   0.704   3.924   4.129
    2MOL1     C 2374   0.626   4.031   4.248
    2MOL1    Cl 2375   0.582   3.940   4.394
    2MOL1    Cl 2376   0.733   4.166   4.289
    2MOL1     H 2377   0.535   4.071   4.204
    2MOL1    Cl 2378   0.872   2.781   1.688
    2MOL1     C 2379   0.947   2.705   1.546
    2MOL1    Cl 2380   1.063   2.816   1.471
    2MOL1    Cl 2381   1.025   2.553   1.591
    2MOL1     H 2382   0.868   2.683   1.474
    2MOL1    Cl 2383   4.532   5.013   5.295
    2MOL1     C 2384   4.398   5.098   5.215
    2MOL1    Cl 2385   4.431   5.115   5.042
    2MOL1    Cl 2386   4.245   5.013   5.241
    2MOL1     H 2387   4.390   5.198   5.259
    2MOL1    Cl 2388   4.337   1.208   0.474
    2MOL1     C 2389   4.370   1.124   0.322
    2MOL1    Cl 2390   4.238   1.149   0.207
    2MOL1    Cl 2391   4.524   1.179   0.253
    2MOL1     H 2392   4.378   1.017   0.342
    2MOL1    Cl 2393   3.235   0.887   3.410
    2MOL1     C 2394   3.092   0.849   3.508
    2MOL1    Cl 2395   3.046   0.679   3.489
    2MOL1    Cl 2396   3.121   0.887   3.679
    2MOL1     H 2397   3.009   0.912   3.473
    2MOL1    Cl 2398   4.459   1.557   4.856
    2MOL1     C 2399   4.336   1.445   4.916
    2MOL1    Cl 2400   4.263   1.354   4.783
    2MOL1    Cl 2401   4.405   1.335   5.037
    2MOL1     H 2402   4.257   1.503   4.965
    2MOL1    Cl 2403   4.607   2.203   3.767
    2MOL1     C 2404   4.773   2.156   3.806
    2MOL1    Cl 2405   4.836   2.252   3.941
    2MOL1    Cl 2406   4.782   1.983   3.843
    2MOL1     H 2407   4.836   2.175   3.718
    2MOL1    Cl 2408   3.370   0.846   3.919
    2MOL1     C 2409   3.412   0.746   3.779
    2MOL1    Cl 2410   3.302   0.608   3.766
    2MOL1    Cl 2411   3.409   0.842   3.630
    2MOL1     H 2412   3.513   0.708   3.793
    2MOL1    Cl 2413   3.771   3.671   1.710
    2MOL1     C 2414   3.901   3.788   1.682
    2MOL1    Cl 2415   4.028   3.717   1.581
    2MOL1    Cl 2416   3.837   3.936   1.609
    2MOL1     H 2417   3.945   3.814   1.779
    2MOL1    Cl 2418   0.574   0.021   1.294
    2MOL1     C 2419   0.528   0.170   1.379
    2MOL1    Cl 2420   0.672   0.265   1.420
    2MOL1    Cl 2421   0.416   0.266   1.280
    2MOL1     H 2422   0.477   0.142   1.471
    2MOL1    Cl 2423   2.157   3.909   3.529
    2MOL1     C 2424   2.161   3.984   3.690
    2MOL1    Cl 2425   2.097   3.873   3.812
    2MOL1    Cl 2426   2.326   4.034   3.731
    2MOL1     H 2427   2.098   4.073   3.687
    2MOL1    Cl 2428   4.682   4.007   1.315
    2MOL1     C 2429   4.516   3.961   1.356
    2MOL1    Cl 2430   4.412   3.965   1.213
    2MOL1    Cl 2431   4.512   3.800   1.430
    2MOL1     H 2432   4.477   4.033   1.429
    2MOL1    Cl 2433   3.050   4.352   4.547
    2MOL1     C 2434   3.216   4.367   4.607
    2MOL1    Cl 2435   3.219   4.366   4.784
    2MOL1    Cl 2436   3.319   4.238   4.542
    2MOL1     H 2437   3.256   4.463   4.573
    2MOL1    Cl 2438   1.982   1.711   4.815
    2MOL1     C 2439   2.060   1.870   4.808
    2MOL1    Cl 2440   2.209   1.862   4.712
    2MOL1    Cl 2441   1.950   1.992   4.743
    2MOL1     H 2442   2.088   1.899   4.910
    2MOL1    Cl 2443   1.553   3.450   1.890
    2MOL1     C 2444   1.481   3.460   2.052
    2MOL1    Cl 2445   1.492   3.303   2.135
    2MOL1    Cl 2446   1.560   3.587   2.147
    2MOL1     H 2447   1.375   3.485   2.041
    2MOL1    Cl 2448   1.842   0.304   1.539
    2MOL1     C 2449   1.881   0.131   1.544
    2MOL1    Cl 2450   2.022   0.102   1.646
    2MOL1    Cl 2451   1.742   0.038   1.602
    2MOL1     H 2452   1.904   0.098   1.442
    2MOL1    Cl 2453   4.074   4.500   3.691
    2MOL1     C 2454   4.205   4.405   3.763
    2MOL1    Cl 2455   4.285   4.496   3.892
    2MOL1    Cl 2456   4.143   4.251   3.824
    2MOL1     H 2457   4.279   4.383   3.685
    2MOL1    Cl 2458   0.780   1.156   3.831
    2MOL1     C 2459   0.685   1.009   3.811
    2MOL1    Cl 2460   0.552   1.036   3.697
    2MOL1    Cl 2461   0.787   0.875   3.756
    2MOL1     H 2462   0.642   0.982   3.908
    2MOL1    Cl 2463   1.656   4.627   0.751
    2MOL1     C 2464   1.680   4.458   0.703
    2MOL1    Cl 2465   1.843   4.434   0.639
    2MOL1    Cl 2466   1.650   4.350   0.840
    2MOL1     H 2467   1.608   4.434   0.625
    2MOL1    Cl 2468   3.382   0.475  -0.000
    2MOL1     C 2469   3.261   0.414   0.114
    2MOL1    Cl 2470   3.339   0.335   0.252
    2MOL1    Cl 2471   3.156   0.546   0.170
    2MOL1     H 2472   3.199   0.341   0.063
    2MOL1    Cl 2473   3.850   0.733   3.336
    2MOL1     C 2474   3.838   0.907   3.309
    2MOL1    Cl 2475   3.967   0.963   3.200
    2MOL1    Cl 2476   3.679   0.950   3.244
    2MOL1     H 2477   3.851   0.958   3.405
    2MOL1    Cl 2478   0.286   4.502   3.987
    2MOL1     C 2479   0.166   4.633   3.984
    2MOL1    Cl 2480   0.017   4.579   3.905
    2MOL1    Cl 2481   0.133   4.691   4.148
    2MOL1     H 2482   0.208   4.716   3.926
    2MOL1    Cl 2483   4.343   1.792   5.340
    2MOL1     C 2484   4.424   1.681   5.228
    2MOL1    Cl 2485   4.388   1.725   5.060
    2MOL1    Cl 2486   4.598   1.680   5.257
    2MOL1     H 2487   4.385   1.580   5.246
    2MOL1    Cl 2488   0.535   0.786   2.750
    2MOL1     C 2489   0.456   0.630   2.781
    2MOL1    Cl 2490   0.568   0.497   2.748
    2MOL1    Cl 2491   0.397   0.622   2.948
    2MOL1     H 2492   0.371   0.621   2.714
    2MOL1    Cl 2493   0.726   2.157   2.004
    2MOL1     C 2494   0.555   2.115   2.020
    2MOL1    Cl 2495   0.511   2.098   2.190
    2MOL1    Cl 2496   0.453   2.236   1.940
    2MOL1     H 2497   0.539   2.019   1.970
    2MOL1    Cl 2498   3.639   2.182   1.581
    2MOL1     C 2499   3.749   2.286   1.672
    2MOL1    Cl 2500   3.854   2.190   1.777
    2MOL1    Cl 2501   3.846   2.386   1.562
    2MOL1     H 2502   3.689   2.353   1.735
    2MOL1    Cl 2503   2.526   0.997   4.429
    2MOL1     C 2504   2.652   0.926   4.327
    2MOL1    Cl 2505   2.681   1.029   4.185
    2MOL1    Cl 2506   2.801   0.902   4.419
    2MOL1     H 2507   2.617   0.829   4.292
    2MOL1    Cl 2508   4.499   2.534   5.015
    2MOL1     C 2509   4.660   2.514   4.944
    2MOL1    Cl 2510   4.693   2.642   4.826
    2MOL1    Cl 2511   4.784   2.512   5.070
    2MOL1     H 2512   4.663   2.417   4.892
    2MOL1    Cl 2513   3.703   0.892   2.795
    2MOL1     C 2514   3.831   0.781   2.845
    2MOL1    Cl 2515   3.937   0.858   2.964
    2MOL1    Cl 2516   3.761   0.632   2.911
    2MOL1     H 2517   3.890   0.755   2.757
    2MOL1    Cl 2518   3.265   2.227   3.412
    2MOL1     C 2519   3.307   2.075   3.332
    2MOL1    Cl 2520   3.175   2.021   3.227
    2MOL1    Cl 2521   3.457   2.093   3.239
    2MOL1     H 2522   3.323   1.999   3.409
    2MOL1    Cl 2523   3.888   1.434   1.369
    2MOL1     C 2524   3.848   1.600   1.415
    2MOL1    Cl 2525   3.709   1.602   1.526
    2MOL1    Cl 2526   3.987   1.680   1.489
    2MOL1     H 2527   3.820   1.655   1.325
    2MOL1    Cl 2528   0.356   3.256   1.670
    2MOL1     C 2529   0.449   3.395   1.611
    2MOL1    Cl 2530   0.516   3.362   1.451
    2MOL1    Cl 2531   0.348   3.541   1.608
    2MOL1     H 2532   0.532   3.413   1.680
    2MOL1    Cl 2533   2.295   3.858   4.513
    2MOL1     C 2534   2.440   3.804   4.598
    2MOL1    Cl 2535   2.537   3.943   4.651
    2MOL1    Cl 2536   2.397   3.703   4.737
    2MOL1     H 2537   2.500   3.745   4.529
    2MOL1    Cl 2538   2.038   1.768   1.826
    2MOL1     C 2539   1.945   1.632   1.890
    2MOL1    Cl 2540   1.938   1.500   1.772
    2MOL1    Cl 2541   2.014   1.575   2.043
    2MOL1     H 2542   1.843   1.666   1.910
    2MOL1    Cl 2543   4.629   2.549   0.541
    2MOL1     C 2544   4.603   2.603   0.375
    2MOL1    Cl 2545   4.502   2.749   0.371
    2MOL1    Cl 2546   4.758   2.633   0.294
    2MOL1     H 2547   4.551   2.524   0.320
    2MOL1    Cl 2548   2.872   4.582   3.483
    2MOL1     C 2549   3.008   4.524   3.580
    2MOL1    Cl 2550   3.088   4.387   3.501
    2MOL1    Cl 2551   3.124   4.655   3.611
    2MOL1     H 2552   2.969   4.489   3.677
    2MOL1    Cl 2553   5.204   3.905   5.227
    2MOL1     C 2554   5.031   3.894   5.191
    2MOL1    Cl 2555   4.999   3.765   5.075
    2MOL1    Cl 2556   4.938   3.867   5.340
    2MOL1     H 2557   4.999   3.989   5.147
    2MOL1    Cl 2558   1.244   2.572   3.465
    2MOL1     C 2559   1.201   2.684   3.335
    2MOL1    Cl 2560   1.137   2.595   3.195
    2MOL1    Cl 2561   1.082   2.803   3.392
    2MOL1     H 2562   1.291   2.737   3.303
    2MOL1    Cl 2563   2.627   2.950   1.440
    2MOL1     C 2564   2.562   2.801   1.370
    2MOL1    Cl 2565   2.479   2.705   1.493
    2MOL1    Cl 2566   2.453   2.838   1.235
    2MOL1     H 2567   2.646   2.742   1.331
    2MOL1    Cl 2568   0.046   3.543   3.408
    2MOL1     C 2569   0.109   3.563   3.572
    2MOL1    Cl 2570   0.133   3.735   3.609
    2MOL1    Cl 2571   0.000   3.489   3.691
    2MOL1     H 2572   0.206   3.513   3.578
    2MOL1    Cl 2573   2.495   4.996   3.379
    2MOL1     C 2574   2.480   4.827   3.328
    2MOL1    Cl 2575   2.373   4.814   3.187
    2MOL1    Cl 2576   2.639   4.758   3.292
    2MOL1     H 2577   2.435   4.770   3.410
    2MOL1    Cl 2578   5.103   2.709   4.044
    2MOL1     C 2579   5.019   2.699   4.200
    2MOL1    Cl 2580   5.125   2.754   4.331
    2MOL1    Cl 2581   4.870   2.795   4.196
    2MOL1     H 2582   4.993   2.595   4.218
    2MOL1    Cl 2583   2.753   2.195   3.623
    2MOL1     C 2584   2.591   2.262   3.596
    2MOL1    Cl 2585   2.583   2.344   3.439
    2MOL1    Cl 2586   2.468   2.135   3.606
    2MOL1     H 2587   2.571   2.336   3.674
    2MOL1    Cl 2588   1.903   0.795   3.928
    2MOL1     C 2589   1.957   0.937   4.019
    2MOL1    Cl 2590   1.948   0.907   4.193
    2MOL1    Cl 2591   2.122   0.983   3.972
    2MOL1     H 2592   1.890   1.021   3.995
    2MOL1    Cl 2593   0.930   0.492   0.978
    2MOL1     C 2594   0.895   0.359   0.865
    2MOL1    Cl 2595   0.784   0.243   0.939
    2MOL1    Cl 2596   0.827   0.422   0.714
    2MOL1     H 2597   0.988   0.308   0.843
    2MOL1    Cl 2598   4.182   1.358   3.821
    2MOL1     C 2599   4.161   1.436   3.663
    2MOL1    Cl 2600   3.999   1.507   3.650
    2MOL1    Cl 2601   4.286   1.559   3.637
    2MOL1     H 2602   4.172   1.360   3.585
    2MOL1    Cl 2603   3.300   4.998   3.179
    2MOL1     C 2604   3.242   5.003   3.346
    2MOL1    Cl 2605   3.091   5.095   3.356
    2MOL1    Cl 2606   3.219   4.839   3.409
    2MOL1     H 2607   3.317   5.053   3.407
    2MOL1    Cl 2608   2.040   2.515   3.056
    2MOL1     C 2609   2.212   2.549   3.080
    2MOL1    Cl 2610   2.233   2.689   3.187
    2MOL1    Cl 2611   2.294   2.407   3.147
    2MOL1     H 2612   2.257   2.572   2.983
    2MOL1    Cl 2613   1.527   0.501   5.233
    2MOL1     C 2614   1.440   0.654   5.209
    2MOL1    Cl 2615   1.266   0.625   5.197
    2MOL1    Cl 2616   1.476   0.767   5.340
    2MOL1     H 2617   1.474   0.698   5.115
    2MOL1    Cl 2618   2.332   4.204   4.379
    2MOL1     C 2619   2.252   4.361   4.391
    2MOL1    Cl 2620   2.125   4.358   4.514
    2MOL1    Cl 2621   2.370   4.488   4.427
    2MOL1     H 2622   2.206   4.384   4.294
    2MOL1    Cl 2623   0.778   3.631   4.974
    2MOL1     C 2624   0.792   3.808   4.970
    2MOL1    Cl 2625   0.953   3.856   4.915
    2MOL1    Cl 2626   0.667   3.877   4.865
    2MOL1     H 2627   0.777   3.846   5.071
    2MOL1    Cl 2628   5.110   3.238   1.863
    2MOL1     C 2629   5.112   3.061   1.870
    2MOL1    Cl 2630   5.103   3.006   2.038
    2MOL1    Cl 2631   4.979   2.994   1.775
    2MOL1     H 2632   5.206   3.026   1.827
    2MOL1    Cl 2633   3.237   1.312   3.492
    2MOL1     C 2634   3.302   1.213   3.624
    2MOL1    Cl 2635   3.424   1.100   3.563
    2MOL1    Cl 2636   3.370   1.316   3.751
    2MOL1     H 2637   3.220   1.155   3.667
    2MOL1    Cl 2638   1.398   0.131   1.120
    2MOL1     C 2639   1.526   0.139   1.242
    2MOL1    Cl 2640   1.685   0.114   1.168
    2MOL1    Cl 2641   1.521   0.294   1.328
    2MOL1     H 2642   1.509   0.059   1.315
    2MOL1    Cl 2643   2.824   2.789   3.847
    2MOL1     C 2644   2.761   2.949   3.891
    2MOL1    Cl 2645   2.587   2.942   3.923
    2MOL1    Cl 2646   2.848   3.014   4.031
    2MOL1     H 2647   2.778   3.017   3.806
    2MOL1    Cl 2648   5.075   3.345   1.067
    2MOL1     C 2649   5.098   3.300   1.237
    2MOL1    Cl 2650   5.212   3.165   1.250
    2MOL1    Cl 2651   5.156   3.440   1.330
    2MOL1     H 2652   5.002   3.269   1.278
    2MOL1    Cl 2653   1.926   0.348   0.033
    2MOL1     C 2654   1.877   0.276   0.187
    2MOL1    Cl 2655   2.010   0.183   0.258
    2MOL1    Cl 2656   1.822   0.401   0.300
    2MOL1     H 2657   1.793   0.208   0.168
    2MOL1    Cl 2658   0.977   2.019   2.873
    2MOL1     C 2659   1.050   1.904   2.986
    2MOL1    Cl 2660   1.198   1.971   3.058
    2MOL1    Cl 2661   0.934   1.860   3.113
    2MOL1     H 2662   1.076   1.814   2.931
    2MOL1    Cl 2663   2.570   3.789   2.440
    2MOL1     C 2664   2.710   3.895   2.461
    2MOL1    Cl 2665   2.685   4.005   2.598
    2MOL1    Cl 2666   2.858   3.800   2.484
    2MOL1     H 2667   2.722   3.955   2.370
    2MOL1    Cl 2668   1.669   0.641   2.941
    2MOL1     C 2669   1.502   0.603   2.894
    2MOL1    Cl 2670   1.490   0.434   2.840
    2MOL1    Cl 2671   1.391   0.632   3.030
    2MOL1     H 2672   1.474   0.668   2.812
    2MOL1    Cl 2673   5.174   4.812   2.867
    2MOL1     C 2674   5.174   4.988   2.851
    2MOL1    Cl 2675   5.340   5.051   2.854
    2MOL1    Cl 2676   5.092   5.037   2.702
    2MOL1     H 2677   5.120   5.030   2.936
    2MOL1    Cl 2678   2.795   4.014   3.320
    2MOL1     C 2679   2.649   4.006   3.219
    2MOL1    Cl 2680   2.636   3.848   3.141
    2MOL1    Cl 2681   2.505   4.040   3.316
    2MOL1     H 2682   2.657   4.082   3.141
    2MOL1    Cl 2683   5.205   5.167   0.122
    2MOL1     C 2684   5.077   5.068   0.193
    2MOL1    Cl 2685   5.108   4.896   0.163
    2MOL1    Cl 2686   5.063   5.100   0.366
    2MOL1     H 2687   4.983   5.095   0.145
    2MOL1    Cl 2688   1.682   4.001   5.156
    2MOL1     C 2689   1.522   4.073   5.184
    2MOL1    Cl 2690   1.396   3.949   5.178
    2MOL1    Cl 2691   1.519   4.158   5.340
    2MOL1     H 2692   1.503   4.146   5.105
    2MOL1    Cl 2693   0.340   1.768   3.397
    2MOL1     C 2694   0.380   1.928   3.462
    2MOL1    Cl 2695   0.532   1.988   3.392
    2MOL1    Cl 2696   0.248   2.042   3.433
    2MOL1     H 2697   0.394   1.918   3.570
    2MOL1    Cl 2698   4.677   0.397   4.728
    2MOL1     C 2699   4.615   0.476   4.874
    2MOL1    Cl 2700   4.703   0.420   5.017
    2MOL1    Cl 2701   4.625   0.652   4.860
    2MOL1     H 2702   4.509   0.448   4.886
    2MOL1    Cl 2703   4.228   2.569   2.476
    2MOL1     C 2704   4.303   2.421   2.539
    2MOL1    Cl 2705   4.421   2.357   2.424
    2MOL1    Cl 2706   4.380   2.453   2.696
    2MOL1     H 2707   4.225   2.347   2.554
    2MOL1    Cl 2708   3.483   4.637   1.523
    2MOL1     C 2709   3.512   4.730   1.671
    2MOL1    Cl 2710   3.361   4.757   1.759
    2MOL1    Cl 2711   3.631   4.648   1.774
    2MOL1     H 2712   3.553   4.828   1.643
    2MOL1    Cl 2713   5.258   5.209   0.548
    2MOL1     C 2714   5.197   5.220   0.714
    2MOL1    Cl 2715   5.329   5.262   0.826
    2MOL1    Cl 2716   5.067   5.340   0.724
    2MOL1     H 2717   5.157   5.123   0.742
    2MOL1    Cl 2718   4.134   5.134   0.271
    2MOL1     C 2719   3.960   5.168   0.272
    2MOL1    Cl 2720   3.920   5.291   0.150
    2MOL1    Cl 2721   3.867   5.019   0.242
    2MOL1     H 2722   3.932   5.206   0.370
    2MOL1    Cl 2723   0.737   5.115   2.423
    2MOL1     C 2724   0.570   5.147   2.373
    2MOL1    Cl 2725   0.503   5.008   2.286
    2MOL1    Cl 2726   0.469   5.187   2.513
    2MOL1     H 2727   0.570   5.233   2.305
    2MOL1    Cl 2728   3.050   5.126   4.437
    2MOL1     C 2729   2.881   5.164   4.400
    2MOL1    Cl 2730   2.773   5.092   4.521
    2MOL1    Cl 2731   2.857   5.340   4.392
    2MOL1     H 2732   2.857   5.121   4.303
    2MOL1    Cl 2733   4.287   4.160   1.936
    2MOL1     C 2734   4.447   4.187   1.866
    2MOL1    Cl 2735   4.465   4.097   1.715
    2MOL1    Cl 2736   4.474   4.360   1.839
    2MOL1     H 2737   4.522   4.151   1.937
    2MOL1    Cl 2738   3.075   3.686   4.871
    2MOL1     C 2739   3.252   3.676   4.866
    2MOL1    Cl 2740   3.304   3.523   4.794
    2MOL1    Cl 2741   3.320   3.813   4.778
    2MOL1     H 2742   3.289   3.679   4.969
    2MOL1    Cl 2743   2.599   0.447   4.312
    2MOL1     C 2744   2.743   0.541   4.354
    2MOL1    Cl 2745   2.703   0.666   4.473
    2MOL1    Cl 2746   2.871   0.435   4.414
    2MOL1     H 2747   2.779   0.591   4.263
    2MOL1    Cl 2748   3.457   3.479   1.770
    2MOL1     C 2749   3.352   3.342   1.810
    2MOL1    Cl 2750   3.410   3.261   1.957
    2MOL1    Cl 2751   3.184   3.396   1.831
    2MOL1     H 2752   3.356   3.271   1.728
    2MOL1    Cl 2753   0.267   3.055   3.601
    2MOL1     C 2754   0.126   2.999   3.691
    2MOL1    Cl 2755   0.051   3.132   3.781
    2MOL1    Cl 2756   0.008   2.925   3.581
    2MOL1     H 2757   0.158   2.923   3.762
    2MOL1    Cl 2758   1.636   3.767   3.051
    2MOL1     C 2759   1.489   3.850   3.103
    2MOL1    Cl 2760   1.436   3.788   3.261
    2MOL1    Cl 2761   1.514   4.025   3.110
    2MOL1     H 2762   1.410   3.829   3.030
    2MOL1    Cl 2763   2.771   4.390   1.765
    2MOL1     C 2764   2.810   4.217   1.757
    2MOL1    Cl 2765   2.891   4.178   1.604
    2MOL1    Cl 2766   2.912   4.170   1.895
    2MOL1     H 2767   2.717   4.160   1.762
    2MOL1    Cl 2768   5.232   1.778   3.062
    2MOL1     C 2769   5.151   1.662   2.955
    2MOL1    Cl 2770   5.042   1.557   3.047
    2MOL1    Cl 2771   5.062   1.746   2.827
    2MOL1     H 2772   5.228   1.599   2.908
    2MOL1    Cl 2773   4.537   3.405   2.958
    2MOL1     C 2774   4.363   3.437   2.965
    2MOL1    Cl 2775   4.293   3.369   3.112
    2MOL1    Cl 2776   4.332   3.612   2.955
    2MOL1     H 2777   4.316   3.390   2.878
    2MOL1    Cl 2778   2.710   5.076   2.712
    2MOL1     C 2779   2.733   4.917   2.640
    2MOL1    Cl 2780   2.762   4.931   2.465
    2MOL1    Cl 2781   2.867   4.831   2.718
    2MOL1     H 2782   2.642   4.858   2.654
    2MOL1    Cl 2783   3.116   3.095   2.360
    2MOL1     C 2784   3.064   3.257   2.409
    2MOL1    Cl 2785   2.907   3.251   2.490
    2MOL1    Cl 2786   3.185   3.332   2.514
    2MOL1     H 2787   3.054   3.319   2.319
    2MOL1    Cl 2788   2.063   3.425   4.180
    2MOL1     C 2789   1.896   3.478   4.156
    2MOL1    Cl 2790   1.783   3.350   4.202
    2MOL1    Cl 2791   1.863   3.626   4.247
    2MOL1     H 2792   1.882   3.500   4.049
    2MOL1    Cl 2793   4.930   1.924   0.457
    2MOL1     C 2794   4.873   1.853   0.609
    2MOL1    Cl 2795   4.765   1.966   0.693
    2MOL1    Cl 2796   4.792   1.699   0.580
    2MOL1     H 2797   4.960   1.835   0.673
    2MOL1    Cl 2798   2.069   3.206   2.208
    2MOL1     C 2799   2.045   3.098   2.070
    2MOL1    Cl 2800   2.131   3.159   1.928
    2MOL1    Cl 2801   2.098   2.934   2.110
    2MOL1     H 2802   1.938   3.095   2.047
    2MOL1    Cl 2803   2.019   0.787   4.942
    2MOL1     C 2804   1.989   0.959   4.972
    2MOL1    Cl 2805   2.091   1.060   4.868
    2MOL1    Cl 2806   1.817   0.997   4.947
    2MOL1     H 2807   2.014   0.981   5.076
    2MOL1    Cl 2808   0.285   5.177   4.128
    2MOL1     C 2809   0.285   5.100   3.969
    2MOL1    Cl 2810   0.434   5.139   3.881
    2MOL1    Cl 2811   0.267   4.924   3.984
    2MOL1     H 2812   0.200   5.138   3.912
    2MOL1    Cl 2813   1.578   4.633   1.775
    2MOL1     C 2814   1.660   4.485   1.722
    2MOL1    Cl 2815   1.577   4.415   1.581
    2MOL1    Cl 2816   1.830   4.519   1.684
    2MOL1     H 2817   1.656   4.413   1.803
    2MOL1    Cl 2818   4.913   0.870   4.229
    2MOL1     C 2819   4.950   1.034   4.174
    2MOL1    Cl 2820   4.858   1.073   4.028
    2MOL1    Cl 2821   4.917   1.152   4.302
    2MOL1     H 2822   5.056   1.039   4.150
    2MOL1    Cl 2823   2.508   3.308   0.190
    2MOL1     C 2824   2.365   3.290   0.293
    2MOL1    Cl 2825   2.217   3.291   0.196
    2MOL1    Cl 2826   2.375   3.140   0.388
    2MOL1     H 2827   2.361   3.374   0.362
    2MOL1    Cl 2828   2.546   4.300   1.380
    2MOL1     C 2829   2.711   4.362   1.366
    2MOL1    Cl 2830   2.718   4.497   1.252
    2MOL1    Cl 2831   2.773   4.411   1.524
    2MOL1     H 2832   2.775   4.281   1.328
    2MOL1    Cl 2833   1.731   0.877   4.047
    2MOL1     C 2834   1.582   0.922   3.962
    2MOL1    Cl 2835   1.491   0.778   3.914
    2MOL1    Cl 2836   1.483   1.028   4.063
    2MOL1     H 2837   1.610   0.977   3.872
    2MOL1    Cl 2838   1.416   1.101   2.977
    2MOL1     C 2839   1.561   1.139   2.882
    2MOL1    Cl 2840   1.522   1.256   2.755
    2MOL1    Cl 2841   1.690   1.202   2.986
    2MOL1     H 2842   1.596   1.047   2.835
    2MOL1    Cl 2843   2.148   3.127   3.512
    2MOL1     C 2844   1.991   3.204   3.484
    2MOL1    Cl 2845   2.007   3.336   3.367
    2MOL1    Cl 2846   1.873   3.085   3.428
    2MOL1     H 2847   1.956   3.245   3.579
    2MOL1    Cl 2848   3.815   4.325   2.891
    2MOL1     C 2849   3.840   4.266   3.057
    2MOL1    Cl 2850   3.961   4.365   3.140
    2MOL1    Cl 2851   3.687   4.266   3.146
    2MOL1     H 2852   3.877   4.163   3.052
    2MOL1    Cl 2853   2.516   5.146   0.582
    2MOL1     C 2854   2.651   5.112   0.473
    2MOL1    Cl 2855   2.757   4.988   0.542
    2MOL1    Cl 2856   2.591   5.061   0.314
    2MOL1     H 2857   2.709   5.203   0.460
    2MOL1    Cl 2858   1.683   3.758   3.913
    2MOL1     C 2859   1.655   3.819   4.077
    2MOL1    Cl 2860   1.555   3.965   4.073
    2MOL1    Cl 2861   1.579   3.694   4.177
    2MOL1     H 2862   1.751   3.844   4.121
    2MOL1    Cl 2863   2.502   2.222   1.240
    2MOL1     C 2864   2.362   2.247   1.346
    2MOL1    Cl 2865   2.320   2.418   1.355
    2MOL1    Cl 2866   2.224   2.151   1.288
    2MOL1     H 2867   2.388   2.212   1.446
    2MOL1    Cl 2868   2.143   1.120   2.105
    2MOL1     C 2869   2.058   1.274   2.127
    2MOL1    Cl 2870   1.938   1.262   2.256
    2MOL1    Cl 2871   2.173   1.405   2.161
    2MOL1     H 2872   2.006   1.298   2.034
    2MOL1    Cl 2873   2.284   2.921   0.217
    2MOL1     C 2874   2.250   2.888   0.388
    2MOL1    Cl 2875   2.102   2.970   0.439
    2MOL1    Cl 2876   2.238   2.713   0.416
    2MOL1     H 2877   2.333   2.927   0.447
    2MOL1    Cl 2878   3.503   2.442   4.527
    2MOL1     C 2879   3.560   2.514   4.376
    2MOL1    Cl 2880   3.695   2.419   4.310
    2MOL1    Cl 2881   3.429   2.525   4.258
    2MOL1     H 2882   3.596   2.614   4.398
    2MOL1    Cl 2883   0.903   0.375   1.912
    2MOL1     C 2884   0.738   0.399   1.971
    2MOL1    Cl 2885   0.683   0.256   2.061
    2MOL1    Cl 2886   0.729   0.544   2.073
    2MOL1     H 2887   0.672   0.413   1.885
    2MOL1    Cl 2888   4.147   4.972   0.728
    2MOL1     C 2889   4.293   4.905   0.802
    2MOL1    Cl 2890   4.257   4.833   0.959
    2MOL1    Cl 2891   4.367   4.785   0.694
    2MOL1     H 2892   4.365   4.986   0.816
    2MOL1    Cl 2893   0.433   4.265   1.085
    2MOL1     C 2894   0.268   4.314   1.127
    2MOL1    Cl 2895   0.261   4.489   1.155
    2MOL1    Cl 2896   0.154   4.266   1.000
    2MOL1     H 2897   0.240   4.264   1.220
    2MOL1    Cl 2898   2.331   2.360   3.869
    2MOL1     C 2899   2.187   2.333   3.769
    2MOL1    Cl 2900   2.109   2.487   3.730
    2MOL1    Cl 2901   2.230   2.245   3.621
    2MOL1     H 2902   2.116   2.272   3.826
    2MOL1    Cl 2903   0.586   4.265   1.257
    2MOL1     C 2904   0.580   4.088   1.248
    2MOL1    Cl 2905   0.735   4.018   1.297
    2MOL1    Cl 2906   0.449   4.025   1.348
    2MOL1     H 2907   0.561   4.060   1.144
    2MOL1    Cl 2908   1.558   4.001   0.355
    2MOL1     C 2909   1.413   3.899   0.359
    2MOL1    Cl 2910   1.432   3.769   0.478
    2MOL1    Cl 2911   1.269   3.996   0.395
    2MOL1     H 2912   1.400   3.854   0.260
    2MOL1    Cl 2913   3.103   2.135   2.408
    2MOL1     C 2914   3.197   2.109   2.556
    2MOL1    Cl 2915   3.355   2.188   2.544
    2MOL1    Cl 2916   3.108   2.168   2.698
    2MOL1     H 2917   3.213   2.001   2.568
    2MOL1    Cl 2918   1.716   2.736   2.450
    2MOL1     C 2919   1.889   2.739   2.488
    2MOL1    Cl 2920   1.985   2.719   2.341
    2MOL1    Cl 2921   1.932   2.890   2.570
    2MOL1     H 2922   1.911   2.656   2.556
    2MOL1    Cl 2923   3.411   5.309   2.096
    2MOL1     C 2924   3.413   5.132   2.104
    2MOL1    Cl 2925   3.317   5.075   2.241
    2MOL1    Cl 2926   3.352   5.063   1.952
    2MOL1     H 2927   3.516   5.099   2.117
    2MOL1    Cl 2928   3.741  -0.000   1.480
    2MOL1     C 2929   3.716   0.092   1.629
    2MOL1    Cl 2930   3.545   0.137   1.646
    2MOL1    Cl 2931   3.771  -0.000   1.769
    2MOL1     H 2932   3.775   0.184   1.623
    2MOL1    Cl 2933   0.981   2.366   4.429
    2MOL1     C 2934   0.937   2.535   4.402
    2MOL1    Cl 2935   1.053   2.613   4.293
    2MOL1    Cl 2936   0.772   2.548   4.337
    2MOL1     H 2937   0.940   2.587   4.498
    2MOL1    Cl 2938   4.490   3.851   4.865
    2MOL1     C 2939   4.637   3.899   4.950
    2MOL1    Cl 2940   4.781   3.844   4.863
    2MOL1    Cl 2941   4.642   4.075   4.973
    2MOL1     H 2942   4.637   3.852   5.049
    2MOL1    Cl 2943   4.825   1.770   4.229
    2MOL1     C 2944   4.936   1.892   4.166
    2MOL1    Cl 2945   4.994   1.846   4.005
    2MOL1    Cl 2946   4.858   2.051   4.161
    2MOL1     H 2947   5.022   1.898   4.233
    2MOL1    Cl 2948   4.053   2.500   2.832
    2MOL1     C 2949   4.081   2.337   2.896
    2MOL1    Cl 2950   4.015   2.215   2.786
    2MOL1    Cl 2951   4.254   2.309   2.923
    2MOL1     H 2952   4.030   2.328   2.992
    2MOL1    Cl 2953   1.490   2.842   5.011
    2MOL1     C 2954   1.470   2.843   5.187
    2MOL1    Cl 2955   1.299   2.856   5.231
    2MOL1    Cl 2956   1.543   2.699   5.259
    2MOL1     H 2957   1.522   2.931   5.227
    2MOL1    Cl 2958   3.665   1.995   3.157
    2MOL1     C 2959   3.672   2.169   3.125
    2MOL1    Cl 2960   3.654   2.261   3.275
    2MOL1    Cl 2961   3.824   2.211   3.044
    2MOL1     H 2962   3.589   2.195   3.059
    2MOL1    Cl 2963   2.873   4.810   0.977
    2MOL1     C 2964   2.740   4.875   1.075
    2MOL1    Cl 2965   2.609   4.934   0.972
    2MOL1    Cl 2966   2.681   4.752   1.188
    2MOL1     H 2967   2.779   4.959   1.133
    2MOL1    Cl 2968   1.550   3.750   0.966
    2MOL1     C 2969   1.668   3.854   0.885
    2MOL1    Cl 2970   1.736   3.774   0.743
    2MOL1    Cl 2971   1.595   4.009   0.841
    2MOL1     H 2972   1.750   3.874   0.956
    2MOL1    Cl 2973   5.049   3.282   4.982
    2MOL1     C 2974   5.071   3.227   5.149
    2MOL1    Cl 2975   4.921   3.158   5.212
    2MOL1    Cl 2976   5.202   3.108   5.157
    2MOL1     H 2977   5.099   3.313   5.210
    2MOL1    Cl 2978   2.987   4.868   3.112
    2MOL1     C 2979   2.932   5.035   3.090
    2MOL1    Cl 2980   2.943   5.082   2.919
    2MOL1    Cl 2981   2.766   5.055   3.149
    2MOL1     H 2982   2.997   5.101   3.148
    2MOL1    Cl 2983   4.899   4.007   3.667
    2MOL1     C 2984   4.806   3.858   3.656
    2MOL1    Cl 2985   4.654   3.885   3.568
    2MOL1    Cl 2986   4.901   3.731   3.576
    2MOL1     H 2987   4.781   3.824   3.757
    2MOL1    Cl 2988   1.747   0.891   3.016
    2MOL1     C 2989   1.700   0.931   3.182
    2MOL1    Cl 2990   1.637   1.096   3.192
    2MOL1    Cl 2991   1.580   0.815   3.242
    2MOL1     H 2992   1.789   0.924   3.246
    2MOL1    Cl 2993   3.438   2.652   4.638
    2MOL1     C 2994   3.272   2.702   4.601
    2MOL1    Cl 2995   3.271   2.815   4.464
    2MOL1    Cl 2996   3.171   2.561   4.565
    2MOL1     H 2997   3.231   2.753   4.688
    2MOL1    Cl 2998   2.364   4.177   0.477
    2MOL1     C 2999   2.416   4.319   0.569
    2MOL1    Cl 3000   2.305   4.350   0.704
    2MOL1    Cl 3001   2.581   4.299   0.628
    2MOL1     H 3002   2.414   4.406   0.502
    2MOL1    Cl 3003   3.326   1.489   0.372
    2MOL1     C 3004   3.235   1.614   0.284
    2MOL1    Cl 3005   3.210   1.564   0.116
    2MOL1    Cl 3006   3.081   1.646   0.364
    2MOL1     H 3007   3.294   1.706   0.285
    2MOL1    Cl 3008   2.421   1.916   4.200
    2MOL1     C 3009   2.361   1.786   4.096
    2MOL1    Cl 3010   2.221   1.706   4.170
    2MOL1    Cl 3011   2.318   1.850   3.936
    2MOL1     H 3012   2.440   1.712   4.083
    2MOL1    Cl 3013   1.163   0.906   2.745
    2MOL1     C 3014   1.313   0.994   2.714
    2MOL1    Cl 3015   1.380   0.950   2.556
    2MOL1    Cl 3016   1.285   1.169   2.723
    2MOL1     H 3017   1.386   0.968   2.791
    2MOL1    Cl 3018   2.876   4.514   5.183
    2MOL1     C 3019   2.836   4.343   5.160
    2MOL1    Cl 3020   2.673   4.325   5.094
    2MOL1    Cl 3021   2.955   4.265   5.054
    2MOL1     H 3022   2.839   4.293   5.257
    2MOL1    Cl 3023   2.225   4.711   1.598
    2MOL1     C 3024   2.260   4.541   1.562
    2MOL1    Cl 3025   2.145   4.477   1.444
    2MOL1    Cl 3026   2.427   4.524   1.502
    2MOL1     H 3027   2.251   4.484   1.654
    2MOL1    Cl 3028   1.113   2.634   5.199
    2MOL1     C 3029   1.030   2.489   5.254
    2MOL1    Cl 3030   0.925   2.424   5.127
    2MOL1    Cl 3031   1.147   2.366   5.307
    2MOL1     H 3032   0.967   2.515   5.340
    2MOL1    Cl 3033   1.760   1.112   1.700
    2MOL1     C 3034   1.695   1.192   1.844
    2MOL1    Cl 3035   1.518   1.198   1.838
    2MOL1    Cl 3036   1.750   1.110   1.991
    2MOL1     H 3037   1.733   1.295   1.846
    2MOL1    Cl 3038   0.405   3.799   3.642
    2MOL1     C 3039   0.483   3.644   3.677
    2MOL1    Cl 3040   0.500   3.547   3.530
    2MOL1    Cl 3041   0.641   3.669   3.754
    2MOL1     H 3042   0.419   3.589   3.747
    2MOL1    Cl 3043   0.311   0.103   3.933
    2MOL1     C 3044   0.275   0.184   3.780
    2MOL1    Cl 3045   0.423   0.212   3.687
    2MOL1    Cl 3046   0.159   0.090   3.685
    2MOL1     H 3047   0.230   0.281   3.802
    2MOL1    Cl 3048   4.153   5.126   3.409
    2MOL1     C 3049   4.276   5.209   3.311
    2MOL1    Cl 3050   4.396   5.094   3.251
    2MOL1    Cl 3051   4.199   5.296   3.177
    2MOL1     H 3052   4.326   5.282   3.375
    2MOL1    Cl 3053   3.166   4.048   1.679
    2MOL1     C 3054   3.285   4.026   1.550
    2MOL1    Cl 3055   3.437   3.964   1.615
    2MOL1    Cl 3056   3.221   3.917   1.425
    2MOL1     H 3057   3.304   4.123   1.504
    2MOL1    Cl 3058   4.619   4.135   3.852
    2MOL1     C 3059   4.655   4.307   3.873
    2MOL1    Cl 3060   4.597   4.364   4.030
    2MOL1    Cl 3061   4.829   4.337   3.855
    2MOL1     H 3062   4.603   4.362   3.794
    2MOL1    Cl 3063   0.728   3.716   0.517
    2MOL1     C 3064   0.829   3.774   0.384
    2MOL1    Cl 3065   0.748   3.906   0.297
    2MOL1    Cl 3066   0.987   3.827   0.444
    2MOL1     H 3067   0.845   3.692   0.314
    2MOL1    Cl 3068   5.142   2.206   5.008
    2MOL1     C 3069   5.099   2.345   5.108
    2MOL1    Cl 3070   5.231   2.387   5.218
    2MOL1    Cl 3071   5.056   2.484   5.006
    2MOL1     H 3072   5.011   2.319   5.168
    2MOL1    Cl 3073   0.990   5.269   2.469
    2MOL1     C 3074   1.080   5.132   2.535
    2MOL1    Cl 3075   1.164   5.044   2.407
    2MOL1    Cl 3076   1.195   5.186   2.659
    2MOL1     H 3077   1.008   5.064   2.583
    2MOL1    Cl 3078   1.129   1.370   4.187
    2MOL1     C 3079   0.994   1.259   4.215
    2MOL1    Cl 3080   0.847   1.317   4.135
    2MOL1    Cl 3081   1.035   1.096   4.158
    2MOL1     H 3082   0.975   1.254   4.322
    2MOL1    Cl 3083   4.048   2.614   4.181
    2MOL1     C 3084   3.933   2.749   4.189
    2MOL1    Cl 3085   3.802   2.714   4.302
    2MOL1    Cl 3086   4.017   2.899   4.235
    2MOL1     H 3087   3.890   2.763   4.089
    2MOL1    Cl 3088   2.342   3.417   5.330
    2MOL1     C 3089   2.302   3.527   5.197
    2MOL1    Cl 3090   2.243   3.436   5.056
    2MOL1    Cl 3091   2.181   3.646   5.249
    2MOL1     H 3092   2.392   3.581   5.167
    2MOL1    Cl 3093   1.198   0.497   1.002
    2MOL1     C 3094   1.314   0.628   0.970
    2MOL1    Cl 3095   1.243   0.785   1.010
    2MOL1    Cl 3096   1.463   0.602   1.061
    2MOL1     H 3097   1.338   0.627   0.863
    2MOL1    Cl 3098   0.529   3.723   0.640
    2MOL1     C 3099   0.395   3.660   0.542
    2MOL1    Cl 3100   0.409   3.484   0.525
    2MOL1    Cl 3101   0.239   3.703   0.614
    2MOL1     H 3102   0.401   3.705   0.443
    2MOL1    Cl 3103   3.363   1.785   3.531
    2MOL1     C 3104   3.207   1.744   3.460
    2MOL1    Cl 3105   3.195   1.570   3.429
    2MOL1    Cl 3106   3.074   1.798   3.565
    2MOL1     H 3107   3.198   1.797   3.364
    2MOL1    Cl 3108   2.941   4.813   0.414
    2MOL1     C 3109   2.787   4.794   0.329
    2MOL1    Cl 3110   2.814   4.764   0.157
    2MOL1    Cl 3111   2.692   4.662   0.400
    2MOL1     H 3112   2.730   4.886   0.340
    2MOL1    Cl 3113   3.713   3.373   3.349
    2MOL1     C 3114   3.746   3.526   3.431
    2MOL1    Cl 3115   3.842   3.633   3.327
    2MOL1    Cl 3116   3.595   3.605   3.478
    2MOL1     H 3117   3.804   3.505   3.521
    2MOL1    Cl 3118   2.853   3.787   0.872
    2MOL1     C 3119   2.865   3.953   0.933
    2MOL1    Cl 3120   2.714   4.000   1.014
    2MOL1    Cl 3121   3.002   3.969   1.044
    2MOL1     H 3122   2.881   4.020   0.849
    2MOL1    Cl 3123   4.454   4.465   1.324
    2MOL1     C 3124   4.475   4.341   1.199
    2MOL1    Cl 3125   4.647   4.321   1.161
    2MOL1    Cl 3126   4.405   4.188   1.252
    2MOL1     H 3127   4.423   4.374   1.109
    2MOL1    Cl 3128   4.441   3.152   0.204
    2MOL1     C 3129   4.587   3.055   0.230
    2MOL1    Cl 3130   4.565   2.891   0.165
    2MOL1    Cl 3131   4.727   3.133   0.155
    2MOL1     H 3132   4.605   3.047   0.337
    2MOL1    Cl 3133   2.952   1.254   2.224
    2MOL1     C 3134   2.943   1.094   2.299
    2MOL1    Cl 3135   2.829   0.990   2.211
    2MOL1    Cl 3136   3.103   1.018   2.305
    2MOL1     H 3137   2.906   1.105   2.401
    2MOL1    Cl 3138   3.411   4.455   2.945
    2MOL1     C 3139   3.446   4.622   2.993
    2MOL1    Cl 3140   3.305   4.694   3.073
    2MOL1    Cl 3141   3.588   4.628   3.099
    2MOL1     H 3142   3.468   4.680   2.903
    2MOL1    Cl 3143   3.568   3.487   3.960
    2MOL1     C 3144   3.740   3.499   3.919
    2MOL1    Cl 3145   3.821   3.343   3.942
    2MOL1    Cl 3146   3.760   3.556   3.753
    2MOL1     H 3147   3.787   3.572   3.986
    2MOL1    Cl 3148   4.074   0.200   0.261
    2MOL1     C 3149   4.182   0.332   0.214
    2MOL1    Cl 3150   4.308   0.274   0.104
    2MOL1    Cl 3151   4.090   0.463   0.138
    2MOL1     H 3152   4.230   0.371   0.304
    2MOL1    Cl 3153   3.302   2.988   3.420
    2MOL1     C 3154   3.275   3.159   3.455
    2MOL1    Cl 3155   3.415   3.256   3.405
    2MOL1    Cl 3156   3.127   3.217   3.376
    2MOL1     H 3157   3.262   3.170   3.563
    2MOL1    Cl 3158   0.676   2.628   1.850
    2MOL1     C 3159   0.520   2.710   1.864
    2MOL1    Cl 3160   0.537   2.883   1.831
    2MOL1    Cl 3161   0.402   2.637   1.753
    2MOL1     H 3162   0.483   2.698   1.966
    2MOL1    Cl 3163   5.036   4.276   3.050
    2MOL1     C 3164   5.206   4.308   3.011
    2MOL1    Cl 3165   5.277   4.418   3.130
    2MOL1    Cl 3166   5.297   4.156   3.004
    2MOL1     H 3167   5.210   4.355   2.913
    2MOL1    Cl 3168   2.103   3.427   1.575
    2MOL1     C 3169   2.267   3.487   1.547
    2MOL1    Cl 3170   2.304   3.621   1.658
    2MOL1    Cl 3171   2.386   3.357   1.565
    2MOL1     H 3172   2.273   3.525   1.444
    2MOL1    Cl 3173   5.018   1.467   2.608
    2MOL1     C 3174   5.060   1.410   2.446
    2MOL1    Cl 3175   5.215   1.324   2.448
    2MOL1    Cl 3176   4.932   1.305   2.382
    2MOL1     H 3177   5.069   1.496   2.380
    2MOL1    Cl 3178   4.180   3.112   3.842
    2MOL1     C 3179   4.180   3.124   4.019
    2MOL1    Cl 3180   4.211   2.965   4.092
    2MOL1    Cl 3181   4.300   3.242   4.073
    2MOL1     H 3182   4.081   3.157   4.051
    2MOL1    Cl 3183   1.706   3.564   3.590
    2MOL1     C 3184   1.587   3.541   3.460
    2MOL1    Cl 3185   1.662   3.462   3.320
    2MOL1    Cl 3186   1.449   3.447   3.518
    2MOL1     H 3187   1.551   3.639   3.429
    2MOL1    Cl 3188   2.574   3.151   2.519
    2MOL1     C 3189   2.518   3.266   2.641
    2MOL1    Cl 3190   2.630   3.271   2.778
    2MOL1    Cl 3191   2.499   3.427   2.570
    2MOL1     H 3192   2.420   3.233   2.678
    2MOL1    Cl 3193   1.905   3.023   0.149
    2MOL1     C 3194   1.896   2.850   0.112
    2MOL1    Cl 3195   1.757   2.815   0.009
    2MOL1    Cl 3196   2.046   2.796   0.035
    2MOL1     H 3197   1.885   2.795   0.206
    2MOL1    Cl 3198   4.750   0.938   3.000
    2MOL1     C 3199   4.826   0.824   2.887
    2MOL1    Cl 3200   4.708   0.769   2.767
    2MOL1    Cl 3201   4.966   0.899   2.809
    2MOL1     H 3202   4.860   0.738   2.944
    2MOL1    Cl 3203   4.820   1.954   1.373
    2MOL1     C 3204   4.876   2.064   1.247
    2MOL1    Cl 3205   4.785   2.216   1.252
    2MOL1    Cl 3206   5.050   2.096   1.264
    2MOL1     H 3207   4.860   2.017   1.150
    2MOL1    Cl 3208   3.214   3.832   0.487
    2MOL1     C 3209   3.115   3.969   0.541
    2MOL1    Cl 3210   3.156   4.115   0.450
    2MOL1    Cl 3211   2.943   3.931   0.523
    2MOL1     H 3212   3.135   3.987   0.646
    2MOL1    Cl 3213   2.868   4.076   3.703
    2MOL1     C 3214   2.725   4.175   3.670
    2MOL1    Cl 3215   2.767   4.316   3.572
    2MOL1    Cl 3216   2.600   4.079   3.590
    2MOL1     H 3217   2.685   4.210   3.766
    2MOL1    Cl 3218   2.132   4.673   2.149
    2MOL1     C 3219   2.052   4.519   2.185
    2MOL1    Cl 3220   2.163   4.409   2.268
    2MOL1    Cl 3221   1.906   4.545   2.282
    2MOL1     H 3222   2.023   4.473   2.090
    2MOL1    Cl 3223   1.711   1.684   0.716
    2MOL1     C 3224   1.550   1.756   0.703
    2MOL1    Cl 3225   1.561   1.933   0.710
    2MOL1    Cl 3226   1.471   1.705   0.553
    2MOL1     H 3227   1.490   1.722   0.787
    2MOL1    Cl 3228   0.228   2.762   4.503
    2MOL1     C 3229   0.238   2.822   4.337
    2MOL1    Cl 3230   0.313   2.701   4.231
    2MOL1    Cl 3231   0.078   2.867   4.277
    2MOL1     H 3232   0.301   2.911   4.336
    2MOL1    Cl 3233   0.302   1.606   4.714
    2MOL1     C 3234   0.479   1.610   4.700
    2MOL1    Cl 3235   0.555   1.527   4.837
    2MOL1    Cl 3236   0.530   1.537   4.546
    2MOL1     H 3237   0.511   1.714   4.700
    2MOL1    Cl 3238   4.841   3.000   0.609
    2MOL1     C 3239   4.999   2.963   0.680
    2MOL1    Cl 3240   4.998   2.802   0.755
    2MOL1    Cl 3241   5.126   2.973   0.557
    2MOL1     H 3242   5.020   3.037   0.758
    2MOL1    Cl 3243   2.289   4.383   4.817
    2MOL1     C 3244   2.262   4.217   4.872
    2MOL1    Cl 3245   2.376   4.175   5.001
    2MOL1    Cl 3246   2.095   4.197   4.928
    2MOL1     H 3247   2.279   4.150   4.788
    2MOL1    Cl 3248   3.128   3.468   3.435
    2MOL1     C 3249   3.075   3.471   3.266
    2MOL1    Cl 3250   3.087   3.635   3.200
    2MOL1    Cl 3251   3.171   3.357   3.169
    2MOL1     H 3252   2.971   3.440   3.262
    2MOL1    Cl 3253   2.920   4.499   0.379
    2MOL1     C 3254   3.054   4.402   0.317
    2MOL1    Cl 3255   2.994   4.268   0.218
    2MOL1    Cl 3256   3.167   4.503   0.224
    2MOL1     H 3257   3.108   4.360   0.403
    2MOL1    Cl 3258   3.412   4.583   0.384
    2MOL1     C 3259   3.468   4.438   0.470
    2MOL1    Cl 3260   3.566   4.484   0.610
    2MOL1    Cl 3261   3.330   4.339   0.520
    2MOL1     H 3262   3.530   4.380   0.402
    2MOL1    Cl 3263   2.283   3.912   1.059
    2MOL1     C 3264   2.392   3.774   1.038
    2MOL1    Cl 3265   2.471   3.733   1.191
    2MOL1    Cl 3266   2.304   3.634   0.974
    2MOL1     H 3267   2.469   3.802   0.966
    2MOL1    Cl 3268   3.995   4.072   3.727
    2MOL1     C 3269   4.087   3.922   3.743
    2MOL1    Cl 3270   4.248   3.954   3.809
    2MOL1    Cl 3271   4.000   3.806   3.845
    2MOL1     H 3272   4.098   3.878   3.644
    2MOL1    Cl 3273   5.339   4.635   4.207
    2MOL1     C 3274   5.220   4.765   4.193
    2MOL1    Cl 3275   5.095   4.749   4.318
    2MOL1    Cl 3276   5.298   4.923   4.203
    2MOL1     H 3277   5.171   4.756   4.095
    2MOL1    Cl 3278   4.302   0.279   3.708
    2MOL1     C 3279   4.165   0.307   3.600
    2MOL1    Cl 3280   4.012   0.273   3.683
    2MOL1    Cl 3281   4.167   0.473   3.538
    2MOL1     H 3282   4.174   0.238   3.515
    2MOL1    Cl 3283   2.335   2.547   3.420
    2MOL1     C 3284   2.443   2.684   3.447
    2MOL1    Cl 3285   2.369   2.803   3.555
    2MOL1    Cl 3286   2.599   2.629   3.512
    2MOL1     H 3287   2.462   2.733   3.351
    2MOL1    Cl 3288   4.834   4.629   2.556
    2MOL1     C 3289   4.949   4.758   2.592
    2MOL1    Cl 3290   4.963   4.783   2.767
    2MOL1    Cl 3291   5.108   4.722   2.522
    2MOL1     H 3292   4.912   4.851   2.547
    2MOL1    Cl 3293   2.530   0.779   2.034
    2MOL1     C 3294   2.367   0.842   2.061
    2MOL1    Cl 3295   2.276   0.736   2.170
    2MOL1    Cl 3296   2.374   1.007   2.125
    2MOL1     H 3297   2.315   0.845   1.965
    2MOL1    Cl 3298   0.421   2.397   3.007
    2MOL1     C 3299   0.247   2.376   3.036
    2MOL1    Cl 3300   0.168   2.308   2.893
    2MOL1    Cl 3301   0.220   2.273   3.178
    2MOL1     H 3302   0.204   2.474   3.057
    2MOL1    Cl 3303   1.155   4.200   1.155
    2MOL1     C 3304   1.082   4.049   1.098
    2MOL1    Cl 3305   1.208   3.933   1.050
    2MOL1    Cl 3306   0.977   3.979   1.222
    2MOL1     H 3307   1.021   4.071   1.010
    2MOL1    Cl 3308   2.564   2.965   0.721
    2MOL1     C 3309   2.674   3.093   0.667
    2MOL1    Cl 3310   2.585   3.218   0.579
    2MOL1    Cl 3311   2.761   3.163   0.805
    2MOL1     H 3312   2.747   3.048   0.599
    2MOL1    Cl 3313   0.711   0.713   1.056
    2MOL1     C 3314   0.700   0.649   0.891
    2MOL1    Cl 3315   0.618   0.492   0.890
    2MOL1    Cl 3316   0.616   0.764   0.786
    2MOL1     H 3317   0.801   0.635   0.853
    2MOL1    Cl 3318   5.210   2.112   3.299
    2MOL1     C 3319   5.044   2.154   3.251
    2MOL1    Cl 3320   5.045   2.284   3.131
    2MOL1    Cl 3321   4.960   2.011   3.189
    2MOL1     H 3322   4.991   2.189   3.340
    2MOL1    Cl 3323   2.582   1.165   3.455
    2MOL1     C 3324   2.526   1.001   3.494
    2MOL1    Cl 3325   2.649   0.915   3.589
    2MOL1    Cl 3326   2.372   1.007   3.581
    2MOL1     H 3327   2.511   0.947   3.401
    2MOL1    Cl 3328   5.165   1.039   2.369
    2MOL1     C 3329   5.107   1.026   2.202
    2MOL1    Cl 3330   5.108   0.857   2.149
    2MOL1    Cl 3331   4.944   1.095   2.187
    2MOL1     H 3332   5.174   1.083   2.137
    2MOL1    Cl 3333   4.092   0.462   4.602
    2MOL1     C 3334   3.929   0.522   4.564
    2MOL1    Cl 3335   3.826   0.518   4.708
    2MOL1    Cl 3336   3.937   0.686   4.497
    2MOL1     H 3337   3.885   0.456   4.489
    2MOL1    Cl 3338   5.145   1.046   5.058
    2MOL1     C 3339   5.108   0.873   5.063
    2MOL1    Cl 3340   5.235   0.785   5.148
    2MOL1    Cl 3341   4.951   0.847   5.141
    2MOL1     H 3342   5.102   0.836   4.961
    2MOL1    Cl 3343   2.893   0.471   1.276
    2MOL1     C 3344   2.919   0.507   1.447
    2MOL1    Cl 3345   2.787   0.440   1.545
    2MOL1    Cl 3346   3.075   0.444   1.501
    2MOL1     H 3347   2.919   0.616   1.460
    2MOL1    Cl 3348   2.080   1.492   3.734
    2MOL1     C 3349   2.115   1.350   3.834
    2MOL1    Cl 3350   1.973   1.245   3.846
    2MOL1    Cl 3351   2.254   1.261   3.769
    2MOL1     H 3352   2.141   1.385   3.934
    2MOL1    Cl 3353   3.404   1.395   2.239
    2MOL1     C 3354   3.523   1.374   2.109
    2MOL1    Cl 3355   3.655   1.491   2.126
    2MOL1    Cl 3356   3.586   1.208   2.110
    2MOL1     H 3357   3.473   1.391   2.014
    2MOL1    Cl 3358   3.881   2.297   4.283
    2MOL1     C 3359   3.876   2.137   4.358
    2MOL1    Cl 3360   3.921   2.146   4.529
    2MOL1    Cl 3361   3.714   2.065   4.340
    2MOL1     H 3362   3.947   2.072   4.306
    2MOL1    Cl 3363   1.512   2.150   4.292
    2MOL1     C 3364   1.424   2.303   4.290
    2MOL1    Cl 3365   1.459   2.393   4.141
    2MOL1    Cl 3366   1.249   2.274   4.305
    2MOL1     H 3367   1.456   2.363   4.375
  5.5400000  5.5400000  5.5400000
