[ defaults ]
; nbfunc	comb-rule	gen-pairs	fudgeLJ	fudgeQQ
     1	     2	yes   	0.500000	0.833333

[ atomtypes ]
;type, bondingtype, atomic_number, mass, charge, ptype, sigma, epsilon
mop_tetramer.pdb_0	     6	12.01078	0.0000000000000000	A    	0.3480646886945065	0.3635030558377792
mop_tetramer.pdb_1	     8	15.99943	0.0000000000000000	A    	0.3039812205065809	0.8795023257036865
mop_tetramer.pdb_2	     6	12.01078	0.0000000000000000	A    	0.3480646886945065	0.3635030558377792
mop_tetramer.pdb_3	     6	12.01078	0.0000000000000000	A    	0.3480646886945065	0.3635030558377792
mop_tetramer.pdb_4	     6	12.01078	0.0000000000000000	A    	0.3480646886945065	0.3635030558377792
mop_tetramer.pdb_5	     6	12.01078	0.0000000000000000	A    	0.3480646886945065	0.3635030558377792
mop_tetramer.pdb_6	     6	12.01078	0.0000000000000000	A    	0.3480646886945065	0.3635030558377792
mop_tetramer.pdb_7	     6	12.01078	0.0000000000000000	A    	0.3480646886945065	0.3635030558377792
mop_tetramer.pdb_8	     6	12.01078	0.0000000000000000	A    	0.3480646886945065	0.3635030558377792
mop_tetramer.pdb_9	     6	12.01078	0.0000000000000000	A    	0.3480646886945065	0.3635030558377792
mop_tetramer.pdb_10	     8	15.99943	0.0000000000000000	A    	0.3025106490435313	0.7048581468486769
mop_tetramer.pdb_11	     6	12.01078	0.0000000000000000	A    	0.337953176162662	0.4553891161106184
mop_tetramer.pdb_12	     6	12.01078	0.0000000000000000	A    	0.3480646886945065	0.3635030558377792
mop_tetramer.pdb_13	     6	12.01078	0.0000000000000000	A    	0.3480646886945065	0.3635030558377792
mop_tetramer.pdb_14	     6	12.01078	0.0000000000000000	A    	0.3480646886945065	0.3635030558377792
mop_tetramer.pdb_15	     6	12.01078	0.0000000000000000	A    	0.3480646886945065	0.3635030558377792
mop_tetramer.pdb_16	     6	12.01078	0.0000000000000000	A    	0.3480646886945065	0.3635030558377792
mop_tetramer.pdb_17	     6	12.01078	0.0000000000000000	A    	0.3480646886945065	0.3635030558377792
mop_tetramer.pdb_18	     6	12.01078	0.0000000000000000	A    	0.3480646886945065	0.3635030558377792
mop_tetramer.pdb_19	     6	12.01078	0.0000000000000000	A    	0.3480646886945065	0.3635030558377792
mop_tetramer.pdb_20	     6	12.01078	0.0000000000000000	A    	0.337953176162662	0.4553891161106184
mop_tetramer.pdb_21	     7	14.00672	0.0000000000000000	A    	0.3206876023663901	0.7016212989374017
mop_tetramer.pdb_22	     6	12.01078	0.0000000000000000	A    	0.337953176162662	0.4553891161106184
mop_tetramer.pdb_23	     6	12.01078	0.0000000000000000	A    	0.3480646886945065	0.3635030558377792
mop_tetramer.pdb_24	     6	12.01078	0.0000000000000000	A    	0.3480646886945065	0.3635030558377792
mop_tetramer.pdb_25	     1	1.007947	0.0000000000000000	A    	0.2572581535063279	0.06531785996356952
mop_tetramer.pdb_26	     1	1.007947	0.0000000000000000	A    	0.2572581535063279	0.06531785996356952
mop_tetramer.pdb_27	     1	1.007947	0.0000000000000000	A    	0.2572581535063279	0.06531785996356952
mop_tetramer.pdb_28	     1	1.007947	0.0000000000000000	A    	0.2583225710839196	0.068656285380106
mop_tetramer.pdb_29	     1	1.007947	0.0000000000000000	A    	0.2583225710839196	0.068656285380106
mop_tetramer.pdb_30	     1	1.007947	0.0000000000000000	A    	0.2583225710839196	0.068656285380106
mop_tetramer.pdb_31	     1	1.007947	0.0000000000000000	A    	0.2572581535063279	0.06531785996356952
mop_tetramer.pdb_32	     1	1.007947	0.0000000000000000	A    	0.2572581535063279	0.06531785996356952
mop_tetramer.pdb_33	     1	1.007947	0.0000000000000000	A    	0.2572581535063279	0.06531785996356952
mop_tetramer.pdb_34	     1	1.007947	0.0000000000000000	A    	0.2572581535063279	0.06531785996356952
mop_tetramer.pdb_35	     1	1.007947	0.0000000000000000	A    	0.2572581535063279	0.06531785996356952
mop_tetramer.pdb_36	     1	1.007947	0.0000000000000000	A    	0.2572581535063279	0.06531785996356952
mop_tetramer.pdb_37	     1	1.007947	0.0000000000000000	A    	0.2583225710839196	0.068656285380106
mop_tetramer.pdb_38	     1	1.007947	0.0000000000000000	A    	0.1103427677297317	0.05895596890015097
mop_tetramer.pdb_39	     1	1.007947	0.0000000000000000	A    	0.2644543413268124	0.06602135607582665
mop_tetramer.pdb_40	     1	1.007947	0.0000000000000000	A    	0.2644543413268124	0.06602135607582665
mop_tetramer.pdb_41	     1	1.007947	0.0000000000000000	A    	0.2644543413268124	0.06602135607582665
mop_tetramer.pdb_42	     1	1.007947	0.0000000000000000	A    	0.2572581535063279	0.06531785996356952
mop_tetramer.pdb_43	     1	1.007947	0.0000000000000000	A    	0.2572581535063279	0.06531785996356952
mop_tetramer.pdb_44	     6	12.01078	0.0000000000000000	A    	0.3480646886945065	0.3635030558377792
mop_tetramer.pdb_45	     8	15.99943	0.0000000000000000	A    	0.3039812205065809	0.8795023257036865
mop_tetramer.pdb_46	     6	12.01078	0.0000000000000000	A    	0.3480646886945065	0.3635030558377792
mop_tetramer.pdb_47	     6	12.01078	0.0000000000000000	A    	0.3480646886945065	0.3635030558377792
mop_tetramer.pdb_48	     6	12.01078	0.0000000000000000	A    	0.3480646886945065	0.3635030558377792
mop_tetramer.pdb_49	     6	12.01078	0.0000000000000000	A    	0.3480646886945065	0.3635030558377792
mop_tetramer.pdb_50	     6	12.01078	0.0000000000000000	A    	0.3480646886945065	0.3635030558377792
mop_tetramer.pdb_51	     6	12.01078	0.0000000000000000	A    	0.3480646886945065	0.3635030558377792
mop_tetramer.pdb_52	     6	12.01078	0.0000000000000000	A    	0.3480646886945065	0.3635030558377792
mop_tetramer.pdb_53	     6	12.01078	0.0000000000000000	A    	0.3480646886945065	0.3635030558377792
mop_tetramer.pdb_54	     8	15.99943	0.0000000000000000	A    	0.3025106490435313	0.7048581468486769
mop_tetramer.pdb_55	     6	12.01078	0.0000000000000000	A    	0.337953176162662	0.4553891161106184
mop_tetramer.pdb_56	     6	12.01078	0.0000000000000000	A    	0.3480646886945065	0.3635030558377792
mop_tetramer.pdb_57	     6	12.01078	0.0000000000000000	A    	0.3480646886945065	0.3635030558377792
mop_tetramer.pdb_58	     6	12.01078	0.0000000000000000	A    	0.3480646886945065	0.3635030558377792
mop_tetramer.pdb_59	     6	12.01078	0.0000000000000000	A    	0.3480646886945065	0.3635030558377792
mop_tetramer.pdb_60	     6	12.01078	0.0000000000000000	A    	0.3480646886945065	0.3635030558377792
mop_tetramer.pdb_61	     6	12.01078	0.0000000000000000	A    	0.3480646886945065	0.3635030558377792
mop_tetramer.pdb_62	     6	12.01078	0.0000000000000000	A    	0.3480646886945065	0.3635030558377792
mop_tetramer.pdb_63	     6	12.01078	0.0000000000000000	A    	0.3480646886945065	0.3635030558377792
mop_tetramer.pdb_64	     6	12.01078	0.0000000000000000	A    	0.337953176162662	0.4553891161106184
mop_tetramer.pdb_65	     7	14.00672	0.0000000000000000	A    	0.3206876023663901	0.7016212989374017
mop_tetramer.pdb_66	     6	12.01078	0.0000000000000000	A    	0.337953176162662	0.4553891161106184
mop_tetramer.pdb_67	     6	12.01078	0.0000000000000000	A    	0.3480646886945065	0.3635030558377792
mop_tetramer.pdb_68	     6	12.01078	0.0000000000000000	A    	0.3480646886945065	0.3635030558377792
mop_tetramer.pdb_69	     1	1.007947	0.0000000000000000	A    	0.2572581535063279	0.06531785996356952
mop_tetramer.pdb_70	     1	1.007947	0.0000000000000000	A    	0.2572581535063279	0.06531785996356952
mop_tetramer.pdb_71	     1	1.007947	0.0000000000000000	A    	0.2572581535063279	0.06531785996356952
mop_tetramer.pdb_72	     1	1.007947	0.0000000000000000	A    	0.2583225710839196	0.068656285380106
mop_tetramer.pdb_73	     1	1.007947	0.0000000000000000	A    	0.2583225710839196	0.068656285380106
mop_tetramer.pdb_74	     1	1.007947	0.0000000000000000	A    	0.2583225710839196	0.068656285380106
mop_tetramer.pdb_75	     1	1.007947	0.0000000000000000	A    	0.2572581535063279	0.06531785996356952
mop_tetramer.pdb_76	     1	1.007947	0.0000000000000000	A    	0.2572581535063279	0.06531785996356952
mop_tetramer.pdb_77	     1	1.007947	0.0000000000000000	A    	0.2572581535063279	0.06531785996356952
mop_tetramer.pdb_78	     1	1.007947	0.0000000000000000	A    	0.2572581535063279	0.06531785996356952
mop_tetramer.pdb_79	     1	1.007947	0.0000000000000000	A    	0.2572581535063279	0.06531785996356952
mop_tetramer.pdb_80	     1	1.007947	0.0000000000000000	A    	0.2572581535063279	0.06531785996356952
mop_tetramer.pdb_81	     1	1.007947	0.0000000000000000	A    	0.2583225710839196	0.068656285380106
mop_tetramer.pdb_82	     1	1.007947	0.0000000000000000	A    	0.1103427677297317	0.05895596890015097
mop_tetramer.pdb_83	     1	1.007947	0.0000000000000000	A    	0.2644543413268124	0.06602135607582665
mop_tetramer.pdb_84	     1	1.007947	0.0000000000000000	A    	0.2644543413268124	0.06602135607582665
mop_tetramer.pdb_85	     1	1.007947	0.0000000000000000	A    	0.2644543413268124	0.06602135607582665
mop_tetramer.pdb_86	     1	1.007947	0.0000000000000000	A    	0.2572581535063279	0.06531785996356952
mop_tetramer.pdb_87	     1	1.007947	0.0000000000000000	A    	0.2572581535063279	0.06531785996356952
mop_tetramer.pdb_88	     6	12.01078	0.0000000000000000	A    	0.3480646886945065	0.3635030558377792
mop_tetramer.pdb_89	     8	15.99943	0.0000000000000000	A    	0.3039812205065809	0.8795023257036865
mop_tetramer.pdb_90	     6	12.01078	0.0000000000000000	A    	0.3480646886945065	0.3635030558377792
mop_tetramer.pdb_91	     6	12.01078	0.0000000000000000	A    	0.3480646886945065	0.3635030558377792
mop_tetramer.pdb_92	     6	12.01078	0.0000000000000000	A    	0.3480646886945065	0.3635030558377792
mop_tetramer.pdb_93	     6	12.01078	0.0000000000000000	A    	0.3480646886945065	0.3635030558377792
mop_tetramer.pdb_94	     6	12.01078	0.0000000000000000	A    	0.3480646886945065	0.3635030558377792
mop_tetramer.pdb_95	     6	12.01078	0.0000000000000000	A    	0.3480646886945065	0.3635030558377792
mop_tetramer.pdb_96	     6	12.01078	0.0000000000000000	A    	0.3480646886945065	0.3635030558377792
mop_tetramer.pdb_97	     6	12.01078	0.0000000000000000	A    	0.3480646886945065	0.3635030558377792
mop_tetramer.pdb_98	     8	15.99943	0.0000000000000000	A    	0.3025106490435313	0.7048581468486769
mop_tetramer.pdb_99	     6	12.01078	0.0000000000000000	A    	0.337953176162662	0.4553891161106184
mop_tetramer.pdb_100	     6	12.01078	0.0000000000000000	A    	0.3480646886945065	0.3635030558377792
mop_tetramer.pdb_101	     6	12.01078	0.0000000000000000	A    	0.3480646886945065	0.3635030558377792
mop_tetramer.pdb_102	     6	12.01078	0.0000000000000000	A    	0.3480646886945065	0.3635030558377792
mop_tetramer.pdb_103	     6	12.01078	0.0000000000000000	A    	0.3480646886945065	0.3635030558377792
mop_tetramer.pdb_104	     6	12.01078	0.0000000000000000	A    	0.3480646886945065	0.3635030558377792
mop_tetramer.pdb_105	     6	12.01078	0.0000000000000000	A    	0.3480646886945065	0.3635030558377792
mop_tetramer.pdb_106	     6	12.01078	0.0000000000000000	A    	0.3480646886945065	0.3635030558377792
mop_tetramer.pdb_107	     6	12.01078	0.0000000000000000	A    	0.3480646886945065	0.3635030558377792
mop_tetramer.pdb_108	     6	12.01078	0.0000000000000000	A    	0.337953176162662	0.4553891161106184
mop_tetramer.pdb_109	     7	14.00672	0.0000000000000000	A    	0.3206876023663901	0.7016212989374017
mop_tetramer.pdb_110	     6	12.01078	0.0000000000000000	A    	0.337953176162662	0.4553891161106184
mop_tetramer.pdb_111	     6	12.01078	0.0000000000000000	A    	0.3480646886945065	0.3635030558377792
mop_tetramer.pdb_112	     6	12.01078	0.0000000000000000	A    	0.3480646886945065	0.3635030558377792
mop_tetramer.pdb_113	     1	1.007947	0.0000000000000000	A    	0.2572581535063279	0.06531785996356952
mop_tetramer.pdb_114	     1	1.007947	0.0000000000000000	A    	0.2572581535063279	0.06531785996356952
mop_tetramer.pdb_115	     1	1.007947	0.0000000000000000	A    	0.2572581535063279	0.06531785996356952
mop_tetramer.pdb_116	     1	1.007947	0.0000000000000000	A    	0.2583225710839196	0.068656285380106
mop_tetramer.pdb_117	     1	1.007947	0.0000000000000000	A    	0.2583225710839196	0.068656285380106
mop_tetramer.pdb_118	     1	1.007947	0.0000000000000000	A    	0.2583225710839196	0.068656285380106
mop_tetramer.pdb_119	     1	1.007947	0.0000000000000000	A    	0.2572581535063279	0.06531785996356952
mop_tetramer.pdb_120	     1	1.007947	0.0000000000000000	A    	0.2572581535063279	0.06531785996356952
mop_tetramer.pdb_121	     1	1.007947	0.0000000000000000	A    	0.2572581535063279	0.06531785996356952
mop_tetramer.pdb_122	     1	1.007947	0.0000000000000000	A    	0.2572581535063279	0.06531785996356952
mop_tetramer.pdb_123	     1	1.007947	0.0000000000000000	A    	0.2572581535063279	0.06531785996356952
mop_tetramer.pdb_124	     1	1.007947	0.0000000000000000	A    	0.2572581535063279	0.06531785996356952
mop_tetramer.pdb_125	     1	1.007947	0.0000000000000000	A    	0.2583225710839196	0.068656285380106
mop_tetramer.pdb_126	     1	1.007947	0.0000000000000000	A    	0.1103427677297317	0.05895596890015097
mop_tetramer.pdb_127	     1	1.007947	0.0000000000000000	A    	0.2644543413268124	0.06602135607582665
mop_tetramer.pdb_128	     1	1.007947	0.0000000000000000	A    	0.2644543413268124	0.06602135607582665
mop_tetramer.pdb_129	     1	1.007947	0.0000000000000000	A    	0.2644543413268124	0.06602135607582665
mop_tetramer.pdb_130	     1	1.007947	0.0000000000000000	A    	0.2572581535063279	0.06531785996356952
mop_tetramer.pdb_131	     1	1.007947	0.0000000000000000	A    	0.2572581535063279	0.06531785996356952
mop_tetramer.pdb_132	     6	12.01078	0.0000000000000000	A    	0.3480646886945065	0.3635030558377792
mop_tetramer.pdb_133	     8	15.99943	0.0000000000000000	A    	0.3039812205065809	0.8795023257036865
mop_tetramer.pdb_134	     6	12.01078	0.0000000000000000	A    	0.3480646886945065	0.3635030558377792
mop_tetramer.pdb_135	     6	12.01078	0.0000000000000000	A    	0.3480646886945065	0.3635030558377792
mop_tetramer.pdb_136	     6	12.01078	0.0000000000000000	A    	0.3480646886945065	0.3635030558377792
mop_tetramer.pdb_137	     6	12.01078	0.0000000000000000	A    	0.3480646886945065	0.3635030558377792
mop_tetramer.pdb_138	     6	12.01078	0.0000000000000000	A    	0.3480646886945065	0.3635030558377792
mop_tetramer.pdb_139	     6	12.01078	0.0000000000000000	A    	0.3480646886945065	0.3635030558377792
mop_tetramer.pdb_140	     6	12.01078	0.0000000000000000	A    	0.3480646886945065	0.3635030558377792
mop_tetramer.pdb_141	     6	12.01078	0.0000000000000000	A    	0.3480646886945065	0.3635030558377792
mop_tetramer.pdb_142	     8	15.99943	0.0000000000000000	A    	0.3025106490435313	0.7048581468486769
mop_tetramer.pdb_143	     6	12.01078	0.0000000000000000	A    	0.337953176162662	0.4553891161106184
mop_tetramer.pdb_144	     6	12.01078	0.0000000000000000	A    	0.3480646886945065	0.3635030558377792
mop_tetramer.pdb_145	     6	12.01078	0.0000000000000000	A    	0.3480646886945065	0.3635030558377792
mop_tetramer.pdb_146	     6	12.01078	0.0000000000000000	A    	0.3480646886945065	0.3635030558377792
mop_tetramer.pdb_147	     6	12.01078	0.0000000000000000	A    	0.3480646886945065	0.3635030558377792
mop_tetramer.pdb_148	     6	12.01078	0.0000000000000000	A    	0.3480646886945065	0.3635030558377792
mop_tetramer.pdb_149	     6	12.01078	0.0000000000000000	A    	0.3480646886945065	0.3635030558377792
mop_tetramer.pdb_150	     6	12.01078	0.0000000000000000	A    	0.3480646886945065	0.3635030558377792
mop_tetramer.pdb_151	     6	12.01078	0.0000000000000000	A    	0.3480646886945065	0.3635030558377792
mop_tetramer.pdb_152	     6	12.01078	0.0000000000000000	A    	0.337953176162662	0.4553891161106184
mop_tetramer.pdb_153	     7	14.00672	0.0000000000000000	A    	0.3206876023663901	0.7016212989374017
mop_tetramer.pdb_154	     6	12.01078	0.0000000000000000	A    	0.337953176162662	0.4553891161106184
mop_tetramer.pdb_155	     6	12.01078	0.0000000000000000	A    	0.3480646886945065	0.3635030558377792
mop_tetramer.pdb_156	     6	12.01078	0.0000000000000000	A    	0.3480646886945065	0.3635030558377792
mop_tetramer.pdb_157	     1	1.007947	0.0000000000000000	A    	0.2572581535063279	0.06531785996356952
mop_tetramer.pdb_158	     1	1.007947	0.0000000000000000	A    	0.2572581535063279	0.06531785996356952
mop_tetramer.pdb_159	     1	1.007947	0.0000000000000000	A    	0.2572581535063279	0.06531785996356952
mop_tetramer.pdb_160	     1	1.007947	0.0000000000000000	A    	0.2583225710839196	0.068656285380106
mop_tetramer.pdb_161	     1	1.007947	0.0000000000000000	A    	0.2583225710839196	0.068656285380106
mop_tetramer.pdb_162	     1	1.007947	0.0000000000000000	A    	0.2583225710839196	0.068656285380106
mop_tetramer.pdb_163	     1	1.007947	0.0000000000000000	A    	0.2572581535063279	0.06531785996356952
mop_tetramer.pdb_164	     1	1.007947	0.0000000000000000	A    	0.2572581535063279	0.06531785996356952
mop_tetramer.pdb_165	     1	1.007947	0.0000000000000000	A    	0.2572581535063279	0.06531785996356952
mop_tetramer.pdb_166	     1	1.007947	0.0000000000000000	A    	0.2572581535063279	0.06531785996356952
mop_tetramer.pdb_167	     1	1.007947	0.0000000000000000	A    	0.2572581535063279	0.06531785996356952
mop_tetramer.pdb_168	     1	1.007947	0.0000000000000000	A    	0.2572581535063279	0.06531785996356952
mop_tetramer.pdb_169	     1	1.007947	0.0000000000000000	A    	0.2583225710839196	0.068656285380106
mop_tetramer.pdb_170	     1	1.007947	0.0000000000000000	A    	0.1103427677297317	0.05895596890015097
mop_tetramer.pdb_171	     1	1.007947	0.0000000000000000	A    	0.2644543413268124	0.06602135607582665
mop_tetramer.pdb_172	     1	1.007947	0.0000000000000000	A    	0.2644543413268124	0.06602135607582665
mop_tetramer.pdb_173	     1	1.007947	0.0000000000000000	A    	0.2644543413268124	0.06602135607582665
mop_tetramer.pdb_174	     1	1.007947	0.0000000000000000	A    	0.2572581535063279	0.06531785996356952
mop_tetramer.pdb_175	     1	1.007947	0.0000000000000000	A    	0.2572581535063279	0.06531785996356952
mop_tetramer.pdb_176	     6	12.01078	0.0000000000000000	A    	0.337953176162662	0.4553891161106184
mop_tetramer.pdb_177	     8	15.99943	0.0000000000000000	A    	0.3025106490435313	0.7048581468486769
mop_tetramer.pdb_178	     1	1.007947	0.0000000000000000	A    	0.2583225710839196	0.068656285380106
mop_tetramer.pdb_179	     1	1.007947	0.0000000000000000	A    	0.2583225710839196	0.068656285380106
mop_tetramer.pdb_180	     1	1.007947	0.0000000000000000	A    	0.2583225710839196	0.068656285380106
mop_tetramer.pdb_181	     6	12.01078	0.0000000000000000	A    	0.337953176162662	0.4553891161106184
mop_tetramer.pdb_182	     6	12.01078	0.0000000000000000	A    	0.337953176162662	0.4553891161106184
mop_tetramer.pdb_183	     6	12.01078	0.0000000000000000	A    	0.337953176162662	0.4553891161106184
mop_tetramer.pdb_184	     6	12.01078	0.0000000000000000	A    	0.337953176162662	0.4553891161106184
mop_tetramer.pdb_185	     8	15.99943	0.0000000000000000	A    	0.3025106490435313	0.7048581468486769
mop_tetramer.pdb_186	     6	12.01078	0.0000000000000000	A    	0.3480646886945065	0.3635030558377792
mop_tetramer.pdb_187	     8	15.99943	0.0000000000000000	A    	0.3039812205065809	0.8795023257036865
mop_tetramer.pdb_188	     1	1.007947	0.0000000000000000	A    	0.2644543413268124	0.06602135607582665
mop_tetramer.pdb_189	     1	1.007947	0.0000000000000000	A    	0.2644543413268124	0.06602135607582665
mop_tetramer.pdb_190	     1	1.007947	0.0000000000000000	A    	0.2644543413268124	0.06602135607582665
mop_tetramer.pdb_191	     1	1.007947	0.0000000000000000	A    	0.2644543413268124	0.06602135607582665
mop_tetramer.pdb_192	     1	1.007947	0.0000000000000000	A    	0.2644543413268124	0.06602135607582665
mop_tetramer.pdb_193	     1	1.007947	0.0000000000000000	A    	0.2644543413268124	0.06602135607582665
mop_tetramer.pdb_194	     1	1.007947	0.0000000000000000	A    	0.2644543413268124	0.06602135607582665
mop_tetramer.pdb_195	     1	1.007947	0.0000000000000000	A    	0.2644543413268124	0.06602135607582665
mop_tetramer.pdb_196	     1	1.007947	0.0000000000000000	A    	0.2644543413268124	0.06602135607582665
MOL1_0     	    17	35.4532	0.0000000000000000	A    	0.3307527806460624	1.111270837866897
MOL1_1     	     6	12.01078	0.0000000000000000	A    	0.337953176162662	0.4553891161106184
MOL1_2     	    17	35.4532	0.0000000000000000	A    	0.3307527806460624	1.111270837866897
MOL1_3     	    17	35.4532	0.0000000000000000	A    	0.3307527806460624	1.111270837866897
MOL1_4     	     1	1.007947	0.0000000000000000	A    	0.2114993556865165	0.06568879999999999

[ moleculetype ]
mop_tetramer.pdb	         3

[ atoms ]
;index, atom type, resnum, resname, name, cgnr, charge, mass
     1 mop_tetramer.pdb_0       1 mop_tetramer.pdb C          1      0.647530019283     12.010780000000
     2 mop_tetramer.pdb_1       1 mop_tetramer.pdb O          1     -0.538869976997     15.999430000000
     3 mop_tetramer.pdb_2       1 mop_tetramer.pdb C          1     -0.136209994555     12.010780000000
     4 mop_tetramer.pdb_3       1 mop_tetramer.pdb C          1     -0.076109997928     12.010780000000
     5 mop_tetramer.pdb_4       1 mop_tetramer.pdb C          1     -0.130879998207     12.010780000000
     6 mop_tetramer.pdb_5       1 mop_tetramer.pdb C          1      0.000090000001     12.010780000000
     7 mop_tetramer.pdb_6       1 mop_tetramer.pdb C          1     -0.079640001059     12.010780000000
     8 mop_tetramer.pdb_7       1 mop_tetramer.pdb C          1      0.006039999891     12.010780000000
     9 mop_tetramer.pdb_8       1 mop_tetramer.pdb C          1     -0.139640003443     12.010780000000
    10 mop_tetramer.pdb_9       1 mop_tetramer.pdb C          1      0.128350004554     12.010780000000
    11 mop_tetramer.pdb_10       1 mop_tetramer.pdb O          1     -0.320329993963     15.999430000000
    12 mop_tetramer.pdb_11       1 mop_tetramer.pdb C          1      0.112640000880     12.010780000000
    13 mop_tetramer.pdb_12       1 mop_tetramer.pdb C          1     -0.211260005832     12.010780000000
    14 mop_tetramer.pdb_13       1 mop_tetramer.pdb C          1     -0.086649999022     12.010780000000
    15 mop_tetramer.pdb_14       1 mop_tetramer.pdb C          1     -0.037280000746     12.010780000000
    16 mop_tetramer.pdb_15       1 mop_tetramer.pdb C          1     -0.105030000210     12.010780000000
    17 mop_tetramer.pdb_16       1 mop_tetramer.pdb C          1     -0.128580003977     12.010780000000
    18 mop_tetramer.pdb_17       1 mop_tetramer.pdb C          1     -0.107299998403     12.010780000000
    19 mop_tetramer.pdb_18       1 mop_tetramer.pdb C          1     -0.099689997733     12.010780000000
    20 mop_tetramer.pdb_19       1 mop_tetramer.pdb C          1     -0.107569999993     12.010780000000
    21 mop_tetramer.pdb_20       1 mop_tetramer.pdb C          1      0.154339998960     12.010780000000
    22 mop_tetramer.pdb_21       1 mop_tetramer.pdb N          1     -0.571910023689     14.006720000000
    23 mop_tetramer.pdb_22       1 mop_tetramer.pdb C          1     -0.107189998031     12.010780000000
    24 mop_tetramer.pdb_23       1 mop_tetramer.pdb C          1     -0.130879998207     12.010780000000
    25 mop_tetramer.pdb_24       1 mop_tetramer.pdb C          1     -0.076109997928     12.010780000000
    26 mop_tetramer.pdb_25       1 mop_tetramer.pdb H          1      0.152439996600      1.007947000000
    27 mop_tetramer.pdb_26       1 mop_tetramer.pdb H          1      0.141589999199      1.007947000000
    28 mop_tetramer.pdb_27       1 mop_tetramer.pdb H          1      0.177399992943      1.007947000000
    29 mop_tetramer.pdb_28       1 mop_tetramer.pdb H          1      0.043749999255      1.007947000000
    30 mop_tetramer.pdb_29       1 mop_tetramer.pdb H          1      0.043749999255      1.007947000000
    31 mop_tetramer.pdb_30       1 mop_tetramer.pdb H          1      0.043749999255      1.007947000000
    32 mop_tetramer.pdb_31       1 mop_tetramer.pdb H          1      0.136999994516      1.007947000000
    33 mop_tetramer.pdb_32       1 mop_tetramer.pdb H          1      0.137710005045      1.007947000000
    34 mop_tetramer.pdb_33       1 mop_tetramer.pdb H          1      0.136769995093      1.007947000000
    35 mop_tetramer.pdb_34       1 mop_tetramer.pdb H          1      0.134690001607      1.007947000000
    36 mop_tetramer.pdb_35       1 mop_tetramer.pdb H          1      0.138940006495      1.007947000000
    37 mop_tetramer.pdb_36       1 mop_tetramer.pdb H          1      0.130400002003      1.007947000000
    38 mop_tetramer.pdb_37       1 mop_tetramer.pdb H          1      0.079429998994      1.007947000000
    39 mop_tetramer.pdb_38       1 mop_tetramer.pdb H          1      0.315990000963      1.007947000000
    40 mop_tetramer.pdb_39       1 mop_tetramer.pdb H          1      0.044229999185      1.007947000000
    41 mop_tetramer.pdb_40       1 mop_tetramer.pdb H          1      0.044229999185      1.007947000000
    42 mop_tetramer.pdb_41       1 mop_tetramer.pdb H          1      0.044229999185      1.007947000000
    43 mop_tetramer.pdb_42       1 mop_tetramer.pdb H          1      0.141589999199      1.007947000000
    44 mop_tetramer.pdb_43       1 mop_tetramer.pdb H          1      0.152439996600      1.007947000000
    45 mop_tetramer.pdb_44       1 mop_tetramer.pdb C          1      0.676029980183     12.010780000000
    46 mop_tetramer.pdb_45       1 mop_tetramer.pdb O          1     -0.613579988480     15.999430000000
    47 mop_tetramer.pdb_46       1 mop_tetramer.pdb C          1     -0.138109996915     12.010780000000
    48 mop_tetramer.pdb_47       1 mop_tetramer.pdb C          1     -0.091750003397     12.010780000000
    49 mop_tetramer.pdb_48       1 mop_tetramer.pdb C          1     -0.125560000539     12.010780000000
    50 mop_tetramer.pdb_49       1 mop_tetramer.pdb C          1     -0.010440000333     12.010780000000
    51 mop_tetramer.pdb_50       1 mop_tetramer.pdb C          1     -0.074979998171     12.010780000000
    52 mop_tetramer.pdb_51       1 mop_tetramer.pdb C          1      0.004949999973     12.010780000000
    53 mop_tetramer.pdb_52       1 mop_tetramer.pdb C          1     -0.146860003471     12.010780000000
    54 mop_tetramer.pdb_53       1 mop_tetramer.pdb C          1      0.132799997926     12.010780000000
    55 mop_tetramer.pdb_54       1 mop_tetramer.pdb O          1     -0.324719995260     15.999430000000
    56 mop_tetramer.pdb_55       1 mop_tetramer.pdb C          1      0.112290002406     12.010780000000
    57 mop_tetramer.pdb_56       1 mop_tetramer.pdb C          1     -0.200110003352     12.010780000000
    58 mop_tetramer.pdb_57       1 mop_tetramer.pdb C          1     -0.083970002830     12.010780000000
    59 mop_tetramer.pdb_58       1 mop_tetramer.pdb C          1     -0.038270000368     12.010780000000
    60 mop_tetramer.pdb_59       1 mop_tetramer.pdb C          1     -0.108879998326     12.010780000000
    61 mop_tetramer.pdb_60       1 mop_tetramer.pdb C          1     -0.128350004554     12.010780000000
    62 mop_tetramer.pdb_61       1 mop_tetramer.pdb C          1     -0.112319998443     12.010780000000
    63 mop_tetramer.pdb_62       1 mop_tetramer.pdb C          1     -0.108190000057     12.010780000000
    64 mop_tetramer.pdb_63       1 mop_tetramer.pdb C          1     -0.106250002980     12.010780000000
    65 mop_tetramer.pdb_64       1 mop_tetramer.pdb C          1      0.145830005407     12.010780000000
    66 mop_tetramer.pdb_65       1 mop_tetramer.pdb N          1     -0.560419976711     14.006720000000
    67 mop_tetramer.pdb_66       1 mop_tetramer.pdb C          1     -0.102860003710     12.010780000000
    68 mop_tetramer.pdb_67       1 mop_tetramer.pdb C          1     -0.125560000539     12.010780000000
    69 mop_tetramer.pdb_68       1 mop_tetramer.pdb C          1     -0.091750003397     12.010780000000
    70 mop_tetramer.pdb_69       1 mop_tetramer.pdb H          1      0.145080000162      1.007947000000
    71 mop_tetramer.pdb_70       1 mop_tetramer.pdb H          1      0.141249999404      1.007947000000
    72 mop_tetramer.pdb_71       1 mop_tetramer.pdb H          1      0.155110001564      1.007947000000
    73 mop_tetramer.pdb_72       1 mop_tetramer.pdb H          1      0.046349998564      1.007947000000
    74 mop_tetramer.pdb_73       1 mop_tetramer.pdb H          1      0.046349998564      1.007947000000
    75 mop_tetramer.pdb_74       1 mop_tetramer.pdb H          1      0.046349998564      1.007947000000
    76 mop_tetramer.pdb_75       1 mop_tetramer.pdb H          1      0.140469998121      1.007947000000
    77 mop_tetramer.pdb_76       1 mop_tetramer.pdb H          1      0.138850003481      1.007947000000
    78 mop_tetramer.pdb_77       1 mop_tetramer.pdb H          1      0.137510001659      1.007947000000
    79 mop_tetramer.pdb_78       1 mop_tetramer.pdb H          1      0.134310007095      1.007947000000
    80 mop_tetramer.pdb_79       1 mop_tetramer.pdb H          1      0.135130003095      1.007947000000
    81 mop_tetramer.pdb_80       1 mop_tetramer.pdb H          1      0.131090000272      1.007947000000
    82 mop_tetramer.pdb_81       1 mop_tetramer.pdb H          1      0.090489998460      1.007947000000
    83 mop_tetramer.pdb_82       1 mop_tetramer.pdb H          1      0.300819993019      1.007947000000
    84 mop_tetramer.pdb_83       1 mop_tetramer.pdb H          1      0.044969998300      1.007947000000
    85 mop_tetramer.pdb_84       1 mop_tetramer.pdb H          1      0.044969998300      1.007947000000
    86 mop_tetramer.pdb_85       1 mop_tetramer.pdb H          1      0.044969998300      1.007947000000
    87 mop_tetramer.pdb_86       1 mop_tetramer.pdb H          1      0.141249999404      1.007947000000
    88 mop_tetramer.pdb_87       1 mop_tetramer.pdb H          1      0.145080000162      1.007947000000
    89 mop_tetramer.pdb_88       1 mop_tetramer.pdb C          1      0.676349997520     12.010780000000
    90 mop_tetramer.pdb_89       1 mop_tetramer.pdb O          1     -0.596440017223     15.999430000000
    91 mop_tetramer.pdb_90       1 mop_tetramer.pdb C          1     -0.137789994478     12.010780000000
    92 mop_tetramer.pdb_91       1 mop_tetramer.pdb C          1     -0.092940002680     12.010780000000
    93 mop_tetramer.pdb_92       1 mop_tetramer.pdb C          1     -0.126450002193     12.010780000000
    94 mop_tetramer.pdb_93       1 mop_tetramer.pdb C          1     -0.006659999955     12.010780000000
    95 mop_tetramer.pdb_94       1 mop_tetramer.pdb C          1     -0.078149996698     12.010780000000
    96 mop_tetramer.pdb_95       1 mop_tetramer.pdb C          1      0.007340000011     12.010780000000
    97 mop_tetramer.pdb_96       1 mop_tetramer.pdb C          1     -0.145070001483     12.010780000000
    98 mop_tetramer.pdb_97       1 mop_tetramer.pdb C          1      0.128780007362     12.010780000000
    99 mop_tetramer.pdb_98       1 mop_tetramer.pdb O          1     -0.324299991131     15.999430000000
   100 mop_tetramer.pdb_99       1 mop_tetramer.pdb C          1      0.112779997289     12.010780000000
   101 mop_tetramer.pdb_100       1 mop_tetramer.pdb C          1     -0.203620001674     12.010780000000
   102 mop_tetramer.pdb_101       1 mop_tetramer.pdb C          1     -0.083010002971     12.010780000000
   103 mop_tetramer.pdb_102       1 mop_tetramer.pdb C          1     -0.041960000992     12.010780000000
   104 mop_tetramer.pdb_103       1 mop_tetramer.pdb C          1     -0.109679996967     12.010780000000
   105 mop_tetramer.pdb_104       1 mop_tetramer.pdb C          1     -0.131319999695     12.010780000000
   106 mop_tetramer.pdb_105       1 mop_tetramer.pdb C          1     -0.109389998019     12.010780000000
   107 mop_tetramer.pdb_106       1 mop_tetramer.pdb C          1     -0.098370000720     12.010780000000
   108 mop_tetramer.pdb_107       1 mop_tetramer.pdb C          1     -0.108429998159     12.010780000000
   109 mop_tetramer.pdb_108       1 mop_tetramer.pdb C          1      0.150609999895     12.010780000000
   110 mop_tetramer.pdb_109       1 mop_tetramer.pdb N          1     -0.564989984035     14.006720000000
   111 mop_tetramer.pdb_110       1 mop_tetramer.pdb C          1     -0.116099998355     12.010780000000
   112 mop_tetramer.pdb_111       1 mop_tetramer.pdb C          1     -0.126450002193     12.010780000000
   113 mop_tetramer.pdb_112       1 mop_tetramer.pdb C          1     -0.092940002680     12.010780000000
   114 mop_tetramer.pdb_113       1 mop_tetramer.pdb H          1      0.142770007253      1.007947000000
   115 mop_tetramer.pdb_114       1 mop_tetramer.pdb H          1      0.139369994402      1.007947000000
   116 mop_tetramer.pdb_115       1 mop_tetramer.pdb H          1      0.158130005002      1.007947000000
   117 mop_tetramer.pdb_116       1 mop_tetramer.pdb H          1      0.046089999378      1.007947000000
   118 mop_tetramer.pdb_117       1 mop_tetramer.pdb H          1      0.046089999378      1.007947000000
   119 mop_tetramer.pdb_118       1 mop_tetramer.pdb H          1      0.046089999378      1.007947000000
   120 mop_tetramer.pdb_119       1 mop_tetramer.pdb H          1      0.140839993954      1.007947000000
   121 mop_tetramer.pdb_120       1 mop_tetramer.pdb H          1      0.141279995441      1.007947000000
   122 mop_tetramer.pdb_121       1 mop_tetramer.pdb H          1      0.137740001082      1.007947000000
   123 mop_tetramer.pdb_122       1 mop_tetramer.pdb H          1      0.137950003147      1.007947000000
   124 mop_tetramer.pdb_123       1 mop_tetramer.pdb H          1      0.139669999480      1.007947000000
   125 mop_tetramer.pdb_124       1 mop_tetramer.pdb H          1      0.135590001941      1.007947000000
   126 mop_tetramer.pdb_125       1 mop_tetramer.pdb H          1      0.084729999304      1.007947000000
   127 mop_tetramer.pdb_126       1 mop_tetramer.pdb H          1      0.309810012579      1.007947000000
   128 mop_tetramer.pdb_127       1 mop_tetramer.pdb H          1      0.046250000596      1.007947000000
   129 mop_tetramer.pdb_128       1 mop_tetramer.pdb H          1      0.046250000596      1.007947000000
   130 mop_tetramer.pdb_129       1 mop_tetramer.pdb H          1      0.046250000596      1.007947000000
   131 mop_tetramer.pdb_130       1 mop_tetramer.pdb H          1      0.139369994402      1.007947000000
   132 mop_tetramer.pdb_131       1 mop_tetramer.pdb H          1      0.142770007253      1.007947000000
   133 mop_tetramer.pdb_132       1 mop_tetramer.pdb C          1      0.674820005894     12.010780000000
   134 mop_tetramer.pdb_133       1 mop_tetramer.pdb O          1     -0.609440028667     15.999430000000
   135 mop_tetramer.pdb_134       1 mop_tetramer.pdb C          1     -0.139359995723     12.010780000000
   136 mop_tetramer.pdb_135       1 mop_tetramer.pdb C          1     -0.092419996858     12.010780000000
   137 mop_tetramer.pdb_136       1 mop_tetramer.pdb C          1     -0.127880007029     12.010780000000
   138 mop_tetramer.pdb_137       1 mop_tetramer.pdb C          1     -0.005439999979     12.010780000000
   139 mop_tetramer.pdb_138       1 mop_tetramer.pdb C          1     -0.078369997442     12.010780000000
   140 mop_tetramer.pdb_139       1 mop_tetramer.pdb C          1      0.008229999803     12.010780000000
   141 mop_tetramer.pdb_140       1 mop_tetramer.pdb C          1     -0.147320002317     12.010780000000
   142 mop_tetramer.pdb_141       1 mop_tetramer.pdb C          1      0.128470003605     12.010780000000
   143 mop_tetramer.pdb_142       1 mop_tetramer.pdb O          1     -0.326000005007     15.999430000000
   144 mop_tetramer.pdb_143       1 mop_tetramer.pdb C          1      0.112819999456     12.010780000000
   145 mop_tetramer.pdb_144       1 mop_tetramer.pdb C          1     -0.201379999518     12.010780000000
   146 mop_tetramer.pdb_145       1 mop_tetramer.pdb C          1     -0.083559997380     12.010780000000
   147 mop_tetramer.pdb_146       1 mop_tetramer.pdb C          1     -0.045189999044     12.010780000000
   148 mop_tetramer.pdb_147       1 mop_tetramer.pdb C          1     -0.108139999211     12.010780000000
   149 mop_tetramer.pdb_148       1 mop_tetramer.pdb C          1     -0.135499998927     12.010780000000
   150 mop_tetramer.pdb_149       1 mop_tetramer.pdb C          1     -0.101130001247     12.010780000000
   151 mop_tetramer.pdb_150       1 mop_tetramer.pdb C          1     -0.111929997802     12.010780000000
   152 mop_tetramer.pdb_151       1 mop_tetramer.pdb C          1     -0.099849998951     12.010780000000
   153 mop_tetramer.pdb_152       1 mop_tetramer.pdb C          1      0.162349998951     12.010780000000
   154 mop_tetramer.pdb_153       1 mop_tetramer.pdb N          1     -0.557070016861     14.006720000000
   155 mop_tetramer.pdb_154       1 mop_tetramer.pdb C          1     -0.104039996862     12.010780000000
   156 mop_tetramer.pdb_155       1 mop_tetramer.pdb C          1     -0.127880007029     12.010780000000
   157 mop_tetramer.pdb_156       1 mop_tetramer.pdb C          1     -0.092419996858     12.010780000000
   158 mop_tetramer.pdb_157       1 mop_tetramer.pdb H          1      0.146259993315      1.007947000000
   159 mop_tetramer.pdb_158       1 mop_tetramer.pdb H          1      0.139939993620      1.007947000000
   160 mop_tetramer.pdb_159       1 mop_tetramer.pdb H          1      0.157399997115      1.007947000000
   161 mop_tetramer.pdb_160       1 mop_tetramer.pdb H          1      0.045910000801      1.007947000000
   162 mop_tetramer.pdb_161       1 mop_tetramer.pdb H          1      0.045910000801      1.007947000000
   163 mop_tetramer.pdb_162       1 mop_tetramer.pdb H          1      0.045910000801      1.007947000000
   164 mop_tetramer.pdb_163       1 mop_tetramer.pdb H          1      0.142059996724      1.007947000000
   165 mop_tetramer.pdb_164       1 mop_tetramer.pdb H          1      0.141910001636      1.007947000000
   166 mop_tetramer.pdb_165       1 mop_tetramer.pdb H          1      0.134580001235      1.007947000000
   167 mop_tetramer.pdb_166       1 mop_tetramer.pdb H          1      0.132249996066      1.007947000000
   168 mop_tetramer.pdb_167       1 mop_tetramer.pdb H          1      0.143160000443      1.007947000000
   169 mop_tetramer.pdb_168       1 mop_tetramer.pdb H          1      0.133410006762      1.007947000000
   170 mop_tetramer.pdb_169       1 mop_tetramer.pdb H          1      0.086280003190      1.007947000000
   171 mop_tetramer.pdb_170       1 mop_tetramer.pdb H          1      0.324319988489      1.007947000000
   172 mop_tetramer.pdb_171       1 mop_tetramer.pdb H          1      0.047329999506      1.007947000000
   173 mop_tetramer.pdb_172       1 mop_tetramer.pdb H          1      0.047329999506      1.007947000000
   174 mop_tetramer.pdb_173       1 mop_tetramer.pdb H          1      0.047329999506      1.007947000000
   175 mop_tetramer.pdb_174       1 mop_tetramer.pdb H          1      0.139939993620      1.007947000000
   176 mop_tetramer.pdb_175       1 mop_tetramer.pdb H          1      0.146259993315      1.007947000000
   177 mop_tetramer.pdb_176       1 mop_tetramer.pdb C          1      0.123999997973     12.010780000000
   178 mop_tetramer.pdb_177       1 mop_tetramer.pdb O          1     -0.428429991007     15.999430000000
   179 mop_tetramer.pdb_178       1 mop_tetramer.pdb H          1      0.050999999046      1.007947000000
   180 mop_tetramer.pdb_179       1 mop_tetramer.pdb H          1      0.050999999046      1.007947000000
   181 mop_tetramer.pdb_180       1 mop_tetramer.pdb H          1      0.050999999046      1.007947000000
   182 mop_tetramer.pdb_181       1 mop_tetramer.pdb C          1     -0.115359999239     12.010780000000
   183 mop_tetramer.pdb_182       1 mop_tetramer.pdb C          1      0.189109995961     12.010780000000
   184 mop_tetramer.pdb_183       1 mop_tetramer.pdb C          1     -0.115359999239     12.010780000000
   185 mop_tetramer.pdb_184       1 mop_tetramer.pdb C          1     -0.115359999239     12.010780000000
   186 mop_tetramer.pdb_185       1 mop_tetramer.pdb O          1     -0.449919998646     15.999430000000
   187 mop_tetramer.pdb_186       1 mop_tetramer.pdb C          1      0.755209982395     12.010780000000
   188 mop_tetramer.pdb_187       1 mop_tetramer.pdb O          1     -0.602949976921     15.999430000000
   189 mop_tetramer.pdb_188       1 mop_tetramer.pdb H          1      0.052200000733      1.007947000000
   190 mop_tetramer.pdb_189       1 mop_tetramer.pdb H          1      0.052200000733      1.007947000000
   191 mop_tetramer.pdb_190       1 mop_tetramer.pdb H          1      0.052200000733      1.007947000000
   192 mop_tetramer.pdb_191       1 mop_tetramer.pdb H          1      0.052200000733      1.007947000000
   193 mop_tetramer.pdb_192       1 mop_tetramer.pdb H          1      0.052200000733      1.007947000000
   194 mop_tetramer.pdb_193       1 mop_tetramer.pdb H          1      0.052200000733      1.007947000000
   195 mop_tetramer.pdb_194       1 mop_tetramer.pdb H          1      0.052200000733      1.007947000000
   196 mop_tetramer.pdb_195       1 mop_tetramer.pdb H          1      0.052200000733      1.007947000000
   197 mop_tetramer.pdb_196       1 mop_tetramer.pdb H          1      0.052200000733      1.007947000000

[ pairs ]
;ai    aj   funct
    50	    77	     1
   182	   194	     1
     8	    19	     1
    47	    50	     1
     7	    28	     1
    50	    57	     1
     4	   178	     1
    98	   103	     1
    18	    38	     1
   149	   152	     1
   141	   146	     1
   152	   155	     1
    20	    34	     1
    63	    86	     1
   139	   157	     1
    50	    88	     1
     2	     4	     1
    82	    85	     1
   184	   196	     1
   186	   192	     1
   164	   165	     1
   185	   194	     1
   182	   187	     1
   106	   122	     1
    53	    64	     1
   167	   168	     1
   151	   174	     1
    96	   107	     1
    16	    19	     1
   145	   160	     1
    91	   115	     1
    15	    28	     1
    95	   116	     1
   152	   168	     1
   123	   124	     1
    11	    14	     1
    19	    40	     1
   126	   127	     1
    15	    35	     1
    62	    81	     1
   107	   133	     1
   184	   189	     1
   108	   124	     1
    54	    75	     1
   111	   127	     1
    93	   131	     1
    46	    69	     1
   110	   129	     1
     1	     5	     1
   185	   187	     1
    22	    69	     1
   156	   159	     1
    26	    27	     1
   151	   167	     1
    49	    52	     1
    66	    92	     1
   150	   169	     1
    93	   113	     1
    89	   112	     1
    65	    81	     1
   141	   152	     1
    15	    21	     1
   109	   135	     1
    47	    87	     1
    10	    15	     1
    10	    31	     1
   151	   187	     1
    56	    57	     1
    62	    67	     1
   182	   193	     1
    51	    54	     1
    25	   178	     1
    99	   120	     1
     7	    27	     1
   166	   167	     1
   101	   116	     1
   102	   103	     1
    66	    85	     1
    22	    42	     1
   142	   163	     1
    95	   113	     1
    32	    33	     1
   140	   165	     1
    63	    85	     1
   138	   176	     1
    82	    84	     1
   170	   174	     1
   184	   195	     1
    55	    72	     1
   104	   125	     1
   183	   188	     1
   182	   197	     1
   108	   110	     1
   186	   191	     1
   185	   193	     1
     8	    11	     1
    49	    69	     1
     7	    20	     1
    94	   121	     1
   151	   173	     1
     6	    13	     1
   127	   135	     1
    94	   101	     1
    48	    51	     1
     9	    16	     1
   153	   169	     1
    97	   104	     1
   150	   155	     1
    92	   112	     1
     3	    27	     1
    15	    18	     1
    16	    36	     1
   135	   175	     1
    67	    83	     1
    91	    94	     1
    19	    39	     1
   139	   160	     1
    51	    71	     1
     1	    24	     1
    54	    74	     1
     8	    24	     1
   133	   137	     1
    58	    59	     1
    50	    53	     1
    45	    68	     1
    98	   119	     1
   155	   171	     1
    46	    48	     1
     6	    26	     1
    94	   114	     1
    97	   108	     1
    17	    20	     1
     6	    33	     1
    18	    34	     1
    20	    23	     1
    65	    80	     1
    64	    82	     1
   137	   157	     1
   109	   134	     1
   126	   130	     1
   140	   151	     1
   144	   145	     1
    34	    35	     1
   135	   159	     1
   175	   176	     1
   134	   157	     1
    45	    88	     1
     5	    43	     1
   170	   171	     1
    52	    55	     1
   107	   129	     1
    51	    64	     1
   186	   197	     1
    55	    58	     1
    62	    66	     1
     1	    44	     1
   185	   190	     1
    53	    60	     1
    48	    68	     1
    90	   113	     1
     7	    10	     1
   154	   173	     1
    66	    84	     1
    13	    28	     1
    93	    96	     1
   146	   147	     1
    60	    81	     1
    67	    89	     1
    19	    45	     1
    61	    65	     1
   136	   139	     1
    52	    68	     1
    48	    88	     1
    50	    70	     1
   182	   196	     1
   153	   186	     1
    50	    59	     1
    91	   131	     1
   106	   111	     1
   127	   134	     1
   153	   168	     1
    21	    47	     1
   100	   101	     1
   141	   148	     1
    20	    36	     1
   139	   159	     1
   133	   176	     1
     1	   179	     1
   110	   136	     1
   109	   124	     1
    52	    61	     1
   133	   156	     1
   108	   122	     1
   186	   194	     1
    99	   116	     1
    98	   118	     1
    38	    39	     1
    24	    27	     1
    65	    90	     1
    93	   102	     1
    20	    22	     1
   148	   169	     1
   152	   170	     1
   136	   176	     1
    92	    95	     1
    95	    98	     1
    19	    42	     1
   136	   156	     1
   143	   164	     1
   126	   129	     1
   171	   186	     1
   135	   138	     1
   184	   191	     1
   138	   141	     1
   108	   126	     1
    59	    62	     1
    54	    77	     1
   107	   128	     1
    89	   132	     1
   103	   123	     1
   185	   189	     1
     7	    16	     1
     8	    34	     1
   102	   112	     1
     7	    43	     1
    97	   120	     1
   154	   172	     1
    89	   114	     1
    94	    97	     1
     9	    12	     1
    90	    92	     1
    18	    37	     1
    97	   100	     1
     2	   177	     1
   152	   154	     1
    35	    36	     1
   137	   140	     1
    19	    35	     1
    69	    70	     1
    83	    91	     1
   140	   143	     1
   138	   165	     1
    64	    78	     1
    61	    64	     1
    52	    78	     1
   138	   145	     1
   154	   183	     1
   182	   195	     1
     6	     9	     1
    99	   102	     1
    49	    58	     1
   106	   110	     1
    18	    23	     1
    38	    45	     1
   142	   165	     1
   126	   133	     1
    21	    37	     1
     9	    32	     1
    95	   115	     1
    12	    13	     1
   149	   153	     1
    51	    87	     1
     2	    25	     1
     3	    43	     1
   111	   133	     1
   138	   158	     1
   184	   197	     1
    59	    79	     1
   155	   187	     1
    51	    60	     1
    58	    68	     1
   186	   193	     1
   110	   128	     1
    53	    76	     1
   104	   107	     1
    92	   132	     1
     8	    13	     1
    53	    56	     1
    23	    39	     1
     6	    15	     1
    94	   103	     1
    22	    48	     1
    76	    77	     1
    39	    47	     1
    96	    99	     1
    95	   108	     1
   170	   187	     1
   137	   146	     1
    19	    41	     1
     5	    25	     1
   139	   142	     1
    10	    30	     1
   184	   190	     1
    59	    72	     1
     1	    26	     1
   107	   127	     1
   182	   192	     1
     8	    17	     1
    66	   113	     1
   114	   115	     1
    45	    70	     1
    98	   121	     1
     8	    33	     1
    38	    42	     1
   105	   109	     1
    22	    41	     1
   142	   162	     1
     4	     7	     1
    96	   112	     1
   146	   156	     1
   141	   164	     1
    11	    28	     1
   139	   175	     1
    70	    71	     1
   141	   144	     1
    63	    84	     1
    14	    15	     1
    52	    77	     1
    82	    83	     1
   170	   173	     1
    60	    63	     1
    52	    57	     1
    59	    65	     1
   104	   124	     1
   186	   190	     1
   185	   192	     1
   103	   106	     1
     8	    37	     1
   151	   172	     1
    23	    45	     1
    18	    22	     1
    66	    86	     1
    96	   125	     1
   150	   154	     1
    96	   105	     1
    21	    36	     1
     4	    24	     1
   152	   166	     1
    78	    79	     1
   140	   166	     1
   143	   160	     1
    87	    88	     1
   139	   148	     1
    63	    79	     1
   113	   114	     1
   184	   187	     1
    54	    73	     1
   108	   111	     1
   153	   188	     1
     3	     6	     1
    39	    46	     1
    52	    81	     1
    16	    37	     1
    20	    38	     1
     4	    44	     1
   147	   167	     1
   139	   152	     1
    11	    32	     1
     1	   181	     1
    82	    89	     1
    10	    29	     1
    52	    63	     1
   133	   158	     1
    51	    72	     1
   134	   136	     1
   186	   196	     1
   106	   126	     1
     7	    25	     1
    38	    41	     1
    45	    49	     1
   105	   108	     1
     7	    32	     1
     3	   177	     1
    96	   122	     1
    17	    21	     1
    22	    40	     1
   142	   161	     1
    95	   120	     1
    43	    44	     1
    60	    80	     1
   148	   151	     1
    63	    83	     1
   147	   160	     1
   143	   146	     1
   171	   188	     1
    64	    67	     1
    10	    33	     1
   170	   172	     1
    51	    76	     1
    62	    78	     1
    47	    71	     1
   107	   130	     1
   186	   189	     1
   103	   116	     1
    54	    59	     1
   185	   191	     1
    95	   131	     1
   151	   171	     1
   154	   174	     1
   158	   159	     1
     9	    14	     1
    97	   102	     1
    21	    46	     1
    95	   104	     1
   140	   156	     1
     5	     8	     1
   140	   145	     1
   147	   153	     1
    57	    72	     1
    82	    86	     1
    49	    87	     1
   138	   147	     1
   120	   121	     1
    51	    69	     1
   112	   115	     1
   107	   123	     1
   103	   109	     1
    98	   117	     1
    79	    80	     1
    25	    26	     1
   150	   166	     1
   137	   175	     1
   142	   147	     1
   148	   168	     1
   140	   169	     1
    64	    80	     1
    63	    89	     1
   126	   128	     1
   110	   157	     1
   140	   149	     1
    62	    82	     1
   122	   123	     1
     1	   180	     1
     5	    14	     1
   109	   125	     1
    55	    76	     1
    94	   132	     1
   131	   132	     1
   186	   195	     1
   110	   130	     1
   106	   125	     1
    53	    58	     1
   150	   170	     1
    38	    40	     1
     6	    44	     1
     9	    20	     1
    96	   121	     1
    65	    91	     1
   157	   158	     1
    89	    93	     1
    96	   101	     1
    14	    24	     1
   139	   164	     1
    83	    90	     1
   147	   150	     1
    68	    71	     1
    64	    66	     1

[ bonds ]
;ai    aj   funct r k
     1      3      1      0.145462892503  233580.248617646750 
     1    178      1      0.134574123280  252005.673256632901 
     1      2      1      0.122519838622  487602.327766196802 
     3      4      1      0.138719322718  301905.092578520998 
     4      5      1      0.138719322718  301905.092578520998 
     4     26      1      0.108535849592  332422.631675317942 
     5     27      1      0.108535849592  332422.631675317942 
     5      6      1      0.138719322718  301905.092578520998 
     6      7      1      0.145462892503  233580.248617646750 
     7     14      1      0.138719322718  301905.092578520998 
     8      9      1      0.138719322718  301905.092578520998 
     7      8      1      0.138719322718  301905.092578520998 
     9     10      1      0.138719322718  301905.092578520998 
    10     11      1      0.136294580649  356218.264001121745 
    10     13      1      0.138719322718  301905.092578520998 
    11     12      1      0.142589505373  306888.771877388994 
    12     29      1      0.109389949263  309655.084322414012 
    12     30      1      0.109389949263  309655.084322414012 
    13     32      1      0.108535849592  332422.631675317942 
    13     14      1      0.138719322718  301905.092578520998 
    14     33      1      0.108535849592  332422.631675317942 
     8     15      1      0.145462892503  233580.248617646750 
    15     20      1      0.138719322718  301905.092578520998 
    15     16      1      0.138719322718  301905.092578520998 
    16     17      1      0.138719322718  301905.092578520998 
    17     18      1      0.138719322718  301905.092578520998 
    18     19      1      0.138719322718  301905.092578520998 
    19     20      1      0.138719322718  301905.092578520998 
    19     21      1      0.149864681646  242452.869388089370 
    20     37      1      0.108535849592  332422.631675317942 
    21     22      1      0.145009858627  294600.927775905351 
    21     38      1      0.109389949263  309655.084322414012 
    22     45      1      0.138189777668  412347.817359175009 
    21     23      1      0.152190126495  221435.259290285845 
    23     41      1      0.109389949263  309655.084322414012 
     6     24      1      0.138719322718  301905.092578520998 
    24     25      1      0.138719322718  301905.092578520998 
     3     25      1      0.138719322718  301905.092578520998 
     9     28      1      0.108535849592  332422.631675317942 
    12     31      1      0.109389949263  309655.084322414012 
    16     34      1      0.108535849592  332422.631675317942 
    17     35      1      0.108535849592  332422.631675317942 
    18     36      1      0.108535849592  332422.631675317942 
    22     39      1      0.101948186503  422704.914414302446 
    23     40      1      0.109389949263  309655.084322414012 
    23     42      1      0.109389949263  309655.084322414012 
    24     43      1      0.108535849592  332422.631675317942 
    25     44      1      0.108535849592  332422.631675317942 
    45     47      1      0.145462892503  233580.248617646750 
    45     46      1      0.122519838622  487602.327766196802 
    47     48      1      0.138719322718  301905.092578520998 
    47     69      1      0.138719322718  301905.092578520998 
    48     49      1      0.138719322718  301905.092578520998 
    49     71      1      0.108535849592  332422.631675317942 
    49     50      1      0.138719322718  301905.092578520998 
    50     51      1      0.145462892503  233580.248617646750 
    51     52      1      0.138719322718  301905.092578520998 
    51     58      1      0.138719322718  301905.092578520998 
    52     53      1      0.138719322718  301905.092578520998 
    53     72      1      0.108535849592  332422.631675317942 
    53     54      1      0.138719322718  301905.092578520998 
    54     55      1      0.136294580649  356218.264001121745 
    55     56      1      0.142589505373  306888.771877388994 
    56     73      1      0.109389949263  309655.084322414012 
    54     57      1      0.138719322718  301905.092578520998 
    57     76      1      0.108535849592  332422.631675317942 
    57     58      1      0.138719322718  301905.092578520998 
    59     64      1      0.138719322718  301905.092578520998 
    52     59      1      0.145462892503  233580.248617646750 
    59     60      1      0.138719322718  301905.092578520998 
    61     62      1      0.138719322718  301905.092578520998 
    60     61      1      0.138719322718  301905.092578520998 
    62     63      1      0.138719322718  301905.092578520998 
    63     65      1      0.149864681646  242452.869388089370 
    63     64      1      0.138719322718  301905.092578520998 
    64     81      1      0.108535849592  332422.631675317942 
    65     67      1      0.152190126495  221435.259290285845 
    65     82      1      0.109389949263  309655.084322414012 
    65     66      1      0.145009858627  294600.927775905351 
    67     85      1      0.109389949263  309655.084322414012 
    67     86      1      0.109389949263  309655.084322414012 
    68     87      1      0.108535849592  332422.631675317942 
    50     68      1      0.138719322718  301905.092578520998 
    68     69      1      0.138719322718  301905.092578520998 
    48     70      1      0.108535849592  332422.631675317942 
    56     74      1      0.109389949263  309655.084322414012 
    56     75      1      0.109389949263  309655.084322414012 
    58     77      1      0.108535849592  332422.631675317942 
    60     78      1      0.108535849592  332422.631675317942 
    61     79      1      0.108535849592  332422.631675317942 
    62     80      1      0.108535849592  332422.631675317942 
    66     83      1      0.101948186503  422704.914414302446 
    67     84      1      0.109389949263  309655.084322414012 
    69     88      1      0.108535849592  332422.631675317942 
    66     89      1      0.138189777668  412347.817359175009 
    89     91      1      0.145462892503  233580.248617646750 
    89     90      1      0.122519838622  487602.327766196802 
    91     92      1      0.138719322718  301905.092578520998 
    92     93      1      0.138719322718  301905.092578520998 
    92    114      1      0.108535849592  332422.631675317942 
    93    115      1      0.108535849592  332422.631675317942 
    93     94      1      0.138719322718  301905.092578520998 
    94     95      1      0.145462892503  233580.248617646750 
    95     96      1      0.138719322718  301905.092578520998 
    96     97      1      0.138719322718  301905.092578520998 
    96    103      1      0.145462892503  233580.248617646750 
    97    116      1      0.108535849592  332422.631675317942 
    98     99      1      0.136294580649  356218.264001121745 
    97     98      1      0.138719322718  301905.092578520998 
   100    117      1      0.109389949263  309655.084322414012 
    99    100      1      0.142589505373  306888.771877388994 
    98    101      1      0.138719322718  301905.092578520998 
   101    102      1      0.138719322718  301905.092578520998 
    95    102      1      0.138719322718  301905.092578520998 
   103    104      1      0.138719322718  301905.092578520998 
   103    108      1      0.138719322718  301905.092578520998 
   104    105      1      0.138719322718  301905.092578520998 
   105    106      1      0.138719322718  301905.092578520998 
   106    124      1      0.108535849592  332422.631675317942 
   106    107      1      0.138719322718  301905.092578520998 
   107    109      1      0.149864681646  242452.869388089370 
   107    108      1      0.138719322718  301905.092578520998 
   109    126      1      0.109389949263  309655.084322414012 
   109    111      1      0.152190126495  221435.259290285845 
   109    110      1      0.145009858627  294600.927775905351 
   110    127      1      0.101948186503  422704.914414302446 
   111    130      1      0.109389949263  309655.084322414012 
   111    129      1      0.109389949263  309655.084322414012 
   111    128      1      0.109389949263  309655.084322414012 
    94    112      1      0.138719322718  301905.092578520998 
    91    113      1      0.138719322718  301905.092578520998 
   112    113      1      0.138719322718  301905.092578520998 
   100    118      1      0.109389949263  309655.084322414012 
   100    119      1      0.109389949263  309655.084322414012 
   101    120      1      0.108535849592  332422.631675317942 
   102    121      1      0.108535849592  332422.631675317942 
   104    122      1      0.108535849592  332422.631675317942 
   105    123      1      0.108535849592  332422.631675317942 
   108    125      1      0.108535849592  332422.631675317942 
   112    131      1      0.108535849592  332422.631675317942 
   113    132      1      0.108535849592  332422.631675317942 
   110    133      1      0.138189777668  412347.817359175009 
   133    134      1      0.122519838622  487602.327766196802 
   133    135      1      0.145462892503  233580.248617646750 
   135    136      1      0.138719322718  301905.092578520998 
   136    158      1      0.108535849592  332422.631675317942 
   137    159      1      0.108535849592  332422.631675317942 
   136    137      1      0.138719322718  301905.092578520998 
   137    138      1      0.138719322718  301905.092578520998 
   139    140      1      0.138719322718  301905.092578520998 
   138    139      1      0.145462892503  233580.248617646750 
   140    147      1      0.145462892503  233580.248617646750 
   141    160      1      0.108535849592  332422.631675317942 
   140    141      1      0.138719322718  301905.092578520998 
   141    142      1      0.138719322718  301905.092578520998 
   142    143      1      0.136294580649  356218.264001121745 
   144    162      1      0.109389949263  309655.084322414012 
   143    144      1      0.142589505373  306888.771877388994 
   142    145      1      0.138719322718  301905.092578520998 
   145    146      1      0.138719322718  301905.092578520998 
   139    146      1      0.138719322718  301905.092578520998 
   147    152      1      0.138719322718  301905.092578520998 
   147    148      1      0.138719322718  301905.092578520998 
   148    149      1      0.138719322718  301905.092578520998 
   149    150      1      0.138719322718  301905.092578520998 
   150    151      1      0.138719322718  301905.092578520998 
   150    168      1      0.108535849592  332422.631675317942 
   151    153      1      0.149864681646  242452.869388089370 
   152    169      1      0.108535849592  332422.631675317942 
   151    152      1      0.138719322718  301905.092578520998 
   153    170      1      0.109389949263  309655.084322414012 
   153    154      1      0.145009858627  294600.927775905351 
   154    187      1      0.138189777668  412347.817359175009 
   153    155      1      0.152190126495  221435.259290285845 
   155    173      1      0.109389949263  309655.084322414012 
   156    157      1      0.138719322718  301905.092578520998 
   138    156      1      0.138719322718  301905.092578520998 
   135    157      1      0.138719322718  301905.092578520998 
   144    161      1      0.109389949263  309655.084322414012 
   144    163      1      0.109389949263  309655.084322414012 
   145    164      1      0.108535849592  332422.631675317942 
   146    165      1      0.108535849592  332422.631675317942 
   148    166      1      0.108535849592  332422.631675317942 
   149    167      1      0.108535849592  332422.631675317942 
   154    171      1      0.101948186503  422704.914414302446 
   155    172      1      0.109389949263  309655.084322414012 
   155    174      1      0.109389949263  309655.084322414012 
   156    175      1      0.108535849592  332422.631675317942 
   157    176      1      0.108535849592  332422.631675317942 
   177    179      1      0.109389949263  309655.084322414012 
   177    180      1      0.109389949263  309655.084322414012 
   177    178      1      0.142589505373  306888.771877388994 
   177    181      1      0.109389949263  309655.084322414012 
   182    183      1      0.152190126495  221435.259290285845 
   182    189      1      0.109389949263  309655.084322414012 
   182    190      1      0.109389949263  309655.084322414012 
   183    184      1      0.152190126495  221435.259290285845 
   184    193      1      0.109389949263  309655.084322414012 
   184    194      1      0.109389949263  309655.084322414012 
   184    192      1      0.109389949263  309655.084322414012 
   185    197      1      0.109389949263  309655.084322414012 
   183    185      1      0.152190126495  221435.259290285845 
   183    186      1      0.142589505373  306888.771877388994 
   186    187      1      0.134574123280  252005.673256632901 
   187    188      1      0.122519838622  487602.327766196802 
   182    191      1      0.109389949263  309655.084322414012 
   185    195      1      0.109389949263  309655.084322414012 
   185    196      1      0.109389949263  309655.084322414012 

[ angles ]
;ai    aj   ak   funct theta  k
    45     47     48      1     126.806242045100     484.492885493347 
    23     21     38      1     116.547586263400     445.222086509286 
   110    109    111      1     116.547586263400     445.222086509286 
    62     63     64      1     126.806242045100     484.492885493347 
    49     50     68      1     126.806242045100     484.492885493347 
     9     10     11      1     126.806242045100     484.492885493347 
   184    183    185      1     116.547586263400     445.222086509286 
   104    103    108      1     126.806242045100     484.492885493347 
    14     13     32      1     129.183592992600     285.070774532144 
     2      1      3      1     126.806242045100     484.492885493347 
    10     13     32      1     129.183592992600     285.070774532144 
   151    150    168      1     129.183592992600     285.070774532144 
    60     61     79      1     129.183592992600     285.070774532144 
   193    184    194      1     115.603099953300     408.161690475075 
   129    111    130      1     115.603099953300     408.161690475075 
    52     59     60      1     126.806242045100     484.492885493347 
    89     91     92      1     126.806242045100     484.492885493347 
   147    152    151      1     126.806242045100     484.492885493347 
    93     94     95      1     126.806242045100     484.492885493347 
   162    144    163      1     115.603099953300     408.161690475075 
     8     15     16      1     126.806242045100     484.492885493347 
    47     48     70      1     129.183592992600     285.070774532144 
    59     60     78      1     129.183592992600     285.070774532144 
    54     57     76      1     129.183592992600     285.070774532144 
    94    112    113      1     126.806242045100     484.492885493347 
   173    155    174      1     115.603099953300     408.161690475075 
   179    177    180      1     115.603099953300     408.161690475075 
    19     21     22      1     116.547586263400     445.222086509286 
   140    147    152      1     126.806242045100     484.492885493347 
    62     61     79      1     129.183592992600     285.070774532144 
     1      3     25      1     126.806242045100     484.492885493347 
   138    139    146      1     126.806242045100     484.492885493347 
   137    138    139      1     126.806242045100     484.492885493347 
   140    141    142      1     126.806242045100     484.492885493347 
    22     45     47      1     126.806242045100     484.492885493347 
   151    153    155      1     116.547586263400     445.222086509286 
   103    104    105      1     126.806242045100     484.492885493347 
   106    107    108      1     126.806242045100     484.492885493347 
   161    144    163      1     115.603099953300     408.161690475075 
    17     18     19      1     126.806242045100     484.492885493347 
    55     54     57      1     126.806242045100     484.492885493347 
    55     56     73      1     116.547586263400     445.222086509286 
     8     15     20      1     126.806242045100     484.492885493347 
   192    184    193      1     115.603099953300     408.161690475075 
   104    105    123      1     129.183592992600     285.070774532144 
    21     23     42      1     116.547586263400     445.222086509286 
   109    111    128      1     116.547586263400     445.222086509286 
   150    149    167      1     129.183592992600     285.070774532144 
   185    183    186      1     116.547586263400     445.222086509286 
   153    155    173      1     116.547586263400     445.222086509286 
    18     17     35      1     129.183592992600     285.070774532144 
   150    151    152      1     126.806242045100     484.492885493347 
    84     67     86      1     115.603099953300     408.161690475075 
     3      4      5      1     126.806242045100     484.492885493347 
    63     65     66      1     116.547586263400     445.222086509286 
     1    178    177      1     110.353880618100     544.678275491328 
     5      6     24      1     126.806242045100     484.492885493347 
    17     16     34      1     129.183592992600     285.070774532144 
   106    105    123      1     129.183592992600     285.070774532144 
   127    110    133      1     115.507132767400     530.901282784327 
     6      5     27      1     129.183592992600     285.070774532144 
     2      1    178      1     127.469141619100    1685.413543333009 
   182    183    186      1     116.547586263400     445.222086509286 
    64     63     65      1     126.806242045100     484.492885493347 
   139    140    141      1     126.806242045100     484.492885493347 
    19     20     37      1     129.183592992600     285.070774532144 
    65     67     84      1     116.547586263400     445.222086509286 
    11     12     31      1     116.547586263400     445.222086509286 
   137    138    156      1     126.806242045100     484.492885493347 
   145    146    165      1     129.183592992600     285.070774532144 
   154    187    188      1     126.806242045100     484.492885493347 
   196    185    197      1     115.603099953300     408.161690475075 
   157    156    175      1     129.183592992600     285.070774532144 
    73     56     75      1     115.603099953300     408.161690475075 
    91    113    112      1     126.806242045100     484.492885493347 
   178    177    179      1     116.547586263400     445.222086509286 
    98     97    116      1     129.183592992600     285.070774532144 
    15     20     37      1     129.183592992600     285.070774532144 
    85     67     86      1     115.603099953300     408.161690475075 
    51     58     77      1     129.183592992600     285.070774532144 
     7      8      9      1     126.806242045100     484.492885493347 
    47     48     49      1     126.806242045100     484.492885493347 
    51     58     57      1     126.806242045100     484.492885493347 
   138    156    157      1     126.806242045100     484.492885493347 
    99     98    101      1     126.806242045100     484.492885493347 
    99    100    117      1     116.547586263400     445.222086509286 
    91    113    132      1     129.183592992600     285.070774532144 
    95     96    103      1     126.806242045100     484.492885493347 
   143    144    162      1     116.547586263400     445.222086509286 
    97     98     99      1     126.806242045100     484.492885493347 
     1      3      4      1     126.806242045100     484.492885493347 
   183    184    194      1     116.547586263400     445.222086509286 
   108    107    109      1     126.806242045100     484.492885493347 
     6      7      8      1     126.806242045100     484.492885493347 
    22     45     46      1     126.806242045100     484.492885493347 
    60     61     62      1     126.806242045100     484.492885493347 
    96    103    108      1     126.806242045100     484.492885493347 
    17     18     36      1     129.183592992600     285.070774532144 
   107    106    124      1     129.183592992600     285.070774532144 
    21     23     41      1     116.547586263400     445.222086509286 
   135    157    176      1     129.183592992600     285.070774532144 
   139    140    147      1     126.806242045100     484.492885493347 
    29     12     31      1     115.603099953300     408.161690475075 
   107    109    111      1     116.547586263400     445.222086509286 
   195    185    197      1     115.603099953300     408.161690475075 
   135    157    156      1     126.806242045100     484.492885493347 
     7      8     15      1     126.806242045100     484.492885493347 
    74     56     75      1     115.603099953300     408.161690475075 
    84     67     85      1     115.603099953300     408.161690475075 
   128    111    130      1     115.603099953300     408.161690475075 
    54     53     72      1     129.183592992600     285.070774532144 
    10     11     12      1     110.353880618100     544.678275491328 
    25     24     43      1     129.183592992600     285.070774532144 
    22     21     23      1     116.547586263400     445.222086509286 
    66     65     82      1     116.547586263400     445.222086509286 
     6      7     14      1     126.806242045100     484.492885493347 
   183    182    189      1     116.547586263400     445.222086509286 
     5      4     26      1     129.183592992600     285.070774532144 
    96     95    102      1     126.806242045100     484.492885493347 
    96     97     98      1     126.806242045100     484.492885493347 
   182    183    185      1     116.547586263400     445.222086509286 
   104    105    106      1     126.806242045100     484.492885493347 
   117    100    119      1     115.603099953300     408.161690475075 
   142    141    160      1     129.183592992600     285.070774532144 
    10     13     14      1     126.806242045100     484.492885493347 
   140    147    148      1     126.806242045100     484.492885493347 
    11     12     30      1     116.547586263400     445.222086509286 
    63     62     80      1     129.183592992600     285.070774532144 
   109    110    133      1     117.346557051400     463.769802376852 
    91     92    114      1     129.183592992600     285.070774532144 
     3     25     24      1     126.806242045100     484.492885493347 
    61     60     78      1     129.183592992600     285.070774532144 
   101    102    121      1     129.183592992600     285.070774532144 
    18     19     20      1     126.806242045100     484.492885493347 
    65     66     89      1     117.346557051400     463.769802376852 
   156    157    176      1     129.183592992600     285.070774532144 
     3      1    178      1     126.806242045100     484.492885493347 
    11     10     13      1     126.806242045100     484.492885493347 
    19     21     38      1     116.547586263400     445.222086509286 
    51     50     68      1     126.806242045100     484.492885493347 
   143    144    161      1     116.547586263400     445.222086509286 
     5      6      7      1     126.806242045100     484.492885493347 
    58     57     76      1     129.183592992600     285.070774532144 
    98    101    120      1     129.183592992600     285.070774532144 
    53     52     59      1     126.806242045100     484.492885493347 
     4      5      6      1     126.806242045100     484.492885493347 
    83     66     89      1     115.507132767400     530.901282784327 
   189    182    190      1     115.603099953300     408.161690475075 
    50     51     52      1     126.806242045100     484.492885493347 
    53     54     55      1     126.806242045100     484.492885493347 
     3     25     44      1     129.183592992600     285.070774532144 
   110    109    126      1     116.547586263400     445.222086509286 
   147    148    166      1     129.183592992600     285.070774532144 
   107    109    110      1     116.547586263400     445.222086509286 
   195    185    196      1     115.603099953300     408.161690475075 
    54     57     58      1     126.806242045100     484.492885493347 
   153    154    171      1     115.507132767400     530.901282784327 
   183    185    195      1     116.547586263400     445.222086509286 
   138    137    159      1     129.183592992600     285.070774532144 
   140    139    146      1     126.806242045100     484.492885493347 
   133    135    136      1     126.806242045100     484.492885493347 
    66     89     90      1     126.806242045100     484.492885493347 
    52     53     72      1     129.183592992600     285.070774532144 
    55     56     75      1     116.547586263400     445.222086509286 
    59     64     81      1     129.183592992600     285.070774532144 
   110    133    135      1     126.806242045100     484.492885493347 
    48     47     69      1     126.806242045100     484.492885493347 
   152    151    153      1     126.806242045100     484.492885493347 
   109    111    130      1     116.547586263400     445.222086509286 
   102    101    120      1     129.183592992600     285.070774532144 
   142    145    164      1     129.183592992600     285.070774532144 
   117    100    118      1     115.603099953300     408.161690475075 
   135    136    158      1     129.183592992600     285.070774532144 
    94     95     96      1     126.806242045100     484.492885493347 
    30     12     31      1     115.603099953300     408.161690475075 
     8      9     10      1     126.806242045100     484.492885493347 
    47     69     68      1     126.806242045100     484.492885493347 
   103    108    125      1     129.183592992600     285.070774532144 
   111    109    126      1     116.547586263400     445.222086509286 
   151    153    170      1     116.547586263400     445.222086509286 
   141    142    143      1     126.806242045100     484.492885493347 
    15     20     19      1     126.806242045100     484.492885493347 
    48     49     71      1     129.183592992600     285.070774532144 
    96    103    104      1     126.806242045100     484.492885493347 
   146    145    164      1     129.183592992600     285.070774532144 
    61     62     80      1     129.183592992600     285.070774532144 
    45     47     69      1     126.806242045100     484.492885493347 
    50     51     58      1     126.806242045100     484.492885493347 
    50     68     87      1     129.183592992600     285.070774532144 
    66     65     67      1     116.547586263400     445.222086509286 
    68     69     88      1     129.183592992600     285.070774532144 
   107    108    125      1     129.183592992600     285.070774532144 
    65     67     86      1     116.547586263400     445.222086509286 
   184    183    186      1     116.547586263400     445.222086509286 
   113    112    131      1     129.183592992600     285.070774532144 
    63     64     81      1     129.183592992600     285.070774532144 
    40     23     42      1     115.603099953300     408.161690475075 
     7     14     13      1     126.806242045100     484.492885493347 
    92     91    113      1     126.806242045100     484.492885493347 
   154    153    170      1     116.547586263400     445.222086509286 
   151    153    154      1     116.547586263400     445.222086509286 
   161    144    162      1     115.603099953300     408.161690475075 
   178    177    181      1     116.547586263400     445.222086509286 
   141    140    147      1     126.806242045100     484.492885493347 
    15     16     34      1     129.183592992600     285.070774532144 
   153    155    172      1     116.547586263400     445.222086509286 
   179    177    181      1     115.603099953300     408.161690475075 
    13     14     33      1     129.183592992600     285.070774532144 
    99    100    119      1     116.547586263400     445.222086509286 
    94     95    102      1     126.806242045100     484.492885493347 
     7     14     33      1     129.183592992600     285.070774532144 
   112    113    132      1     129.183592992600     285.070774532144 
     8      7     14      1     126.806242045100     484.492885493347 
    97     96    103      1     126.806242045100     484.492885493347 
   151    152    169      1     129.183592992600     285.070774532144 
     6     24     43      1     129.183592992600     285.070774532144 
   118    100    119      1     115.603099953300     408.161690475075 
   110    133    134      1     126.806242045100     484.492885493347 
   192    184    194      1     115.603099953300     408.161690475075 
   147    148    149      1     126.806242045100     484.492885493347 
    92     93    115      1     129.183592992600     285.070774532144 
    51     52     53      1     126.806242045100     484.492885493347 
     3      4     26      1     129.183592992600     285.070774532144 
   135    136    137      1     126.806242045100     484.492885493347 
   138    139    140      1     126.806242045100     484.492885493347 
   147    152    169      1     129.183592992600     285.070774532144 
    73     56     74      1     115.603099953300     408.161690475075 
   183    182    191      1     116.547586263400     445.222086509286 
   136    135    157      1     126.806242045100     484.492885493347 
   107    109    126      1     116.547586263400     445.222086509286 
    61     62     63      1     126.806242045100     484.492885493347 
    65     67     85      1     116.547586263400     445.222086509286 
     9     10     13      1     126.806242045100     484.492885493347 
   148    149    150      1     126.806242045100     484.492885493347 
    40     23     41      1     115.603099953300     408.161690475075 
    54     55     56      1     110.353880618100     544.678275491328 
   140    141    160      1     129.183592992600     285.070774532144 
    49     48     70      1     129.183592992600     285.070774532144 
    95    102    121      1     129.183592992600     285.070774532144 
   148    147    152      1     126.806242045100     484.492885493347 
   183    184    193      1     116.547586263400     445.222086509286 
    46     45     47      1     126.806242045100     484.492885493347 
    95    102    101      1     126.806242045100     484.492885493347 
   178    177    180      1     116.547586263400     445.222086509286 
    69     68     87      1     129.183592992600     285.070774532144 
   171    154    187      1     115.507132767400     530.901282784327 
    15     16     17      1     126.806242045100     484.492885493347 
   136    137    159      1     129.183592992600     285.070774532144 
    94    112    131      1     129.183592992600     285.070774532144 
   153    154    187      1     117.346557051400     463.769802376852 
    98     99    100      1     110.353880618100     544.678275491328 
    21     23     40      1     116.547586263400     445.222086509286 
    29     12     30      1     115.603099953300     408.161690475075 
    63     65     82      1     116.547586263400     445.222086509286 
    51     52     59      1     126.806242045100     484.492885493347 
   190    182    191      1     115.603099953300     408.161690475075 
    99    100    118      1     116.547586263400     445.222086509286 
   143    144    163      1     116.547586263400     445.222086509286 
   128    111    129      1     115.603099953300     408.161690475075 
   172    155    174      1     115.603099953300     408.161690475075 
     4      3     25      1     126.806242045100     484.492885493347 
   149    150    168      1     129.183592992600     285.070774532144 
    52     59     64      1     126.806242045100     484.492885493347 
    41     23     42      1     115.603099953300     408.161690475075 
   143    142    145      1     126.806242045100     484.492885493347 
    22     21     38      1     116.547586263400     445.222086509286 
    98    101    102      1     126.806242045100     484.492885493347 
    67     65     82      1     116.547586263400     445.222086509286 
    53     54     57      1     126.806242045100     484.492885493347 
    16     17     18      1     126.806242045100     484.492885493347 
    90     89     91      1     126.806242045100     484.492885493347 
   182    183    184      1     116.547586263400     445.222086509286 
    59     64     63      1     126.806242045100     484.492885493347 
    16     15     20      1     126.806242045100     484.492885493347 
   148    149    167      1     129.183592992600     285.070774532144 
    11     12     29      1     116.547586263400     445.222086509286 
   183    185    197      1     116.547586263400     445.222086509286 
    92     93     94      1     126.806242045100     484.492885493347 
    95     96     97      1     126.806242045100     484.492885493347 
    57     58     77      1     129.183592992600     285.070774532144 
   154    187    186      1     126.806242045100     484.492885493347 
   142    143    144      1     110.353880618100     544.678275491328 
   180    177    181      1     115.603099953300     408.161690475075 
    50     49     71      1     129.183592992600     285.070774532144 
   154    153    155      1     116.547586263400     445.222086509286 
    52     51     58      1     126.806242045100     484.492885493347 
    93     94    112      1     126.806242045100     484.492885493347 
   183    182    190      1     116.547586263400     445.222086509286 
   139    138    156      1     126.806242045100     484.492885493347 
    93     92    114      1     129.183592992600     285.070774532144 
    52     53     54      1     126.806242045100     484.492885493347 
     7      6     24      1     126.806242045100     484.492885493347 
    91     92     93      1     126.806242045100     484.492885493347 
    21     22     39      1     115.507132767400     530.901282784327 
    47     69     88      1     129.183592992600     285.070774532144 
   138    156    175      1     129.183592992600     285.070774532144 
    62     63     65      1     126.806242045100     484.492885493347 
   155    153    170      1     116.547586263400     445.222086509286 
   105    106    107      1     126.806242045100     484.492885493347 
    50     68     69      1     126.806242045100     484.492885493347 
     8      9     28      1     129.183592992600     285.070774532144 
   142    145    146      1     126.806242045100     484.492885493347 
    95     94    112      1     126.806242045100     484.492885493347 
    89     91    113      1     126.806242045100     484.492885493347 
   183    184    192      1     116.547586263400     445.222086509286 
   103    104    122      1     129.183592992600     285.070774532144 
   137    136    158      1     129.183592992600     285.070774532144 
    20     19     21      1     126.806242045100     484.492885493347 
   103    108    107      1     126.806242045100     484.492885493347 
   141    142    145      1     126.806242045100     484.492885493347 
     4      5     27      1     129.183592992600     285.070774532144 
   109    110    127      1     115.507132767400     530.901282784327 
   136    137    138      1     126.806242045100     484.492885493347 
    18     19     21      1     126.806242045100     484.492885493347 
    19     21     23      1     116.547586263400     445.222086509286 
    19     18     36      1     129.183592992600     285.070774532144 
    49     50     51      1     126.806242045100     484.492885493347 
   105    104    122      1     129.183592992600     285.070774532144 
    97     98    101      1     126.806242045100     484.492885493347 
   172    155    173      1     115.603099953300     408.161690475075 
     6     24     25      1     126.806242045100     484.492885493347 
     9      8     15      1     126.806242045100     484.492885493347 
   106    107    109      1     126.806242045100     484.492885493347 
    60     59     64      1     126.806242045100     484.492885493347 
    55     56     74      1     116.547586263400     445.222086509286 
   189    182    191      1     115.603099953300     408.161690475075 
    96     97    116      1     129.183592992600     285.070774532144 
   109    111    129      1     116.547586263400     445.222086509286 
    21     22     45      1     117.346557051400     463.769802376852 
    16     17     35      1     129.183592992600     285.070774532144 
   134    133    135      1     126.806242045100     484.492885493347 
   153    155    174      1     116.547586263400     445.222086509286 
    24     25     44      1     129.183592992600     285.070774532144 
   105    106    124      1     129.183592992600     285.070774532144 
    59     60     61      1     126.806242045100     484.492885493347 
    65     66     83      1     115.507132767400     530.901282784327 
   150    151    153      1     126.806242045100     484.492885493347 
   183    186    187      1     110.353880618100     544.678275491328 
   183    185    196      1     116.547586263400     445.222086509286 
    94     93    115      1     129.183592992600     285.070774532144 
    63     65     67      1     116.547586263400     445.222086509286 
    39     22     45      1     115.507132767400     530.901282784327 
   133    135    157      1     126.806242045100     484.492885493347 
   186    187    188      1     127.469141619100    1685.413543333009 
   139    146    165      1     129.183592992600     285.070774532144 
   149    150    151      1     126.806242045100     484.492885493347 
    66     89     91      1     126.806242045100     484.492885493347 
    10      9     28      1     129.183592992600     285.070774532144 
   149    148    166      1     129.183592992600     285.070774532144 
   139    146    145      1     126.806242045100     484.492885493347 
    48     49     50      1     126.806242045100     484.492885493347 

[ dihedrals ]
;ai    aj   ak   al   funct phi  k
    95   102   101   120     1    180.000000000000     15.321515534534                 2
   184   183   185   197     1      0.000000000000      0.435413753811                 3
   149   150   151   152     1    180.000000000000     15.321515534534                 2
    66    89    91    92     1    180.000000000000      4.173190890070                 2
   170   153   155   174     1      0.000000000000      0.799950138473                 3
   156   138   137   159     1    180.000000000000     15.321515534534                 2
   186   183   184   193     1      0.000000000000      0.466735938990                 3
   186   183   184   193     1      0.000000000000      1.436153909162                 1
   102    95    94   112     1    180.000000000000      4.866977563957                 2
   104   103   108   107     1    180.000000000000     15.321515534534                 2
   107   109   111   128     1      0.000000000000      0.483407861024                 3
   184   183   182   190     1      0.000000000000      0.435413753811                 3
    64    63    65    67     1      0.000000000000      0.111501038139                 3
   151   153   154   187     1    180.000000000000     -2.883499339083                 2
   151   153   154   187     1      0.000000000000      1.141330947302                 1
    53    54    55    56     1    180.000000000000      6.410861677363                 2
    61    62    63    64     1    180.000000000000     15.321515534534                 2
    92    91   113   132     1    180.000000000000     15.321515534534                 2
   182   183   185   197     1      0.000000000000      0.435413753811                 3
    15    16    17    18     1    180.000000000000     15.321515534534                 2
    14     7     8    15     1    180.000000000000     15.321515534534                 2
    51    52    59    60     1    180.000000000000      4.866977563957                 2
    21    22    45    47     1    180.000000000000      7.569054279773                 2
    21    22    45    47     1      0.000000000000     -0.201513062842                 1
    52    51    50    68     1    180.000000000000      4.866977563957                 2
    94    95   102   121     1    180.000000000000     15.321515534534                 2
   150   149   148   166     1    180.000000000000     15.321515534534                 2
    12    11    10    13     1    180.000000000000      6.410861677363                 2
   152   151   153   154     1      0.000000000000      0.111501038139                 3
    96   103   104   105     1    180.000000000000     15.321515534534                 2
    98    97    96   103     1    180.000000000000     15.321515534534                 2
    69    47    48    70     1    180.000000000000     15.321515534534                 2
     7     8     9    28     1    180.000000000000     15.321515534534                 2
    94    95   102   101     1    180.000000000000     15.321515534534                 2
    52    59    64    81     1    180.000000000000     15.321515534534                 2
    48    49    50    51     1    180.000000000000     15.321515534534                 2
    52    53    54    55     1    180.000000000000     15.321515534534                 2
     1   178   177   181     1      0.000000000000      0.198220506977                 3
   102    95    96   103     1    180.000000000000     15.321515534534                 2
    53    54    57    58     1    180.000000000000     15.321515534534                 2
    19    21    22    39     1      0.000000000000      0.762485897686                 2
    19    21    22    39     1      0.000000000000      0.124362804952                 3
   141   140   147   152     1    180.000000000000      4.866977563957                 2
   126   109   111   130     1      0.000000000000      0.799950138473                 3
    51    52    59    64     1    180.000000000000      4.866977563957                 2
   185   183   184   193     1      0.000000000000      0.435413753811                 3
   108   107   106   124     1    180.000000000000     15.321515534534                 2
   106   105   104   122     1    180.000000000000     15.321515534534                 2
   144   143   142   145     1    180.000000000000      6.410861677363                 2
     6     5     4    26     1    180.000000000000     15.321515534534                 2
   143   142   145   146     1    180.000000000000     15.321515534534                 2
    63    65    66    89     1    180.000000000000     -2.883499339083                 2
    63    65    66    89     1      0.000000000000      1.141330947302                 1
   109   110   133   134     1    180.000000000000     12.978553656010                 2
   109   110   133   134     1      0.000000000000     -1.779100933344                 1
    65    63    64    81     1    180.000000000000     15.321515534534                 2
    45    47    69    88     1    180.000000000000     15.321515534534                 2
    17    18    19    21     1    180.000000000000     15.321515534534                 2
    59    64    63    62     1    180.000000000000     15.321515534534                 2
   110   109   111   130     1      0.000000000000      0.483407861024                 3
    18    19    20    37     1    180.000000000000     15.321515534534                 2
   107   109   110   127     1      0.000000000000      0.762485897686                 2
   107   109   110   127     1      0.000000000000      0.124362804952                 3
    17    16    15    20     1    180.000000000000     15.321515534534                 2
   185   183   182   190     1      0.000000000000      0.435413753811                 3
   137   138   156   157     1    180.000000000000     15.321515534534                 2
   103   108   107   109     1    180.000000000000     15.321515534534                 2
   155   153   154   171     1      0.000000000000      0.762485897686                 2
   155   153   154   171     1      0.000000000000      0.124362804952                 3
     3     1   178   177     1    180.000000000000     11.630908055712                 2
    94   112   113   132     1    180.000000000000     15.321515534534                 2
   182   183   184   192     1      0.000000000000      0.435413753811                 3
    89    91    92    93     1    180.000000000000     15.321515534534                 2
    43    24    25    44     1    180.000000000000     15.321515534534                 2
    67    65    66    83     1      0.000000000000      0.762485897686                 2
    67    65    66    83     1      0.000000000000      0.124362804952                 3
   103   104   105   106     1    180.000000000000     15.321515534534                 2
     1     3     4    26     1    180.000000000000     15.321515534534                 2
    98    99   100   119     1      0.000000000000      0.198220506977                 3
   147   140   141   160     1    180.000000000000     15.321515534534                 2
    64    59    60    78     1    180.000000000000     15.321515534534                 2
    48    49    50    68     1    180.000000000000     15.321515534534                 2
   184   183   185   196     1      0.000000000000      0.435413753811                 3
     7     8    15    16     1    180.000000000000      4.866977563957                 2
   170   153   155   173     1      0.000000000000      0.799950138473                 3
    19    21    22    45     1    180.000000000000     -2.883499339083                 2
    19    21    22    45     1      0.000000000000      1.141330947302                 1
     8    15    20    19     1    180.000000000000     15.321515534534                 2
   186   183   185   197     1      0.000000000000      0.466735938990                 3
   186   183   185   197     1      0.000000000000      1.436153909162                 1
    55    54    53    72     1    180.000000000000     15.321515534534                 2
   164   145   146   165     1    180.000000000000     15.321515534534                 2
    96    97    98    99     1    180.000000000000     15.321515534534                 2
    20    19    21    22     1      0.000000000000      0.111501038139                 3
    53    52    59    64     1    180.000000000000      4.866977563957                 2
    21    22    45    46     1    180.000000000000     12.978553656010                 2
    21    22    45    46     1      0.000000000000     -1.779100933344                 1
   139   140   141   160     1    180.000000000000     15.321515534534                 2
    20    19    21    38     1      0.000000000000      0.111501038139                 3
    38    21    23    41     1      0.000000000000      0.799950138473                 3
     9    10    13    32     1    180.000000000000     15.321515534534                 2
   112    94    93   115     1    180.000000000000     15.321515534534                 2
    66    65    67    85     1      0.000000000000      0.483407861024                 3
    50    68    69    88     1    180.000000000000     15.321515534534                 2
    97    96   103   108     1    180.000000000000      4.866977563957                 2
    91    92    93   115     1    180.000000000000     15.321515534534                 2
    51    50    49    71     1    180.000000000000     15.321515534534                 2
    60    59    64    63     1    180.000000000000     15.321515534534                 2
    95    96   103   108     1    180.000000000000      4.866977563957                 2
   153   151   150   168     1    180.000000000000     15.321515534534                 2
   135   157   156   175     1    180.000000000000     15.321515534534                 2
    54    53    52    59     1    180.000000000000     15.321515534534                 2
   150   151   153   170     1      0.000000000000      0.111501038139                 3
     8     7    14    13     1    180.000000000000     15.321515534534                 2
    32    13    14    33     1    180.000000000000     15.321515534534                 2
    94    95    96    97     1    180.000000000000     15.321515534534                 2
    62    63    65    82     1      0.000000000000      0.111501038139                 3
    95    96    97    98     1    180.000000000000     15.321515534534                 2
     1   178   177   180     1      0.000000000000      0.198220506977                 3
    82    65    66    83     1      0.000000000000      0.762485897686                 2
    82    65    66    83     1      0.000000000000      0.124362804952                 3
    22    21    23    42     1      0.000000000000      0.483407861024                 3
    50    51    58    77     1    180.000000000000     15.321515534534                 2
    65    66    89    90     1    180.000000000000     12.978553656010                 2
    65    66    89    90     1      0.000000000000     -1.779100933344                 1
     6     7     8     9     1    180.000000000000     15.321515534534                 2
    54    57    58    77     1    180.000000000000     15.321515534534                 2
   101    98    97   116     1    180.000000000000     15.321515534534                 2
    50    51    58    57     1    180.000000000000     15.321515534534                 2
   141   142   145   164     1    180.000000000000     15.321515534534                 2
     3     4     5    27     1    180.000000000000     15.321515534534                 2
   120   101   102   121     1    180.000000000000     15.321515534534                 2
   182   183   186   187     1      0.000000000000      0.802605161760                 3
   182   183   186   187     1    180.000000000000      3.850192060290                 1
    51    50    68    69     1    180.000000000000     15.321515534534                 2
   139   138   156   157     1    180.000000000000     15.321515534534                 2
   185   183   184   192     1      0.000000000000      0.435413753811                 3
   122   104   105   123     1    180.000000000000     15.321515534534                 2
   147   152   151   150     1    180.000000000000     15.321515534534                 2
    90    89    91   113     1    180.000000000000      4.173190890070                 2
   133   135   136   158     1    180.000000000000     15.321515534534                 2
     6     7    14    13     1    180.000000000000     15.321515534534                 2
    67    65    66    89     1    180.000000000000     -0.622862944840                 4
    67    65    66    89     1    180.000000000000     -0.514769632165                 3
    67    65    66    89     1      0.000000000000      1.229801223351                 2
    67    65    66    89     1      0.000000000000     -1.265294746367                 1
    63    65    67    86     1      0.000000000000      0.483407861024                 3
    10    13    14    33     1    180.000000000000     15.321515534534                 2
    79    61    62    80     1    180.000000000000     15.321515534534                 2
   139   146   145   142     1    180.000000000000     15.321515534534                 2
     8     9    10    11     1    180.000000000000     15.321515534534                 2
     9     8    15    16     1    180.000000000000      4.866977563957                 2
     8     7    14    33     1    180.000000000000     15.321515534534                 2
   136   135   157   156     1    180.000000000000     15.321515534534                 2
   171   154   187   186     1    180.000000000000      7.569054279773                 2
   171   154   187   186     1      0.000000000000     -0.201513062842                 1
   100    99    98   101     1    180.000000000000      6.410861677363                 2
   110   133   135   157     1    180.000000000000      4.173190890070                 2
   110   109   111   129     1      0.000000000000      0.483407861024                 3
    48    47    69    88     1    180.000000000000     15.321515534534                 2
    25     3     1   178     1    180.000000000000      4.173190890070                 2
   185   183   182   189     1      0.000000000000      0.435413753811                 3
     6     7     8    15     1    180.000000000000     15.321515534534                 2
   135   136   137   138     1    180.000000000000     15.321515534534                 2
   154   153   155   172     1      0.000000000000      0.483407861024                 3
    35    17    18    36     1    180.000000000000     15.321515534534                 2
     3    25    24    43     1    180.000000000000     15.321515534534                 2
   152   151   153   170     1      0.000000000000      0.111501038139                 3
     5     4     3    25     1    180.000000000000     15.321515534534                 2
    99    98   101   102     1    180.000000000000     15.321515534534                 2
   108   107   109   110     1      0.000000000000      0.111501038139                 3
   153   154   187   188     1    180.000000000000      7.569054279773                 2
   153   154   187   188     1      0.000000000000     -0.201513062842                 1
    96    95   102   121     1    180.000000000000     15.321515534534                 2
   151   153   155   174     1      0.000000000000      0.483407861024                 3
     1     3     4     5     1    180.000000000000     15.321515534534                 2
    53    52    51    58     1    180.000000000000     15.321515534534                 2
    96    95   102   101     1    180.000000000000     15.321515534534                 2
   150   151   152   169     1    180.000000000000     15.321515534534                 2
     9     8    15    20     1    180.000000000000      4.866977563957                 2
    59    64    63    65     1    180.000000000000     15.321515534534                 2
   146   139   140   147     1    180.000000000000     15.321515534534                 2
    62    63    64    81     1    180.000000000000     15.321515534534                 2
    23    21    22    45     1    180.000000000000     -0.622862944840                 4
    23    21    22    45     1    180.000000000000     -0.514769632165                 3
    23    21    22    45     1      0.000000000000      1.229801223351                 2
    23    21    22    45     1      0.000000000000     -1.265294746367                 1
    19    21    23    42     1      0.000000000000      0.483407861024                 3
     8    15    16    17     1    180.000000000000     15.321515534534                 2
    59    60    61    79     1    180.000000000000     15.321515534534                 2
    55    54    57    76     1    180.000000000000     15.321515534534                 2
   105   106   107   108     1    180.000000000000     15.321515534534                 2
   185   183   186   187     1      0.000000000000      0.802605161760                 3
   185   183   186   187     1    180.000000000000      3.850192060290                 1
   141   140   147   148     1    180.000000000000      4.866977563957                 2
    93    94    95    96     1    180.000000000000      4.866977563957                 2
    95    94   112   131     1    180.000000000000     15.321515534534                 2
    62    61    60    78     1    180.000000000000     15.321515534534                 2
    38    21    23    40     1      0.000000000000      0.799950138473                 3
    10     9     8    15     1    180.000000000000     15.321515534534                 2
   109   107   108   125     1    180.000000000000     15.321515534534                 2
    97    98   101   120     1    180.000000000000     15.321515534534                 2
    66    65    67    84     1      0.000000000000      0.483407861024                 3
   145   142   141   160     1    180.000000000000     15.321515534534                 2
   108   103   104   122     1    180.000000000000     15.321515534534                 2
    95    94   112   113     1    180.000000000000     15.321515534534                 2
     4     3    25    24     1    180.000000000000     15.321515534534                 2
   104   105   106   124     1    180.000000000000     15.321515534534                 2
    91    92    93    94     1    180.000000000000     15.321515534534                 2
   140   147   152   151     1    180.000000000000     15.321515534534                 2
    45    47    48    70     1    180.000000000000     15.321515534534                 2
   103    96    97   116     1    180.000000000000     15.321515534534                 2
    10    11    12    30     1      0.000000000000      0.198220506977                 3
    24     6     5    27     1    180.000000000000     15.321515534534                 2
   157   135   136   158     1    180.000000000000     15.321515534534                 2
    22    21    23    41     1      0.000000000000      0.483407861024                 3
     4     5     6    24     1    180.000000000000     15.321515534534                 2
    52    59    60    78     1    180.000000000000     15.321515534534                 2
   107   109   111   130     1      0.000000000000      0.483407861024                 3
    52    59    64    63     1    180.000000000000     15.321515534534                 2
    64    63    62    80     1    180.000000000000     15.321515534534                 2
     4     3     1   178     1    180.000000000000      4.173190890070                 2
   140   139   146   165     1    180.000000000000     15.321515534534                 2
     7     6    24    43     1    180.000000000000     15.321515534534                 2
    50    51    52    53     1    180.000000000000     15.321515534534                 2
    93    92    91   113     1    180.000000000000     15.321515534534                 2
   140   139   146   145     1    180.000000000000     15.321515534534                 2
     5     6    24    43     1    180.000000000000     15.321515534534                 2
    54    55    56    74     1      0.000000000000      0.198220506977                 3
    90    89    91    92     1    180.000000000000      4.173190890070                 2
   133   135   136   137     1    180.000000000000     15.321515534534                 2
   170   153   154   171     1      0.000000000000      0.762485897686                 2
   170   153   154   171     1      0.000000000000      0.124362804952                 3
   175   156   157   176     1    180.000000000000     15.321515534534                 2
   127   110   133   135     1    180.000000000000      7.569054279773                 2
   127   110   133   135     1      0.000000000000     -0.201513062842                 1
    96    95    94   112     1    180.000000000000      4.866977563957                 2
     4     3    25    44     1    180.000000000000     15.321515534534                 2
   149   148   147   152     1    180.000000000000     15.321515534534                 2
    58    51    50    68     1    180.000000000000      4.866977563957                 2
    16    17    18    19     1    180.000000000000     15.321515534534                 2
     2     1     3    25     1    180.000000000000      4.173190890070                 2
    89    91   113   112     1    180.000000000000     15.321515534534                 2
    82    65    67    84     1      0.000000000000      0.799950138473                 3
    50    49    48    70     1    180.000000000000     15.321515534534                 2
    52    53    54    57     1    180.000000000000     15.321515534534                 2
    19    18    17    35     1    180.000000000000     15.321515534534                 2
    46    45    47    69     1    180.000000000000      4.173190890070                 2
   135   157   156   138     1    180.000000000000     15.321515534534                 2
    49    50    51    52     1    180.000000000000      4.866977563957                 2
   155   153   154   187     1    180.000000000000     -0.622862944840                 4
   155   153   154   187     1    180.000000000000     -0.514769632165                 3
   155   153   154   187     1      0.000000000000      1.229801223351                 2
   155   153   154   187     1      0.000000000000     -1.265294746367                 1
   110   109   111   128     1      0.000000000000      0.483407861024                 3
    91   113   112   131     1    180.000000000000     15.321515534534                 2
   142   143   144   162     1      0.000000000000      0.198220506977                 3
   186   183   182   190     1      0.000000000000      0.466735938990                 3
   186   183   182   190     1      0.000000000000      1.436153909162                 1
   110   133   135   136     1    180.000000000000      4.173190890070                 2
   148   147   152   169     1    180.000000000000     15.321515534534                 2
    93    94    95   102     1    180.000000000000      4.866977563957                 2
    76    57    58    77     1    180.000000000000     15.321515534534                 2
   147   152   151   153     1    180.000000000000     15.321515534534                 2
    53    52    59    60     1    180.000000000000      4.866977563957                 2
    96   103   108   125     1    180.000000000000     15.321515534534                 2
    51    52    53    72     1    180.000000000000     15.321515534534                 2
    89    91   113   132     1    180.000000000000     15.321515534534                 2
    97    96   103   104     1    180.000000000000      4.866977563957                 2
   139   138   137   159     1    180.000000000000     15.321515534534                 2
   151   150   149   167     1    180.000000000000     15.321515534534                 2
    58    51    52    59     1    180.000000000000     15.321515534534                 2
    95    96   103   104     1    180.000000000000      4.866977563957                 2
    56    55    54    57     1    180.000000000000      6.410861677363                 2
   138   139   146   165     1    180.000000000000     15.321515534534                 2
    25     3     4    26     1    180.000000000000     15.321515534534                 2
    18    19    21    23     1      0.000000000000      0.111501038139                 3
   152   147   148   166     1    180.000000000000     15.321515534534                 2
   138   156   157   176     1    180.000000000000     15.321515534534                 2
   138   139   146   145     1    180.000000000000     15.321515534534                 2
   186   183   184   192     1      0.000000000000      0.466735938990                 3
   186   183   184   192     1      0.000000000000      1.436153909162                 1
    19    21    23    41     1      0.000000000000      0.483407861024                 3
   184   183   182   189     1      0.000000000000      0.435413753811                 3
    64    63    65    66     1      0.000000000000      0.111501038139                 3
     3    25    24     6     1    180.000000000000     15.321515534534                 2
   139   140   147   152     1    180.000000000000      4.866977563957                 2
     8    15    16    34     1    180.000000000000     15.321515534534                 2
    47    69    68    50     1    180.000000000000     15.321515534534                 2
   182   183   185   196     1      0.000000000000      0.435413753811                 3
    78    60    61    79     1    180.000000000000     15.321515534534                 2
   148   149   150   168     1    180.000000000000     15.321515534534                 2
     8     7     6    24     1    180.000000000000      4.866977563957                 2
     9    10    13    14     1    180.000000000000     15.321515534534                 2
   182   183   184   194     1      0.000000000000      0.435413753811                 3
   143   142   141   160     1    180.000000000000     15.321515534534                 2
   136   137   138   156     1    180.000000000000     15.321515534534                 2
    38    21    22    39     1      0.000000000000      0.762485897686                 2
    38    21    22    39     1      0.000000000000      0.124362804952                 3
    97    96    95   102     1    180.000000000000     15.321515534534                 2
   141   140   139   146     1    180.000000000000     15.321515534534                 2
    93    94   112   131     1    180.000000000000     15.321515534534                 2
   138   139   140   141     1    180.000000000000     15.321515534534                 2
   111   109   110   127     1      0.000000000000      0.762485897686                 2
   111   109   110   127     1      0.000000000000      0.124362804952                 3
   149   150   151   153     1    180.000000000000     15.321515534534                 2
    10    11    12    29     1      0.000000000000      0.198220506977                 3
    45    47    48    49     1    180.000000000000     15.321515534534                 2
   184   183   186   187     1      0.000000000000      0.802605161760                 3
   184   183   186   187     1    180.000000000000      3.850192060290                 1
    13    10     9    28     1    180.000000000000     15.321515534534                 2
   126   109   111   129     1      0.000000000000      0.799950138473                 3
    96    97    98   101     1    180.000000000000     15.321515534534                 2
    59    60    61    62     1    180.000000000000     15.321515534534                 2
    59    52    53    72     1    180.000000000000     15.321515534534                 2
    83    66    89    91     1    180.000000000000      7.569054279773                 2
    83    66    89    91     1      0.000000000000     -0.201513062842                 1
    97    98    99   100     1    180.000000000000      6.410861677363                 2
   141   142   143   144     1    180.000000000000      6.410861677363                 2
   108   107   109   126     1      0.000000000000      0.111501038139                 3
    54    55    56    73     1      0.000000000000      0.198220506977                 3
   139   140   141   142     1    180.000000000000     15.321515534534                 2
   152   151   153   155     1      0.000000000000      0.111501038139                 3
   106   107   109   111     1      0.000000000000      0.111501038139                 3
   136   135   157   176     1    180.000000000000     15.321515534534                 2
   140   139   138   156     1    180.000000000000      4.866977563957                 2
   104   105   106   107     1    180.000000000000     15.321515534534                 2
   113    91    92   114     1    180.000000000000     15.321515534534                 2
    94    93    92   114     1    180.000000000000     15.321515534534                 2
   107   109   110   133     1    180.000000000000     -2.883499339083                 2
   107   109   110   133     1      0.000000000000      1.141330947302                 1
    16    17    18    36     1    180.000000000000     15.321515534534                 2
    17    18    19    20     1    180.000000000000     15.321515534534                 2
    95    94    93   115     1    180.000000000000     15.321515534534                 2
   167   149   150   168     1    180.000000000000     15.321515534534                 2
     1     3    25    24     1    180.000000000000     15.321515534534                 2
    46    45    47    48     1    180.000000000000      4.173190890070                 2
   142   143   144   161     1      0.000000000000      0.198220506977                 3
    52    59    60    61     1    180.000000000000     15.321515534534                 2
   186   183   182   189     1      0.000000000000      0.466735938990                 3
   186   183   182   189     1      0.000000000000      1.436153909162                 1
    68    50    49    71     1    180.000000000000     15.321515534534                 2
    34    16    17    35     1    180.000000000000     15.321515534534                 2
   141   142   145   146     1    180.000000000000     15.321515534534                 2
    16    15    20    37     1    180.000000000000     15.321515534534                 2
    70    48    49    71     1    180.000000000000     15.321515534534                 2
   185   183   184   194     1      0.000000000000      0.435413753811                 3
   105   104   103   108     1    180.000000000000     15.321515534534                 2
    38    21    22    45     1      0.000000000000      0.762485897686                 2
    38    21    22    45     1      0.000000000000      0.124362804952                 3
    91   113   112    94     1    180.000000000000     15.321515534534                 2
     6     7    14    33     1    180.000000000000     15.321515534534                 2
   109   110   133   135     1    180.000000000000      7.569054279773                 2
   109   110   133   135     1      0.000000000000     -0.201513062842                 1
   153   154   187   186     1    180.000000000000      7.569054279773                 2
   153   154   187   186     1      0.000000000000     -0.201513062842                 1
     8     9    10    13     1    180.000000000000     15.321515534534                 2
   140   141   142   145     1    180.000000000000     15.321515534534                 2
    98    99   100   118     1      0.000000000000      0.198220506977                 3
    15    20    19    21     1    180.000000000000     15.321515534534                 2
   134   133   135   157     1    180.000000000000      4.173190890070                 2
   138   139   140   147     1    180.000000000000     15.321515534534                 2
    94    95    96   103     1    180.000000000000     15.321515534534                 2
    47    69    68    87     1    180.000000000000     15.321515534534                 2
   133   135   157   176     1    180.000000000000     15.321515534534                 2
   184   183   185   195     1      0.000000000000      0.435413753811                 3
   137   138   139   140     1    180.000000000000      4.866977563957                 2
    51    58    57    54     1    180.000000000000     15.321515534534                 2
    18    19    21    22     1      0.000000000000      0.111501038139                 3
    82    65    66    89     1      0.000000000000      0.762485897686                 2
    82    65    66    89     1      0.000000000000      0.124362804952                 3
   170   153   155   172     1      0.000000000000      0.799950138473                 3
     4     5     6     7     1    180.000000000000     15.321515534534                 2
    20    15    16    34     1    180.000000000000     15.321515534534                 2
    95   102   101    98     1    180.000000000000     15.321515534534                 2
   104   103   108   125     1    180.000000000000     15.321515534534                 2
   133   135   157   156     1    180.000000000000     15.321515534534                 2
   171   154   187   188     1    180.000000000000      2.033839522640                 2
   171   154   187   188     1      0.000000000000      3.730867000451                 1
   166   148   149   167     1    180.000000000000     15.321515534534                 2
   140   147   148   149     1    180.000000000000     15.321515534534                 2
   185   183   182   191     1      0.000000000000      0.435413753811                 3
   186   183   185   196     1      0.000000000000      0.466735938990                 3
   186   183   185   196     1      0.000000000000      1.436153909162                 1
     1     3    25    44     1    180.000000000000     15.321515534534                 2
   107   106   105   123     1    180.000000000000     15.321515534534                 2
   182   183   185   195     1      0.000000000000      0.435413753811                 3
    89    91    92   114     1    180.000000000000     15.321515534534                 2
   154   153   155   174     1      0.000000000000      0.483407861024                 3
    14     7     6    24     1    180.000000000000      4.866977563957                 2
    11    10    13    32     1    180.000000000000     15.321515534534                 2
   183   186   187   188     1    180.000000000000      4.869377577648                 2
   183   186   187   188     1    180.000000000000      0.702571835515                 1
    92    91   113   112     1    180.000000000000     15.321515534534                 2
     7     8     9    10     1    180.000000000000     15.321515534534                 2
    53    54    57    76     1    180.000000000000     15.321515534534                 2
   154   187   186   183     1    180.000000000000     11.630908055712                 2
     7    14    13    10     1    180.000000000000     15.321515534534                 2
   137   136   135   157     1    180.000000000000     15.321515534534                 2
     1   178   177   179     1      0.000000000000      0.198220506977                 3
    92    93    94   112     1    180.000000000000     15.321515534534                 2
     5     6     7     8     1    180.000000000000      4.866977563957                 2
   142   145   146   165     1    180.000000000000     15.321515534534                 2
     7     6    24    25     1    180.000000000000     15.321515534534                 2
   106   107   108   125     1    180.000000000000     15.321515534534                 2
    21    19    18    36     1    180.000000000000     15.321515534534                 2
   126   109   111   128     1      0.000000000000      0.799950138473                 3
    55    54    57    58     1    180.000000000000     15.321515534534                 2
    20    19    21    23     1      0.000000000000      0.111501038139                 3
   170   153   154   187     1      0.000000000000      0.762485897686                 2
   170   153   154   187     1      0.000000000000      0.124362804952                 3
     5     6    24    25     1    180.000000000000     15.321515534534                 2
    20    19    18    36     1    180.000000000000     15.321515534534                 2
    83    66    89    90     1    180.000000000000      9.825603686166                 2
    83    66    89    90     1      0.000000000000      5.255757435828                 1
   143   142   145   164     1    180.000000000000     15.321515534534                 2
   147   148   149   167     1    180.000000000000     15.321515534534                 2
   148   149   150   151     1    180.000000000000     15.321515534534                 2
    38    21    23    42     1      0.000000000000      0.799950138473                 3
   151   153   154   171     1      0.000000000000      0.762485897686                 2
   151   153   154   171     1      0.000000000000      0.124362804952                 3
    99    98    97   116     1    180.000000000000     15.321515534534                 2
    66    65    67    86     1      0.000000000000      0.483407861024                 3
     9    10    11    12     1    180.000000000000      6.410861677363                 2
    63    65    67    85     1      0.000000000000      0.483407861024                 3
   136   137   138   139     1    180.000000000000     15.321515534534                 2
    97    98   101   102     1    180.000000000000     15.321515534534                 2
   106   107   109   110     1      0.000000000000      0.111501038139                 3
    15    20    19    18     1    180.000000000000     15.321515534534                 2
     6    24    25    44     1    180.000000000000     15.321515534534                 2
   137   138   139   146     1    180.000000000000      4.866977563957                 2
    47    48    49    71     1    180.000000000000     15.321515534534                 2
    65    66    89    91     1    180.000000000000      7.569054279773                 2
    65    66    89    91     1      0.000000000000     -0.201513062842                 1
   140   147   148   166     1    180.000000000000     15.321515534534                 2
   137   138   156   175     1    180.000000000000     15.321515534534                 2
     3     4     5     6     1    180.000000000000     15.321515534534                 2
    57    54    53    72     1    180.000000000000     15.321515534534                 2
     5     6     7    14     1    180.000000000000      4.866977563957                 2
    62    63    65    67     1      0.000000000000      0.111501038139                 3
    45    47    69    68     1    180.000000000000     15.321515534534                 2
   139   140   147   148     1    180.000000000000      4.866977563957                 2
   109   107   106   124     1    180.000000000000     15.321515534534                 2
    63    62    61    79     1    180.000000000000     15.321515534534                 2
    22    45    47    69     1    180.000000000000      4.173190890070                 2
    87    68    69    88     1    180.000000000000     15.321515534534                 2
    98    99   100   117     1      0.000000000000      0.198220506977                 3
   151   153   155   173     1      0.000000000000      0.483407861024                 3
    82    65    67    86     1      0.000000000000      0.799950138473                 3
   150   151   153   155     1      0.000000000000      0.111501038139                 3
   153   151   152   169     1    180.000000000000     15.321515534534                 2
    64    63    65    82     1      0.000000000000      0.111501038139                 3
   134   133   135   136     1    180.000000000000      4.173190890070                 2
     2     1   178   177     1    180.000000000000      4.869377577648                 2
     2     1   178   177     1    180.000000000000      0.702571835515                 1
    39    22    45    47     1    180.000000000000      7.569054279773                 2
    39    22    45    47     1      0.000000000000     -0.201513062842                 1
    49    48    47    69     1    180.000000000000     15.321515534534                 2
   158   136   137   159     1    180.000000000000     15.321515534534                 2
   123   105   106   124     1    180.000000000000     15.321515534534                 2
   135   136   137   159     1    180.000000000000     15.321515534534                 2
   186   183   185   195     1      0.000000000000      0.466735938990                 3
   186   183   185   195     1      0.000000000000      1.436153909162                 1
    50    51    52    59     1    180.000000000000     15.321515534534                 2
   126   109   110   127     1      0.000000000000      0.762485897686                 2
   126   109   110   127     1      0.000000000000      0.124362804952                 3
   154   153   155   173     1      0.000000000000      0.483407861024                 3
   148   147   152   151     1    180.000000000000     15.321515534534                 2
    96   103   104   122     1    180.000000000000     15.321515534534                 2
    61    60    59    64     1    180.000000000000     15.321515534534                 2
    96   103   108   107     1    180.000000000000     15.321515534534                 2
    51    52    53    54     1    180.000000000000     15.321515534534                 2
   108   107   109   111     1      0.000000000000      0.111501038139                 3
    60    61    62    63     1    180.000000000000     15.321515534534                 2
    66    89    91   113     1    180.000000000000      4.173190890070                 2
    18    17    16    34     1    180.000000000000     15.321515534534                 2
    95    96    97   116     1    180.000000000000     15.321515534534                 2
   186   183   184   194     1      0.000000000000      0.466735938990                 3
   186   183   184   194     1      0.000000000000      1.436153909162                 1
    22    21    23    40     1      0.000000000000      0.483407861024                 3
     7    14    13    32     1    180.000000000000     15.321515534534                 2
    49    50    51    58     1    180.000000000000      4.866977563957                 2
    93    94   112   113     1    180.000000000000     15.321515534534                 2
   107   109   111   129     1      0.000000000000      0.483407861024                 3
   184   183   182   191     1      0.000000000000      0.435413753811                 3
   105   106   107   109     1    180.000000000000     15.321515534534                 2
   139   138   156   175     1    180.000000000000     15.321515534534                 2
    61    62    63    65     1    180.000000000000     15.321515534534                 2
     8    15    20    37     1    180.000000000000     15.321515534534                 2
    52    51    58    77     1    180.000000000000     15.321515534534                 2
    60    59    64    81     1    180.000000000000     15.321515534534                 2
   152   151   150   168     1    180.000000000000     15.321515534534                 2
    15    16    17    35     1    180.000000000000     15.321515534534                 2
    52    51    58    57     1    180.000000000000     15.321515534534                 2
    63    65    67    84     1      0.000000000000      0.483407861024                 3
    98   101   102   121     1    180.000000000000     15.321515534534                 2
   146   139   138   156     1    180.000000000000      4.866977563957                 2
   127   110   133   134     1    180.000000000000      9.825603686166                 2
   127   110   133   134     1      0.000000000000      5.255757435828                 1
   142   141   140   147     1    180.000000000000     15.321515534534                 2
     7     8    15    20     1    180.000000000000      4.866977563957                 2
   138   137   136   158     1    180.000000000000     15.321515534534                 2
    10    11    12    31     1      0.000000000000      0.198220506977                 3
     9     8     7    14     1    180.000000000000     15.321515534534                 2
    65    63    62    80     1    180.000000000000     15.321515534534                 2
    11    10     9    28     1    180.000000000000     15.321515534534                 2
    51    50    68    87     1    180.000000000000     15.321515534534                 2
     2     1     3     4     1    180.000000000000      4.173190890070                 2
    47    48    49    50     1    180.000000000000     15.321515534534                 2
    23    21    22    39     1      0.000000000000      0.762485897686                 2
    23    21    22    39     1      0.000000000000      0.124362804952                 3
    21    19    20    37     1    180.000000000000     15.321515534534                 2
    26     4     5    27     1    180.000000000000     15.321515534534                 2
    49    50    68    87     1    180.000000000000     15.321515534534                 2
    92    93    94    95     1    180.000000000000     15.321515534534                 2
    16    15    20    19     1    180.000000000000     15.321515534534                 2
    62    63    65    66     1      0.000000000000      0.111501038139                 3
   103   108   107   106     1    180.000000000000     15.321515534534                 2
    15     8     9    28     1    180.000000000000     15.321515534534                 2
    49    50    68    69     1    180.000000000000     15.321515534534                 2
   103   104   105   123     1    180.000000000000     15.321515534534                 2
    99    98   101   120     1    180.000000000000     15.321515534534                 2
   139   146   145   164     1    180.000000000000     15.321515534534                 2
    54    55    56    75     1      0.000000000000      0.198220506977                 3
   147   148   149   150     1    180.000000000000     15.321515534534                 2
    48    47    69    68     1    180.000000000000     15.321515534534                 2
   131   112   113   132     1    180.000000000000     15.321515534534                 2
   140   141   142   143     1    180.000000000000     15.321515534534                 2
   151   153   155   172     1      0.000000000000      0.483407861024                 3
    22    45    47    48     1    180.000000000000      4.173190890070                 2
    82    65    67    85     1      0.000000000000      0.799950138473                 3
   150   151   153   154     1      0.000000000000      0.111501038139                 3
    18    19    21    38     1      0.000000000000      0.111501038139                 3
    19    21    23    40     1      0.000000000000      0.483407861024                 3
    39    22    45    46     1    180.000000000000      9.825603686166                 2
    39    22    45    46     1      0.000000000000      5.255757435828                 1
   126   109   110   133     1      0.000000000000      0.762485897686                 2
   126   109   110   133     1      0.000000000000      0.124362804952                 3
   142   143   144   163     1      0.000000000000      0.198220506977                 3
   186   183   182   191     1      0.000000000000      0.466735938990                 3
   186   183   182   191     1      0.000000000000      1.436153909162                 1
    60    61    62    80     1    180.000000000000     15.321515534534                 2
   182   183   184   193     1      0.000000000000      0.435413753811                 3
    11    10    13    14     1    180.000000000000     15.321515534534                 2
   106   107   109   126     1      0.000000000000      0.111501038139                 3
   111   109   110   133     1    180.000000000000     -0.622862944840                 4
   111   109   110   133     1    180.000000000000     -0.514769632165                 3
   111   109   110   133     1      0.000000000000      1.229801223351                 2
   111   109   110   133     1      0.000000000000     -1.265294746367                 1
     7     6     5    27     1    180.000000000000     15.321515534534                 2
    63    65    66    83     1      0.000000000000      0.762485897686                 2
    63    65    66    83     1      0.000000000000      0.124362804952                 3
   140   147   152   169     1    180.000000000000     15.321515534534                 2
   114    92    93   115     1    180.000000000000     15.321515534534                 2
    51    58    57    76     1    180.000000000000     15.321515534534                 2
    18    19    36    17     4    180.000000000000      1.534133333333                 2
    48    49    70    47     4    180.000000000000      1.534133333333                 2
   157   156   176   135     4    180.000000000000      1.534133333333                 2
   138   156   137   139     4    180.000000000000      1.534133333333                 2
   140   141   147   139     4    180.000000000000      1.534133333333                 2
    63    62    64    65     4    180.000000000000      1.534133333333                 2
   112   131    94   113     4    180.000000000000      1.534133333333                 2
    16    15    17    34     4    180.000000000000      1.534133333333                 2
     3     4    25     1     4    180.000000000000      1.534133333333                 2
    25    24    44     3     4    180.000000000000      1.534133333333                 2
   141   140   142   160     4    180.000000000000      1.534133333333                 2
    47    48    69    45     4    180.000000000000      1.534133333333                 2
   101    98   102   120     4    180.000000000000      1.534133333333                 2
    49    48    50    71     4    180.000000000000      1.534133333333                 2
   157   135   156   176     4    180.000000000000      1.534133333333                 2
    45    22    46    47     4    180.000000000000      1.534133333333                 2
   151   150   152   153     4    180.000000000000      1.534133333333                 2
    62    63    80    61     4    180.000000000000      1.534133333333                 2
    61    60    62    79     4    180.000000000000      1.534133333333                 2
   137   138   159   136     4    180.000000000000      1.534133333333                 2
   139   138   140   146     4    180.000000000000      1.534133333333                 2
    66    83    89    65     4    180.000000000000      1.394666666667                 2
    20    19    37    15     4    180.000000000000      1.534133333333                 2
    69    68    88    47     4    180.000000000000      1.534133333333                 2
    25    44     3    24     4    180.000000000000      1.534133333333                 2
   113   132    91   112     4    180.000000000000      1.534133333333                 2
    60    78    59    61     4    180.000000000000      1.534133333333                 2
    16    17    34    15     4    180.000000000000      1.534133333333                 2
    54    55    57    53     4    180.000000000000      1.534133333333                 2
    19    20    21    18     4    180.000000000000      1.534133333333                 2
    91    89    92   113     4    180.000000000000      1.534133333333                 2
     4    26     3     5     4    180.000000000000      1.534133333333                 2
    52    53    59    51     4    180.000000000000      1.534133333333                 2
   156   157   175   138     4    180.000000000000      1.534133333333                 2
   147   148   152   140     4    180.000000000000      1.534133333333                 2
   108   125   103   107     4    180.000000000000      1.534133333333                 2
    58    57    77    51     4    180.000000000000      1.534133333333                 2
     8    15     7     9     4    180.000000000000      1.534133333333                 2
   140   139   141   147     4    180.000000000000      1.534133333333                 2
    96    97   103    95     4    180.000000000000      1.534133333333                 2
   157   176   135   156     4    180.000000000000      1.534133333333                 2
   108   107   125   103     4    180.000000000000      1.534133333333                 2
    51    58    50    52     4    180.000000000000      1.534133333333                 2
    16    34    15    17     4    180.000000000000      1.534133333333                 2
    89    66    90    91     4    180.000000000000      1.534133333333                 2
   141   160   140   142     4    180.000000000000      1.534133333333                 2
   104   105   122   103     4    180.000000000000      1.534133333333                 2
    61    62    79    60     4    180.000000000000      1.534133333333                 2
    45    47    22    46     4    180.000000000000      1.534133333333                 2
   148   147   149   166     4    180.000000000000      1.534133333333                 2
    69    88    47    68     4    180.000000000000      1.534133333333                 2
   146   165   139   145     4    180.000000000000      1.534133333333                 2
     1     2     3   178     4    180.000000000000     14.644000000000                 2
    94   112    93    95     4    180.000000000000      1.534133333333                 2
   136   137   158   135     4    180.000000000000      1.534133333333                 2
    13    32    10    14     4    180.000000000000      1.534133333333                 2
    24    25    43     6     4    180.000000000000      1.534133333333                 2
   154   187   153   171     4    180.000000000000      1.394666666667                 2
   150   151   168   149     4    180.000000000000      1.534133333333                 2
    50    51    68    49     4    180.000000000000      1.534133333333                 2
    13    14    32    10     4    180.000000000000      1.534133333333                 2
   138   139   156   137     4    180.000000000000      1.534133333333                 2
    10     9    11    13     4    180.000000000000      1.534133333333                 2
   142   145   141   143     4    180.000000000000      1.534133333333                 2
   150   149   151   168     4    180.000000000000      1.534133333333                 2
    66    89    65    83     4    180.000000000000      1.394666666667                 2
     5     4     6    27     4    180.000000000000      1.534133333333                 2
    15    16    20     8     4    180.000000000000      1.534133333333                 2
   106   105   107   124     4    180.000000000000      1.534133333333                 2
   113    91   112   132     4    180.000000000000      1.534133333333                 2
   110   127   133   109     4    180.000000000000      1.394666666667                 2
    97    96    98   116     4    180.000000000000      1.534133333333                 2
    94    93    95   112     4    180.000000000000      1.534133333333                 2
   136   135   137   158     4    180.000000000000      1.534133333333                 2
    63    65    62    64     4    180.000000000000      1.534133333333                 2
     5     6    27     4     4    180.000000000000      1.534133333333                 2
    18    36    17    19     4    180.000000000000      1.534133333333                 2
    50    68    49    51     4    180.000000000000      1.534133333333                 2
   149   167   148   150     4    180.000000000000      1.534133333333                 2
   151   152   153   150     4    180.000000000000      1.534133333333                 2
     3     1     4    25     4    180.000000000000      1.534133333333                 2
     7     8    14     6     4    180.000000000000      1.534133333333                 2
    64    81    59    63     4    180.000000000000      1.534133333333                 2
    64    63    81    59     4    180.000000000000      1.534133333333                 2
     8     9    15     7     4    180.000000000000      1.534133333333                 2
    62    61    63    80     4    180.000000000000      1.534133333333                 2
    22    39    45    21     4    180.000000000000      1.394666666667                 2
   101   102   120    98     4    180.000000000000      1.534133333333                 2
   137   159   136   138     4    180.000000000000      1.534133333333                 2
   103   104   108    96     4    180.000000000000      1.534133333333                 2
   133   134   135   110     4    180.000000000000      1.534133333333                 2
   148   166   147   149     4    180.000000000000      1.534133333333                 2
   147   152   140   148     4    180.000000000000      1.534133333333                 2
    68    50    69    87     4    180.000000000000      1.534133333333                 2
     9     8    10    28     4    180.000000000000      1.534133333333                 2
    92    91    93   114     4    180.000000000000      1.534133333333                 2
    17    18    35    16     4    180.000000000000      1.534133333333                 2
    94    95   112    93     4    180.000000000000      1.534133333333                 2
    95    96   102    94     4    180.000000000000      1.534133333333                 2
   135   136   157   133     4    180.000000000000      1.534133333333                 2
    19    21    18    20     4    180.000000000000      1.534133333333                 2
     4     3     5    26     4    180.000000000000      1.534133333333                 2
   108   103   107   125     4    180.000000000000      1.534133333333                 2
   112   113   131    94     4    180.000000000000      1.534133333333                 2
    98    97    99   101     4    180.000000000000      1.534133333333                 2
   104   103   105   122     4    180.000000000000      1.534133333333                 2
   135   133   136   157     4    180.000000000000      1.534133333333                 2
   142   141   143   145     4    180.000000000000      1.534133333333                 2
    52    51    53    59     4    180.000000000000      1.534133333333                 2
   133   135   110   134     4    180.000000000000      1.534133333333                 2
     6    24     5     7     4    180.000000000000      1.534133333333                 2
    45    46    47    22     4    180.000000000000      1.534133333333                 2
    98   101    97    99     4    180.000000000000      1.534133333333                 2
     7     6     8    14     4    180.000000000000      1.534133333333                 2
    10    11    13     9     4    180.000000000000      1.534133333333                 2
   141   142   160   140     4    180.000000000000      1.534133333333                 2
   146   139   145   165     4    180.000000000000      1.534133333333                 2
   139   140   146   138     4    180.000000000000      1.534133333333                 2
   146   145   165   139     4    180.000000000000      1.534133333333                 2
    96   103    95    97     4    180.000000000000      1.534133333333                 2
    91    92   113    89     4    180.000000000000      1.534133333333                 2
    69    47    68    88     4    180.000000000000      1.534133333333                 2
    66    65    83    89     4    180.000000000000      1.394666666667                 2
   106   107   124   105     4    180.000000000000      1.534133333333                 2
    62    80    61    63     4    180.000000000000      1.534133333333                 2
    91   113    89    92     4    180.000000000000      1.534133333333                 2
    97   116    96    98     4    180.000000000000      1.534133333333                 2
   105   123   104   106     4    180.000000000000      1.534133333333                 2
   107   109   106   108     4    180.000000000000      1.534133333333                 2
   102   121    95   101     4    180.000000000000      1.534133333333                 2
   142   143   145   141     4    180.000000000000      1.534133333333                 2
   187   188   154   186     4    180.000000000000     14.644000000000                 2
    59    60    64    52     4    180.000000000000      1.534133333333                 2
    47    45    48    69     4    180.000000000000      1.534133333333                 2
   102    95   101   121     4    180.000000000000      1.534133333333                 2
    15     8    16    20     4    180.000000000000      1.534133333333                 2
   133   110   134   135     4    180.000000000000      1.534133333333                 2
    22    21    39    45     4    180.000000000000      1.394666666667                 2
   107   108   109   106     4    180.000000000000      1.534133333333                 2
    49    50    71    48     4    180.000000000000      1.534133333333                 2
    48    70    47    49     4    180.000000000000      1.534133333333                 2
    57    58    76    54     4    180.000000000000      1.534133333333                 2
    18    17    19    36     4    180.000000000000      1.534133333333                 2
     6     5     7    24     4    180.000000000000      1.534133333333                 2
   154   153   171   187     4    180.000000000000      1.394666666667                 2
    92    93   114    91     4    180.000000000000      1.534133333333                 2
   105   106   123   104     4    180.000000000000      1.534133333333                 2
   145   164   142   146     4    180.000000000000      1.534133333333                 2
     5    27     4     6     4    180.000000000000      1.534133333333                 2
   112    94   113   131     4    180.000000000000      1.534133333333                 2
    14    13    33     7     4    180.000000000000      1.534133333333                 2
   145   146   164   142     4    180.000000000000      1.534133333333                 2
    64    59    63    81     4    180.000000000000      1.534133333333                 2
   139   146   138   140     4    180.000000000000      1.534133333333                 2
   156   138   157   175     4    180.000000000000      1.534133333333                 2
    47    69    45    48     4    180.000000000000      1.534133333333                 2
    93    94   115    92     4    180.000000000000      1.534133333333                 2
    54    57    53    55     4    180.000000000000      1.534133333333                 2
    89    91    66    90     4    180.000000000000      1.534133333333                 2
   150   168   149   151     4    180.000000000000      1.534133333333                 2
    50    49    51    68     4    180.000000000000      1.534133333333                 2
    14     7    13    33     4    180.000000000000      1.534133333333                 2
   136   158   135   137     4    180.000000000000      1.534133333333                 2
   110   133   109   127     4    180.000000000000      1.394666666667                 2
    57    54    58    76     4    180.000000000000      1.534133333333                 2
    60    61    78    59     4    180.000000000000      1.534133333333                 2
   152   147   151   169     4    180.000000000000      1.534133333333                 2
     9    10    28     8     4    180.000000000000      1.534133333333                 2
     6     7    24     5     4    180.000000000000      1.534133333333                 2
   137   136   138   159     4    180.000000000000      1.534133333333                 2
    13    10    14    32     4    180.000000000000      1.534133333333                 2
    98    99   101    97     4    180.000000000000      1.534133333333                 2
    52    59    51    53     4    180.000000000000      1.534133333333                 2
   101   120    98   102     4    180.000000000000      1.534133333333                 2
     9    28     8    10     4    180.000000000000      1.534133333333                 2
    93   115    92    94     4    180.000000000000      1.534133333333                 2
    14    33     7    13     4    180.000000000000      1.534133333333                 2
    17    16    18    35     4    180.000000000000      1.534133333333                 2
    63    64    65    62     4    180.000000000000      1.534133333333                 2
    95   102    94    96     4    180.000000000000      1.534133333333                 2
     4     5    26     3     4    180.000000000000      1.534133333333                 2
     7    14     6     8     4    180.000000000000      1.534133333333                 2
    10    13     9    11     4    180.000000000000      1.534133333333                 2
    53    54    72    52     4    180.000000000000      1.534133333333                 2
   107   106   108   109     4    180.000000000000      1.534133333333                 2
    20    37    15    19     4    180.000000000000      1.534133333333                 2
     1   178     2     3     4    180.000000000000     14.644000000000                 2
    95    94    96   102     4    180.000000000000      1.534133333333                 2
    96    95    97   103     4    180.000000000000      1.534133333333                 2
    19    18    20    21     4    180.000000000000      1.534133333333                 2
    59    52    60    64     4    180.000000000000      1.534133333333                 2
   156   175   138   157     4    180.000000000000      1.534133333333                 2
    60    59    61    78     4    180.000000000000      1.534133333333                 2
    25     3    24    44     4    180.000000000000      1.534133333333                 2
   105   104   106   123     4    180.000000000000      1.534133333333                 2
    58    51    57    77     4    180.000000000000      1.534133333333                 2
    53    52    54    72     4    180.000000000000      1.534133333333                 2
   113   112   132    91     4    180.000000000000      1.534133333333                 2
    68    69    87    50     4    180.000000000000      1.534133333333                 2
    17    35    16    18     4    180.000000000000      1.534133333333                 2
   147   140   148   152     4    180.000000000000      1.534133333333                 2
   145   142   146   164     4    180.000000000000      1.534133333333                 2
    97    98   116    96     4    180.000000000000      1.534133333333                 2
    54    53    55    57     4    180.000000000000      1.534133333333                 2
   149   150   167   148     4    180.000000000000      1.534133333333                 2
    68    87    50    69     4    180.000000000000      1.534133333333                 2
   154   171   187   153     4    180.000000000000      1.394666666667                 2
    15    20     8    16     4    180.000000000000      1.534133333333                 2
    57    76    54    58     4    180.000000000000      1.534133333333                 2
    22    45    21    39     4    180.000000000000      1.394666666667                 2
   138   137   139   156     4    180.000000000000      1.534133333333                 2
    24     6    25    43     4    180.000000000000      1.534133333333                 2
    48    47    49    70     4    180.000000000000      1.534133333333                 2
    93    92    94   115     4    180.000000000000      1.534133333333                 2
    61    79    60    62     4    180.000000000000      1.534133333333                 2
   106   124   105   107     4    180.000000000000      1.534133333333                 2
    58    77    51    57     4    180.000000000000      1.534133333333                 2
    24    43     6    25     4    180.000000000000      1.534133333333                 2
   102   101   121    95     4    180.000000000000      1.534133333333                 2
   103    96   104   108     4    180.000000000000      1.534133333333                 2
    51    52    58    50     4    180.000000000000      1.534133333333                 2
   104   122   103   105     4    180.000000000000      1.534133333333                 2
   140   147   139   141     4    180.000000000000      1.534133333333                 2
   151   153   150   152     4    180.000000000000      1.534133333333                 2
    49    71    48    50     4    180.000000000000      1.534133333333                 2
   187   154   186   188     4    180.000000000000     14.644000000000                 2
    20    15    19    37     4    180.000000000000      1.534133333333                 2
    59    64    52    60     4    180.000000000000      1.534133333333                 2
   152   169   147   151     4    180.000000000000      1.534133333333                 2
    89    90    91    66     4    180.000000000000      1.534133333333                 2
   135   157   133   136     4    180.000000000000      1.534133333333                 2
    92   114    91    93     4    180.000000000000      1.534133333333                 2
   187   186   188   154     4    180.000000000000     14.644000000000                 2
   103   108    96   104     4    180.000000000000      1.534133333333                 2
    53    72    52    54     4    180.000000000000      1.534133333333                 2
   152   151   169   147     4    180.000000000000      1.534133333333                 2
   110   109   127   133     4    180.000000000000      1.394666666667                 2
   149   148   150   167     4    180.000000000000      1.534133333333                 2
    51    50    52    58     4    180.000000000000      1.534133333333                 2
   148   149   166   147     4    180.000000000000      1.534133333333                 2
     3    25     1     4     4    180.000000000000      1.534133333333                 2
     8     7     9    15     4    180.000000000000      1.534133333333                 2
     1     3   178     2     4    180.000000000000     14.644000000000                 2

[ settles ]
;i  funct   dOH  dHH


[ exclusions ]
;ai    aj

[ moleculetype ]
MOL1	         3

[ atoms ]
;index, atom type, resnum, resname, name, cgnr, charge, mass
     1 MOL1_0       2 MOL1     Cl         1     -0.113980001211     35.453200000000
     2 MOL1_1       2 MOL1     C          1      0.223370002210     12.010780000000
     3 MOL1_2       2 MOL1     Cl         1     -0.113980001211     35.453200000000
     4 MOL1_3       2 MOL1     Cl         1     -0.113980001211     35.453200000000
     5 MOL1_4       2 MOL1     H          1      0.118570001423      1.007947000000

[ pairs ]
;ai    aj   funct

[ bonds ]
;ai    aj   funct r k
     1      2      1      0.179147538137  144269.526418976020 
     2      3      1      0.179147538137  144269.526418976020 
     2      4      1      0.179147538137  144269.526418976020 
     2      5      1      0.109389949263  309655.084322414012 

[ angles ]
;ai    aj   ak   funct theta  k
     3      2      4      1     116.547586263400     445.222086509286 
     1      2      3      1     116.547586263400     445.222086509286 
     1      2      5      1     116.547586263400     445.222086509286 
     3      2      5      1     116.547586263400     445.222086509286 
     1      2      4      1     116.547586263400     445.222086509286 
     4      2      5      1     116.547586263400     445.222086509286 

[ dihedrals ]
;ai    aj   ak   al   funct phi  k

[ settles ]
;i  funct   dOH  dHH


[ exclusions ]
;ai    aj


[ system ]
;name
FOO

[ molecules ]
;name	number
mop_tetramer.pdb	1
MOL1	634

