Generated by Interchange
3367
    1mop_t    C    1   1.704   1.365   4.880
    1mop_t    O    2   1.792   1.357   4.796
    1mop_t    C    3   1.570   1.305   4.864
    1mop_t    C    4   1.456   1.357   4.926
    1mop_t    C    5   1.333   1.292   4.911
    1mop_t    C    6   1.322   1.174   4.835
    1mop_t    C    7   1.194   1.102   4.819
    1mop_t    C    8   1.082   1.159   4.754
    1mop_t    C    9   0.961   1.086   4.748
    1mop_t    C   10   0.950   0.958   4.799
    1mop_t    O   11   0.827   0.902   4.786
    1mop_t    C   12   0.812   0.768   4.830
    1mop_t    C   13   1.062   0.900   4.858
    1mop_t    C   14   1.182   0.971   4.869
    1mop_t    C   15   1.084   1.294   4.697
    1mop_t    C   16   1.174   1.331   4.596
    1mop_t    C   17   1.179   1.461   4.547
    1mop_t    C   18   1.090   1.556   4.598
    1mop_t    C   19   0.998   1.520   4.697
    1mop_t    C   20   0.996   1.390   4.746
    1mop_t    C   21   0.905   1.621   4.758
    1mop_t    N   22   0.989   1.719   4.825
    1mop_t    C   23   0.818   1.676   4.644
    1mop_t    C   24   1.437   1.125   4.772
    1mop_t    C   25   1.560   1.190   4.785
    1mop_t    H   26   1.461   1.448   4.985
    1mop_t    H   27   1.244   1.334   4.959
    1mop_t    H   28   0.874   1.132   4.701
    1mop_t    H   29   0.708   0.738   4.814
    1mop_t    H   30   0.833   0.758   4.937
    1mop_t    H   31   0.876   0.700   4.771
    1mop_t    H   32   1.059   0.799   4.899
    1mop_t    H   33   1.267   0.924   4.918
    1mop_t    H   34   1.244   1.258   4.555
    1mop_t    H   35   1.251   1.490   4.472
    1mop_t    H   36   1.095   1.658   4.560
    1mop_t    H   37   0.928   1.364   4.828
    1mop_t    H   38   0.839   1.574   4.833
    1mop_t    H   39   1.036   1.780   4.761
    1mop_t    H   40   0.873   1.746   4.580
    1mop_t    H   41   0.730   1.728   4.682
    1mop_t    H   42   0.780   1.595   4.581
    1mop_t    H   43   1.432   1.035   4.710
    1mop_t    H   44   1.648   1.150   4.735
    1mop_t    C   45   1.056   1.683   4.942
    1mop_t    O   46   1.009   1.605   5.024
    1mop_t    C   47   1.196   1.736   4.959
    1mop_t    C   48   1.254   1.827   4.870
    1mop_t    C   49   1.390   1.861   4.879
    1mop_t    C   50   1.471   1.807   4.980
    1mop_t    C   51   1.615   1.844   4.987
    1mop_t    C   52   1.659   1.973   5.022
    1mop_t    C   53   1.797   2.004   5.018
    1mop_t    C   54   1.891   1.910   4.978
    1mop_t    O   55   2.020   1.955   4.976
    1mop_t    C   56   2.121   1.855   4.973
    1mop_t    C   57   1.847   1.784   4.940
    1mop_t    C   58   1.711   1.751   4.945
    1mop_t    C   59   1.565   2.082   5.044
    1mop_t    C   60   1.470   2.083   5.146
    1mop_t    C   61   1.374   2.184   5.154
    1mop_t    C   62   1.375   2.286   5.060
    1mop_t    C   63   1.472   2.288   4.958
    1mop_t    C   64   1.566   2.186   4.950
    1mop_t    C   65   1.475   2.394   4.852
    1mop_t    N   66   1.350   2.384   4.780
    1mop_t    C   67   1.500   2.526   4.924
    1mop_t    C   68   1.412   1.720   5.073
    1mop_t    C   69   1.276   1.685   5.062
    1mop_t    H   70   1.199   1.873   4.790
    1mop_t    H   71   1.431   1.931   4.807
    1mop_t    H   72   1.830   2.105   5.041
    1mop_t    H   73   2.218   1.905   4.982
    1mop_t    H   74   2.121   1.801   4.877
    1mop_t    H   75   2.111   1.786   5.057
    1mop_t    H   76   1.917   1.710   4.902
    1mop_t    H   77   1.679   1.653   4.911
    1mop_t    H   78   1.467   2.002   5.219
    1mop_t    H   79   1.298   2.181   5.231
    1mop_t    H   80   1.299   2.363   5.065
    1mop_t    H   81   1.636   2.184   4.867
    1mop_t    H   82   1.556   2.376   4.780
    1mop_t    H   83   1.273   2.426   4.829
    1mop_t    H   84   1.412   2.560   4.980
    1mop_t    H   85   1.528   2.606   4.855
    1mop_t    H   86   1.583   2.518   4.994
    1mop_t    H   87   1.471   1.678   5.154
    1mop_t    H   88   1.234   1.615   5.134
    1mop_t    C   89   1.323   2.274   4.697
    1mop_t    O   90   1.411   2.216   4.633
    1mop_t    C   91   1.182   2.222   4.699
    1mop_t    C   92   1.082   2.280   4.776
    1mop_t    C   93   0.957   2.220   4.791
    1mop_t    C   94   0.927   2.099   4.728
    1mop_t    C   95   0.796   2.036   4.752
    1mop_t    C   96   0.677   2.078   4.688
    1mop_t    C   97   0.558   2.007   4.713
    1mop_t    C   98   0.552   1.901   4.803
    1mop_t    O   99   0.431   1.839   4.814
    1mop_t    C  100   0.436   1.702   4.853
    1mop_t    C  101   0.665   1.871   4.878
    1mop_t    C  102   0.785   1.939   4.853
    1mop_t    C  103   0.669   2.207   4.619
    1mop_t    C  104   0.738   2.237   4.501
    1mop_t    C  105   0.736   2.367   4.450
    1mop_t    C  106   0.665   2.468   4.516
    1mop_t    C  107   0.595   2.440   4.634
    1mop_t    C  108   0.598   2.310   4.684
    1mop_t    C  109   0.526   2.547   4.718
    1mop_t    N  110   0.626   2.641   4.765
    1mop_t    C  111   0.416   2.616   4.637
    1mop_t    C  112   1.025   2.043   4.643
    1mop_t    C  113   1.151   2.104   4.629
    1mop_t    H  114   1.095   2.373   4.830
    1mop_t    H  115   0.883   2.268   4.855
    1mop_t    H  116   0.466   2.038   4.663
    1mop_t    H  117   0.334   1.662   4.846
    1mop_t    H  118   0.468   1.691   4.957
    1mop_t    H  119   0.499   1.644   4.786
    1mop_t    H  120   0.665   1.794   4.955
    1mop_t    H  121   0.871   1.915   4.914
    1mop_t    H  122   0.796   2.160   4.451
    1mop_t    H  123   0.793   2.390   4.361
    1mop_t    H  124   0.668   2.568   4.476
    1mop_t    H  125   0.550   2.288   4.779
    1mop_t    H  126   0.480   2.501   4.806
    1mop_t    H  127   0.649   2.714   4.700
    1mop_t    H  128   0.457   2.669   4.550
    1mop_t    H  129   0.363   2.689   4.698
    1mop_t    H  130   0.344   2.542   4.600
    1mop_t    H  131   1.004   1.952   4.589
    1mop_t    H  132   1.227   2.056   4.567
    1mop_t    C  133   0.724   2.597   4.853
    1mop_t    O  134   0.702   2.518   4.944
    1mop_t    C  135   0.865   2.644   4.827
    1mop_t    C  136   0.898   2.711   4.709
    1mop_t    C  137   1.030   2.745   4.679
    1mop_t    C  138   1.134   2.711   4.765
    1mop_t    C  139   1.272   2.745   4.727
    1mop_t    C  140   1.328   2.873   4.750
    1mop_t    C  141   1.465   2.894   4.719
    1mop_t    C  142   1.542   2.795   4.659
    1mop_t    O  143   1.674   2.826   4.638
    1mop_t    C  144   1.764   2.716   4.638
    1mop_t    C  145   1.481   2.677   4.619
    1mop_t    C  146   1.347   2.654   4.652
    1mop_t    C  147   1.244   2.989   4.783
    1mop_t    C  148   1.173   3.003   4.902
    1mop_t    C  149   1.083   3.108   4.918
    1mop_t    C  150   1.063   3.202   4.816
    1mop_t    C  151   1.135   3.191   4.696
    1mop_t    C  152   1.225   3.085   4.682
    1mop_t    C  153   1.113   3.283   4.577
    1mop_t    N  154   0.982   3.263   4.519
    1mop_t    C  155   1.140   3.429   4.613
    1mop_t    C  156   1.102   2.643   4.884
    1mop_t    C  157   0.968   2.610   4.915
    1mop_t    H  158   0.824   2.735   4.636
    1mop_t    H  159   1.052   2.799   4.587
    1mop_t    H  160   1.510   2.991   4.738
    1mop_t    H  161   1.866   2.756   4.633
    1mop_t    H  162   1.750   2.652   4.550
    1mop_t    H  163   1.756   2.658   4.730
    1mop_t    H  164   1.535   2.599   4.566
    1mop_t    H  165   1.301   2.561   4.618
    1mop_t    H  166   1.183   2.929   4.981
    1mop_t    H  167   1.025   3.116   5.010
    1mop_t    H  168   0.990   3.281   4.829
    1mop_t    H  169   1.276   3.071   4.586
    1mop_t    H  170   1.186   3.257   4.499
    1mop_t    H  171   0.902   3.315   4.552
    1mop_t    H  172   1.070   3.466   4.689
    1mop_t    H  173   1.130   3.493   4.525
    1mop_t    H  174   1.242   3.441   4.652
    1mop_t    H  175   1.180   2.614   4.953
    1mop_t    H  176   0.946   2.553   5.005
    1mop_t    C  177   1.849   1.457   5.041
    1mop_t    O  178   1.716   1.416   5.006
    1mop_t    H  179   1.901   1.373   5.088
    1mop_t    H  180   1.841   1.538   5.113
    1mop_t    H  181   1.906   1.492   4.955
    1mop_t    C  182   0.620   3.055   4.324
    1mop_t    C  183   0.766   3.023   4.360
    1mop_t    C  184   0.765   2.914   4.466
    1mop_t    C  185   0.838   2.976   4.233
    1mop_t    O  186   0.822   3.145   4.417
    1mop_t    C  187   0.954   3.149   4.449
    1mop_t    O  188   1.036   3.062   4.423
    1mop_t    H  189   0.568   2.967   4.285
    1mop_t    H  190   0.565   3.090   4.412
    1mop_t    H  191   0.615   3.134   4.249
    1mop_t    H  192   0.719   2.948   4.559
    1mop_t    H  193   0.867   2.886   4.490
    1mop_t    H  194   0.712   2.824   4.432
    1mop_t    H  195   0.849   3.058   4.162
    1mop_t    H  196   0.939   2.938   4.254
    1mop_t    H  197   0.784   2.893   4.185
    2MOL1    Cl  198   4.415   0.276   2.821
    2MOL1     C  199   4.346   0.334   2.669
    2MOL1    Cl  200   4.171   0.306   2.665
    2MOL1    Cl  201   4.382   0.506   2.645
    2MOL1     H  202   4.391   0.278   2.587
    2MOL1    Cl  203   1.693   2.571   4.240
    2MOL1     C  204   1.853   2.594   4.312
    2MOL1    Cl  205   1.980   2.574   4.190
    2MOL1    Cl  206   1.865   2.754   4.388
    2MOL1     H  207   1.868   2.518   4.389
    2MOL1    Cl  208   1.920   2.116   1.094
    2MOL1     C  209   1.885   2.279   1.033
    2MOL1    Cl  210   2.024   2.386   1.059
    2MOL1    Cl  211   1.842   2.274   0.861
    2MOL1     H  212   1.800   2.319   1.089
    2MOL1    Cl  213   2.473   0.544   3.752
    2MOL1     C  214   2.617   0.556   3.854
    2MOL1    Cl  215   2.589   0.476   4.010
    2MOL1    Cl  216   2.758   0.487   3.773
    2MOL1     H  217   2.637   0.662   3.873
    2MOL1    Cl  218   2.144   1.871   2.703
    2MOL1     C  219   2.183   1.802   2.861
    2MOL1    Cl  220   2.037   1.745   2.943
    2MOL1    Cl  221   2.300   1.670   2.844
    2MOL1     H  222   2.229   1.880   2.922
    2MOL1    Cl  223   5.096   1.389   0.444
    2MOL1     C  224   5.024   1.277   0.560
    2MOL1    Cl  225   4.996   1.119   0.486
    2MOL1    Cl  226   5.128   1.260   0.703
    2MOL1     H  227   4.928   1.317   0.593
    2MOL1    Cl  228   2.872   0.760   2.726
    2MOL1     C  229   2.851   0.789   2.552
    2MOL1    Cl  230   2.959   0.685   2.458
    2MOL1    Cl  231   2.682   0.762   2.505
    2MOL1     H  232   2.876   0.893   2.531
    2MOL1    Cl  233   3.938   4.145   4.851
    2MOL1     C  234   3.763   4.121   4.835
    2MOL1    Cl  235   3.691   4.248   4.735
    2MOL1    Cl  236   3.728   3.961   4.766
    2MOL1     H  237   3.718   4.125   4.935
    2MOL1    Cl  238   0.834   4.194   3.619
    2MOL1     C  239   0.798   4.127   3.459
    2MOL1    Cl  240   0.855   3.960   3.447
    2MOL1    Cl  241   0.624   4.136   3.426
    2MOL1     H  242   0.850   4.187   3.384
    2MOL1    Cl  243   4.047   1.358   2.725
    2MOL1     C  244   3.933   1.310   2.599
    2MOL1    Cl  245   4.016   1.219   2.472
    2MOL1    Cl  246   3.800   1.214   2.667
    2MOL1     H  247   3.890   1.400   2.554
    2MOL1    Cl  248   5.046   3.026   4.435
    2MOL1     C  249   4.909   3.129   4.479
    2MOL1    Cl  250   4.757   3.059   4.422
    2MOL1    Cl  251   4.905   3.155   4.654
    2MOL1     H  252   4.922   3.226   4.430
    2MOL1    Cl  253   0.655   2.731   1.481
    2MOL1     C  254   0.548   2.848   1.401
    2MOL1    Cl  255   0.472   2.954   1.521
    2MOL1    Cl  256   0.638   2.942   1.281
    2MOL1     H  257   0.470   2.792   1.349
    2MOL1    Cl  258   1.380   2.273   2.328
    2MOL1     C  259   1.501   2.169   2.251
    2MOL1    Cl  260   1.424   2.030   2.173
    2MOL1    Cl  261   1.597   2.261   2.134
    2MOL1     H  262   1.568   2.132   2.329
    2MOL1    Cl  263   4.212   4.514   0.862
    2MOL1     C  264   4.294   4.426   0.731
    2MOL1    Cl  265   4.179   4.383   0.603
    2MOL1    Cl  266   4.426   4.524   0.665
    2MOL1     H  267   4.336   4.334   0.772
    2MOL1    Cl  268   2.585   5.173   3.859
    2MOL1     C  269   2.533   5.240   3.703
    2MOL1    Cl  270   2.670   5.254   3.592
    2MOL1    Cl  271   2.405   5.140   3.632
    2MOL1     H  272   2.492   5.340   3.721
    2MOL1    Cl  273   3.034   1.668   3.025
    2MOL1     C  274   2.940   1.816   2.999
    2MOL1    Cl  275   2.818   1.835   3.126
    2MOL1    Cl  276   3.047   1.957   2.993
    2MOL1     H  277   2.889   1.807   2.903
    2MOL1    Cl  278   0.550   3.008   4.937
    2MOL1     C  279   0.677   3.109   5.006
    2MOL1    Cl  280   0.828   3.089   4.916
    2MOL1    Cl  281   0.628   3.279   5.007
    2MOL1     H  282   0.694   3.078   5.109
    2MOL1    Cl  283   4.689   3.466   2.267
    2MOL1     C  284   4.582   3.535   2.145
    2MOL1    Cl  285   4.436   3.603   2.220
    2MOL1    Cl  286   4.666   3.660   2.051
    2MOL1     H  287   4.551   3.456   2.077
    2MOL1    Cl  288   5.300   3.726   5.097
    2MOL1     C  289   5.230   3.701   4.937
    2MOL1    Cl  290   5.108   3.572   4.941
    2MOL1    Cl  291   5.159   3.852   4.876
    2MOL1     H  292   5.310   3.671   4.868
    2MOL1    Cl  293   2.248   1.269   3.390
    2MOL1     C  294   2.155   1.132   3.450
    2MOL1    Cl  295   2.173   1.116   3.626
    2MOL1    Cl  296   1.984   1.149   3.406
    2MOL1     H  297   2.193   1.041   3.403
    2MOL1    Cl  298   1.477   1.905   2.951
    2MOL1     C  299   1.386   1.978   2.818
    2MOL1    Cl  300   1.282   2.108   2.879
    2MOL1    Cl  301   1.495   2.039   2.693
    2MOL1     H  302   1.322   1.901   2.774
    2MOL1    Cl  303   3.250   4.630   4.809
    2MOL1     C  304   3.083   4.681   4.833
    2MOL1    Cl  305   2.995   4.563   4.931
    2MOL1    Cl  306   3.077   4.842   4.907
    2MOL1     H  307   3.035   4.687   4.735
    2MOL1    Cl  308   2.544   2.415   2.039
    2MOL1     C  309   2.711   2.473   2.025
    2MOL1    Cl  310   2.801   2.377   1.906
    2MOL1    Cl  311   2.713   2.645   1.980
    2MOL1     H  312   2.760   2.462   2.122
    2MOL1    Cl  313   2.597   2.129   5.052
    2MOL1     C  314   2.738   2.028   5.088
    2MOL1    Cl  315   2.729   1.874   5.002
    2MOL1    Cl  316   2.888   2.114   5.046
    2MOL1     H  317   2.740   2.008   5.195
    2MOL1    Cl  318   5.098   0.155   1.221
    2MOL1     C  319   5.020   0.252   1.347
    2MOL1    Cl  320   5.084   0.416   1.349
    2MOL1    Cl  321   4.844   0.254   1.324
    2MOL1     H  322   5.041   0.205   1.444
    2MOL1    Cl  323   2.955   0.939   1.332
    2MOL1     C  324   3.094   0.886   1.237
    2MOL1    Cl  325   3.043   0.780   1.104
    2MOL1    Cl  326   3.184   1.025   1.175
    2MOL1     H  327   3.161   0.829   1.303
    2MOL1    Cl  328   4.106   3.328   1.844
    2MOL1     C  329   3.945   3.258   1.863
    2MOL1    Cl  330   3.910   3.227   2.034
    2MOL1    Cl  331   3.822   3.365   1.793
    2MOL1     H  332   3.942   3.163   1.809
    2MOL1    Cl  333   0.991   1.053   3.614
    2MOL1     C  334   1.093   0.911   3.645
    2MOL1    Cl  335   1.024   0.767   3.567
    2MOL1    Cl  336   1.258   0.939   3.587
    2MOL1     H  337   1.097   0.894   3.753
    2MOL1    Cl  338   0.605   5.027   4.161
    2MOL1     C  339   0.690   5.179   4.126
    2MOL1    Cl  340   0.715   5.198   3.952
    2MOL1    Cl  341   0.600   5.317   4.192
    2MOL1     H  342   0.788   5.175   4.175
    2MOL1    Cl  343   2.778   3.669   3.258
    2MOL1     C  344   2.768   3.637   3.432
    2MOL1    Cl  345   2.762   3.463   3.463
    2MOL1    Cl  346   2.905   3.712   3.516
    2MOL1     H  347   2.676   3.682   3.470
    2MOL1    Cl  348   0.226   0.829   2.618
    2MOL1     C  349   0.296   0.885   2.465
    2MOL1    Cl  350   0.402   1.024   2.492
    2MOL1    Cl  351   0.385   0.753   2.385
    2MOL1     H  352   0.215   0.916   2.399
    2MOL1    Cl  353   4.820   2.059   2.194
    2MOL1     C  354   4.973   1.999   2.128
    2MOL1    Cl  355   5.097   1.994   2.254
    2MOL1    Cl  356   4.951   1.839   2.056
    2MOL1     H  357   5.006   2.068   2.050
    2MOL1    Cl  358   1.293   3.352   2.355
    2MOL1     C  359   1.233   3.513   2.313
    2MOL1    Cl  360   1.365   3.617   2.259
    2MOL1    Cl  361   1.106   3.502   2.190
    2MOL1     H  362   1.189   3.557   2.403
    2MOL1    Cl  363   4.083   1.463   2.083
    2MOL1     C  364   3.916   1.422   2.041
    2MOL1    Cl  365   3.832   1.564   1.976
    2MOL1    Cl  366   3.913   1.289   1.923
    2MOL1     H  367   3.865   1.389   2.131
    2MOL1    Cl  368   1.002   2.181   2.160
    2MOL1     C  369   0.855   2.279   2.176
    2MOL1    Cl  370   0.712   2.175   2.190
    2MOL1    Cl  371   0.868   2.386   2.316
    2MOL1     H  372   0.845   2.340   2.086
    2MOL1    Cl  373   2.253   3.644   1.827
    2MOL1     C  374   2.155   3.770   1.751
    2MOL1    Cl  375   2.225   3.930   1.780
    2MOL1    Cl  376   2.138   3.740   1.577
    2MOL1     H  377   2.055   3.767   1.796
    2MOL1    Cl  378   1.057   4.699   1.088
    2MOL1     C  379   1.004   4.534   1.127
    2MOL1    Cl  380   1.126   4.453   1.227
    2MOL1    Cl  381   0.847   4.537   1.209
    2MOL1     H  382   0.993   4.479   1.034
    2MOL1    Cl  383   0.392   1.181   4.869
    2MOL1     C  384   0.258   1.286   4.823
    2MOL1    Cl  385   0.284   1.451   4.882
    2MOL1    Cl  386   0.236   1.286   4.647
    2MOL1     H  387   0.166   1.247   4.868
    2MOL1    Cl  388   1.282   3.812   4.633
    2MOL1     C  389   1.332   3.880   4.789
    2MOL1    Cl  390   1.495   3.948   4.779
    2MOL1    Cl  391   1.216   4.003   4.843
    2MOL1     H  392   1.333   3.800   4.863
    2MOL1    Cl  393   0.216   0.792   4.982
    2MOL1     C  394   0.318   0.731   4.852
    2MOL1    Cl  395   0.297   0.828   4.705
    2MOL1    Cl  396   0.488   0.730   4.901
    2MOL1     H  397   0.288   0.628   4.830
    2MOL1    Cl  398   1.097   4.160   2.194
    2MOL1     C  399   1.082   4.328   2.250
    2MOL1    Cl  400   0.929   4.350   2.338
    2MOL1    Cl  401   1.220   4.372   2.352
    2MOL1     H  402   1.081   4.393   2.162
    2MOL1    Cl  403   3.545   4.015   0.193
    2MOL1     C  404   3.692   4.111   0.169
    2MOL1    Cl  405   3.684   4.200   0.016
    2MOL1    Cl  406   3.716   4.222   0.305
    2MOL1     H  407   3.777   4.042   0.165
    2MOL1    Cl  408   1.542   1.581   1.363
    2MOL1     C  409   1.696   1.508   1.413
    2MOL1    Cl  410   1.694   1.333   1.384
    2MOL1    Cl  411   1.832   1.584   1.328
    2MOL1     H  412   1.709   1.525   1.520
    2MOL1    Cl  413   3.571   0.826   2.294
    2MOL1     C  414   3.477   0.676   2.294
    2MOL1    Cl  415   3.545   0.560   2.409
    2MOL1    Cl  416   3.307   0.708   2.331
    2MOL1     H  417   3.483   0.632   2.194
    2MOL1    Cl  418   0.307   0.722   2.072
    2MOL1     C  419   0.158   0.664   1.996
    2MOL1    Cl  420   0.144   0.727   1.831
    2MOL1    Cl  421   0.152   0.487   1.996
    2MOL1     H  422   0.073   0.701   2.054
    2MOL1    Cl  423   3.927   2.584   0.988
    2MOL1     C  424   3.866   2.562   1.152
    2MOL1    Cl  425   3.978   2.463   1.248
    2MOL1    Cl  426   3.840   2.719   1.230
    2MOL1     H  427   3.770   2.510   1.147
    2MOL1    Cl  428   5.021   1.617   3.308
    2MOL1     C  429   4.959   1.758   3.396
    2MOL1    Cl  430   4.826   1.710   3.504
    2MOL1    Cl  431   5.088   1.836   3.488
    2MOL1     H  432   4.920   1.829   3.324
    2MOL1    Cl  433   2.035   3.499   2.272
    2MOL1     C  434   1.934   3.596   2.380
    2MOL1    Cl  435   1.966   3.555   2.549
    2MOL1    Cl  436   1.960   3.769   2.351
    2MOL1     H  437   1.829   3.573   2.358
    2MOL1    Cl  438   0.457   0.119   4.877
    2MOL1     C  439   0.570   0.255   4.875
    2MOL1    Cl  440   0.571   0.338   5.032
    2MOL1    Cl  441   0.734   0.199   4.835
    2MOL1     H  442   0.538   0.326   4.798
    2MOL1    Cl  443   4.481   0.480   4.475
    2MOL1     C  444   4.559   0.621   4.547
    2MOL1    Cl  445   4.736   0.602   4.546
    2MOL1    Cl  446   4.512   0.769   4.462
    2MOL1     H  447   4.526   0.630   4.651
    2MOL1    Cl  448   3.801   4.574   1.490
    2MOL1     C  449   3.870   4.724   1.555
    2MOL1    Cl  450   3.775   4.864   1.502
    2MOL1    Cl  451   3.878   4.717   1.732
    2MOL1     H  452   3.971   4.734   1.516
    2MOL1    Cl  453   4.397   4.426   4.863
    2MOL1     C  454   4.487   4.567   4.921
    2MOL1    Cl  455   4.656   4.559   4.868
    2MOL1    Cl  456   4.412   4.717   4.866
    2MOL1     H  457   4.486   4.566   5.031
    2MOL1    Cl  458   4.180   4.220   1.692
    2MOL1     C  459   4.019   4.293   1.699
    2MOL1    Cl  460   3.916   4.230   1.569
    2MOL1    Cl  461   3.945   4.264   1.857
    2MOL1     H  462   4.030   4.401   1.685
    2MOL1    Cl  463   4.053   4.089   3.410
    2MOL1     C  464   3.879   4.069   3.437
    2MOL1    Cl  465   3.848   3.939   3.553
    2MOL1    Cl  466   3.807   4.221   3.494
    2MOL1     H  467   3.832   4.043   3.342
    2MOL1    Cl  468   0.434   0.841   3.558
    2MOL1     C  469   0.361   0.904   3.409
    2MOL1    Cl  470   0.486   0.966   3.299
    2MOL1    Cl  471   0.264   0.779   3.330
    2MOL1     H  472   0.295   0.987   3.436
    2MOL1    Cl  473   3.014   2.821   2.901
    2MOL1     C  474   3.036   2.649   2.867
    2MOL1    Cl  475   2.916   2.593   2.749
    2MOL1    Cl  476   3.200   2.618   2.808
    2MOL1     H  477   3.021   2.593   2.960
    2MOL1    Cl  478   3.628   2.357   2.528
    2MOL1     C  479   3.707   2.406   2.377
    2MOL1    Cl  480   3.587   2.450   2.254
    2MOL1    Cl  481   3.818   2.542   2.406
    2MOL1     H  482   3.766   2.322   2.339
    2MOL1    Cl  483   4.939   0.586   2.554
    2MOL1     C  484   5.026   0.678   2.431
    2MOL1    Cl  485   5.005   0.604   2.271
    2MOL1    Cl  486   4.971   0.847   2.429
    2MOL1     H  487   5.132   0.677   2.456
    2MOL1    Cl  488   0.248   0.040   3.068
    2MOL1     C  489   0.337   0.192   3.086
    2MOL1    Cl  490   0.257   0.298   3.203
    2MOL1    Cl  491   0.504   0.160   3.134
    2MOL1     H  492   0.338   0.243   2.989
    2MOL1    Cl  493   5.340   3.779   1.388
    2MOL1     C  494   5.247   3.631   1.362
    2MOL1    Cl  495   5.073   3.665   1.365
    2MOL1    Cl  496   5.292   3.556   1.208
    2MOL1     H  497   5.270   3.561   1.442
    2MOL1    Cl  498   1.333   3.278   0.923
    2MOL1     C  499   1.510   3.278   0.908
    2MOL1    Cl  500   1.582   3.398   1.017
    2MOL1    Cl  501   1.575   3.116   0.942
    2MOL1     H  502   1.536   3.304   0.805
    2MOL1    Cl  503   2.553   4.339   4.106
    2MOL1     C  504   2.724   4.313   4.143
    2MOL1    Cl  505   2.781   4.432   4.262
    2MOL1    Cl  506   2.751   4.149   4.203
    2MOL1     H  507   2.782   4.326   4.052
    2MOL1    Cl  508   4.654   1.866   0.382
    2MOL1     C  509   4.614   1.698   0.341
    2MOL1    Cl  510   4.478   1.692   0.229
    2MOL1    Cl  511   4.755   1.616   0.273
    2MOL1     H  512   4.586   1.646   0.433
    2MOL1    Cl  513   2.737   4.793   4.424
    2MOL1     C  514   2.910   4.758   4.439
    2MOL1    Cl  515   2.978   4.839   4.581
    2MOL1    Cl  516   2.937   4.583   4.448
    2MOL1     H  517   2.961   4.796   4.350
    2MOL1    Cl  518   3.968   4.294   2.147
    2MOL1     C  519   3.800   4.256   2.106
    2MOL1    Cl  520   3.750   4.343   1.961
    2MOL1    Cl  521   3.780   4.081   2.084
    2MOL1     H  522   3.736   4.287   2.189
    2MOL1    Cl  523   0.972   0.380   3.494
    2MOL1     C  524   1.049   0.242   3.414
    2MOL1    Cl  525   1.186   0.182   3.510
    2MOL1    Cl  526   0.931   0.112   3.387
    2MOL1     H  527   1.087   0.275   3.317
    2MOL1    Cl  528   0.905   1.521   2.550
    2MOL1     C  529   0.928   1.427   2.698
    2MOL1    Cl  530   0.859   1.511   2.838
    2MOL1    Cl  531   0.856   1.266   2.681
    2MOL1     H  532   1.035   1.414   2.715
    2MOL1    Cl  533   1.319   0.716   2.441
    2MOL1     C  534   1.160   0.721   2.364
    2MOL1    Cl  535   1.041   0.799   2.470
    2MOL1    Cl  536   1.168   0.805   2.208
    2MOL1     H  537   1.127   0.618   2.346
    2MOL1    Cl  538   2.834   1.110   3.791
    2MOL1     C  539   2.867   1.133   3.964
    2MOL1    Cl  540   2.797   1.285   4.021
    2MOL1    Cl  541   2.805   0.996   4.058
    2MOL1     H  542   2.976   1.138   3.978
    2MOL1    Cl  543   4.626   5.286   1.213
    2MOL1     C  544   4.631   5.117   1.264
    2MOL1    Cl  545   4.703   5.103   1.426
    2MOL1    Cl  546   4.468   5.047   1.263
    2MOL1     H  547   4.693   5.061   1.194
    2MOL1    Cl  548   0.603   4.577   0.316
    2MOL1     C  549   0.518   4.422   0.315
    2MOL1    Cl  550   0.632   4.289   0.286
    2MOL1    Cl  551   0.432   4.398   0.468
    2MOL1     H  552   0.445   4.423   0.234
    2MOL1    Cl  553   2.466   3.586   2.280
    2MOL1     C  554   2.464   3.411   2.255
    2MOL1    Cl  555   2.629   3.346   2.260
    2MOL1    Cl  556   2.362   3.332   2.376
    2MOL1     H  557   2.423   3.391   2.156
    2MOL1    Cl  558   0.214   3.134   1.097
    2MOL1     C  559   0.390   3.154   1.102
    2MOL1    Cl  560   0.439   3.234   1.252
    2MOL1    Cl  561   0.471   2.997   1.084
    2MOL1     H  562   0.420   3.218   1.018
    2MOL1    Cl  563   3.286   3.650   0.891
    2MOL1     C  564   3.384   3.630   1.037
    2MOL1    Cl  565   3.365   3.770   1.144
    2MOL1    Cl  566   3.341   3.480   1.121
    2MOL1     H  567   3.489   3.624   1.007
    2MOL1    Cl  568   3.014   3.051   4.881
    2MOL1     C  569   3.190   3.045   4.861
    2MOL1    Cl  570   3.266   3.191   4.927
    2MOL1    Cl  571   3.257   2.900   4.938
    2MOL1     H  572   3.212   3.041   4.754
    2MOL1    Cl  573   1.100   1.154   1.872
    2MOL1     C  574   1.093   1.328   1.905
    2MOL1    Cl  575   1.236   1.410   1.838
    2MOL1    Cl  576   0.945   1.398   1.838
    2MOL1     H  577   1.093   1.343   2.013
    2MOL1    Cl  578   2.098   2.413   4.956
    2MOL1     C  579   1.977   2.542   4.945
    2MOL1    Cl  580   1.837   2.505   5.046
    2MOL1    Cl  581   2.048   2.698   4.992
    2MOL1     H  582   1.944   2.550   4.841
    2MOL1    Cl  583   2.352   4.219   3.973
    2MOL1     C  584   2.285   4.230   4.136
    2MOL1    Cl  585   2.307   4.392   4.202
    2MOL1    Cl  586   2.113   4.185   4.135
    2MOL1     H  587   2.338   4.159   4.200
    2MOL1    Cl  588   0.929   0.426   0.170
    2MOL1     C  589   0.775   0.340   0.154
    2MOL1    Cl  590   0.665   0.429   0.048
    2MOL1    Cl  591   0.802   0.176   0.092
    2MOL1     H  592   0.730   0.332   0.253
    2MOL1    Cl  593   1.036   0.575   3.143
    2MOL1     C  594   1.130   0.578   2.993
    2MOL1    Cl  595   1.029   0.531   2.855
    2MOL1    Cl  596   1.200   0.739   2.967
    2MOL1     H  597   1.212   0.506   3.002
    2MOL1    Cl  598   4.490   3.203   3.424
    2MOL1     C  599   4.534   3.191   3.253
    2MOL1    Cl  600   4.709   3.210   3.232
    2MOL1    Cl  601   4.480   3.036   3.185
    2MOL1     H  602   4.484   3.271   3.198
    2MOL1    Cl  603   3.239   4.946   5.176
    2MOL1     C  604   3.232   4.773   5.215
    2MOL1    Cl  605   3.351   4.733   5.340
    2MOL1    Cl  606   3.069   4.727   5.266
    2MOL1     H  607   3.257   4.717   5.124
    2MOL1    Cl  608   1.968   0.386   3.584
    2MOL1     C  609   1.834   0.276   3.621
    2MOL1    Cl  610   1.805   0.166   3.485
    2MOL1    Cl  611   1.867   0.185   3.769
    2MOL1     H  612   1.744   0.336   3.636
    2MOL1    Cl  613   0.943   0.961   3.972
    2MOL1     C  614   1.025   0.813   4.023
    2MOL1    Cl  615   1.093   0.831   4.185
    2MOL1    Cl  616   0.913   0.675   4.017
    2MOL1     H  617   1.107   0.793   3.953
    2MOL1    Cl  618   1.881   5.220   2.450
    2MOL1     C  619   2.039   5.151   2.411
    2MOL1    Cl  620   2.024   5.030   2.282
    2MOL1    Cl  621   2.153   5.278   2.364
    2MOL1     H  622   2.079   5.101   2.500
    2MOL1    Cl  623   1.278   1.138   2.347
    2MOL1     C  624   1.165   1.272   2.372
    2MOL1    Cl  625   1.042   1.228   2.492
    2MOL1    Cl  626   1.252   1.418   2.423
    2MOL1     H  627   1.115   1.293   2.278
    2MOL1    Cl  628   1.699   1.659   0.322
    2MOL1     C  629   1.603   1.639   0.175
    2MOL1    Cl  630   1.680   1.722   0.039
    2MOL1    Cl  631   1.580   1.467   0.138
    2MOL1     H  632   1.505   1.684   0.191
    2MOL1    Cl  633   4.100   3.161   2.372
    2MOL1     C  634   4.237   3.118   2.476
    2MOL1    Cl  635   4.186   3.111   2.646
    2MOL1    Cl  636   4.308   2.963   2.426
    2MOL1     H  637   4.313   3.195   2.466
    2MOL1    Cl  638   3.034   4.678   1.483
    2MOL1     C  639   2.974   4.827   1.408
    2MOL1    Cl  640   3.109   4.932   1.362
    2MOL1    Cl  641   2.873   4.789   1.267
    2MOL1     H  642   2.912   4.880   1.481
    2MOL1    Cl  643   4.339   2.292   3.385
    2MOL1     C  644   4.330   2.464   3.347
    2MOL1    Cl  645   4.417   2.500   3.197
    2MOL1    Cl  646   4.162   2.518   3.335
    2MOL1     H  647   4.378   2.520   3.428
    2MOL1    Cl  648   4.337   0.647   3.520
    2MOL1     C  649   4.273   0.737   3.658
    2MOL1    Cl  650   4.304   0.650   3.809
    2MOL1    Cl  651   4.343   0.900   3.664
    2MOL1     H  652   4.165   0.747   3.646
    2MOL1    Cl  653   4.086   0.968   3.310
    2MOL1     C  654   4.263   0.976   3.295
    2MOL1    Cl  655   4.338   0.837   3.375
    2MOL1    Cl  656   4.310   0.983   3.125
    2MOL1     H  657   4.297   1.067   3.345
    2MOL1    Cl  658   2.031   0.176   3.471
    2MOL1     C  659   2.117   0.101   3.336
    2MOL1    Cl  660   2.011   0.090   3.194
    2MOL1    Cl  661   2.264   0.192   3.297
    2MOL1     H  662   2.146  -0.000   3.365
    2MOL1    Cl  663   0.661   4.456   3.732
    2MOL1     C  664   0.497   4.510   3.690
    2MOL1    Cl  665   0.467   4.674   3.752
    2MOL1    Cl  666   0.472   4.504   3.515
    2MOL1     H  667   0.426   4.442   3.738
    2MOL1    Cl  668   0.359   1.970   4.978
    2MOL1     C  669   0.238   2.039   4.868
    2MOL1    Cl  670   0.307   2.175   4.777
    2MOL1    Cl  671   0.176   1.915   4.758
    2MOL1     H  672   0.155   2.077   4.928
    2MOL1    Cl  673   1.199   5.031   5.280
    2MOL1     C  674   1.070   5.126   5.203
    2MOL1    Cl  675   1.068   5.097   5.029
    2MOL1    Cl  676   0.913   5.087   5.275
    2MOL1     H  677   1.091   5.232   5.221
    2MOL1    Cl  678   0.893   2.032   1.158
    2MOL1     C  679   0.869   2.204   1.124
    2MOL1    Cl  680   0.933   2.303   1.256
    2MOL1    Cl  681   0.944   2.248   0.970
    2MOL1     H  682   0.761   2.222   1.116
    2MOL1    Cl  683   4.936   1.617   2.228
    2MOL1     C  684   4.800   1.702   2.305
    2MOL1    Cl  685   4.707   1.592   2.408
    2MOL1    Cl  686   4.859   1.841   2.399
    2MOL1     H  687   4.735   1.740   2.226
    2MOL1    Cl  688   3.039   1.382   2.732
    2MOL1     C  689   2.915   1.338   2.613
    2MOL1    Cl  690   2.912   1.454   2.479
    2MOL1    Cl  691   2.944   1.174   2.552
    2MOL1     H  692   2.818   1.340   2.662
    2MOL1    Cl  693   3.293   0.669   2.629
    2MOL1     C  694   3.164   0.549   2.646
    2MOL1    Cl  695   3.104   0.499   2.487
    2MOL1    Cl  696   3.222   0.408   2.738
    2MOL1     H  697   3.081   0.594   2.702
    2MOL1    Cl  698   2.432   4.744   0.956
    2MOL1     C  699   2.361   4.642   1.083
    2MOL1    Cl  700   2.460   4.648   1.230
    2MOL1    Cl  701   2.195   4.693   1.118
    2MOL1     H  702   2.359   4.539   1.047
    2MOL1    Cl  703   0.455   3.558   4.153
    2MOL1     C  704   0.560   3.430   4.091
    2MOL1    Cl  705   0.473   3.330   3.973
    2MOL1    Cl  706   0.706   3.499   4.019
    2MOL1     H  707   0.590   3.366   4.174
    2MOL1    Cl  708   2.631  -0.000   1.673
    2MOL1     C  709   2.482   0.091   1.698
    2MOL1    Cl  710   2.369  -0.000   1.800
    2MOL1    Cl  711   2.517   0.249   1.770
    2MOL1     H  712   2.435   0.108   1.601
    2MOL1    Cl  713   2.820   4.847   3.712
    2MOL1     C  714   2.699   4.949   3.792
    2MOL1    Cl  715   2.778   5.071   3.893
    2MOL1    Cl  716   2.593   5.025   3.672
    2MOL1     H  717   2.638   4.885   3.856
    2MOL1    Cl  718   3.410   3.674   4.637
    2MOL1     C  719   3.574   3.615   4.668
    2MOL1    Cl  720   3.583   3.440   4.643
    2MOL1    Cl  721   3.691   3.698   4.565
    2MOL1     H  722   3.599   3.636   4.773
    2MOL1    Cl  723   1.744   0.354   4.720
    2MOL1     C  724   1.655   0.209   4.767
    2MOL1    Cl  725   1.748   0.114   4.885
    2MOL1    Cl  726   1.496   0.251   4.833
    2MOL1     H  727   1.640   0.147   4.678
    2MOL1    Cl  728   3.567   3.697   1.997
    2MOL1     C  729   3.412   3.731   1.918
    2MOL1    Cl  730   3.358   3.895   1.956
    2MOL1    Cl  731   3.424   3.708   1.743
    2MOL1     H  732   3.338   3.660   1.957
    2MOL1    Cl  733   0.159   2.845   2.217
    2MOL1     C  734   0.134   2.670   2.213
    2MOL1    Cl  735   0.026   2.625   2.080
    2MOL1    Cl  736   0.290   2.586   2.198
    2MOL1     H  737   0.088   2.640   2.307
    2MOL1    Cl  738   1.975   0.952   3.699
    2MOL1     C  739   1.812   0.891   3.665
    2MOL1    Cl  740   1.781   0.744   3.757
    2MOL1    Cl  741   1.691   1.015   3.702
    2MOL1     H  742   1.806   0.868   3.559
    2MOL1    Cl  743   1.324   4.619   3.566
    2MOL1     C  744   1.456   4.564   3.670
    2MOL1    Cl  745   1.504   4.692   3.783
    2MOL1    Cl  746   1.409   4.418   3.758
    2MOL1     H  747   1.542   4.540   3.607
    2MOL1    Cl  748   1.252   3.149   3.432
    2MOL1     C  749   1.281   3.222   3.591
    2MOL1    Cl  750   1.137   3.210   3.692
    2MOL1    Cl  751   1.420   3.145   3.670
    2MOL1     H  752   1.304   3.328   3.576
    2MOL1    Cl  753   4.730   2.459   2.520
    2MOL1     C  754   4.854   2.335   2.497
    2MOL1    Cl  755   4.846   2.268   2.333
    2MOL1    Cl  756   5.015   2.401   2.531
    2MOL1     H  757   4.834   2.254   2.568
    2MOL1    Cl  758   2.526   1.470   1.883
    2MOL1     C  759   2.367   1.397   1.859
    2MOL1    Cl  760   2.245   1.522   1.828
    2MOL1    Cl  761   2.371   1.280   1.725
    2MOL1     H  762   2.339   1.344   1.950
    2MOL1    Cl  763   1.147   0.247   3.798
    2MOL1     C  764   1.244   0.103   3.762
    2MOL1    Cl  765   1.160  -0.000   3.644
    2MOL1    Cl  766   1.404   0.149   3.702
    2MOL1     H  767   1.256   0.046   3.854
    2MOL1    Cl  768   4.391   3.777   2.847
    2MOL1     C  769   4.266   3.712   2.739
    2MOL1    Cl  770   4.319   3.559   2.668
    2MOL1    Cl  771   4.113   3.690   2.826
    2MOL1     H  772   4.249   3.784   2.658
    2MOL1    Cl  773   4.344   1.176   4.146
    2MOL1     C  774   4.464   1.274   4.061
    2MOL1    Cl  775   4.571   1.356   4.176
    2MOL1    Cl  776   4.558   1.174   3.949
    2MOL1     H  777   4.411   1.350   4.002
    2MOL1    Cl  778   3.862   1.962   2.606
    2MOL1     C  779   3.749   2.046   2.713
    2MOL1    Cl  780   3.836   2.138   2.836
    2MOL1    Cl  781   3.642   2.152   2.620
    2MOL1     H  782   3.687   1.971   2.764
    2MOL1    Cl  783   5.089   4.186   3.336
    2MOL1     C  784   5.013   4.027   3.334
    2MOL1    Cl  785   5.100   3.915   3.440
    2MOL1    Cl  786   4.843   4.039   3.383
    2MOL1     H  787   5.017   3.988   3.232
    2MOL1    Cl  788   0.248   1.959   0.564
    2MOL1     C  789   0.400   1.877   0.526
    2MOL1    Cl  790   0.462   1.790   0.667
    2MOL1    Cl  791   0.379   1.766   0.389
    2MOL1     H  792   0.474   1.953   0.497
    2MOL1    Cl  793   3.548   1.615   3.770
    2MOL1     C  794   3.699   1.698   3.731
    2MOL1    Cl  795   3.819   1.582   3.671
    2MOL1    Cl  796   3.671   1.826   3.612
    2MOL1     H  797   3.738   1.743   3.822
    2MOL1    Cl  798   1.448   2.242   3.021
    2MOL1     C  799   1.427   2.415   2.987
    2MOL1    Cl  800   1.540   2.468   2.861
    2MOL1    Cl  801   1.260   2.449   2.939
    2MOL1     H  802   1.449   2.471   3.078
    2MOL1    Cl  803   0.848   4.761   4.983
    2MOL1     C  804   0.804   4.597   5.031
    2MOL1    Cl  805   0.887   4.552   5.181
    2MOL1    Cl  806   0.628   4.584   5.051
    2MOL1     H  807   0.835   4.528   4.952
    2MOL1    Cl  808   4.815   4.882   0.084
    2MOL1     C  809   4.748   4.741   0.170
    2MOL1    Cl  810   4.801   4.740   0.339
    2MOL1    Cl  811   4.571   4.741   0.159
    2MOL1     H  812   4.785   4.651   0.121
    2MOL1    Cl  813   0.773   1.395   0.928
    2MOL1     C  814   0.926   1.485   0.921
    2MOL1    Cl  815   1.031   1.420   0.794
    2MOL1    Cl  816   0.895   1.657   0.896
    2MOL1     H  817   0.976   1.473   1.018
    2MOL1    Cl  818   2.543   0.226   3.469
    2MOL1     C  819   2.470   0.385   3.495
    2MOL1    Cl  820   2.330   0.372   3.604
    2MOL1    Cl  821   2.590   0.498   3.560
    2MOL1     H  822   2.435   0.423   3.399
    2MOL1    Cl  823   0.446   1.462   3.215
    2MOL1     C  824   0.565   1.566   3.295
    2MOL1    Cl  825   0.493   1.646   3.435
    2MOL1    Cl  826   0.707   1.472   3.344
    2MOL1     H  827   0.597   1.642   3.224
    2MOL1    Cl  828   0.293   4.279   5.200
    2MOL1     C  829   0.282   4.354   5.041
    2MOL1    Cl  830   0.132   4.308   4.960
    2MOL1    Cl  831   0.293   4.531   5.054
    2MOL1     H  832   0.366   4.319   4.980
    2MOL1    Cl  833   4.399   1.266   2.226
    2MOL1     C  834   4.333   1.429   2.210
    2MOL1    Cl  835   4.174   1.440   2.287
    2MOL1    Cl  836   4.444   1.548   2.281
    2MOL1     H  837   4.322   1.452   2.104
    2MOL1    Cl  838   1.576   0.643   1.954
    2MOL1     C  839   1.496   0.661   1.797
    2MOL1    Cl  840   1.494   0.506   1.710
    2MOL1    Cl  841   1.331   0.723   1.817
    2MOL1     H  842   1.553   0.733   1.737
    2MOL1    Cl  843   1.976   2.045   3.622
    2MOL1     C  844   2.060   1.929   3.517
    2MOL1    Cl  845   2.230   1.913   3.565
    2MOL1    Cl  846   1.980   1.772   3.521
    2MOL1     H  847   2.057   1.967   3.415
    2MOL1    Cl  848   2.478   3.503   3.739
    2MOL1     C  849   2.626   3.574   3.806
    2MOL1    Cl  850   2.633   3.748   3.772
    2MOL1    Cl  851   2.636   3.544   3.980
    2MOL1     H  852   2.712   3.527   3.758
    2MOL1    Cl  853   0.893   1.557   3.770
    2MOL1     C  854   0.908   1.382   3.747
    2MOL1    Cl  855   0.780   1.323   3.639
    2MOL1    Cl  856   1.068   1.341   3.683
    2MOL1     H  857   0.896   1.334   3.844
    2MOL1    Cl  858   0.687   4.568   1.905
    2MOL1     C  859   0.784   4.420   1.919
    2MOL1    Cl  860   0.941   4.454   1.993
    2MOL1    Cl  861   0.696   4.297   2.012
    2MOL1     H  862   0.801   4.381   1.818
    2MOL1    Cl  863   3.606   4.003   2.484
    2MOL1     C  864   3.667   4.162   2.534
    2MOL1    Cl  865   3.533   4.269   2.578
    2MOL1    Cl  866   3.781   4.146   2.668
    2MOL1     H  867   3.720   4.206   2.449
    2MOL1    Cl  868   0.814   2.498   3.442
    2MOL1     C  869   0.693   2.560   3.556
    2MOL1    Cl  870   0.574   2.661   3.473
    2MOL1    Cl  871   0.613   2.425   3.640
    2MOL1     H  872   0.744   2.621   3.631
    2MOL1    Cl  873   1.871   4.169   1.749
    2MOL1     C  874   1.789   4.033   1.828
    2MOL1    Cl  875   1.712   3.928   1.709
    2MOL1    Cl  876   1.904   3.941   1.928
    2MOL1     H  877   1.712   4.074   1.894
    2MOL1    Cl  878   1.846   1.414   2.576
    2MOL1     C  879   1.681   1.473   2.602
    2MOL1    Cl  880   1.654   1.624   2.514
    2MOL1    Cl  881   1.562   1.350   2.555
    2MOL1     H  882   1.668   1.493   2.709
    2MOL1    Cl  883   4.067   0.007   4.125
    2MOL1     C  884   3.944   0.111   4.050
    2MOL1    Cl  885   4.020   0.248   3.967
    2MOL1    Cl  886   3.844   0.018   3.937
    2MOL1     H  887   3.879   0.150   4.129
    2MOL1    Cl  888   0.032   4.570   4.492
    2MOL1     C  889   0.169   4.558   4.603
    2MOL1    Cl  890   0.141   4.432   4.725
    2MOL1    Cl  891   0.319   4.526   4.514
    2MOL1     H  892   0.180   4.654   4.655
    2MOL1    Cl  893   0.946   1.689   0.679
    2MOL1     C  894   1.058   1.824   0.702
    2MOL1    Cl  895   0.991   1.941   0.818
    2MOL1    Cl  896   1.216   1.766   0.757
    2MOL1     H  897   1.071   1.875   0.606
    2MOL1    Cl  898   2.862   2.631   0.410
    2MOL1     C  899   2.724   2.709   0.329
    2MOL1    Cl  900   2.778   2.848   0.234
    2MOL1    Cl  901   2.639   2.592   0.226
    2MOL1     H  902   2.654   2.744   0.406
    2MOL1    Cl  903   3.520   1.585   3.333
    2MOL1     C  904   3.628   1.445   3.349
    2MOL1    Cl  905   3.745   1.471   3.480
    2MOL1    Cl  906   3.535   1.297   3.376
    2MOL1     H  907   3.684   1.434   3.255
    2MOL1    Cl  908   3.449   0.394   2.092
    2MOL1     C  909   3.519   0.318   1.949
    2MOL1    Cl  910   3.650   0.208   1.995
    2MOL1    Cl  911   3.395   0.231   1.857
    2MOL1     H  912   3.560   0.396   1.884
    2MOL1    Cl  913   4.026   2.561   1.590
    2MOL1     C  914   4.124   2.689   1.517
    2MOL1    Cl  915   4.282   2.700   1.597
    2MOL1    Cl  916   4.145   2.660   1.343
    2MOL1     H  917   4.072   2.784   1.529
    2MOL1    Cl  918   2.847   4.200   2.795
    2MOL1     C  919   2.979   4.264   2.698
    2MOL1    Cl  920   3.100   4.139   2.666
    2MOL1    Cl  921   2.918   4.331   2.545
    2MOL1     H  922   3.027   4.345   2.753
    2MOL1    Cl  923   4.590   1.082   2.865
    2MOL1     C  924   4.437   1.111   2.781
    2MOL1    Cl  925   4.456   1.241   2.661
    2MOL1    Cl  926   4.380   0.963   2.703
    2MOL1     H  927   4.363   1.142   2.854
    2MOL1    Cl  928   1.108   2.075   4.862
    2MOL1     C  929   1.124   2.077   5.038
    2MOL1    Cl  930   1.276   1.999   5.087
    2MOL1    Cl  931   1.118   2.243   5.099
    2MOL1     H  932   1.041   2.021   5.081
    2MOL1    Cl  933   2.422   4.605   4.483
    2MOL1     C  934   2.369   4.679   4.635
    2MOL1    Cl  935   2.398   4.854   4.633
    2MOL1    Cl  936   2.197   4.646   4.663
    2MOL1     H  937   2.426   4.635   4.717
    2MOL1    Cl  938   2.490   5.143   5.045
    2MOL1     C  939   2.332   5.081   5.094
    2MOL1    Cl  940   2.259   4.987   4.963
    2MOL1    Cl  941   2.345   4.984   5.241
    2MOL1     H  942   2.267   5.167   5.115
    2MOL1    Cl  943   1.948   1.219   2.859
    2MOL1     C  944   2.042   1.301   2.985
    2MOL1    Cl  945   2.139   1.183   3.076
    2MOL1    Cl  946   2.146   1.426   2.914
    2MOL1     H  947   1.973   1.349   3.054
    2MOL1    Cl  948   1.930   2.306   5.050
    2MOL1     C  949   2.025   2.331   5.198
    2MOL1    Cl  950   2.100   2.491   5.198
    2MOL1    Cl  951   1.923   2.310   5.342
    2MOL1     H  952   2.104   2.256   5.201
    2MOL1    Cl  953   2.382   1.783   1.630
    2MOL1     C  954   2.280   1.887   1.730
    2MOL1    Cl  955   2.369   1.941   1.874
    2MOL1    Cl  956   2.222   2.026   1.637
    2MOL1     H  957   2.193   1.829   1.763
    2MOL1    Cl  958   2.860   2.592   0.739
    2MOL1     C  959   2.744   2.724   0.766
    2MOL1    Cl  960   2.614   2.671   0.874
    2MOL1    Cl  961   2.826   2.866   0.832
    2MOL1     H  962   2.700   2.751   0.670
    2MOL1    Cl  963   3.094   2.023   1.926
    2MOL1     C  964   3.066   1.864   2.000
    2MOL1    Cl  965   3.117   1.865   2.169
    2MOL1    Cl  966   2.895   1.818   1.986
    2MOL1     H  967   3.126   1.790   1.946
    2MOL1    Cl  968   4.430   4.418   2.855
    2MOL1     C  969   4.581   4.497   2.804
    2MOL1    Cl  970   4.598   4.491   2.628
    2MOL1    Cl  971   4.586   4.665   2.862
    2MOL1     H  972   4.665   4.443   2.849
    2MOL1    Cl  973   3.409   0.521   5.006
    2MOL1     C  974   3.272   0.472   4.905
    2MOL1    Cl  975   3.251   0.586   4.770
    2MOL1    Cl  976   3.296   0.307   4.844
    2MOL1     H  977   3.182   0.474   4.966
    2MOL1    Cl  978   3.976   4.043   3.980
    2MOL1     C  979   3.962   4.012   4.153
    2MOL1    Cl  980   3.823   3.908   4.187
    2MOL1    Cl  981   4.111   3.940   4.216
    2MOL1     H  982   3.946   4.108   4.204
    2MOL1    Cl  983   1.938   1.205   2.640
    2MOL1     C  984   2.046   1.344   2.657
    2MOL1    Cl  985   1.971   1.469   2.759
    2MOL1    Cl  986   2.202   1.293   2.726
    2MOL1     H  987   2.064   1.387   2.558
    2MOL1    Cl  988   2.815   0.516   0.049
    2MOL1     C  989   2.664   0.479   0.134
    2MOL1    Cl  990   2.682   0.332   0.232
    2MOL1    Cl  991   2.613   0.615   0.234
    2MOL1     H  992   2.587   0.460   0.059
    2MOL1    Cl  993   2.474   2.876   1.917
    2MOL1     C  994   2.479   2.929   2.086
    2MOL1    Cl  995   2.584   3.070   2.104
    2MOL1    Cl  996   2.316   2.965   2.145
    2MOL1     H  997   2.521   2.848   2.147
    2MOL1    Cl  998   0.926   4.876   1.577
    2MOL1     C  999   1.086   4.943   1.610
    2MOL1    Cl 1000   1.073   5.110   1.670
    2MOL1    Cl 1001   1.174   4.842   1.726
    2MOL1     H 1002   1.143   4.945   1.516
    2MOL1    Cl 1003   4.303   2.438   4.548
    2MOL1     C 1004   4.297   2.332   4.406
    2MOL1    Cl 1005   4.172   2.208   4.426
    2MOL1    Cl 1006   4.269   2.426   4.259
    2MOL1     H 1007   4.394   2.281   4.396
    2MOL1    Cl 1008   1.941   4.946   5.195
    2MOL1     C 1009   1.927   5.119   5.160
    2MOL1    Cl 1010   1.966   5.215   5.304
    2MOL1    Cl 1011   2.032   5.164   5.025
    2MOL1     H 1012   1.823   5.140   5.132
    2MOL1    Cl 1013   3.477   4.048   0.604
    2MOL1     C 1014   3.432   3.896   0.684
    2MOL1    Cl 1015   3.560   3.844   0.796
    2MOL1    Cl 1016   3.278   3.913   0.769
    2MOL1     H 1017   3.421   3.819   0.607
    2MOL1    Cl 1018   4.720   1.132   1.123
    2MOL1     C 1019   4.643   0.977   1.088
    2MOL1    Cl 1020   4.554   0.986   0.935
    2MOL1    Cl 1021   4.763   0.847   1.083
    2MOL1     H 1022   4.572   0.955   1.168
    2MOL1    Cl 1023   4.201   2.039   1.904
    2MOL1     C 1024   4.187   1.885   1.992
    2MOL1    Cl 1025   4.028   1.871   2.068
    2MOL1    Cl 1026   4.216   1.749   1.882
    2MOL1     H 1027   4.264   1.883   2.070
    2MOL1    Cl 1028   4.004   1.620   0.056
    2MOL1     C 1029   4.136   1.727   0.107
    2MOL1    Cl 1030   4.093   1.897   0.079
    2MOL1    Cl 1031   4.175   1.700   0.278
    2MOL1     H 1032   4.224   1.704   0.048
    2MOL1    Cl 1033   0.009   0.189   4.377
    2MOL1     C 1034   0.143   0.099   4.450
    2MOL1    Cl 1035   0.261   0.052   4.326
    2MOL1    Cl 1036   0.222   0.196   4.576
    2MOL1     H 1037   0.103   0.008   4.496
    2MOL1    Cl 1038   3.858   3.334   4.870
    2MOL1     C 1039   4.003   3.250   4.812
    2MOL1    Cl 1040   4.047   3.118   4.922
    2MOL1    Cl 1041   3.977   3.189   4.648
    2MOL1     H 1042   4.086   3.322   4.810
    2MOL1    Cl 1043   1.231   0.677   3.813
    2MOL1     C 1044   1.216   0.530   3.714
    2MOL1    Cl 1045   1.317   0.400   3.780
    2MOL1    Cl 1046   1.047   0.479   3.704
    2MOL1     H 1047   1.251   0.553   3.613
    2MOL1    Cl 1048   3.438   0.260   1.505
    2MOL1     C 1049   3.581   0.340   1.438
    2MOL1    Cl 1050   3.550   0.396   1.273
    2MOL1    Cl 1051   3.629   0.476   1.541
    2MOL1     H 1052   3.663   0.268   1.436
    2MOL1    Cl 1053   1.299   0.458   4.195
    2MOL1     C 1054   1.209   0.331   4.279
    2MOL1    Cl 1055   1.043   0.321   4.217
    2MOL1    Cl 1056   1.290   0.174   4.262
    2MOL1     H 1057   1.204   0.356   4.385
    2MOL1    Cl 1058   3.232   5.132   3.549
    2MOL1     C 1059   3.203   5.231   3.692
    2MOL1    Cl 1060   3.347   5.324   3.735
    2MOL1    Cl 1061   3.065   5.340   3.666
    2MOL1     H 1062   3.178   5.165   3.776
    2MOL1    Cl 1063   2.104   1.132   4.373
    2MOL1     C 1064   2.260   1.124   4.290
    2MOL1    Cl 1065   2.286   0.962   4.223
    2MOL1    Cl 1066   2.268   1.246   4.162
    2MOL1     H 1067   2.339   1.145   4.362
    2MOL1    Cl 1068   3.265   0.756   0.174
    2MOL1     C 1069   3.332   0.684   0.321
    2MOL1    Cl 1070   3.243   0.740   0.464
    2MOL1    Cl 1071   3.327   0.507   0.310
    2MOL1     H 1072   3.436   0.715   0.330
    2MOL1    Cl 1073   1.943   2.141   2.913
    2MOL1     C 1074   1.773   2.123   2.870
    2MOL1    Cl 1075   1.732   2.228   2.733
    2MOL1    Cl 1076   1.736   1.954   2.831
    2MOL1     H 1077   1.712   2.152   2.956
    2MOL1    Cl 1078   5.136   4.044   4.713
    2MOL1     C 1079   4.969   3.984   4.714
    2MOL1    Cl 1080   4.869   4.077   4.602
    2MOL1    Cl 1081   4.965   3.812   4.673
    2MOL1     H 1082   4.929   3.996   4.815
    2MOL1    Cl 1083   0.721   0.994   2.691
    2MOL1     C 1084   0.882   0.947   2.747
    2MOL1    Cl 1085   0.914   1.014   2.908
    2MOL1    Cl 1086   0.898   0.770   2.750
    2MOL1     H 1087   0.956   0.987   2.677
    2MOL1    Cl 1088   4.595   0.980   3.591
    2MOL1     C 1089   4.756   1.001   3.663
    2MOL1    Cl 1090   4.817   1.164   3.630
    2MOL1    Cl 1091   4.751   0.970   3.837
    2MOL1     H 1092   4.824   0.929   3.617
    2MOL1    Cl 1093   5.181   4.769   0.550
    2MOL1     C 1094   5.072   4.799   0.687
    2MOL1    Cl 1095   5.151   4.901   0.808
    2MOL1    Cl 1096   4.921   4.872   0.632
    2MOL1     H 1097   5.049   4.703   0.734
    2MOL1    Cl 1098   0.666   3.563   0.282
    2MOL1     C 1099   0.743   3.404   0.302
    2MOL1    Cl 1100   0.858   3.407   0.436
    2MOL1    Cl 1101   0.620   3.278   0.327
    2MOL1     H 1102   0.797   3.381   0.210
    2MOL1    Cl 1103   1.082   2.629   4.451
    2MOL1     C 1104   1.050   2.477   4.536
    2MOL1    Cl 1105   1.198   2.380   4.547
    2MOL1    Cl 1106   0.984   2.509   4.697
    2MOL1     H 1107   0.976   2.421   4.479
    2MOL1    Cl 1108   1.542   4.000   0.212
    2MOL1     C 1109   1.614   4.129   0.114
    2MOL1    Cl 1110   1.732   4.062  -0.000
    2MOL1    Cl 1111   1.489   4.220   0.028
    2MOL1     H 1112   1.666   4.197   0.181
    2MOL1    Cl 1113   0.719   3.441   0.739
    2MOL1     C 1114   0.729   3.266   0.716
    2MOL1    Cl 1115   0.584   3.205   0.636
    2MOL1    Cl 1116   0.874   3.224   0.623
    2MOL1     H 1117   0.737   3.219   0.814
    2MOL1    Cl 1118   4.097   1.562   2.588
    2MOL1     C 1119   4.257   1.637   2.600
    2MOL1    Cl 1120   4.270   1.735   2.747
    2MOL1    Cl 1121   4.384   1.514   2.597
    2MOL1     H 1122   4.271   1.702   2.514
    2MOL1    Cl 1123   2.055   0.743   4.455
    2MOL1     C 1124   2.126   0.588   4.408
    2MOL1    Cl 1125   2.048   0.525   4.261
    2MOL1    Cl 1126   2.301   0.604   4.383
    2MOL1     H 1127   2.110   0.516   4.489
    2MOL1    Cl 1128   0.343   0.019   2.610
    2MOL1     C 1129   0.460   0.150   2.587
    2MOL1    Cl 1130   0.604   0.091   2.503
    2MOL1    Cl 1131   0.386   0.284   2.496
    2MOL1     H 1132   0.489   0.187   2.685
    2MOL1    Cl 1133   1.939   4.485   4.615
    2MOL1     C 1134   1.893   4.578   4.471
    2MOL1    Cl 1135   1.718   4.607   4.470
    2MOL1    Cl 1136   1.982   4.731   4.465
    2MOL1     H 1137   1.919   4.520   4.382
    2MOL1    Cl 1138   4.264   4.457   1.682
    2MOL1     C 1139   4.212   4.604   1.598
    2MOL1    Cl 1140   4.133   4.563   1.445
    2MOL1    Cl 1141   4.104   4.700   1.701
    2MOL1     H 1142   4.301   4.664   1.576
    2MOL1    Cl 1143   1.103   2.393   0.617
    2MOL1     C 1144   1.145   2.565   0.634
    2MOL1    Cl 1145   1.022   2.667   0.557
    2MOL1    Cl 1146   1.164   2.607   0.805
    2MOL1     H 1147   1.241   2.582   0.584
    2MOL1    Cl 1148   1.297   1.063   4.186
    2MOL1     C 1149   1.369   0.954   4.305
    2MOL1    Cl 1150   1.323   1.001   4.469
    2MOL1    Cl 1151   1.322   0.786   4.273
    2MOL1     H 1152   1.478   0.961   4.296
    2MOL1    Cl 1153   1.982   1.396   1.014
    2MOL1     C 1154   1.919   1.514   0.897
    2MOL1    Cl 1155   2.031   1.650   0.879
    2MOL1    Cl 1156   1.890   1.436   0.740
    2MOL1     H 1157   1.824   1.552   0.934
    2MOL1    Cl 1158   1.458   4.583   1.511
    2MOL1     C 1159   1.296   4.614   1.449
    2MOL1    Cl 1160   1.174   4.584   1.574
    2MOL1    Cl 1161   1.283   4.780   1.388
    2MOL1     H 1162   1.277   4.546   1.365
    2MOL1    Cl 1163   5.067   2.683   2.729
    2MOL1     C 1164   5.086   2.771   2.577
    2MOL1    Cl 1165   5.230   2.874   2.582
    2MOL1    Cl 1166   5.094   2.659   2.440
    2MOL1     H 1167   4.998   2.835   2.563
    2MOL1    Cl 1168   0.997   2.362   0.216
    2MOL1     C 1169   0.902   2.493   0.144
    2MOL1    Cl 1170   0.816   2.436  -0.000
    2MOL1    Cl 1171   0.787   2.558   0.263
    2MOL1     H 1172   0.969   2.573   0.115
    2MOL1    Cl 1173   3.482   4.643   3.292
    2MOL1     C 1174   3.613   4.706   3.393
    2MOL1    Cl 1175   3.614   4.628   3.552
    2MOL1    Cl 1176   3.770   4.684   3.312
    2MOL1     H 1177   3.597   4.813   3.407
    2MOL1    Cl 1178   2.066   0.932   2.522
    2MOL1     C 1179   2.204   1.020   2.454
    2MOL1    Cl 1180   2.196   1.191   2.497
    2MOL1    Cl 1181   2.356   0.949   2.509
    2MOL1     H 1182   2.199   1.012   2.345
    2MOL1    Cl 1183   0.743   4.667   4.642
    2MOL1     C 1184   0.680   4.584   4.499
    2MOL1    Cl 1185   0.808   4.559   4.379
    2MOL1    Cl 1186   0.606   4.430   4.545
    2MOL1     H 1187   0.602   4.647   4.454
    2MOL1    Cl 1188   2.058   4.995   3.841
    2MOL1     C 1189   2.062   4.843   3.931
    2MOL1    Cl 1190   1.967   4.857   4.080
    2MOL1    Cl 1191   2.003   4.709   3.831
    2MOL1     H 1192   2.166   4.822   3.959
    2MOL1    Cl 1193   1.029   0.303   1.367
    2MOL1     C 1194   1.181   0.377   1.315
    2MOL1    Cl 1195   1.258   0.280   1.188
    2MOL1    Cl 1196   1.152   0.542   1.257
    2MOL1     H 1197   1.248   0.382   1.400
    2MOL1    Cl 1198   2.589   3.021   1.172
    2MOL1     C 1199   2.431   3.099   1.186
    2MOL1    Cl 1200   2.310   2.983   1.246
    2MOL1    Cl 1201   2.440   3.240   1.293
    2MOL1     H 1202   2.400   3.133   1.087
    2MOL1    Cl 1203   0.842   3.646   1.131
    2MOL1     C 1204   1.017   3.631   1.109
    2MOL1    Cl 1205   1.072   3.468   1.149
    2MOL1    Cl 1206   1.062   3.673   0.942
    2MOL1     H 1207   1.066   3.702   1.176
    2MOL1    Cl 1208   3.826   2.376   1.855
    2MOL1     C 1209   3.810   2.374   2.031
    2MOL1    Cl 1210   3.968   2.354   2.108
    2MOL1    Cl 1211   3.731   2.522   2.088
    2MOL1     H 1212   3.747   2.289   2.059
    2MOL1    Cl 1213   2.625   2.500   1.171
    2MOL1     C 1214   2.763   2.408   1.233
    2MOL1    Cl 1215   2.915   2.480   1.176
    2MOL1    Cl 1216   2.760   2.402   1.410
    2MOL1     H 1217   2.757   2.306   1.194
    2MOL1    Cl 1218   2.890   3.419   4.226
    2MOL1     C 1219   2.746   3.506   4.281
    2MOL1    Cl 1220   2.611   3.394   4.304
    2MOL1    Cl 1221   2.781   3.593   4.431
    2MOL1     H 1222   2.718   3.578   4.204
    2MOL1    Cl 1223   1.180   2.731   4.163
    2MOL1     C 1224   1.171   2.907   4.144
    2MOL1    Cl 1225   1.321   2.970   4.074
    2MOL1    Cl 1226   1.032   2.951   4.043
    2MOL1     H 1227   1.158   2.952   4.242
    2MOL1    Cl 1228   1.559   2.802   3.540
    2MOL1     C 1229   1.552   2.937   3.425
    2MOL1    Cl 1230   1.396   2.938   3.340
    2MOL1    Cl 1231   1.578   3.091   3.508
    2MOL1     H 1232   1.631   2.923   3.351
    2MOL1    Cl 1233   3.805   4.715   3.780
    2MOL1     C 1234   3.874   4.780   3.930
    2MOL1    Cl 1235   3.814   4.944   3.961
    2MOL1    Cl 1236   3.838   4.673   4.067
    2MOL1     H 1237   3.983   4.785   3.918
    2MOL1    Cl 1238   0.265   3.072   0.491
    2MOL1     C 1239   0.161   3.214   0.512
    2MOL1    Cl 1240   0.181   3.282   0.675
    2MOL1    Cl 1241   0.198   3.336   0.389
    2MOL1     H 1242   0.057   3.183   0.500
    2MOL1    Cl 1243   1.749   2.344   5.168
    2MOL1     C 1244   1.606   2.373   5.268
    2MOL1    Cl 1245   1.476   2.446   5.172
    2MOL1    Cl 1246   1.551   2.222   5.343
    2MOL1     H 1247   1.634   2.443   5.347
    2MOL1    Cl 1248   0.394   1.792   3.152
    2MOL1     C 1249   0.303   1.924   3.078
    2MOL1    Cl 1250   0.132   1.880   3.059
    2MOL1    Cl 1251   0.319   2.072   3.174
    2MOL1     H 1252   0.345   1.943   2.979
    2MOL1    Cl 1253   3.764   0.173   5.056
    2MOL1     C 1254   3.601   0.177   4.987
    2MOL1    Cl 1255   3.547   0.344   4.965
    2MOL1    Cl 1256   3.597   0.090   4.833
    2MOL1     H 1257   3.533   0.127   5.056
    2MOL1    Cl 1258   1.923   2.705   2.171
    2MOL1     C 1259   1.776   2.803   2.159
    2MOL1    Cl 1260   1.652   2.744   2.270
    2MOL1    Cl 1261   1.812   2.974   2.191
    2MOL1     H 1262   1.737   2.795   2.057
    2MOL1    Cl 1263   4.302   0.697   4.276
    2MOL1     C 1264   4.160   0.591   4.270
    2MOL1    Cl 1265   4.046   0.646   4.146
    2MOL1    Cl 1266   4.208   0.423   4.241
    2MOL1     H 1267   4.109   0.596   4.367
    2MOL1    Cl 1268   0.340   3.975   1.493
    2MOL1     C 1269   0.283   3.824   1.566
    2MOL1    Cl 1270   0.127   3.850   1.647
    2MOL1    Cl 1271   0.269   3.697   1.444
    2MOL1     H 1272   0.356   3.793   1.641
    2MOL1    Cl 1273   0.280   1.450   0.898
    2MOL1     C 1274   0.265   1.625   0.913
    2MOL1    Cl 1275   0.107   1.680   0.856
    2MOL1    Cl 1276   0.290   1.675   1.082
    2MOL1     H 1277   0.342   1.672   0.852
    2MOL1    Cl 1278   3.869   2.606   2.766
    2MOL1     C 1279   3.742   2.536   2.868
    2MOL1    Cl 1280   3.648   2.663   2.947
    2MOL1    Cl 1281   3.636   2.431   2.772
    2MOL1     H 1282   3.789   2.475   2.945
    2MOL1    Cl 1283   0.442   4.974   2.840
    2MOL1     C 1284   0.316   4.850   2.836
    2MOL1    Cl 1285   0.376   4.702   2.759
    2MOL1    Cl 1286   0.257   4.816   2.999
    2MOL1     H 1287   0.232   4.888   2.777
    2MOL1    Cl 1288  -0.000   4.491   2.453
    2MOL1     C 1289   0.061   4.645   2.516
    2MOL1    Cl 1290   0.238   4.645   2.520
    2MOL1    Cl 1291  -0.000   4.781   2.420
    2MOL1     H 1292   0.024   4.657   2.619
    2MOL1    Cl 1293   0.769   2.677   2.347
    2MOL1     C 1294   0.606   2.610   2.364
    2MOL1    Cl 1295   0.487   2.740   2.380
    2MOL1    Cl 1296   0.567   2.507   2.225
    2MOL1     H 1297   0.603   2.548   2.454
    2MOL1    Cl 1298   0.641   3.939   2.733
    2MOL1     C 1299   0.596   4.025   2.882
    2MOL1    Cl 1300   0.735   4.114   2.947
    2MOL1    Cl 1301   0.460   4.135   2.852
    2MOL1     H 1302   0.565   3.951   2.956
    2MOL1    Cl 1303   2.243   0.864   3.939
    2MOL1     C 1304   2.401   0.795   3.979
    2MOL1    Cl 1305   2.401   0.619   3.953
    2MOL1    Cl 1306   2.529   0.871   3.883
    2MOL1     H 1307   2.422   0.814   4.085
    2MOL1    Cl 1308   1.649   1.815   2.257
    2MOL1     C 1309   1.762   1.776   2.127
    2MOL1    Cl 1310   1.742   1.887   1.991
    2MOL1    Cl 1311   1.929   1.780   2.187
    2MOL1     H 1312   1.741   1.675   2.092
    2MOL1    Cl 1313   1.052   3.154   2.413
    2MOL1     C 1314   0.914   3.256   2.371
    2MOL1    Cl 1315   0.924   3.308   2.202
    2MOL1    Cl 1316   0.762   3.169   2.401
    2MOL1     H 1317   0.916   3.344   2.435
    2MOL1    Cl 1318   4.695   3.756   2.977
    2MOL1     C 1319   4.776   3.705   3.126
    2MOL1    Cl 1320   4.920   3.803   3.155
    2MOL1    Cl 1321   4.665   3.716   3.264
    2MOL1     H 1322   4.807   3.601   3.115
    2MOL1    Cl 1323   4.043   0.978   4.619
    2MOL1     C 1324   4.172   1.073   4.543
    2MOL1    Cl 1325   4.284   0.966   4.456
    2MOL1    Cl 1326   4.104   1.194   4.433
    2MOL1     H 1327   4.228   1.125   4.621
    2MOL1    Cl 1328  -0.000   3.157   4.617
    2MOL1     C 1329   0.153   3.114   4.695
    2MOL1    Cl 1330   0.196   2.946   4.659
    2MOL1    Cl 1331   0.282   3.224   4.643
    2MOL1     H 1332   0.141   3.124   4.803
    2MOL1    Cl 1333   0.977   1.853   0.186
    2MOL1     C 1334   1.126   1.859   0.282
    2MOL1    Cl 1335   1.265   1.807   0.185
    2MOL1    Cl 1336   1.153   2.023   0.345
    2MOL1     H 1337   1.115   1.791   0.367
    2MOL1    Cl 1338   1.800   2.139   1.681
    2MOL1     C 1339   1.948   2.124   1.777
    2MOL1    Cl 1340   2.040   2.275   1.773
    2MOL1    Cl 1341   1.909   2.080   1.944
    2MOL1     H 1342   2.009   2.045   1.734
    2MOL1    Cl 1343   2.655   4.630   3.775
    2MOL1     C 1344   2.581   4.494   3.860
    2MOL1    Cl 1345   2.412   4.531   3.902
    2MOL1    Cl 1346   2.590   4.346   3.763
    2MOL1     H 1347   2.636   4.477   3.953
    2MOL1    Cl 1348   3.269   0.426   1.922
    2MOL1     C 1349   3.263   0.524   1.775
    2MOL1    Cl 1350   3.408   0.626   1.762
    2MOL1    Cl 1351   3.245   0.421   1.632
    2MOL1     H 1352   3.175   0.590   1.781
    2MOL1    Cl 1353   2.502   4.619   4.940
    2MOL1     C 1354   2.473   4.784   4.884
    2MOL1    Cl 1355   2.583   4.826   4.751
    2MOL1    Cl 1356   2.304   4.804   4.834
    2MOL1     H 1357   2.492   4.852   4.967
    2MOL1    Cl 1358   2.567   1.765   3.416
    2MOL1     C 1359   2.608   1.937   3.426
    2MOL1    Cl 1360   2.598   1.994   3.594
    2MOL1    Cl 1361   2.771   1.965   3.361
    2MOL1     H 1362   2.537   1.993   3.366
    2MOL1    Cl 1363   0.915   1.709   5.341
    2MOL1     C 1364   0.785   1.721   5.221
    2MOL1    Cl 1365   0.852   1.753   5.060
    2MOL1    Cl 1366   0.687   1.573   5.220
    2MOL1     H 1367   0.720   1.805   5.249
    2MOL1    Cl 1368   3.007   1.190   3.035
    2MOL1     C 1369   3.148   1.144   3.131
    2MOL1    Cl 1370   3.298   1.174   3.041
    2MOL1    Cl 1371   3.150   1.232   3.285
    2MOL1     H 1372   3.142   1.037   3.153
    2MOL1    Cl 1373   3.813   0.656   1.596
    2MOL1     C 1374   3.743   0.797   1.677
    2MOL1    Cl 1375   3.787   0.946   1.592
    2MOL1    Cl 1376   3.567   0.781   1.688
    2MOL1     H 1377   3.783   0.802   1.778
    2MOL1    Cl 1378   0.601   0.348   0.449
    2MOL1     C 1379   0.526   0.395   0.602
    2MOL1    Cl 1380   0.635   0.360   0.738
    2MOL1    Cl 1381   0.484   0.567   0.600
    2MOL1     H 1382   0.435   0.338   0.615
    2MOL1    Cl 1383   0.816   3.835   3.906
    2MOL1     C 1384   0.863   3.849   3.736
    2MOL1    Cl 1385   1.026   3.916   3.721
    2MOL1    Cl 1386   0.853   3.691   3.656
    2MOL1     H 1387   0.793   3.917   3.686
    2MOL1    Cl 1388   5.161   4.102   4.406
    2MOL1     C 1389   5.198   4.274   4.422
    2MOL1    Cl 1390   5.054   4.364   4.474
    2MOL1    Cl 1391   5.331   4.299   4.536
    2MOL1     H 1392   5.229   4.313   4.325
    2MOL1    Cl 1393   3.633   1.758   0.818
    2MOL1     C 1394   3.751   1.809   0.939
    2MOL1    Cl 1395   3.726   1.722   1.091
    2MOL1    Cl 1396   3.916   1.784   0.879
    2MOL1     H 1397   3.737   1.916   0.958
    2MOL1    Cl 1398   3.561   4.466   3.914
    2MOL1     C 1399   3.414   4.467   3.817
    2MOL1    Cl 1400   3.283   4.380   3.899
    2MOL1    Cl 1401   3.364   4.633   3.780
    2MOL1     H 1402   3.434   4.416   3.722
    2MOL1    Cl 1403   1.760   4.830   3.098
    2MOL1     C 1404   1.683   4.745   3.232
    2MOL1    Cl 1405   1.680   4.846   3.377
    2MOL1    Cl 1406   1.518   4.695   3.188
    2MOL1     H 1407   1.741   4.655   3.254
    2MOL1    Cl 1408   2.745   0.537   2.512
    2MOL1     C 1409   2.632   0.527   2.649
    2MOL1    Cl 1410   2.478   0.456   2.598
    2MOL1    Cl 1411   2.703   0.435   2.782
    2MOL1     H 1412   2.613   0.629   2.684
    2MOL1    Cl 1413   3.217   2.258   4.137
    2MOL1     C 1414   3.323   2.156   4.235
    2MOL1    Cl 1415   3.281   1.985   4.215
    2MOL1    Cl 1416   3.493   2.185   4.193
    2MOL1     H 1417   3.309   2.183   4.340
    2MOL1    Cl 1418   2.957   2.246   0.603
    2MOL1     C 1419   2.979   2.389   0.501
    2MOL1    Cl 1420   3.137   2.384   0.420
    2MOL1    Cl 1421   2.848   2.402   0.382
    2MOL1     H 1422   2.977   2.478   0.565
    2MOL1    Cl 1423   1.609   0.612   4.992
    2MOL1     C 1424   1.752   0.513   5.027
    2MOL1    Cl 1425   1.856   0.594   5.146
    2MOL1    Cl 1426   1.704   0.353   5.085
    2MOL1     H 1427   1.808   0.501   4.934
    2MOL1    Cl 1428   0.727   1.487   1.608
    2MOL1     C 1429   0.776   1.645   1.671
    2MOL1    Cl 1430   0.683   1.686   1.816
    2MOL1    Cl 1431   0.950   1.647   1.706
    2MOL1     H 1432   0.756   1.720   1.594
    2MOL1    Cl 1433   4.843   3.249   0.372
    2MOL1     C 1434   5.006   3.211   0.315
    2MOL1    Cl 1435   5.061   3.057   0.384
    2MOL1    Cl 1436   5.011   3.206   0.138
    2MOL1     H 1437   5.073   3.289   0.350
    2MOL1    Cl 1438   0.500   1.746   4.020
    2MOL1     C 1439   0.667   1.687   4.012
    2MOL1    Cl 1440   0.781   1.821   4.028
    2MOL1    Cl 1441   0.695   1.565   4.138
    2MOL1     H 1442   0.682   1.640   3.915
    2MOL1    Cl 1443   0.973   0.656   0.565
    2MOL1     C 1444   0.930   0.773   0.439
    2MOL1    Cl 1445   0.755   0.792   0.429
    2MOL1    Cl 1446   1.008   0.929   0.470
    2MOL1     H 1447   0.967   0.735   0.343
    2MOL1    Cl 1448   3.645   4.866   4.950
    2MOL1     C 1449   3.543   5.011   4.952
    2MOL1    Cl 1450   3.590   5.122   4.822
    2MOL1    Cl 1451   3.372   4.967   4.937
    2MOL1     H 1452   3.558   5.061   5.048
    2MOL1    Cl 1453   3.050   3.887   3.781
    2MOL1     C 1454   3.200   3.838   3.702
    2MOL1    Cl 1455   3.334   3.838   3.818
    2MOL1    Cl 1456   3.182   3.678   3.627
    2MOL1     H 1457   3.223   3.910   3.623
    2MOL1    Cl 1458   2.901   4.132   3.280
    2MOL1     C 1459   2.797   4.275   3.268
    2MOL1    Cl 1460   2.838   4.393   3.394
    2MOL1    Cl 1461   2.812   4.349   3.107
    2MOL1     H 1462   2.693   4.244   3.282
    2MOL1    Cl 1463   3.621   1.399   2.867
    2MOL1     C 1464   3.510   1.340   2.742
    2MOL1    Cl 1465   3.392   1.228   2.811
    2MOL1    Cl 1466   3.428   1.476   2.663
    2MOL1     H 1467   3.569   1.287   2.667
    2MOL1    Cl 1468   4.650   2.223   5.189
    2MOL1     C 1469   4.587   2.092   5.088
    2MOL1    Cl 1470   4.675   1.942   5.118
    2MOL1    Cl 1471   4.413   2.069   5.117
    2MOL1     H 1472   4.600   2.120   4.983
    2MOL1    Cl 1473   3.239   2.179   0.735
    2MOL1     C 1474   3.192   2.294   0.861
    2MOL1    Cl 1475   3.275   2.257   1.013
    2MOL1    Cl 1476   3.227   2.460   0.810
    2MOL1     H 1477   3.084   2.285   0.877
    2MOL1    Cl 1478   4.785   4.813   1.485
    2MOL1     C 1479   4.608   4.810   1.493
    2MOL1    Cl 1480   4.552   4.676   1.595
    2MOL1    Cl 1481   4.546   4.965   1.554
    2MOL1     H 1482   4.569   4.795   1.392
    2MOL1    Cl 1483   4.553   0.610   3.330
    2MOL1     C 1484   4.693   0.711   3.290
    2MOL1    Cl 1485   4.641   0.867   3.224
    2MOL1    Cl 1486   4.796   0.734   3.432
    2MOL1     H 1487   4.752   0.659   3.213
    2MOL1    Cl 1488   3.528   2.376   0.428
    2MOL1     C 1489   3.566   2.204   0.426
    2MOL1    Cl 1490   3.687   2.165   0.550
    2MOL1    Cl 1491   3.420   2.107   0.449
    2MOL1     H 1492   3.609   2.179   0.328
    2MOL1    Cl 1493   1.864   0.273   2.806
    2MOL1     C 1494   1.755   0.155   2.732
    2MOL1    Cl 1495   1.799   0.128   2.562
    2MOL1    Cl 1496   1.759   0.002   2.822
    2MOL1     H 1497   1.654   0.194   2.735
    2MOL1    Cl 1498   1.344   4.557   5.203
    2MOL1     C 1499   1.260   4.686   5.115
    2MOL1    Cl 1500   1.126   4.618   5.019
    2MOL1    Cl 1501   1.199   4.809   5.227
    2MOL1     H 1502   1.331   4.733   5.047
    2MOL1    Cl 1503   4.982   0.173   4.486
    2MOL1     C 1504   5.112   0.289   4.519
    2MOL1    Cl 1505   5.216   0.230   4.649
    2MOL1    Cl 1506   5.207   0.319   4.372
    2MOL1     H 1507   5.067   0.383   4.550
    2MOL1    Cl 1508   4.234   4.935   0.340
    2MOL1     C 1509   4.379   4.876   0.257
    2MOL1    Cl 1510   4.352   4.714   0.193
    2MOL1    Cl 1511   4.426   4.988   0.128
    2MOL1     H 1512   4.461   4.872   0.330
    2MOL1    Cl 1513   0.700   2.592   4.161
    2MOL1     C 1514   0.613   2.637   4.014
    2MOL1    Cl 1515   0.657   2.531   3.879
    2MOL1    Cl 1516   0.438   2.634   4.041
    2MOL1     H 1517   0.641   2.740   3.987
    2MOL1    Cl 1518   4.111   1.343   1.498
    2MOL1     C 1519   4.060   1.361   1.667
    2MOL1    Cl 1520   3.924   1.253   1.703
    2MOL1    Cl 1521   4.196   1.329   1.776
    2MOL1     H 1522   4.027   1.464   1.682
    2MOL1    Cl 1523   1.310   4.826   0.391
    2MOL1     C 1524   1.446   4.938   0.369
    2MOL1    Cl 1525   1.568   4.867   0.262
    2MOL1    Cl 1526   1.390   5.093   0.306
    2MOL1     H 1527   1.492   4.955   0.467
    2MOL1    Cl 1528   3.489   1.181   4.014
    2MOL1     C 1529   3.318   1.134   4.018
    2MOL1    Cl 1530   3.215   1.267   3.962
    2MOL1    Cl 1531   3.291   0.989   3.919
    2MOL1     H 1532   3.291   1.111   4.121
    2MOL1    Cl 1533   4.585   3.337   3.726
    2MOL1     C 1534   4.601   3.513   3.722
    2MOL1    Cl 1535   4.597   3.580   3.885
    2MOL1    Cl 1536   4.751   3.559   3.639
    2MOL1     H 1537   4.517   3.554   3.665
    2MOL1    Cl 1538   1.251   0.878   0.544
    2MOL1     C 1539   1.413   0.874   0.615
    2MOL1    Cl 1540   1.412   0.941   0.779
    2MOL1    Cl 1541   1.477   0.709   0.616
    2MOL1     H 1542   1.479   0.936   0.554
    2MOL1    Cl 1543   1.250   2.006   0.988
    2MOL1     C 1544   1.234   1.971   1.161
    2MOL1    Cl 1545   1.238   1.797   1.190
    2MOL1    Cl 1546   1.361   2.053   1.254
    2MOL1     H 1547   1.137   2.009   1.195
    2MOL1    Cl 1548   3.459   3.234   2.437
    2MOL1     C 1549   3.566   3.113   2.366
    2MOL1    Cl 1550   3.603   2.985   2.483
    2MOL1    Cl 1551   3.494   3.044   2.219
    2MOL1     H 1552   3.660   3.161   2.338
    2MOL1    Cl 1553   3.158   3.452   2.929
    2MOL1     C 1554   3.248   3.542   2.806
    2MOL1    Cl 1555   3.280   3.708   2.861
    2MOL1    Cl 1556   3.400   3.459   2.767
    2MOL1     H 1557   3.188   3.547   2.715
    2MOL1    Cl 1558   1.330   1.318   0.402
    2MOL1     C 1559   1.317   1.157   0.328
    2MOL1    Cl 1560   1.285   1.172   0.155
    2MOL1    Cl 1561   1.465   1.063   0.356
    2MOL1     H 1562   1.234   1.105   0.375
    2MOL1    Cl 1563   2.890   0.280   0.894
    2MOL1     C 1564   3.055   0.219   0.874
    2MOL1    Cl 1565   3.137   0.305   0.743
    2MOL1    Cl 1566   3.146   0.234   1.025
    2MOL1     H 1567   3.049   0.113   0.848
    2MOL1    Cl 1568   1.840   3.279   1.100
    2MOL1     C 1569   1.941   3.414   1.047
    2MOL1    Cl 1570   2.109   3.390   1.099
    2MOL1    Cl 1571   1.933   3.434   0.871
    2MOL1     H 1572   1.904   3.506   1.093
    2MOL1    Cl 1573   2.913   3.626   1.999
    2MOL1     C 1574   2.976   3.791   1.997
    2MOL1    Cl 1575   2.909   3.882   1.861
    2MOL1    Cl 1576   2.941   3.873   2.150
    2MOL1     H 1577   3.085   3.787   1.985
    2MOL1    Cl 1578   4.669   0.623   4.147
    2MOL1     C 1579   4.569   0.482   4.108
    2MOL1    Cl 1580   4.500   0.498   3.946
    2MOL1    Cl 1581   4.664   0.333   4.122
    2MOL1     H 1582   4.487   0.477   4.180
    2MOL1    Cl 1583   4.568   2.873   4.787
    2MOL1     C 1584   4.656   3.027   4.791
    2MOL1    Cl 1585   4.567   3.148   4.884
    2MOL1    Cl 1586   4.818   3.004   4.858
    2MOL1     H 1587   4.666   3.063   4.688
    2MOL1    Cl 1588   1.149   4.590   2.524
    2MOL1     C 1589   1.095   4.678   2.380
    2MOL1    Cl 1590   1.199   4.641   2.242
    2MOL1    Cl 1591   0.926   4.640   2.344
    2MOL1     H 1592   1.102   4.785   2.401
    2MOL1    Cl 1593   5.199   0.145   0.219
    2MOL1     C 1594   5.129   0.234   0.354
    2MOL1    Cl 1595   4.959   0.190   0.376
    2MOL1    Cl 1596   5.220   0.205   0.503
    2MOL1     H 1597   5.133   0.341   0.331
    2MOL1    Cl 1598   4.711   0.571   3.722
    2MOL1     C 1599   4.606   0.439   3.666
    2MOL1    Cl 1600   4.652   0.286   3.743
    2MOL1    Cl 1601   4.436   0.477   3.698
    2MOL1     H 1602   4.620   0.429   3.558
    2MOL1    Cl 1603   3.580   5.281   4.477
    2MOL1     C 1604   3.614   5.110   4.444
    2MOL1    Cl 1605   3.754   5.056   4.539
    2MOL1    Cl 1606   3.473   5.010   4.480
    2MOL1     H 1607   3.638   5.099   4.338
    2MOL1    Cl 1608   1.222   1.972   1.718
    2MOL1     C 1609   1.342   1.920   1.598
    2MOL1    Cl 1610   1.284   1.953   1.434
    2MOL1    Cl 1611   1.497   2.000   1.626
    2MOL1     H 1612   1.356   1.812   1.608
    2MOL1    Cl 1613   3.266   1.849   2.966
    2MOL1     C 1614   3.310   1.793   2.804
    2MOL1    Cl 1615   3.388   1.634   2.813
    2MOL1    Cl 1616   3.168   1.787   2.699
    2MOL1     H 1617   3.382   1.864   2.762
    2MOL1    Cl 1618   3.783   0.377   0.543
    2MOL1     C 1619   3.612   0.414   0.515
    2MOL1    Cl 1620   3.513   0.268   0.530
    2MOL1    Cl 1621   3.557   0.538   0.629
    2MOL1     H 1622   3.601   0.454   0.414
    2MOL1    Cl 1623   0.741   1.479   2.090
    2MOL1     C 1624   0.660   1.351   2.000
    2MOL1    Cl 1625   0.584   1.416   1.854
    2MOL1    Cl 1626   0.774   1.222   1.958
    2MOL1     H 1627   0.582   1.308   2.063
    2MOL1    Cl 1628   2.985   3.852   1.309
    2MOL1     C 1629   2.819   3.806   1.350
    2MOL1    Cl 1630   2.816   3.648   1.429
    2MOL1    Cl 1631   2.745   3.929   1.454
    2MOL1     H 1632   2.761   3.800   1.258
    2MOL1    Cl 1633   2.513   2.635   4.374
    2MOL1     C 1634   2.431   2.478   4.373
    2MOL1    Cl 1635   2.401   2.425   4.206
    2MOL1    Cl 1636   2.526   2.357   4.460
    2MOL1     H 1637   2.334   2.489   4.423
    2MOL1    Cl 1638   0.543   2.272   0.777
    2MOL1     C 1639   0.558   2.425   0.863
    2MOL1    Cl 1640   0.398   2.498   0.890
    2MOL1    Cl 1641   0.642   2.402   1.018
    2MOL1     H 1642   0.617   2.494   0.802
    2MOL1    Cl 1643   2.495   0.730   1.635
    2MOL1     C 1644   2.525   0.556   1.638
    2MOL1    Cl 1645   2.388   0.468   1.569
    2MOL1    Cl 1646   2.674   0.517   1.551
    2MOL1     H 1647   2.537   0.525   1.742
    2MOL1    Cl 1648   2.560   3.677  -0.000
    2MOL1     C 1649   2.462   3.627   0.139
    2MOL1    Cl 1650   2.559   3.530   0.251
    2MOL1    Cl 1651   2.395   3.769   0.222
    2MOL1     H 1652   2.380   3.566   0.103
    2MOL1    Cl 1653   0.240   3.598   4.959
    2MOL1     C 1654   0.162   3.438   4.959
    2MOL1    Cl 1655   0.262   3.321   5.047
    2MOL1    Cl 1656   0.000   3.448   5.029
    2MOL1     H 1657   0.153   3.405   4.856
    2MOL1    Cl 1658   3.999   2.021   1.799
    2MOL1     C 1659   3.918   1.876   1.737
    2MOL1    Cl 1660   4.033   1.775   1.648
    2MOL1    Cl 1661   3.844   1.785   1.869
    2MOL1     H 1662   3.839   1.907   1.668
    2MOL1    Cl 1663   2.207   2.895   2.619
    2MOL1     C 1664   2.267   2.817   2.766
    2MOL1    Cl 1665   2.166   2.860   2.905
    2MOL1    Cl 1666   2.272   2.641   2.745
    2MOL1     H 1667   2.368   2.852   2.785
    2MOL1    Cl 1668   4.312   2.685   0.757
    2MOL1     C 1669   4.403   2.823   0.820
    2MOL1    Cl 1670   4.293   2.948   0.879
    2MOL1    Cl 1671   4.513   2.771   0.949
    2MOL1     H 1672   4.463   2.865   0.739
    2MOL1    Cl 1673   5.121   4.467   1.890
    2MOL1     C 1674   5.098   4.295   1.858
    2MOL1    Cl 1675   4.965   4.270   1.743
    2MOL1    Cl 1676   5.248   4.223   1.796
    2MOL1     H 1677   5.073   4.245   1.952
    2MOL1    Cl 1678   3.270   1.612   3.852
    2MOL1     C 1679   3.216   1.780   3.841
    2MOL1    Cl 1680   3.299   1.864   3.710
    2MOL1    Cl 1681   3.040   1.788   3.819
    2MOL1     H 1682   3.240   1.830   3.935
    2MOL1    Cl 1683   0.775   3.735   2.458
    2MOL1     C 1684   0.907   3.844   2.413
    2MOL1    Cl 1685   1.025   3.856   2.544
    2MOL1    Cl 1686   0.985   3.789   2.264
    2MOL1     H 1687   0.865   3.943   2.395
    2MOL1    Cl 1688   3.088   4.280   2.301
    2MOL1     C 1689   3.059   4.105   2.306
    2MOL1    Cl 1690   3.191   4.023   2.390
    2MOL1    Cl 1691   2.904   4.070   2.384
    2MOL1     H 1692   3.055   4.067   2.203
    2MOL1    Cl 1693   1.432   2.898   2.246
    2MOL1     C 1694   1.346   3.024   2.335
    2MOL1    Cl 1695   1.188   3.056   2.261
    2MOL1    Cl 1696   1.327   2.977   2.505
    2MOL1     H 1697   1.405   3.116   2.331
    2MOL1    Cl 1698   4.703   0.288   5.201
    2MOL1     C 1699   4.612   0.137   5.208
    2MOL1    Cl 1700   4.708   0.009   5.284
    2MOL1    Cl 1701   4.460   0.161   5.297
    2MOL1     H 1702   4.588   0.106   5.106
    2MOL1    Cl 1703   4.052   5.122   2.293
    2MOL1     C 1704   4.084   4.961   2.361
    2MOL1    Cl 1705   3.958   4.847   2.311
    2MOL1    Cl 1706   4.244   4.903   2.310
    2MOL1     H 1707   4.083   4.969   2.470
    2MOL1    Cl 1708   1.322   4.999   3.004
    2MOL1     C 1709   1.450   5.005   3.125
    2MOL1    Cl 1710   1.607   5.037   3.049
    2MOL1    Cl 1711   1.415   5.127   3.248
    2MOL1     H 1712   1.456   4.907   3.175
    2MOL1    Cl 1713   3.265   4.922   3.731
    2MOL1     C 1714   3.430   4.973   3.771
    2MOL1    Cl 1715   3.542   4.837   3.756
    2MOL1    Cl 1716   3.480   5.108   3.668
    2MOL1     H 1717   3.431   5.008   3.875
    2MOL1    Cl 1718   3.751   2.308   4.816
    2MOL1     C 1719   3.635   2.184   4.866
    2MOL1    Cl 1720   3.699   2.089   5.001
    2MOL1    Cl 1721   3.480   2.259   4.910
    2MOL1     H 1722   3.618   2.117   4.782
    2MOL1    Cl 1723   5.011   4.387   2.418
    2MOL1     C 1724   4.912   4.260   2.492
    2MOL1    Cl 1725   4.964   4.230   2.658
    2MOL1    Cl 1726   4.741   4.304   2.487
    2MOL1     H 1727   4.926   4.168   2.434
    2MOL1    Cl 1728   5.002   3.199   2.615
    2MOL1     C 1729   5.014   3.142   2.448
    2MOL1    Cl 1730   5.171   3.064   2.420
    2MOL1    Cl 1731   4.882   3.031   2.410
    2MOL1     H 1732   5.007   3.228   2.381
    2MOL1    Cl 1733   1.462   2.228   0.818
    2MOL1     C 1734   1.345   2.344   0.883
    2MOL1    Cl 1735   1.335   2.329   1.060
    2MOL1    Cl 1736   1.388   2.509   0.837
    2MOL1     H 1737   1.247   2.321   0.841
    2MOL1    Cl 1738   1.276   1.942   4.093
    2MOL1     C 1739   1.125   1.936   4.000
    2MOL1    Cl 1740   1.089   2.094   3.928
    2MOL1    Cl 1741   1.135   1.811   3.875
    2MOL1     H 1742   1.044   1.910   4.068
    2MOL1    Cl 1743   4.211   3.593   1.455
    2MOL1     C 1744   4.094   3.562   1.325
    2MOL1    Cl 1745   4.173   3.570   1.167
    2MOL1    Cl 1746   4.017   3.404   1.348
    2MOL1     H 1747   4.017   3.639   1.329
    2MOL1    Cl 1748   0.321   5.065   2.071
    2MOL1     C 1749   0.206   5.186   2.129
    2MOL1    Cl 1750   0.079   5.109   2.226
    2MOL1    Cl 1751   0.289   5.311   2.223
    2MOL1     H 1752   0.159   5.233   2.043
    2MOL1    Cl 1753   1.447   2.390   1.737
    2MOL1     C 1754   1.338   2.527   1.764
    2MOL1    Cl 1755   1.197   2.477   1.859
    2MOL1    Cl 1756   1.423   2.660   1.844
    2MOL1     H 1757   1.303   2.562   1.667
    2MOL1    Cl 1758   0.661   2.251   4.017
    2MOL1     C 1759   0.834   2.278   4.046
    2MOL1    Cl 1760   0.859   2.417   4.153
    2MOL1    Cl 1761   0.909   2.133   4.114
    2MOL1     H 1762   0.882   2.300   3.950
    2MOL1    Cl 1763   1.242   0.925   5.214
    2MOL1     C 1764   1.073   0.883   5.248
    2MOL1    Cl 1765   0.979   1.029   5.283
    2MOL1    Cl 1766   1.003   0.795   5.111
    2MOL1     H 1767   1.071   0.819   5.336
    2MOL1    Cl 1768   3.796   2.938   0.877
    2MOL1     C 1769   3.672   3.002   0.985
    2MOL1    Cl 1770   3.667   3.179   0.976
    2MOL1    Cl 1771   3.513   2.934   0.945
    2MOL1     H 1772   3.697   2.974   1.087
    2MOL1    Cl 1773   3.771   4.938   2.885
    2MOL1     C 1774   3.681   5.005   3.022
    2MOL1    Cl 1775   3.514   5.043   2.975
    2MOL1    Cl 1776   3.683   4.894   3.160
    2MOL1     H 1777   3.730   5.098   3.053
    2MOL1    Cl 1778   4.718   3.098   5.058
    2MOL1     C 1779   4.608   3.194   5.159
    2MOL1    Cl 1780   4.464   3.100   5.201
    2MOL1    Cl 1781   4.692   3.249   5.306
    2MOL1     H 1782   4.577   3.282   5.103
    2MOL1    Cl 1783   4.488   2.734   2.831
    2MOL1     C 1784   4.441   2.825   2.975
    2MOL1    Cl 1785   4.533   2.771   3.116
    2MOL1    Cl 1786   4.463   2.999   2.949
    2MOL1     H 1787   4.335   2.807   2.994
    2MOL1    Cl 1788   2.358   4.412   3.578
    2MOL1     C 1789   2.239   4.539   3.546
    2MOL1    Cl 1790   2.156   4.587   3.695
    2MOL1    Cl 1791   2.317   4.680   3.470
    2MOL1     H 1792   2.165   4.500   3.476
    2MOL1    Cl 1793   3.553   2.071   0.853
    2MOL1     C 1794   3.595   2.212   0.952
    2MOL1    Cl 1795   3.536   2.361   0.877
    2MOL1    Cl 1796   3.530   2.194   1.116
    2MOL1     H 1797   3.704   2.217   0.958
    2MOL1    Cl 1798   2.556   2.104   2.538
    2MOL1     C 1799   2.403   2.074   2.622
    2MOL1    Cl 1800   2.267   2.078   2.509
    2MOL1    Cl 1801   2.409   1.918   2.707
    2MOL1     H 1802   2.389   2.153   2.697
    2MOL1    Cl 1803   2.774   2.854   3.537
    2MOL1     C 1804   2.936   2.904   3.488
    2MOL1    Cl 1805   3.053   2.774   3.514
    2MOL1    Cl 1806   2.937   2.956   3.319
    2MOL1     H 1807   2.966   2.989   3.551
    2MOL1    Cl 1808   4.972   2.031   1.570
    2MOL1     C 1809   5.019   1.906   1.686
    2MOL1    Cl 1810   5.023   1.971   1.850
    2MOL1    Cl 1811   4.907   1.768   1.677
    2MOL1     H 1812   5.119   1.870   1.660
    2MOL1    Cl 1813   1.676   1.516   3.689
    2MOL1     C 1814   1.640   1.363   3.608
    2MOL1    Cl 1815   1.502   1.380   3.499
    2MOL1    Cl 1816   1.783   1.306   3.519
    2MOL1     H 1817   1.615   1.289   3.684
    2MOL1    Cl 1818   3.309   4.079   2.165
    2MOL1     C 1819   3.428   4.198   2.218
    2MOL1    Cl 1820   3.363   4.298   2.349
    2MOL1    Cl 1821   3.578   4.118   2.269
    2MOL1     H 1822   3.452   4.264   2.133
    2MOL1    Cl 1823   2.233   3.658   0.535
    2MOL1     C 1824   2.068   3.605   0.498
    2MOL1    Cl 1825   1.999   3.700   0.366
    2MOL1    Cl 1826   2.065   3.432   0.459
    2MOL1     H 1827   2.006   3.620   0.587
    2MOL1    Cl 1828   4.639   2.042   3.103
    2MOL1     C 1829   4.611   2.125   3.257
    2MOL1    Cl 1830   4.721   2.065   3.382
    2MOL1    Cl 1831   4.629   2.300   3.237
    2MOL1     H 1832   4.508   2.104   3.289
    2MOL1    Cl 1833   2.558   3.768   1.418
    2MOL1     C 1834   2.416   3.872   1.436
    2MOL1    Cl 1835   2.267   3.782   1.403
    2MOL1    Cl 1836   2.411   3.944   1.598
    2MOL1     H 1837   2.424   3.953   1.363
    2MOL1    Cl 1838   1.116   4.799   4.676
    2MOL1     C 1839   1.098   4.964   4.737
    2MOL1    Cl 1840   1.115   5.081   4.604
    2MOL1    Cl 1841   0.942   4.985   4.819
    2MOL1     H 1842   1.178   4.983   4.809
    2MOL1    Cl 1843   3.654   3.093   3.912
    2MOL1     C 1844   3.659   3.172   3.754
    2MOL1    Cl 1845   3.545   3.308   3.749
    2MOL1    Cl 1846   3.823   3.227   3.717
    2MOL1     H 1847   3.629   3.100   3.678
    2MOL1    Cl 1848   3.634   3.814   1.270
    2MOL1     C 1849   3.787   3.903   1.264
    2MOL1    Cl 1850   3.916   3.801   1.198
    2MOL1    Cl 1851   3.770   4.051   1.168
    2MOL1     H 1852   3.814   3.932   1.366
    2MOL1    Cl 1853   2.579   1.358   4.100
    2MOL1     C 1854   2.541   1.284   3.944
    2MOL1    Cl 1855   2.558   1.108   3.953
    2MOL1    Cl 1856   2.377   1.328   3.892
    2MOL1     H 1857   2.611   1.321   3.869
    2MOL1    Cl 1858   1.985   3.604   5.044
    2MOL1     C 1859   2.106   3.677   4.937
    2MOL1    Cl 1860   2.061   3.653   4.767
    2MOL1    Cl 1861   2.125   3.849   4.973
    2MOL1     H 1862   2.202   3.627   4.955
    2MOL1    Cl 1863   4.211   3.824   3.231
    2MOL1     C 1864   4.378   3.882   3.244
    2MOL1    Cl 1865   4.468   3.845   3.096
    2MOL1    Cl 1866   4.382   4.055   3.278
    2MOL1     H 1867   4.426   3.829   3.327
    2MOL1    Cl 1868   2.362   5.340   4.842
    2MOL1     C 1869   2.454   5.239   4.729
    2MOL1    Cl 1870   2.345   5.137   4.635
    2MOL1    Cl 1871   2.553   5.340   4.623
    2MOL1     H 1872   2.520   5.175   4.787
    2MOL1    Cl 1873   3.196   1.675   5.088
    2MOL1     C 1874   3.075   1.576   5.005
    2MOL1    Cl 1875   2.999   1.668   4.874
    2MOL1    Cl 1876   3.149   1.427   4.942
    2MOL1     H 1877   2.998   1.548   5.077
    2MOL1    Cl 1878   2.384   3.879   5.340
    2MOL1     C 1879   2.502   3.989   5.266
    2MOL1    Cl 1880   2.579   3.912   5.126
    2MOL1    Cl 1881   2.424   4.141   5.218
    2MOL1     H 1882   2.579   4.011   5.340
    2MOL1    Cl 1883   0.566   0.493   4.192
    2MOL1     C 1884   0.634   0.631   4.106
    2MOL1    Cl 1885   0.740   0.725   4.212
    2MOL1    Cl 1886   0.722   0.577   3.962
    2MOL1     H 1887   0.552   0.695   4.073
    2MOL1    Cl 1888   3.603   1.055   2.088
    2MOL1     C 1889   3.551   0.901   2.017
    2MOL1    Cl 1890   3.662   0.771   2.063
    2MOL1    Cl 1891   3.386   0.862   2.067
    2MOL1     H 1892   3.553   0.911   1.908
    2MOL1    Cl 1893   2.536   4.544   2.531
    2MOL1     C 1894   2.704   4.563   2.478
    2MOL1    Cl 1895   2.718   4.695   2.361
    2MOL1    Cl 1896   2.810   4.592   2.617
    2MOL1     H 1897   2.736   4.471   2.429
    2MOL1    Cl 1898   0.725   1.031   2.083
    2MOL1     C 1899   0.880   0.970   2.146
    2MOL1    Cl 1900   0.939   1.074   2.277
    2MOL1    Cl 1901   0.863   0.803   2.201
    2MOL1     H 1902   0.953   0.972   2.064
    2MOL1    Cl 1903   2.375   4.301   2.999
    2MOL1     C 1904   2.395   4.278   3.174
    2MOL1    Cl 1905   2.391   4.433   3.258
    2MOL1    Cl 1906   2.269   4.169   3.236
    2MOL1     H 1907   2.492   4.231   3.191
    2MOL1    Cl 1908   4.278   1.702   4.688
    2MOL1     C 1909   4.234   1.860   4.754
    2MOL1    Cl 1910   4.188   1.846   4.924
    2MOL1    Cl 1911   4.368   1.975   4.735
    2MOL1     H 1912   4.148   1.899   4.698
    2MOL1    Cl 1913   0.126   0.565   0.267
    2MOL1     C 1914   0.295   0.534   0.223
    2MOL1    Cl 1915   0.305   0.458   0.063
    2MOL1    Cl 1916   0.389   0.684   0.227
    2MOL1     H 1917   0.337   0.465   0.296
    2MOL1    Cl 1918   4.147   3.819   5.163
    2MOL1     C 1919   3.987   3.760   5.214
    2MOL1    Cl 1920   4.003   3.637   5.340
    2MOL1    Cl 1921   3.887   3.895   5.270
    2MOL1     H 1922   3.938   3.715   5.127
    2MOL1    Cl 1923   1.825   2.386   2.884
    2MOL1     C 1924   1.977   2.439   2.811
    2MOL1    Cl 1925   2.092   2.305   2.800
    2MOL1    Cl 1926   1.949   2.510   2.651
    2MOL1     H 1927   2.021   2.516   2.876
    2MOL1    Cl 1928   2.120   3.984   1.522
    2MOL1     C 1929   2.106   4.160   1.528
    2MOL1    Cl 1930   2.263   4.236   1.496
    2MOL1    Cl 1931   1.984   4.217   1.413
    2MOL1     H 1932   2.074   4.188   1.629
    2MOL1    Cl 1933   4.165   3.787   1.891
    2MOL1     C 1934   4.109   3.620   1.915
    2MOL1    Cl 1935   4.184   3.550   2.059
    2MOL1    Cl 1936   3.932   3.615   1.927
    2MOL1     H 1937   4.139   3.561   1.828
    2MOL1    Cl 1938   2.777   4.486   0.752
    2MOL1     C 1939   2.645   4.583   0.685
    2MOL1    Cl 1940   2.495   4.553   0.774
    2MOL1    Cl 1941   2.686   4.755   0.688
    2MOL1     H 1942   2.630   4.553   0.581
    2MOL1    Cl 1943   2.921   2.243   4.598
    2MOL1     C 1944   2.840   2.354   4.709
    2MOL1    Cl 1945   2.814   2.511   4.633
    2MOL1    Cl 1946   2.685   2.285   4.764
    2MOL1     H 1947   2.904   2.368   4.797
    2MOL1    Cl 1948   1.400   3.312   2.599
    2MOL1     C 1949   1.554   3.350   2.677
    2MOL1    Cl 1950   1.529   3.457   2.816
    2MOL1    Cl 1951   1.637   3.202   2.727
    2MOL1     H 1952   1.618   3.403   2.605
    2MOL1    Cl 1953   0.708   4.372   4.754
    2MOL1     C 1954   0.741   4.254   4.882
    2MOL1    Cl 1955   0.914   4.218   4.892
    2MOL1    Cl 1956   0.681   4.313   5.038
    2MOL1     H 1957   0.688   4.161   4.858
    2MOL1    Cl 1958   0.316   2.524   1.802
    2MOL1     C 1959   0.149   2.563   1.756
    2MOL1    Cl 1960   0.142   2.618   1.588
    2MOL1    Cl 1961   0.044   2.422   1.780
    2MOL1     H 1962   0.114   2.644   1.821
    2MOL1    Cl 1963   4.567   1.076   4.238
    2MOL1     C 1964   4.538   0.914   4.173
    2MOL1    Cl 1965   4.406   0.916   4.055
    2MOL1    Cl 1966   4.686   0.849   4.100
    2MOL1     H 1967   4.509   0.848   4.256
    2MOL1    Cl 1968   3.919   1.230   0.325
    2MOL1     C 1969   3.963   1.115   0.452
    2MOL1    Cl 1970   4.057   1.195   0.579
    2MOL1    Cl 1971   3.818   1.038   0.520
    2MOL1     H 1972   4.025   1.037   0.407
    2MOL1    Cl 1973   1.933   1.775   3.770
    2MOL1     C 1974   1.890   1.698   3.923
    2MOL1    Cl 1975   2.024   1.599   3.983
    2MOL1    Cl 1976   1.844   1.820   4.044
    2MOL1     H 1977   1.804   1.633   3.906
    2MOL1    Cl 1978   0.155   1.663   1.931
    2MOL1     C 1979   0.240   1.768   2.045
    2MOL1    Cl 1980   0.311   1.907   1.962
    2MOL1    Cl 1981   0.131   1.822   2.174
    2MOL1     H 1982   0.321   1.710   2.091
    2MOL1    Cl 1983   1.476   0.613   3.390
    2MOL1     C 1984   1.645   0.581   3.347
    2MOL1    Cl 1985   1.661   0.554   3.173
    2MOL1    Cl 1986   1.748   0.715   3.400
    2MOL1     H 1987   1.677   0.490   3.399
    2MOL1    Cl 1988   2.286   4.163   1.278
    2MOL1     C 1989   2.258   4.272   1.142
    2MOL1    Cl 1990   2.207   4.432   1.198
    2MOL1    Cl 1991   2.404   4.285   1.042
    2MOL1     H 1992   2.178   4.230   1.080
    2MOL1    Cl 1993   3.370   1.668   4.336
    2MOL1     C 1994   3.476   1.809   4.353
    2MOL1    Cl 1995   3.416   1.918   4.479
    2MOL1    Cl 1996   3.642   1.757   4.388
    2MOL1     H 1997   3.476   1.863   4.258
    2MOL1    Cl 1998   2.367   3.870   4.162
    2MOL1     C 1999   2.278   3.719   4.190
    2MOL1    Cl 2000   2.367   3.613   4.300
    2MOL1    Cl 2001   2.116   3.753   4.253
    2MOL1     H 2002   2.267   3.668   4.094
    2MOL1    Cl 2003   3.097   1.137   4.971
    2MOL1     C 2004   3.160   0.973   4.945
    2MOL1    Cl 2005   3.337   0.977   4.933
    2MOL1    Cl 2006   3.109   0.865   5.075
    2MOL1     H 2007   3.120   0.936   4.851
    2MOL1    Cl 2008   3.061   2.701   2.307
    2MOL1     C 2009   2.989   2.731   2.466
    2MOL1    Cl 2010   2.856   2.618   2.497
    2MOL1    Cl 2011   3.111   2.719   2.594
    2MOL1     H 2012   2.948   2.832   2.467
    2MOL1    Cl 2013   4.895   4.214   0.697
    2MOL1     C 2014   4.762   4.223   0.813
    2MOL1    Cl 2015   4.745   4.070   0.900
    2MOL1    Cl 2016   4.788   4.357   0.927
    2MOL1     H 2017   4.670   4.242   0.758
    2MOL1    Cl 2018   2.268   3.191   4.377
    2MOL1     C 2019   2.160   3.051   4.396
    2MOL1    Cl 2020   1.992   3.098   4.367
    2MOL1    Cl 2021   2.208   2.921   4.286
    2MOL1     H 2022   2.169   3.014   4.498
    2MOL1    Cl 2023   2.778   4.188   4.513
    2MOL1     C 2024   2.609   4.165   4.465
    2MOL1    Cl 2025   2.568   4.273   4.330
    2MOL1    Cl 2026   2.580   3.996   4.421
    2MOL1     H 2027   2.545   4.191   4.550
    2MOL1    Cl 2028   4.403   5.146   2.858
    2MOL1     C 2029   4.488   5.152   2.703
    2MOL1    Cl 2030   4.663   5.154   2.728
    2MOL1    Cl 2031   4.441   5.014   2.601
    2MOL1     H 2032   4.459   5.244   2.651
    2MOL1    Cl 2033   1.916   3.482   2.075
    2MOL1     C 2034   1.852   3.633   2.007
    2MOL1    Cl 2035   1.767   3.601   1.854
    2MOL1    Cl 2036   1.745   3.713   2.122
    2MOL1     H 2037   1.936   3.699   1.986
    2MOL1    Cl 2038   3.597   0.894   0.942
    2MOL1     C 2039   3.504   0.781   1.042
    2MOL1    Cl 2040   3.339   0.840   1.066
    2MOL1    Cl 2041   3.503   0.620   0.969
    2MOL1     H 2042   3.553   0.774   1.140
    2MOL1    Cl 2043   0.247   3.865   3.111
    2MOL1     C 2044   0.334   3.737   3.025
    2MOL1    Cl 2045   0.483   3.694   3.111
    2MOL1    Cl 2046   0.231   3.594   3.006
    2MOL1     H 2047   0.361   3.774   2.926
    2MOL1    Cl 2048   3.003   2.599   4.855
    2MOL1     C 2049   2.880   2.693   4.940
    2MOL1    Cl 2050   2.924   2.713   5.110
    2MOL1    Cl 2051   2.857   2.851   4.862
    2MOL1     H 2052   2.785   2.638   4.935
    2MOL1    Cl 2053   2.155   0.669   0.559
    2MOL1     C 2054   2.270   0.673   0.694
    2MOL1    Cl 2055   2.225   0.552   0.817
    2MOL1    Cl 2056   2.435   0.645   0.637
    2MOL1     H 2057   2.265   0.772   0.740
    2MOL1    Cl 2058   2.817   0.441   2.228
    2MOL1     C 2059   2.914   0.306   2.289
    2MOL1    Cl 2060   2.918   0.306   2.466
    2MOL1    Cl 2061   2.851   0.152   2.228
    2MOL1     H 2062   3.016   0.319   2.252
    2MOL1    Cl 2063   1.739   3.462   4.743
    2MOL1     C 2064   1.843   3.487   4.602
    2MOL1    Cl 2065   1.860   3.337   4.510
    2MOL1    Cl 2066   1.778   3.616   4.499
    2MOL1     H 2067   1.942   3.518   4.637
    2MOL1    Cl 2068   0.678   2.883   0.853
    2MOL1     C 2069   0.789   2.800   0.743
    2MOL1    Cl 2070   0.846   2.910   0.617
    2MOL1    Cl 2071   0.927   2.733   0.833
    2MOL1     H 2072   0.736   2.718   0.696
    2MOL1    Cl 2073   3.030   0.118   3.409
    2MOL1     C 2074   2.925   0.256   3.371
    2MOL1    Cl 2075   2.842   0.313   3.517
    2MOL1    Cl 2076   3.019   0.387   3.298
    2MOL1     H 2077   2.850   0.223   3.299
    2MOL1    Cl 2078   2.111   2.863   1.135
    2MOL1     C 2079   2.046   3.027   1.118
    2MOL1    Cl 2080   2.053   3.112   1.273
    2MOL1    Cl 2081   2.134   3.117   0.994
    2MOL1     H 2082   1.941   3.019   1.088
    2MOL1    Cl 2083   2.961   5.340   4.062
    2MOL1     C 2084   3.104   5.245   4.105
    2MOL1    Cl 2085   3.107   5.092   4.016
    2MOL1    Cl 2086   3.252   5.338   4.073
    2MOL1     H 2087   3.100   5.223   4.212
    2MOL1    Cl 2088   0.444   0.355   4.330
    2MOL1     C 2089   0.307   0.390   4.223
    2MOL1    Cl 2090   0.213   0.242   4.192
    2MOL1    Cl 2091   0.204   0.516   4.293
    2MOL1     H 2092   0.346   0.426   4.128
    2MOL1    Cl 2093   2.291   2.520   4.003
    2MOL1     C 2094   2.417   2.639   3.970
    2MOL1    Cl 2095   2.522   2.660   4.111
    2MOL1    Cl 2096   2.513   2.592   3.828
    2MOL1     H 2097   2.369   2.735   3.948
    2MOL1    Cl 2098   0.854   1.517   0.197
    2MOL1     C 2099   0.725   1.401   0.162
    2MOL1    Cl 2100   0.653   1.342   0.313
    2MOL1    Cl 2101   0.601   1.474   0.059
    2MOL1     H 2102   0.769   1.316   0.109
    2MOL1    Cl 2103   4.802   2.937   2.028
    2MOL1     C 2104   4.663   2.984   1.929
    2MOL1    Cl 2105   4.514   2.916   1.998
    2MOL1    Cl 2106   4.651   3.160   1.916
    2MOL1     H 2107   4.676   2.943   1.829
    2MOL1    Cl 2108   3.269   3.163   0.616
    2MOL1     C 2109   3.114   3.249   0.605
    2MOL1    Cl 2110   3.133   3.399   0.513
    2MOL1    Cl 2111   2.991   3.146   0.531
    2MOL1     H 2112   3.082   3.274   0.706
    2MOL1    Cl 2113   2.513   4.838   1.735
    2MOL1     C 2114   2.604   4.930   1.614
    2MOL1    Cl 2115   2.597   4.850   1.456
    2MOL1    Cl 2116   2.542   5.096   1.603
    2MOL1     H 2117   2.708   4.935   1.646
    2MOL1    Cl 2118   2.820   3.994   4.956
    2MOL1     C 2119   2.682   4.029   4.851
    2MOL1    Cl 2120   2.596   4.174   4.906
    2MOL1    Cl 2121   2.734   4.047   4.682
    2MOL1     H 2122   2.613   3.944   4.856
    2MOL1    Cl 2123   4.142   4.220   2.786
    2MOL1     C 2124   4.083   4.054   2.762
    2MOL1    Cl 2125   3.982   4.004   2.899
    2MOL1    Cl 2126   3.994   4.041   2.610
    2MOL1     H 2127   4.170   3.988   2.757
    2MOL1    Cl 2128   2.255   1.597   2.589
    2MOL1     C 2129   2.354   1.540   2.454
    2MOL1    Cl 2130   2.409   1.374   2.483
    2MOL1    Cl 2131   2.264   1.550   2.302
    2MOL1     H 2132   2.442   1.605   2.446
    2MOL1    Cl 2133   4.839   2.504   0.528
    2MOL1     C 2134   4.898   2.383   0.643
    2MOL1    Cl 2135   4.766   2.328   0.749
    2MOL1    Cl 2136   4.969   2.245   0.557
    2MOL1     H 2137   4.975   2.428   0.705
    2MOL1    Cl 2138   4.093   0.765   3.102
    2MOL1     C 2139   4.172   0.619   3.166
    2MOL1    Cl 2140   4.076   0.475   3.128
    2MOL1    Cl 2141   4.336   0.604   3.103
    2MOL1     H 2142   4.178   0.629   3.275
    2MOL1    Cl 2143   4.951   2.333   0.284
    2MOL1     C 2144   4.865   2.314   0.130
    2MOL1    Cl 2145   4.979   2.276  -0.000
    2MOL1    Cl 2146   4.741   2.189   0.144
    2MOL1     H 2147   4.816   2.409   0.107
    2MOL1    Cl 2148   3.392   1.074   0.978
    2MOL1     C 2149   3.369   1.218   1.078
    2MOL1    Cl 2150   3.505   1.330   1.059
    2MOL1    Cl 2151   3.216   1.298   1.036
    2MOL1     H 2152   3.364   1.187   1.182
    2MOL1    Cl 2153   2.725   4.542   4.860
    2MOL1     C 2154   2.792   4.452   4.723
    2MOL1    Cl 2155   2.828   4.285   4.769
    2MOL1    Cl 2156   2.680   4.456   4.586
    2MOL1     H 2157   2.885   4.501   4.692
    2MOL1    Cl 2158   1.548   5.112   0.756
    2MOL1     C 2159   1.538   5.250   0.646
    2MOL1    Cl 2160   1.691   5.271   0.558
    2MOL1    Cl 2161   1.404   5.229   0.532
    2MOL1     H 2162   1.519   5.340   0.704
    2MOL1    Cl 2163   1.494   3.471   4.417
    2MOL1     C 2164   1.438   3.303   4.426
    2MOL1    Cl 2165   1.564   3.192   4.372
    2MOL1    Cl 2166   1.386   3.263   4.590
    2MOL1     H 2167   1.352   3.292   4.359
    2MOL1    Cl 2168   1.250   2.369   2.578
    2MOL1     C 2169   1.110   2.374   2.471
    2MOL1    Cl 2170   1.056   2.541   2.447
    2MOL1    Cl 2171   1.147   2.298   2.316
    2MOL1     H 2172   1.028   2.318   2.518
    2MOL1    Cl 2173   1.364   1.433   0.637
    2MOL1     C 2174   1.282   1.276   0.621
    2MOL1    Cl 2175   1.136   1.292   0.522
    2MOL1    Cl 2176   1.392   1.155   0.553
    2MOL1     H 2177   1.252   1.243   0.721
    2MOL1    Cl 2178   0.481   5.090   3.239
    2MOL1     C 2179   0.349   5.206   3.252
    2MOL1    Cl 2180   0.209   5.153   3.158
    2MOL1    Cl 2181   0.304   5.231   3.422
    2MOL1     H 2182   0.383   5.302   3.211
    2MOL1    Cl 2183   2.765   3.845   0.465
    2MOL1     C 2184   2.785   3.957   0.329
    2MOL1    Cl 2185   2.859   3.875   0.191
    2MOL1    Cl 2186   2.629   4.029   0.284
    2MOL1     H 2187   2.851   4.038   0.361
    2MOL1    Cl 2188   5.003   2.023   0.824
    2MOL1     C 2189   5.127   1.920   0.897
    2MOL1    Cl 2190   5.063   1.837   1.040
    2MOL1    Cl 2191   5.189   1.803   0.779
    2MOL1     H 2192   5.210   1.984   0.929
    2MOL1    Cl 2193   3.063   4.811   4.093
    2MOL1     C 2194   3.225   4.749   4.126
    2MOL1    Cl 2195   3.230   4.573   4.103
    2MOL1    Cl 2196   3.345   4.829   4.022
    2MOL1     H 2197   3.250   4.771   4.230
    2MOL1    Cl 2198   0.573   3.289   3.321
    2MOL1     C 2199   0.466   3.219   3.444
    2MOL1    Cl 2200   0.522   3.260   3.607
    2MOL1    Cl 2201   0.299   3.274   3.420
    2MOL1     H 2202   0.468   3.110   3.433
    2MOL1    Cl 2203   2.900   0.678   1.912
    2MOL1     C 2204   2.878   0.503   1.891
    2MOL1    Cl 2205   2.955   0.415   2.025
    2MOL1    Cl 2206   2.706   0.462   1.880
    2MOL1     H 2207   2.927   0.474   1.798
    2MOL1    Cl 2208   4.908   5.164   4.326
    2MOL1     C 2209   4.836   5.003   4.337
    2MOL1    Cl 2210   4.916   4.908   4.463
    2MOL1    Cl 2211   4.662   5.014   4.368
    2MOL1     H 2212   4.851   4.952   4.241
    2MOL1    Cl 2213   4.060   0.805   2.010
    2MOL1     C 2214   4.042   0.977   2.052
    2MOL1    Cl 2215   4.063   1.078   1.908
    2MOL1    Cl 2216   3.885   1.007   2.127
    2MOL1     H 2217   4.120   1.003   2.124
    2MOL1    Cl 2218   2.285   4.624   2.482
    2MOL1     C 2219   2.325   4.784   2.418
    2MOL1    Cl 2220   2.443   4.771   2.286
    2MOL1    Cl 2221   2.179   4.868   2.363
    2MOL1     H 2222   2.371   4.843   2.499
    2MOL1    Cl 2223   2.406   2.598   1.007
    2MOL1     C 2224   2.267   2.642   0.906
    2MOL1    Cl 2225   2.271   2.554   0.752
    2MOL1    Cl 2226   2.116   2.609   0.992
    2MOL1     H 2227   2.272   2.749   0.885
    2MOL1    Cl 2228   2.088   4.824   0.248
    2MOL1     C 2229   2.146   4.770   0.407
    2MOL1    Cl 2230   2.161   4.908   0.518
    2MOL1    Cl 2231   2.037   4.648   0.474
    2MOL1     H 2232   2.245   4.726   0.394
    2MOL1    Cl 2233   3.759   1.037   2.472
    2MOL1     C 2234   3.613   1.116   2.410
    2MOL1    Cl 2235   3.474   1.081   2.514
    2MOL1    Cl 2236   3.638   1.291   2.396
    2MOL1     H 2237   3.592   1.076   2.310
    2MOL1    Cl 2238   3.809   3.984   0.712
    2MOL1     C 2239   3.759   4.033   0.874
    2MOL1    Cl 2240   3.636   4.160   0.866
    2MOL1    Cl 2241   3.698   3.893   0.965
    2MOL1     H 2242   3.846   4.073   0.927
    2MOL1    Cl 2243   1.520   4.275   2.070
    2MOL1     C 2244   1.682   4.326   2.121
    2MOL1    Cl 2245   1.672   4.467   2.228
    2MOL1    Cl 2246   1.767   4.193   2.201
    2MOL1     H 2247   1.739   4.354   2.032
    2MOL1    Cl 2248   4.889   2.907   3.149
    2MOL1     C 2249   4.984   2.778   3.074
    2MOL1    Cl 2250   5.013   2.647   3.190
    2MOL1    Cl 2251   4.903   2.717   2.929
    2MOL1     H 2252   5.081   2.819   3.045
    2MOL1    Cl 2253   1.780   1.362   2.051
    2MOL1     C 2254   1.663   1.354   2.184
    2MOL1    Cl 2255   1.713   1.233   2.303
    2MOL1    Cl 2256   1.643   1.513   2.259
    2MOL1     H 2257   1.566   1.323   2.142
    2MOL1    Cl 2258   0.000   0.603   1.554
    2MOL1     C 2259   0.131   0.514   1.476
    2MOL1    Cl 2260   0.276   0.614   1.461
    2MOL1    Cl 2261   0.167   0.365   1.566
    2MOL1     H 2262   0.098   0.486   1.375
    2MOL1    Cl 2263   0.966   4.605   0.099
    2MOL1     C 2264   1.016   4.479   0.212
    2MOL1    Cl 2265   0.920   4.487   0.361
    2MOL1    Cl 2266   1.001   4.319   0.138
    2MOL1     H 2267   1.121   4.495   0.238
    2MOL1    Cl 2268   2.963   2.832   1.031
    2MOL1     C 2269   3.071   2.691   1.031
    2MOL1    Cl 2270   2.989   2.550   0.961
    2MOL1    Cl 2271   3.221   2.727   0.943
    2MOL1     H 2272   3.097   2.668   1.135
    2MOL1    Cl 2273   0.447   2.012   2.580
    2MOL1     C 2274   0.615   1.999   2.526
    2MOL1    Cl 2275   0.653   1.833   2.477
    2MOL1    Cl 2276   0.646   2.112   2.393
    2MOL1     H 2277   0.681   2.026   2.610
    2MOL1    Cl 2278   2.490   0.662   5.030
    2MOL1     C 2279   2.620   0.774   4.986
    2MOL1    Cl 2280   2.609   0.923   5.081
    2MOL1    Cl 2281   2.778   0.697   5.008
    2MOL1     H 2282   2.609   0.800   4.880
    2MOL1    Cl 2283   0.441   4.324   4.057
    2MOL1     C 2284   0.432   4.329   4.234
    2MOL1    Cl 2285   0.332   4.465   4.288
    2MOL1    Cl 2286   0.369   4.176   4.298
    2MOL1     H 2287   0.533   4.343   4.273
    2MOL1    Cl 2288   4.923   4.228   1.460
    2MOL1     C 2289   5.031   4.089   1.481
    2MOL1    Cl 2290   5.201   4.142   1.483
    2MOL1    Cl 2291   4.992   4.002   1.630
    2MOL1     H 2292   5.017   4.021   1.397
    2MOL1    Cl 2293   2.393   2.302   0.571
    2MOL1     C 2294   2.556   2.306   0.502
    2MOL1    Cl 2295   2.648   2.162   0.551
    2MOL1    Cl 2296   2.549   2.317   0.325
    2MOL1     H 2297   2.608   2.394   0.540
    2MOL1    Cl 2298   3.277   2.302   2.286
    2MOL1     C 2299   3.316   2.460   2.216
    2MOL1    Cl 2300   3.419   2.440   2.073
    2MOL1    Cl 2301   3.168   2.548   2.174
    2MOL1     H 2302   3.371   2.518   2.290
    2MOL1    Cl 2303   4.021   1.408   5.289
    2MOL1     C 2304   4.065   1.245   5.237
    2MOL1    Cl 2305   3.968   1.195   5.097
    2MOL1    Cl 2306   4.238   1.236   5.199
    2MOL1     H 2307   4.045   1.175   5.319
    2MOL1    Cl 2308   0.995   2.076   4.408
    2MOL1     C 2309   1.119   2.007   4.301
    2MOL1    Cl 2310   1.087   1.835   4.271
    2MOL1    Cl 2311   1.126   2.097   4.149
    2MOL1     H 2312   1.215   2.016   4.351
    2MOL1    Cl 2313   0.265   0.137   2.176
    2MOL1     C 2314   0.379   0.271   2.169
    2MOL1    Cl 2315   0.383   0.341   2.006
    2MOL1    Cl 2316   0.338   0.395   2.288
    2MOL1     H 2317   0.479   0.233   2.192
    2MOL1    Cl 2318   3.652   0.489   1.067
    2MOL1     C 2319   3.814   0.429   1.108
    2MOL1    Cl 2320   3.838   0.266   1.042
    2MOL1    Cl 2321   3.938   0.539   1.048
    2MOL1     H 2322   3.822   0.424   1.217
    2MOL1    Cl 2323   3.250   2.439   3.484
    2MOL1     C 2324   3.208   2.310   3.597
    2MOL1    Cl 2325   3.349   2.209   3.631
    2MOL1    Cl 2326   3.141   2.377   3.746
    2MOL1     H 2327   3.132   2.247   3.550
    2MOL1    Cl 2328   3.699   2.702   3.538
    2MOL1     C 2329   3.744   2.872   3.553
    2MOL1    Cl 2330   3.800   2.907   3.717
    2MOL1    Cl 2331   3.869   2.914   3.434
    2MOL1     H 2332   3.656   2.934   3.533
    2MOL1    Cl 2333   3.304   4.459   1.948
    2MOL1     C 2334   3.222   4.437   1.792
    2MOL1    Cl 2335   3.219   4.589   1.702
    2MOL1    Cl 2336   3.302   4.310   1.698
    2MOL1     H 2337   3.119   4.406   1.811
    2MOL1    Cl 2338   0.676   1.249   4.280
    2MOL1     C 2339   0.535   1.324   4.204
    2MOL1    Cl 2340   0.388   1.230   4.237
    2MOL1    Cl 2341   0.516   1.491   4.261
    2MOL1     H 2342   0.550   1.327   4.096
    2MOL1    Cl 2343   0.574   1.849   1.675
    2MOL1     C 2344   0.412   1.789   1.637
    2MOL1    Cl 2345   0.378   1.806   1.464
    2MOL1    Cl 2346   0.396   1.620   1.687
    2MOL1     H 2347   0.340   1.848   1.693
    2MOL1    Cl 2348   0.148   2.781   1.317
    2MOL1     C 2349   0.082   2.934   1.377
    2MOL1    Cl 2350   0.206   3.024   1.467
    2MOL1    Cl 2351   0.019   3.031   1.244
    2MOL1     H 2352  -0.000   2.911   1.445
    2MOL1    Cl 2353   0.707   3.490   0.023
    2MOL1     C 2354   0.863   3.565   0.061
    2MOL1    Cl 2355   0.879   3.590   0.236
    2MOL1    Cl 2356   0.997   3.465   0.000
    2MOL1     H 2357   0.868   3.662   0.011
    2MOL1    Cl 2358   3.355   1.257   1.505
    2MOL1     C 2359   3.530   1.261   1.484
    2MOL1    Cl 2360   3.598   1.408   1.556
    2MOL1    Cl 2361   3.605   1.117   1.555
    2MOL1     H 2362   3.552   1.262   1.377
    2MOL1    Cl 2363   3.596   1.639   4.906
    2MOL1     C 2364   3.481   1.671   4.775
    2MOL1    Cl 2365   3.498   1.551   4.646
    2MOL1    Cl 2366   3.315   1.672   4.837
    2MOL1     H 2367   3.503   1.770   4.733
    2MOL1    Cl 2368   0.665   4.074   4.457
    2MOL1     C 2369   0.694   3.990   4.304
    2MOL1    Cl 2370   0.560   4.018   4.191
    2MOL1    Cl 2371   0.848   4.043   4.232
    2MOL1     H 2372   0.701   3.883   4.323
    2MOL1    Cl 2373   3.743   3.254   5.068
    2MOL1     C 2374   3.600   3.224   5.169
    2MOL1    Cl 2375   3.551   3.054   5.159
    2MOL1    Cl 2376   3.633   3.269   5.338
    2MOL1     H 2377   3.518   3.286   5.132
    2MOL1    Cl 2378   1.054   2.853   1.574
    2MOL1     C 2379   0.950   2.713   1.547
    2MOL1    Cl 2380   0.934   2.678   1.374
    2MOL1    Cl 2381   1.012   2.572   1.634
    2MOL1     H 2382   0.850   2.736   1.587
    2MOL1    Cl 2383   4.276   1.211   0.250
    2MOL1     C 2384   4.423   1.123   0.294
    2MOL1    Cl 2385   4.487   1.181   0.449
    2MOL1    Cl 2386   4.391   0.949   0.302
    2MOL1     H 2387   4.498   1.141   0.217
    2MOL1    Cl 2388   3.005   0.907   3.641
    2MOL1     C 2389   3.100   0.841   3.507
    2MOL1    Cl 2390   3.037   0.682   3.458
    2MOL1    Cl 2391   3.101   0.952   3.370
    2MOL1     H 2392   3.203   0.828   3.541
    2MOL1    Cl 2393   4.249   1.294   4.919
    2MOL1     C 2394   4.414   1.343   4.877
    2MOL1    Cl 2395   4.460   1.278   4.719
    2MOL1    Cl 2396   4.429   1.519   4.878
    2MOL1     H 2397   4.482   1.302   4.952
    2MOL1    Cl 2398   4.804   1.995   3.740
    2MOL1     C 2399   4.758   2.143   3.824
    2MOL1    Cl 2400   4.902   2.238   3.866
    2MOL1    Cl 2401   4.646   2.239   3.726
    2MOL1     H 2402   4.707   2.115   3.917
    2MOL1    Cl 2403   3.465   0.623   3.676
    2MOL1     C 2404   3.379   0.712   3.802
    2MOL1    Cl 2405   3.314   0.601   3.924
    2MOL1    Cl 2406   3.486   0.831   3.878
    2MOL1     H 2407   3.295   0.765   3.756
    2MOL1    Cl 2408   3.949   3.841   1.569
    2MOL1     C 2409   3.821   3.721   1.588
    2MOL1    Cl 2410   3.687   3.754   1.477
    2MOL1    Cl 2411   3.884   3.557   1.561
    2MOL1     H 2412   3.783   3.726   1.690
    2MOL1    Cl 2413   0.384   0.100   1.333
    2MOL1     C 2414   0.543   0.171   1.364
    2MOL1    Cl 2415   0.571   0.188   1.538
    2MOL1    Cl 2416   0.670   0.073   1.290
    2MOL1     H 2417   0.546   0.271   1.319
    2MOL1    Cl 2418   2.096   3.815   3.707
    2MOL1     C 2419   2.175   3.974   3.700
    2MOL1    Cl 2420   2.323   3.966   3.603
    2MOL1    Cl 2421   2.065   4.096   3.635
    2MOL1     H 2422   2.202   4.003   3.802
    2MOL1    Cl 2423   4.573   3.916   1.191
    2MOL1     C 2424   4.506   3.941   1.353
    2MOL1    Cl 2425   4.534   3.799   1.455
    2MOL1    Cl 2426   4.577   4.085   1.428
    2MOL1     H 2427   4.398   3.956   1.344
    2MOL1    Cl 2428   3.393   4.337   4.580
    2MOL1     C 2429   3.217   4.312   4.576
    2MOL1    Cl 2430   3.179   4.139   4.586
    2MOL1    Cl 2431   3.139   4.401   4.708
    2MOL1     H 2432   3.179   4.350   4.481
    2MOL1    Cl 2433   2.120   1.811   4.467
    2MOL1     C 2434   2.047   1.838   4.626
    2MOL1    Cl 2435   1.890   1.918   4.609
    2MOL1    Cl 2436   2.030   1.685   4.714
    2MOL1     H 2437   2.113   1.904   4.683
    2MOL1    Cl 2438   1.588   3.596   2.225
    2MOL1     C 2439   1.535   3.443   2.154
    2MOL1    Cl 2440   1.379   3.464   2.072
    2MOL1    Cl 2441   1.656   3.381   2.041
    2MOL1     H 2442   1.522   3.370   2.235
    2MOL1    Cl 2443   4.296   4.512   3.687
    2MOL1     C 2444   4.200   4.375   3.745
    2MOL1    Cl 2445   4.145   4.275   3.610
    2MOL1    Cl 2446   4.294   4.278   3.861
    2MOL1     H 2447   4.113   4.415   3.797
    2MOL1    Cl 2448   0.606   1.041   3.634
    2MOL1     C 2449   0.685   1.003   3.788
    2MOL1    Cl 2450   0.814   1.119   3.823
    2MOL1    Cl 2451   0.566   1.001   3.919
    2MOL1     H 2452   0.729   0.903   3.780
    2MOL1    Cl 2453   1.856   4.400   0.727
    2MOL1     C 2454   1.690   4.462   0.722
    2MOL1    Cl 2455   1.676   4.591   0.601
    2MOL1    Cl 2456   1.576   4.331   0.688
    2MOL1     H 2457   1.666   4.504   0.820
    2MOL1    Cl 2458   3.862   0.742   3.320
    2MOL1     C 2459   3.799   0.908   3.312
    2MOL1    Cl 2460   3.640   0.911   3.234
    2MOL1    Cl 2461   3.789   0.978   3.475
    2MOL1     H 2462   3.868   0.968   3.253
    2MOL1    Cl 2463   0.251   4.698   4.124
    2MOL1     C 2464   0.161   4.619   3.993
    2MOL1    Cl 2465   0.150   4.726   3.852
    2MOL1    Cl 2466   0.238   4.465   3.949
    2MOL1     H 2467   0.060   4.599   4.029
    2MOL1    Cl 2468   4.441   1.876   5.340
    2MOL1     C 2469   4.343   1.740   5.284
    2MOL1    Cl 2470   4.306   1.756   5.112
    2MOL1    Cl 2471   4.426   1.586   5.316
    2MOL1     H 2472   4.249   1.740   5.340
    2MOL1    Cl 2473   0.524   0.638   2.589
    2MOL1     C 2474   0.535   0.695   2.756
    2MOL1    Cl 2475   0.393   0.793   2.798
    2MOL1    Cl 2476   0.551   0.558   2.867
    2MOL1     H 2477   0.624   0.757   2.766
    2MOL1    Cl 2478   0.259   2.189   2.044
    2MOL1     C 2479   0.405   2.127   2.124
    2MOL1    Cl 2480   0.443   2.223   2.268
    2MOL1    Cl 2481   0.384   1.956   2.167
    2MOL1     H 2482   0.488   2.135   2.054
    2MOL1    Cl 2483   3.637   2.237   1.844
    2MOL1     C 2484   3.653   2.218   1.669
    2MOL1    Cl 2485   3.654   2.376   1.589
    2MOL1    Cl 2486   3.800   2.127   1.630
    2MOL1     H 2487   3.567   2.161   1.632
    2MOL1    Cl 2488   2.597   1.053   4.285
    2MOL1     C 2489   2.684   0.901   4.311
    2MOL1    Cl 2490   2.830   0.929   4.409
    2MOL1    Cl 2491   2.579   0.782   4.388
    2MOL1     H 2492   2.715   0.862   4.214
    2MOL1    Cl 2493   4.533   2.641   4.884
    2MOL1     C 2494   4.661   2.530   4.934
    2MOL1    Cl 2495   4.768   2.607   5.053
    2MOL1    Cl 2496   4.592   2.381   5.000
    2MOL1     H 2497   4.721   2.504   4.846
    2MOL1    Cl 2498   3.943   0.880   2.787
    2MOL1     C 2499   3.818   0.779   2.862
    2MOL1    Cl 2500   3.698   0.729   2.742
    2MOL1    Cl 2501   3.892   0.638   2.940
    2MOL1     H 2502   3.768   0.839   2.939
    2MOL1    Cl 2503   3.380   2.054   3.373
    2MOL1     C 2504   3.226   2.095   3.296
    2MOL1    Cl 2505   3.090   2.047   3.399
    2MOL1    Cl 2506   3.218   2.269   3.260
    2MOL1     H 2507   3.219   2.041   3.202
    2MOL1    Cl 2508   4.027   1.609   1.463
    2MOL1     C 2509   3.859   1.664   1.457
    2MOL1    Cl 2510   3.838   1.788   1.332
    2MOL1    Cl 2511   3.750   1.527   1.427
    2MOL1     H 2512   3.833   1.708   1.553
    2MOL1    Cl 2513   0.633   3.424   1.716
    2MOL1     C 2514   0.476   3.427   1.634
    2MOL1    Cl 2515   0.398   3.268   1.644
    2MOL1    Cl 2516   0.372   3.552   1.703
    2MOL1     H 2517   0.493   3.450   1.528
    2MOL1    Cl 2518   2.621   3.836   4.587
    2MOL1     C 2519   2.469   3.771   4.651
    2MOL1    Cl 2520   2.376   3.692   4.522
    2MOL1    Cl 2521   2.500   3.658   4.784
    2MOL1     H 2522   2.409   3.854   4.689
    2MOL1    Cl 2523   2.081   1.634   2.025
    2MOL1     C 2524   1.966   1.593   1.896
    2MOL1    Cl 2525   1.836   1.713   1.888
    2MOL1    Cl 2526   2.049   1.580   1.740
    2MOL1     H 2527   1.921   1.496   1.920
    2MOL1    Cl 2528   4.672   2.644   0.352
    2MOL1     C 2529   4.549   2.519   0.330
    2MOL1    Cl 2530   4.483   2.524   0.165
    2MOL1    Cl 2531   4.616   2.358   0.364
    2MOL1     H 2532   4.468   2.538   0.400
    2MOL1    Cl 2533   3.256   4.691   3.470
    2MOL1     C 2534   3.100   4.620   3.514
    2MOL1    Cl 2535   3.093   4.450   3.465
    2MOL1    Cl 2536   3.072   4.635   3.689
    2MOL1     H 2537   3.021   4.674   3.462
    2MOL1    Cl 2538   5.102   3.742   5.316
    2MOL1     C 2539   5.059   3.854   5.186
    2MOL1    Cl 2540   4.996   3.765   5.046
    2MOL1    Cl 2541   4.940   3.973   5.242
    2MOL1     H 2542   5.149   3.907   5.154
    2MOL1    Cl 2543   1.152   2.834   3.296
    2MOL1     C 2544   1.209   2.671   3.334
    2MOL1    Cl 2545   1.203   2.642   3.509
    2MOL1    Cl 2546   1.114   2.549   3.248
    2MOL1     H 2547   1.313   2.662   3.301
    2MOL1    Cl 2548   2.735   2.760   1.120
    2MOL1     C 2549   2.678   2.795   1.284
    2MOL1    Cl 2550   2.770   2.929   1.355
    2MOL1    Cl 2551   2.505   2.832   1.284
    2MOL1     H 2552   2.695   2.706   1.346
    2MOL1    Cl 2553   0.151   3.766   3.658
    2MOL1     C 2554   0.082   3.620   3.585
    2MOL1    Cl 2555  -0.000   3.659   3.433
    2MOL1    Cl 2556   0.208   3.498   3.559
    2MOL1     H 2557   0.008   3.579   3.655
    2MOL1    Cl 2558   2.583   4.792   3.168
    2MOL1     C 2559   2.488   4.862   3.299
    2MOL1    Cl 2560   2.559   5.016   3.352
    2MOL1    Cl 2561   2.320   4.886   3.248
    2MOL1     H 2562   2.489   4.793   3.384
    2MOL1    Cl 2563   5.166   2.707   4.231
    2MOL1     C 2564   4.991   2.696   4.202
    2MOL1    Cl 2565   4.937   2.830   4.100
    2MOL1    Cl 2566   4.950   2.540   4.128
    2MOL1     H 2567   4.940   2.703   4.299
    2MOL1    Cl 2568   2.432   2.172   3.519
    2MOL1     C 2569   2.577   2.270   3.544
    2MOL1    Cl 2570   2.643   2.243   3.707
    2MOL1    Cl 2571   2.699   2.235   3.421
    2MOL1     H 2572   2.549   2.376   3.536
    2MOL1    Cl 2573   2.104   1.099   4.132
    2MOL1     C 2574   1.972   0.982   4.114
    2MOL1    Cl 2575   1.892   0.954   4.269
    2MOL1    Cl 2576   1.855   1.039   3.993
    2MOL1     H 2577   2.014   0.888   4.079
    2MOL1    Cl 2578   1.093   0.294   0.997
    2MOL1     C 2579   0.973   0.348   0.879
    2MOL1    Cl 2580   0.823   0.395   0.960
    2MOL1    Cl 2581   1.036   0.482   0.782
    2MOL1     H 2582   0.951   0.264   0.811
    2MOL1    Cl 2583   4.241   1.364   3.533
    2MOL1     C 2584   4.170   1.440   3.676
    2MOL1    Cl 2585   4.045   1.557   3.628
    2MOL1    Cl 2586   4.102   1.317   3.785
    2MOL1     H 2587   4.248   1.493   3.730
    2MOL1    Cl 2588   3.087   4.914   3.443
    2MOL1     C 2589   3.208   4.955   3.320
    2MOL1    Cl 2590   3.176   5.117   3.253
    2MOL1    Cl 2591   3.371   4.947   3.387
    2MOL1     H 2592   3.200   4.883   3.238
    2MOL1    Cl 2593   2.219   2.426   2.958
    2MOL1     C 2594   2.211   2.567   3.064
    2MOL1    Cl 2595   2.048   2.637   3.064
    2MOL1    Cl 2596   2.260   2.525   3.229
    2MOL1     H 2597   2.281   2.643   3.026
    2MOL1    Cl 2598   1.494   0.525   5.195
    2MOL1     C 2599   1.454   0.694   5.226
    2MOL1    Cl 2600   1.311   0.705   5.330
    2MOL1    Cl 2601   1.591   0.778   5.300
    2MOL1     H 2602   1.431   0.742   5.131
    2MOL1    Cl 2603   2.339   4.299   4.429
    2MOL1     C 2604   2.164   4.269   4.438
    2MOL1    Cl 2605   2.079   4.361   4.312
    2MOL1    Cl 2606   2.130   4.096   4.422
    2MOL1     H 2607   2.129   4.303   4.535
    2MOL1    Cl 2608   0.782   3.943   5.051
    2MOL1     C 2609   0.784   3.766   5.058
    2MOL1    Cl 2610   0.775   3.710   5.226
    2MOL1    Cl 2611   0.651   3.698   4.962
    2MOL1     H 2612   0.878   3.731   5.015
    2MOL1    Cl 2613   5.104   3.199   1.772
    2MOL1     C 2614   5.086   3.057   1.876
    2MOL1    Cl 2615   5.168   2.917   1.804
    2MOL1    Cl 2616   5.150   3.090   2.038
    2MOL1     H 2617   4.980   3.034   1.884
    2MOL1    Cl 2618   3.372   1.156   3.442
    2MOL1     C 2619   3.356   1.203   3.612
    2MOL1    Cl 2620   3.502   1.160   3.703
    2MOL1    Cl 2621   3.322   1.376   3.627
    2MOL1     H 2622   3.272   1.148   3.655
    2MOL1    Cl 2623   1.589   0.244   1.296
    2MOL1     C 2624   1.590   0.068   1.284
    2MOL1    Cl 2625   1.732  -0.000   1.365
    2MOL1    Cl 2626   1.441  -0.000   1.352
    2MOL1     H 2627   1.594   0.041   1.178
    2MOL1    Cl 2628   2.703   3.063   3.797
    2MOL1     C 2629   2.753   2.933   3.906
    2MOL1    Cl 2630   2.807   2.792   3.813
    2MOL1    Cl 2631   2.881   2.989   4.015
    2MOL1     H 2632   2.667   2.904   3.967
    2MOL1    Cl 2633   5.167   3.353   1.087
    2MOL1     C 2634   5.076   3.301   1.230
    2MOL1    Cl 2635   5.176   3.195   1.331
    2MOL1    Cl 2636   5.020   3.441   1.322
    2MOL1     H 2637   4.989   3.244   1.196
    2MOL1    Cl 2638   1.750   0.333   0.108
    2MOL1     C 2639   1.898   0.267   0.181
    2MOL1    Cl 2640   1.989   0.395   0.263
    2MOL1    Cl 2641   1.858   0.136   0.294
    2MOL1     H 2642   1.960   0.227   0.101
    2MOL1    Cl 2643   0.928   1.817   3.027
    2MOL1     C 2644   1.064   1.926   3.058
    2MOL1    Cl 2645   1.006   2.082   3.119
    2MOL1    Cl 2646   1.178   1.852   3.172
    2MOL1     H 2647   1.116   1.943   2.964
    2MOL1    Cl 2648   2.848   3.834   2.457
    2MOL1     C 2649   2.677   3.878   2.468
    2MOL1    Cl 2650   2.574   3.734   2.454
    2MOL1    Cl 2651   2.644   3.963   2.620
    2MOL1     H 2652   2.653   3.945   2.386
    2MOL1    Cl 2653   1.577   0.442   2.927
    2MOL1     C 2654   1.536   0.611   2.896
    2MOL1    Cl 2655   1.677   0.701   2.838
    2MOL1    Cl 2656   1.403   0.622   2.779
    2MOL1     H 2657   1.503   0.656   2.990
    2MOL1    Cl 2658   5.200   4.998   2.823
    2MOL1     C 2659   5.062   5.104   2.794
    2MOL1    Cl 2660   5.086   5.198   2.645
    2MOL1    Cl 2661   4.912   5.011   2.785
    2MOL1     H 2662   5.054   5.174   2.878
    2MOL1    Cl 2663   2.745   3.968   3.064
    2MOL1     C 2664   2.636   3.923   3.197
    2MOL1    Cl 2665   2.577   3.757   3.175
    2MOL1    Cl 2666   2.719   3.939   3.353
    2MOL1     H 2667   2.551   3.990   3.196
    2MOL1    Cl 2668   5.046   4.945   0.152
    2MOL1     C 2669   4.979   5.092   0.225
    2MOL1    Cl 2670   4.804   5.074   0.251
    2MOL1    Cl 2671   5.061   5.129   0.378
    2MOL1     H 2672   4.995   5.175   0.156
    2MOL1    Cl 2673   0.341   1.920   3.381
    2MOL1     C 2674   0.414   1.909   3.542
    2MOL1    Cl 2675   0.590   1.891   3.530
    2MOL1    Cl 2676   0.372   2.052   3.639
    2MOL1     H 2677   0.373   1.821   3.592
    2MOL1    Cl 2678   4.781   0.496   4.748
    2MOL1     C 2679   4.631   0.471   4.839
    2MOL1    Cl 2680   4.652   0.341   4.958
    2MOL1    Cl 2681   4.581   0.621   4.919
    2MOL1     H 2682   4.553   0.441   4.769
    2MOL1    Cl 2683   4.230   2.564   2.490
    2MOL1     C 2684   4.312   2.416   2.541
    2MOL1    Cl 2685   4.405   2.346   2.407
    2MOL1    Cl 2686   4.418   2.448   2.680
    2MOL1     H 2687   4.236   2.343   2.572
    2MOL1    Cl 2688   3.567   4.577   1.545
    2MOL1     C 2689   3.504   4.682   1.673
    2MOL1    Cl 2690   3.378   4.788   1.609
    2MOL1    Cl 2691   3.440   4.585   1.807
    2MOL1     H 2692   3.585   4.743   1.710
    2MOL1    Cl 2693   5.294   5.174   0.563
    2MOL1     C 2694   5.208   5.208   0.713
    2MOL1    Cl 2695   5.322   5.248   0.843
    2MOL1    Cl 2696   5.092   5.340   0.690
    2MOL1     H 2697   5.152   5.119   0.743
    2MOL1    Cl 2698   4.140   5.215   0.271
    2MOL1     C 2699   3.973   5.157   0.269
    2MOL1    Cl 2700   3.875   5.252   0.156
    2MOL1    Cl 2701   3.967   4.985   0.227
    2MOL1     H 2702   3.931   5.169   0.369
    2MOL1    Cl 2703   0.741   5.045   2.489
    2MOL1     C 2704   0.647   5.142   2.374
    2MOL1    Cl 2705   0.685   5.094   2.207
    2MOL1    Cl 2706   0.473   5.125   2.405
    2MOL1     H 2707   0.674   5.247   2.386
    2MOL1    Cl 2708   2.994   5.055   4.360
    2MOL1     C 2709   2.866   5.176   4.372
    2MOL1    Cl 2710   2.738   5.121   4.482
    2MOL1    Cl 2711   2.931   5.332   4.426
    2MOL1     H 2712   2.822   5.190   4.273
    2MOL1    Cl 2713   4.258   4.158   1.894
    2MOL1     C 2714   4.427   4.184   1.852
    2MOL1    Cl 2715   4.478   4.071   1.725
    2MOL1    Cl 2716   4.454   4.352   1.800
    2MOL1     H 2717   4.488   4.166   1.941
    2MOL1    Cl 2718   3.128   3.783   4.875
    2MOL1     C 2719   3.276   3.728   4.956
    2MOL1    Cl 2720   3.292   3.552   4.944
    2MOL1    Cl 2721   3.418   3.808   4.886
    2MOL1     H 2722   3.270   3.756   5.061
    2MOL1    Cl 2723   2.616   0.434   4.326
    2MOL1     C 2724   2.768   0.501   4.386
    2MOL1    Cl 2725   2.739   0.612   4.520
    2MOL1    Cl 2726   2.878   0.371   4.435
    2MOL1     H 2727   2.816   0.557   4.304
    2MOL1    Cl 2728   3.480   3.448   1.774
    2MOL1     C 2729   3.353   3.330   1.811
    2MOL1    Cl 2730   3.392   3.242   1.960
    2MOL1    Cl 2731   3.196   3.410   1.825
    2MOL1     H 2732   3.348   3.258   1.729
    2MOL1    Cl 2733   0.290   2.892   3.612
    2MOL1     C 2734   0.136   2.960   3.666
    2MOL1    Cl 2735   0.129   3.134   3.633
    2MOL1    Cl 2736  -0.000   2.876   3.589
    2MOL1     H 2737   0.128   2.945   3.774
    2MOL1    Cl 2738   1.642   3.763   3.050
    2MOL1     C 2739   1.495   3.846   3.103
    2MOL1    Cl 2740   1.442   3.784   3.260
    2MOL1    Cl 2741   1.521   4.021   3.110
    2MOL1     H 2742   1.416   3.825   3.030
    2MOL1    Cl 2743   2.818   4.353   1.830
    2MOL1     C 2744   2.849   4.186   1.782
    2MOL1    Cl 2745   2.907   4.178   1.615
    2MOL1    Cl 2746   2.965   4.110   1.893
    2MOL1     H 2747   2.754   4.130   1.789
    2MOL1    Cl 2748   5.227   1.769   3.061
    2MOL1     C 2749   5.147   1.653   2.955
    2MOL1    Cl 2750   5.038   1.548   3.047
    2MOL1    Cl 2751   5.058   1.738   2.827
    2MOL1     H 2752   5.223   1.591   2.908
    2MOL1    Cl 2753   4.407   3.378   2.886
    2MOL1     C 2754   4.337   3.462   3.025
    2MOL1    Cl 2755   4.297   3.629   2.982
    2MOL1    Cl 2756   4.192   3.377   3.083
    2MOL1     H 2757   4.410   3.463   3.105
    2MOL1    Cl 2758   2.693   5.078   2.680
    2MOL1     C 2759   2.749   4.910   2.669
    2MOL1    Cl 2760   2.847   4.886   2.524
    2MOL1    Cl 2761   2.840   4.864   2.814
    2MOL1     H 2762   2.661   4.845   2.662
    2MOL1    Cl 2763   3.108   3.109   2.482
    2MOL1     C 2764   3.066   3.281   2.473
    2MOL1    Cl 2765   2.985   3.334   2.622
    2MOL1    Cl 2766   3.211   3.379   2.443
    2MOL1     H 2767   2.997   3.295   2.390
    2MOL1    Cl 2768   1.945   3.287   4.235
    2MOL1     C 2769   1.903   3.446   4.170
    2MOL1    Cl 2770   1.788   3.430   4.035
    2MOL1    Cl 2771   1.835   3.549   4.297
    2MOL1     H 2772   1.993   3.494   4.132
    2MOL1    Cl 2773   5.066   1.714   0.523
    2MOL1     C 2774   4.919   1.802   0.569
    2MOL1    Cl 2775   4.911   1.957   0.484
    2MOL1    Cl 2776   4.775   1.705   0.536
    2MOL1     H 2777   4.924   1.822   0.676
    2MOL1    Cl 2778   1.884   3.183   2.092
    2MOL1     C 2779   2.020   3.095   2.021
    2MOL1    Cl 2780   1.977   2.926   1.991
    2MOL1    Cl 2781   2.074   3.173   1.871
    2MOL1     H 2782   2.104   3.097   2.092
    2MOL1    Cl 2783   2.024   0.777   4.941
    2MOL1     C 2784   1.994   0.949   4.971
    2MOL1    Cl 2785   2.096   1.049   4.867
    2MOL1    Cl 2786   1.822   0.987   4.946
    2MOL1     H 2787   2.018   0.971   5.076
    2MOL1    Cl 2788   0.238   5.156   4.146
    2MOL1     C 2789   0.300   5.100   3.990
    2MOL1    Cl 2790   0.466   5.154   3.966
    2MOL1    Cl 2791   0.290   4.923   3.980
    2MOL1     H 2792   0.237   5.142   3.911
    2MOL1    Cl 2793   1.543   4.581   1.758
    2MOL1     C 2794   1.679   4.475   1.722
    2MOL1    Cl 2795   1.636   4.360   1.594
    2MOL1    Cl 2796   1.822   4.569   1.675
    2MOL1     H 2797   1.704   4.418   1.812
    2MOL1    Cl 2798   4.885   0.946   4.238
    2MOL1     C 2799   4.959   1.106   4.224
    2MOL1    Cl 2800   4.852   1.216   4.136
    2MOL1    Cl 2801   4.997   1.171   4.385
    2MOL1     H 2802   5.052   1.096   4.168
    2MOL1    Cl 2803   2.458   3.351   0.153
    2MOL1     C 2804   2.355   3.311   0.291
    2MOL1    Cl 2805   2.191   3.270   0.236
    2MOL1    Cl 2806   2.424   3.178   0.385
    2MOL1     H 2807   2.349   3.399   0.356
    2MOL1    Cl 2808   2.622   4.591   1.518
    2MOL1     C 2809   2.661   4.448   1.421
    2MOL1    Cl 2810   2.533   4.416   1.303
    2MOL1    Cl 2811   2.817   4.468   1.340
    2MOL1     H 2812   2.668   4.362   1.488
    2MOL1    Cl 2813   1.573   0.715   3.909
    2MOL1     C 2814   1.526   0.885   3.932
    2MOL1    Cl 2815   1.367   0.895   4.009
    2MOL1    Cl 2816   1.648   0.970   4.029
    2MOL1     H 2817   1.520   0.932   3.834
    2MOL1    Cl 2818   1.485   1.072   2.938
    2MOL1     C 2819   1.631   1.150   2.877
    2MOL1    Cl 2820   1.594   1.312   2.816
    2MOL1    Cl 2821   1.755   1.157   3.003
    2MOL1     H 2822   1.670   1.090   2.794
    2MOL1    Cl 2823   2.153   3.121   3.512
    2MOL1     C 2824   1.996   3.198   3.484
    2MOL1    Cl 2825   2.011   3.330   3.367
    2MOL1    Cl 2826   1.877   3.079   3.428
    2MOL1     H 2827   1.961   3.240   3.579
    2MOL1    Cl 2828   3.979   4.285   3.016
    2MOL1     C 2829   3.803   4.285   3.027
    2MOL1    Cl 2830   3.750   4.333   3.189
    2MOL1    Cl 2831   3.732   4.391   2.904
    2MOL1     H 2832   3.767   4.183   3.009
    2MOL1    Cl 2833   2.490   5.185   0.574
    2MOL1     C 2834   2.633   5.148   0.477
    2MOL1    Cl 2835   2.720   5.009   0.544
    2MOL1    Cl 2836   2.588   5.117   0.308
    2MOL1     H 2837   2.700   5.234   0.479
    2MOL1    Cl 2838   1.703   3.743   3.959
    2MOL1     C 2839   1.655   3.831   4.105
    2MOL1    Cl 2840   1.554   3.971   4.064
    2MOL1    Cl 2841   1.569   3.724   4.217
    2MOL1     H 2842   1.745   3.867   4.155
    2MOL1    Cl 2843   2.506   2.215   1.240
    2MOL1     C 2844   2.366   2.239   1.346
    2MOL1    Cl 2845   2.324   2.411   1.355
    2MOL1    Cl 2846   2.228   2.144   1.288
    2MOL1     H 2847   2.392   2.205   1.446
    2MOL1    Cl 2848   3.025  -0.000   3.660
    2MOL1     C 2849   3.135   0.092   3.763
    2MOL1    Cl 2850   3.063   0.248   3.807
    2MOL1    Cl 2851   3.176  -0.000   3.909
    2MOL1     H 2852   3.227   0.111   3.707
    2MOL1    Cl 2853   2.017   1.243   1.941
    2MOL1     C 2854   2.060   1.278   2.109
    2MOL1    Cl 2855   1.917   1.270   2.213
    2MOL1    Cl 2856   2.184   1.165   2.166
    2MOL1     H 2857   2.101   1.379   2.114
    2MOL1    Cl 2858   2.358   2.864   0.481
    2MOL1     C 2859   2.230   2.887   0.360
    2MOL1    Cl 2860   2.299   2.940   0.206
    2MOL1    Cl 2861   2.137   2.738   0.338
    2MOL1     H 2862   2.162   2.965   0.396
    2MOL1    Cl 2863   3.646   2.465   4.301
    2MOL1     C 2864   3.498   2.558   4.325
    2MOL1    Cl 2865   3.387   2.474   4.434
    2MOL1    Cl 2866   3.536   2.720   4.387
    2MOL1     H 2867   3.448   2.570   4.228
    2MOL1    Cl 2868   0.649   0.483   1.888
    2MOL1     C 2869   0.735   0.386   2.007
    2MOL1    Cl 2870   0.681   0.424   2.171
    2MOL1    Cl 2871   0.714   0.213   1.973
    2MOL1     H 2872   0.842   0.409   2.000
    2MOL1    Cl 2873   4.416   4.783   0.726
    2MOL1     C 2874   4.280   4.862   0.807
    2MOL1    Cl 2875   4.321   5.028   0.850
    2MOL1    Cl 2876   4.135   4.858   0.704
    2MOL1     H 2877   4.258   4.807   0.899
    2MOL1    Cl 2878   0.306   4.309   1.239
    2MOL1     C 2879   0.206   4.346   1.098
    2MOL1    Cl 2880   0.161   4.518   1.097
    2MOL1    Cl 2881   0.291   4.304   0.948
    2MOL1     H 2882   0.114   4.287   1.104
    2MOL1    Cl 2883   2.224   2.525   3.790
    2MOL1     C 2884   2.226   2.348   3.782
    2MOL1    Cl 2885   2.382   2.284   3.834
    2MOL1    Cl 2886   2.094   2.280   3.879
    2MOL1     H 2887   2.210   2.318   3.678
    2MOL1    Cl 2888   0.811   4.118   1.324
    2MOL1     C 2889   0.660   4.044   1.271
    2MOL1    Cl 2890   0.583   3.955   1.403
    2MOL1    Cl 2891   0.550   4.167   1.207
    2MOL1     H 2892   0.683   3.974   1.190
    2MOL1    Cl 2893   1.485   3.727   0.277
    2MOL1     C 2894   1.529   3.742   0.447
    2MOL1    Cl 2895   1.564   3.911   0.487
    2MOL1    Cl 2896   1.400   3.679   0.551
    2MOL1     H 2897   1.620   3.683   0.465
    2MOL1    Cl 2898   3.034   2.031   2.529
    2MOL1     C 2899   3.200   2.090   2.548
    2MOL1    Cl 2900   3.289   2.077   2.396
    2MOL1    Cl 2901   3.200   2.258   2.606
    2MOL1     H 2902   3.250   2.028   2.623
    2MOL1    Cl 2903   2.000   2.923   2.417
    2MOL1     C 2904   1.945   2.768   2.481
    2MOL1    Cl 2905   1.768   2.765   2.494
    2MOL1    Cl 2906   2.002   2.634   2.380
    2MOL1     H 2907   1.986   2.756   2.582
    2MOL1    Cl 2908   3.458   5.001   2.006
    2MOL1     C 2909   3.405   5.144   2.096
    2MOL1    Cl 2910   3.230   5.142   2.117
    2MOL1    Cl 2911   3.488   5.153   2.253
    2MOL1     H 2912   3.432   5.232   2.038
    2MOL1    Cl 2913   1.014   2.284   4.234
    2MOL1     C 2914   1.105   2.436   4.243
    2MOL1    Cl 2915   1.235   2.437   4.123
    2MOL1    Cl 2916   0.997   2.575   4.219
    2MOL1     H 2917   1.149   2.444   4.342
    2MOL1    Cl 2918   4.487   3.847   4.864
    2MOL1     C 2919   4.634   3.895   4.950
    2MOL1    Cl 2920   4.778   3.840   4.862
    2MOL1    Cl 2921   4.639   4.071   4.972
    2MOL1     H 2922   4.634   3.848   5.048
    2MOL1    Cl 2923   4.821   1.761   4.229
    2MOL1     C 2924   4.932   1.884   4.166
    2MOL1    Cl 2925   4.990   1.838   4.004
    2MOL1    Cl 2926   4.854   2.043   4.161
    2MOL1     H 2927   5.018   1.890   4.232
    2MOL1    Cl 2928   4.064   2.478   2.747
    2MOL1     C 2929   4.077   2.312   2.806
    2MOL1    Cl 2930   4.058   2.197   2.673
    2MOL1    Cl 2931   4.233   2.288   2.888
    2MOL1     H 2932   3.997   2.295   2.878
    2MOL1    Cl 2933   1.492   2.941   5.081
    2MOL1     C 2934   1.501   2.846   5.231
    2MOL1    Cl 2935   1.361   2.738   5.244
    2MOL1    Cl 2936   1.652   2.754   5.237
    2MOL1     H 2937   1.499   2.915   5.316
    2MOL1    Cl 2938   3.621   1.989   3.161
    2MOL1     C 2939   3.656   2.160   3.127
    2MOL1    Cl 2940   3.629   2.259   3.272
    2MOL1    Cl 2941   3.822   2.179   3.068
    2MOL1     H 2942   3.588   2.194   3.049
    2MOL1    Cl 2943   2.803   4.753   1.020
    2MOL1     C 2944   2.698   4.895   1.032
    2MOL1    Cl 2945   2.640   4.943   0.872
    2MOL1    Cl 2946   2.561   4.862   1.140
    2MOL1     H 2947   2.755   4.977   1.074
    2MOL1    Cl 2948   1.556   3.746   0.966
    2MOL1     C 2949   1.674   3.850   0.886
    2MOL1    Cl 2950   1.742   3.770   0.743
    2MOL1    Cl 2951   1.600   4.005   0.841
    2MOL1     H 2952   1.756   3.870   0.956
    2MOL1    Cl 2953   5.016   3.265   4.996
    2MOL1     C 2954   5.080   3.224   5.156
    2MOL1    Cl 2955   4.953   3.155   5.258
    2MOL1    Cl 2956   5.217   3.111   5.142
    2MOL1     H 2957   5.116   3.316   5.204
    2MOL1    Cl 2958   2.989   4.892   3.075
    2MOL1     C 2959   2.892   5.039   3.059
    2MOL1    Cl 2960   2.885   5.090   2.889
    2MOL1    Cl 2961   2.729   5.014   3.123
    2MOL1     H 2962   2.940   5.119   3.117
    2MOL1    Cl 2963   4.842   4.039   3.659
    2MOL1     C 2964   4.792   3.870   3.641
    2MOL1    Cl 2965   4.641   3.860   3.549
    2MOL1    Cl 2966   4.919   3.775   3.563
    2MOL1     H 2967   4.774   3.829   3.741
    2MOL1    Cl 2968   1.522   1.076   3.171
    2MOL1     C 2969   1.647   0.951   3.185
    2MOL1    Cl 2970   1.781   1.008   3.287
    2MOL1    Cl 2971   1.579   0.801   3.250
    2MOL1     H 2972   1.687   0.931   3.085
    2MOL1    Cl 2973   3.485   2.752   4.706
    2MOL1     C 2974   3.318   2.695   4.687
    2MOL1    Cl 2975   3.258   2.731   4.524
    2MOL1    Cl 2976   3.308   2.522   4.721
    2MOL1     H 2977   3.256   2.748   4.759
    2MOL1    Cl 2978   2.332   4.191   0.438
    2MOL1     C 2979   2.430   4.273   0.560
    2MOL1    Cl 2980   2.339   4.291   0.711
    2MOL1    Cl 2981   2.581   4.185   0.589
    2MOL1     H 2982   2.455   4.373   0.523
    2MOL1    Cl 2983   3.327   1.480   0.373
    2MOL1     C 2984   3.237   1.605   0.284
    2MOL1    Cl 2985   3.211   1.555   0.116
    2MOL1    Cl 2986   3.082   1.638   0.364
    2MOL1     H 2987   3.296   1.697   0.285
    2MOL1    Cl 2988   2.472   1.925   4.187
    2MOL1     C 2989   2.379   1.777   4.153
    2MOL1    Cl 2990   2.205   1.809   4.166
    2MOL1    Cl 2991   2.420   1.713   3.993
    2MOL1     H 2992   2.406   1.702   4.228
    2MOL1    Cl 2993   1.256   0.782   2.682
    2MOL1     C 2994   1.311   0.950   2.690
    2MOL1    Cl 2995   1.414   0.989   2.551
    2MOL1    Cl 2996   1.172   1.060   2.697
    2MOL1     H 2997   1.370   0.963   2.781
    2MOL1    Cl 2998   2.899   4.480   5.148
    2MOL1     C 2999   2.818   4.324   5.124
    2MOL1    Cl 3000   2.669   4.346   5.030
    2MOL1    Cl 3001   2.926   4.209   5.042
    2MOL1     H 3002   2.792   4.284   5.221
    2MOL1    Cl 3003   2.463   4.479   1.629
    2MOL1     C 3004   2.321   4.571   1.682
    2MOL1    Cl 3005   2.297   4.713   1.579
    2MOL1    Cl 3006   2.177   4.468   1.682
    2MOL1     H 3007   2.339   4.605   1.784
    2MOL1    Cl 3008   0.801   2.646   5.341
    2MOL1     C 3009   0.920   2.538   5.266
    2MOL1    Cl 3010   0.841   2.428   5.152
    2MOL1    Cl 3011   1.046   2.632   5.184
    2MOL1     H 3012   0.967   2.479   5.345
    2MOL1    Cl 3013   1.774   1.137   1.688
    2MOL1     C 3014   1.662   1.137   1.825
    2MOL1    Cl 3015   1.496   1.160   1.769
    2MOL1    Cl 3016   1.676   0.985   1.917
    2MOL1     H 3017   1.688   1.219   1.892
    2MOL1    Cl 3018   0.540   3.768   3.675
    2MOL1     C 3019   0.491   3.598   3.664
    2MOL1    Cl 3020   0.478   3.547   3.495
    2MOL1    Cl 3021   0.606   3.495   3.751
    2MOL1     H 3022   0.393   3.588   3.712
    2MOL1    Cl 3023   0.230   0.113   3.934
    2MOL1     C 3024   0.224   0.174   3.768
    2MOL1    Cl 3025   0.379   0.248   3.723
    2MOL1    Cl 3026   0.182   0.044   3.655
    2MOL1     H 3027   0.146   0.251   3.762
    2MOL1    Cl 3028   4.152   5.124   3.408
    2MOL1     C 3029   4.274   5.208   3.311
    2MOL1    Cl 3030   4.394   5.093   3.251
    2MOL1    Cl 3031   4.198   5.295   3.176
    2MOL1     H 3032   4.324   5.281   3.375
    2MOL1    Cl 3033   3.165   4.051   1.660
    2MOL1     C 3034   3.282   4.055   1.528
    2MOL1    Cl 3035   3.446   4.084   1.591
    2MOL1    Cl 3036   3.277   3.904   1.435
    2MOL1     H 3037   3.256   4.138   1.461
    2MOL1    Cl 3038   4.644   4.162   3.849
    2MOL1     C 3039   4.633   4.331   3.901
    2MOL1    Cl 3040   4.569   4.342   4.066
    2MOL1    Cl 3041   4.791   4.410   3.891
    2MOL1     H 3042   4.564   4.383   3.834
    2MOL1    Cl 3043   0.783   3.801   0.594
    2MOL1     C 3044   0.905   3.832   0.469
    2MOL1    Cl 3045   0.972   3.995   0.487
    2MOL1    Cl 3046   1.034   3.711   0.478
    2MOL1     H 3047   0.857   3.824   0.371
    2MOL1    Cl 3048   5.138   2.199   5.008
    2MOL1     C 3049   5.094   2.338   5.108
    2MOL1    Cl 3050   5.227   2.380   5.218
    2MOL1    Cl 3051   5.052   2.477   5.006
    2MOL1     H 3052   5.007   2.311   5.167
    2MOL1    Cl 3053   0.966   5.222   2.440
    2MOL1     C 3054   1.068   5.121   2.544
    2MOL1    Cl 3055   1.168   5.012   2.446
    2MOL1    Cl 3056   1.169   5.222   2.649
    2MOL1     H 3057   1.003   5.060   2.608
    2MOL1    Cl 3058   1.144   1.257   4.172
    2MOL1     C 3059   0.982   1.292   4.236
    2MOL1    Cl 3060   0.909   1.428   4.149
    2MOL1    Cl 3061   0.879   1.149   4.225
    2MOL1     H 3062   0.992   1.320   4.341
    2MOL1    Cl 3063   4.105   2.721   4.111
    2MOL1     C 3064   3.952   2.707   4.201
    2MOL1    Cl 3065   3.919   2.537   4.241
    2MOL1    Cl 3066   3.957   2.806   4.348
    2MOL1     H 3067   3.872   2.743   4.137
    2MOL1    Cl 3068   2.307   3.440   5.340
    2MOL1     C 3069   2.337   3.521   5.185
    2MOL1    Cl 3070   2.252   3.437   5.054
    2MOL1    Cl 3071   2.286   3.691   5.193
    2MOL1     H 3072   2.444   3.518   5.165
    2MOL1    Cl 3073   1.150   0.524   0.986
    2MOL1     C 3074   1.307   0.597   0.949
    2MOL1    Cl 3075   1.293   0.774   0.940
    2MOL1    Cl 3076   1.428   0.551   1.070
    2MOL1     H 3077   1.341   0.560   0.852
    2MOL1    Cl 3078   0.541   3.636   0.611
    2MOL1     C 3079   0.377   3.672   0.554
    2MOL1    Cl 3080   0.278   3.525   0.550
    2MOL1    Cl 3081   0.301   3.794   0.657
    2MOL1     H 3082   0.384   3.712   0.453
    2MOL1    Cl 3083   3.396   1.646   3.601
    2MOL1     C 3084   3.250   1.662   3.502
    2MOL1    Cl 3085   3.283   1.619   3.334
    2MOL1    Cl 3086   3.119   1.562   3.568
    2MOL1     H 3087   3.218   1.767   3.505
    2MOL1    Cl 3088   2.935   4.742   0.388
    2MOL1     C 3089   2.812   4.817   0.285
    2MOL1    Cl 3090   2.844   4.783   0.114
    2MOL1    Cl 3091   2.650   4.759   0.330
    2MOL1     H 3092   2.815   4.925   0.300
    2MOL1    Cl 3093   3.771   3.453   3.261
    2MOL1     C 3094   3.702   3.556   3.388
    2MOL1    Cl 3095   3.745   3.725   3.361
    2MOL1    Cl 3096   3.526   3.537   3.395
    2MOL1     H 3097   3.744   3.525   3.484
    2MOL1    Cl 3098   2.933   3.710   0.816
    2MOL1     C 3099   2.902   3.845   0.927
    2MOL1    Cl 3100   2.728   3.875   0.941
    2MOL1    Cl 3101   2.973   3.812   1.086
    2MOL1     H 3102   2.950   3.934   0.886
    2MOL1    Cl 3103   4.480   4.501   1.324
    2MOL1     C 3104   4.417   4.374   1.218
    2MOL1    Cl 3105   4.546   4.261   1.173
    2MOL1    Cl 3106   4.283   4.289   1.295
    2MOL1     H 3107   4.380   4.421   1.126
    2MOL1    Cl 3108   4.474   3.059   0.116
    2MOL1     C 3109   4.646   3.089   0.143
    2MOL1    Cl 3110   4.742   2.945   0.106
    2MOL1    Cl 3111   4.701   3.227   0.045
    2MOL1     H 3112   4.661   3.115   0.248
    2MOL1    Cl 3113   2.984   1.204   2.218
    2MOL1     C 3114   2.924   1.041   2.255
    2MOL1    Cl 3115   2.794   0.996   2.143
    2MOL1    Cl 3116   3.056   0.923   2.249
    2MOL1     H 3117   2.883   1.041   2.357
    2MOL1    Cl 3118   3.412   4.453   2.944
    2MOL1     C 3119   3.446   4.619   2.993
    2MOL1    Cl 3120   3.306   4.692   3.073
    2MOL1    Cl 3121   3.588   4.626   3.099
    2MOL1     H 3122   3.468   4.677   2.903
    2MOL1    Cl 3123   3.569   3.459   3.982
    2MOL1     C 3124   3.733   3.505   3.935
    2MOL1    Cl 3125   3.832   3.361   3.906
    2MOL1    Cl 3126   3.730   3.609   3.791
    2MOL1     H 3127   3.778   3.562   4.017
    2MOL1    Cl 3128   4.073   0.188   0.261
    2MOL1     C 3129   4.180   0.320   0.214
    2MOL1    Cl 3130   4.307   0.262   0.104
    2MOL1    Cl 3131   4.088   0.452   0.139
    2MOL1     H 3132   4.228   0.359   0.304
    2MOL1    Cl 3133   3.148   3.145   3.381
    2MOL1     C 3134   3.288   3.196   3.477
    2MOL1    Cl 3135   3.436   3.121   3.415
    2MOL1    Cl 3136   3.303   3.372   3.477
    2MOL1     H 3137   3.273   3.162   3.580
    2MOL1    Cl 3138   0.695   2.527   1.986
    2MOL1     C 3139   0.686   2.605   1.827
    2MOL1    Cl 3140   0.723   2.490   1.698
    2MOL1    Cl 3141   0.526   2.677   1.802
    2MOL1     H 3142   0.761   2.685   1.824
    2MOL1    Cl 3143   5.031   4.273   3.055
    2MOL1     C 3144   5.200   4.304   3.013
    2MOL1    Cl 3145   5.274   4.413   3.131
    2MOL1    Cl 3146   5.291   4.152   3.003
    2MOL1     H 3147   5.202   4.353   2.915
    2MOL1    Cl 3148   2.223   3.478   1.369
    2MOL1     C 3149   2.325   3.426   1.504
    2MOL1    Cl 3150   2.355   3.560   1.615
    2MOL1    Cl 3151   2.251   3.290   1.589
    2MOL1     H 3152   2.421   3.393   1.463
    2MOL1    Cl 3153   5.099   1.414   2.594
    2MOL1     C 3154   5.039   1.394   2.429
    2MOL1    Cl 3155   5.111   1.250   2.354
    2MOL1    Cl 3156   4.862   1.382   2.428
    2MOL1     H 3157   5.068   1.481   2.371
    2MOL1    Cl 3158   4.178   3.106   3.841
    2MOL1     C 3159   4.178   3.118   4.018
    2MOL1    Cl 3160   4.209   2.960   4.091
    2MOL1    Cl 3161   4.298   3.237   4.073
    2MOL1     H 3162   4.079   3.152   4.050
    2MOL1    Cl 3163   1.728   3.553   3.581
    2MOL1     C 3164   1.599   3.587   3.464
    2MOL1    Cl 3165   1.571   3.447   3.360
    2MOL1    Cl 3166   1.449   3.632   3.548
    2MOL1     H 3167   1.629   3.671   3.402
    2MOL1    Cl 3168   2.578   3.121   2.534
    2MOL1     C 3169   2.527   3.270   2.614
    2MOL1    Cl 3170   2.627   3.303   2.756
    2MOL1    Cl 3171   2.534   3.406   2.500
    2MOL1     H 3172   2.423   3.258   2.647
    2MOL1    Cl 3173   1.937   3.019   0.174
    2MOL1     C 3174   1.915   2.848   0.134
    2MOL1    Cl 3175   1.771   2.826   0.033
    2MOL1    Cl 3176   2.059   2.785   0.051
    2MOL1     H 3177   1.901   2.793   0.227
    2MOL1    Cl 3178   4.764   0.966   2.955
    2MOL1     C 3179   4.824   0.820   2.874
    2MOL1    Cl 3180   4.705   0.759   2.758
    2MOL1    Cl 3181   4.979   0.853   2.794
    2MOL1     H 3182   4.841   0.743   2.950
    2MOL1    Cl 3183   4.841   1.925   1.374
    2MOL1     C 3184   4.876   2.048   1.251
    2MOL1    Cl 3185   4.769   2.188   1.270
    2MOL1    Cl 3186   5.046   2.099   1.260
    2MOL1     H 3187   4.859   2.005   1.153
    2MOL1    Cl 3188   3.059   3.838   0.289
    2MOL1     C 3189   3.167   3.957   0.363
    2MOL1    Cl 3190   3.297   4.001   0.251
    2MOL1    Cl 3191   3.077   4.101   0.413
    2MOL1     H 3192   3.212   3.912   0.452
    2MOL1    Cl 3193   2.583   4.175   3.598
    2MOL1     C 3194   2.733   4.103   3.659
    2MOL1    Cl 3195   2.739   3.930   3.621
    2MOL1    Cl 3196   2.873   4.187   3.592
    2MOL1     H 3197   2.735   4.114   3.768
    2MOL1    Cl 3198   2.240   4.555   2.278
    2MOL1     C 3199   2.080   4.483   2.251
    2MOL1    Cl 3200   2.023   4.402   2.398
    2MOL1    Cl 3201   1.964   4.607   2.199
    2MOL1     H 3202   2.089   4.409   2.172
    2MOL1    Cl 3203   1.553   1.656   0.641
    2MOL1     C 3204   1.580   1.819   0.706
    2MOL1    Cl 3205   1.714   1.818   0.822
    2MOL1    Cl 3206   1.613   1.933   0.574
    2MOL1     H 3207   1.489   1.851   0.757
    2MOL1    Cl 3208   0.374   2.862   4.486
    2MOL1     C 3209   0.301   2.829   4.329
    2MOL1    Cl 3210   0.357   2.673   4.266
    2MOL1    Cl 3211   0.124   2.831   4.340
    2MOL1     H 3212   0.331   2.907   4.259
    2MOL1    Cl 3213   0.323   1.532   4.669
    2MOL1     C 3214   0.469   1.455   4.603
    2MOL1    Cl 3215   0.599   1.454   4.724
    2MOL1    Cl 3216   0.433   1.291   4.548
    2MOL1     H 3217   0.502   1.514   4.517
    2MOL1    Cl 3218   4.890   3.002   0.764
    2MOL1     C 3219   5.054   2.938   0.745
    2MOL1    Cl 3220   5.055   2.762   0.766
    2MOL1    Cl 3221   5.119   2.982   0.586
    2MOL1     H 3222   5.117   2.983   0.821
    2MOL1    Cl 3223   2.089   4.392   4.798
    2MOL1     C 3224   2.175   4.247   4.851
    2MOL1    Cl 3225   2.298   4.288   4.972
    2MOL1    Cl 3226   2.062   4.127   4.916
    2MOL1     H 3227   2.226   4.204   4.764
    2MOL1    Cl 3228   3.082   3.426   3.429
    2MOL1     C 3229   3.072   3.482   3.261
    2MOL1    Cl 3230   3.038   3.656   3.255
    2MOL1    Cl 3231   3.221   3.444   3.173
    2MOL1     H 3232   2.989   3.430   3.212
    2MOL1    Cl 3233   2.926   4.519   0.226
    2MOL1     C 3234   3.022   4.438   0.351
    2MOL1    Cl 3235   3.145   4.333   0.276
    2MOL1    Cl 3236   3.098   4.556   0.458
    2MOL1     H 3237   2.956   4.375   0.411
    2MOL1    Cl 3238   3.414   4.571   0.540
    2MOL1     C 3239   3.475   4.412   0.494
    2MOL1    Cl 3240   3.647   4.396   0.537
    2MOL1    Cl 3241   3.380   4.284   0.572
    2MOL1     H 3242   3.466   4.400   0.386
    2MOL1    Cl 3243   2.395   3.939   1.027
    2MOL1     C 3244   2.441   3.769   1.018
    2MOL1    Cl 3245   2.564   3.730   1.139
    2MOL1    Cl 3246   2.299   3.665   1.038
    2MOL1     H 3247   2.483   3.750   0.919
    2MOL1    Cl 3248   3.980   4.048   3.719
    2MOL1     C 3249   4.091   3.912   3.737
    2MOL1    Cl 3250   4.238   3.962   3.823
    2MOL1    Cl 3251   4.012   3.777   3.822
    2MOL1     H 3252   4.120   3.877   3.637
    2MOL1    Cl 3253   5.272   4.639   4.250
    2MOL1     C 3254   5.199   4.790   4.194
    2MOL1    Cl 3255   5.072   4.842   4.305
    2MOL1    Cl 3256   5.323   4.916   4.177
    2MOL1     H 3257   5.155   4.773   4.096
    2MOL1    Cl 3258   4.142   0.529   3.618
    2MOL1     C 3259   4.169   0.357   3.587
    2MOL1    Cl 3260   4.033   0.261   3.647
    2MOL1    Cl 3261   4.195   0.327   3.414
    2MOL1     H 3262   4.259   0.326   3.641
    2MOL1    Cl 3263   2.313   2.548   3.496
    2MOL1     C 3264   2.444   2.665   3.472
    2MOL1    Cl 3265   2.400   2.823   3.538
    2MOL1    Cl 3266   2.594   2.606   3.546
    2MOL1     H 3267   2.461   2.676   3.365
    2MOL1    Cl 3268   4.928   4.691   2.616
    2MOL1     C 3269   5.075   4.605   2.665
    2MOL1    Cl 3270   5.116   4.643   2.833
    2MOL1    Cl 3271   5.054   4.430   2.645
    2MOL1     H 3272   5.157   4.637   2.601
    2MOL1    Cl 3273   2.537   0.804   2.032
    2MOL1     C 3274   2.364   0.833   2.060
    2MOL1    Cl 3275   2.297   0.713   2.171
    2MOL1    Cl 3276   2.339   0.997   2.122
    2MOL1     H 3277   2.312   0.824   1.964
    2MOL1    Cl 3278   0.425   2.394   2.994
    2MOL1     C 3279   0.255   2.371   3.038
    2MOL1    Cl 3280   0.167   2.290   2.907
    2MOL1    Cl 3281   0.242   2.280   3.189
    2MOL1     H 3282   0.210   2.470   3.054
    2MOL1    Cl 3283   1.162   4.196   1.155
    2MOL1     C 3284   1.090   4.045   1.098
    2MOL1    Cl 3285   1.215   3.930   1.050
    2MOL1    Cl 3286   0.985   3.975   1.222
    2MOL1     H 3287   1.028   4.068   1.010
    2MOL1    Cl 3288   2.497   2.987   0.645
    2MOL1     C 3289   2.659   3.056   0.663
    2MOL1    Cl 3290   2.681   3.193   0.552
    2MOL1    Cl 3291   2.687   3.107   0.831
    2MOL1     H 3292   2.732   2.980   0.638
    2MOL1    Cl 3293   0.737   0.732   1.039
    2MOL1     C 3294   0.599   0.662   0.953
    2MOL1    Cl 3295   0.529   0.529   1.045
    2MOL1    Cl 3296   0.477   0.787   0.921
    2MOL1     H 3297   0.634   0.623   0.857
    2MOL1    Cl 3298   5.079   2.037   3.266
    2MOL1     C 3299   5.012   2.201   3.251
    2MOL1    Cl 3300   5.113   2.300   3.145
    2MOL1    Cl 3301   4.846   2.195   3.190
    2MOL1     H 3302   5.011   2.246   3.350
    2MOL1    Cl 3303   2.722   1.092   3.434
    2MOL1     C 3304   2.582   0.992   3.476
    2MOL1    Cl 3305   2.631   0.856   3.578
    2MOL1    Cl 3306   2.458   1.090   3.558
    2MOL1     H 3307   2.539   0.953   3.384
    2MOL1    Cl 3308   5.219   0.970   2.384
    2MOL1     C 3309   5.126   1.003   2.237
    2MOL1    Cl 3310   5.098   0.854   2.145
    2MOL1    Cl 3311   4.972   1.081   2.277
    2MOL1     H 3312   5.184   1.072   2.174
    2MOL1    Cl 3313   4.056   0.568   4.585
    2MOL1     C 3314   3.890   0.511   4.558
    2MOL1    Cl 3315   3.789   0.548   4.699
    2MOL1    Cl 3316   3.822   0.583   4.412
    2MOL1     H 3317   3.893   0.403   4.546
    2MOL1    Cl 3318   5.141   1.036   5.057
    2MOL1     C 3319   5.103   0.863   5.063
    2MOL1    Cl 3320   5.231   0.774   5.147
    2MOL1    Cl 3321   4.946   0.836   5.140
    2MOL1     H 3322   5.098   0.826   4.960
    2MOL1    Cl 3323   2.838   0.609   1.377
    2MOL1     C 3324   2.942   0.537   1.501
    2MOL1    Cl 3325   2.943   0.637   1.647
    2MOL1    Cl 3326   2.890   0.372   1.539
    2MOL1     H 3327   3.044   0.533   1.461
    2MOL1    Cl 3328   2.138   1.382   3.668
    2MOL1     C 3329   2.060   1.338   3.821
    2MOL1    Cl 3330   1.884   1.355   3.808
    2MOL1    Cl 3331   2.104   1.173   3.868
    2MOL1     H 3332   2.096   1.407   3.898
    2MOL1    Cl 3333   3.396   1.364   2.196
    2MOL1     C 3334   3.461   1.432   2.046
    2MOL1    Cl 3335   3.533   1.591   2.076
    2MOL1    Cl 3336   3.581   1.323   1.974
    2MOL1     H 3337   3.379   1.445   1.975
    2MOL1    Cl 3338   3.958   2.240   4.311
    2MOL1     C 3339   3.852   2.104   4.350
    2MOL1    Cl 3340   3.840   2.082   4.525
    2MOL1    Cl 3341   3.691   2.128   4.279
    2MOL1     H 3342   3.895   2.013   4.307
    2MOL1    Cl 3343   1.309   2.235   4.377
    2MOL1     C 3344   1.436   2.338   4.311
    2MOL1    Cl 3345   1.461   2.303   4.139
    2MOL1    Cl 3346   1.398   2.509   4.334
    2MOL1     H 3347   1.529   2.316   4.364
    2MOL1    Cl 3348   1.276   0.485   1.955
    2MOL1     C 3349   1.113   0.498   2.022
    2MOL1    Cl 3350   1.008   0.592   1.915
    2MOL1    Cl 3351   1.044   0.338   2.052
    2MOL1     H 3352   1.120   0.551   2.118
    2MOL1    Cl 3353   3.058   0.426   4.081
    2MOL1     C 3354   3.188   0.343   4.168
    2MOL1    Cl 3355   3.344   0.422   4.140
    2MOL1    Cl 3356   3.152   0.336   4.342
    2MOL1     H 3357   3.195   0.240   4.131
    2MOL1    Cl 3358   3.415   2.819   0.236
    2MOL1     C 3359   3.542   2.926   0.295
    2MOL1    Cl 3360   3.599   2.874   0.455
    2MOL1    Cl 3361   3.677   2.932   0.180
    2MOL1     H 3362   3.501   3.027   0.305
    2MOL1    Cl 3363   4.125   3.352   0.124
    2MOL1     C 3364   4.206   3.216   0.204
    2MOL1    Cl 3365   4.183   3.067   0.112
    2MOL1    Cl 3366   4.379   3.251   0.225
    2MOL1     H 3367   4.162   3.203   0.303
  5.5400000  5.5400000  5.5400000
