Generated by Interchange
3367
    1mop_t    C    1   3.889   2.130   1.287
    1mop_t    O    2   3.997   2.175   1.240
    1mop_t    C    3   3.777   2.227   1.301
    1mop_t    C    4   3.644   2.188   1.355
    1mop_t    C    5   3.533   2.283   1.366
    1mop_t    C    6   3.548   2.424   1.327
    1mop_t    C    7   3.440   2.524   1.342
    1mop_t    C    8   3.373   2.553   1.473
    1mop_t    C    9   3.260   2.648   1.474
    1mop_t    C   10   3.221   2.721   1.355
    1mop_t    O   11   3.117   2.809   1.372
    1mop_t    C   12   3.070   2.877   1.258
    1mop_t    C   13   3.290   2.700   1.230
    1mop_t    C   14   3.399   2.603   1.224
    1mop_t    C   15   3.414   2.492   1.601
    1mop_t    C   16   3.551   2.505   1.653
    1mop_t    C   17   3.591   2.442   1.778
    1mop_t    C   18   3.494   2.366   1.855
    1mop_t    C   19   3.357   2.350   1.806
    1mop_t    C   20   3.318   2.412   1.680
    1mop_t    C   21   3.261   2.250   1.870
    1mop_t    N   22   3.312   2.112   1.874
    1mop_t    C   23   3.233   2.297   2.014
    1mop_t    C   24   3.680   2.464   1.278
    1mop_t    C   25   3.790   2.370   1.266
    1mop_t    H   26   3.632   2.091   1.401
    1mop_t    H   27   3.444   2.249   1.419
    1mop_t    H   28   3.205   2.663   1.566
    1mop_t    H   29   2.985   2.939   1.288
    1mop_t    H   30   3.035   2.808   1.181
    1mop_t    H   31   3.147   2.945   1.218
    1mop_t    H   32   3.259   2.745   1.138
    1mop_t    H   33   3.446   2.582   1.129
    1mop_t    H   34   3.629   2.542   1.587
    1mop_t    H   35   3.696   2.419   1.792
    1mop_t    H   36   3.532   2.290   1.922
    1mop_t    H   37   3.227   2.379   1.632
    1mop_t    H   38   3.165   2.252   1.818
    1mop_t    H   39   3.407   2.114   1.909
    1mop_t    H   40   3.322   2.290   2.078
    1mop_t    H   41   3.155   2.236   2.061
    1mop_t    H   42   3.199   2.401   2.016
    1mop_t    H   43   3.701   2.569   1.262
    1mop_t    H   44   3.888   2.406   1.238
    1mop_t    C   45   3.324   2.054   1.745
    1mop_t    O   46   3.441   2.021   1.715
    1mop_t    C   47   3.214   1.982   1.679
    1mop_t    C   48   3.088   1.951   1.750
    1mop_t    C   49   2.983   1.871   1.689
    1mop_t    C   50   2.993   1.822   1.551
    1mop_t    C   51   2.885   1.745   1.487
    1mop_t    C   52   2.744   1.795   1.478
    1mop_t    C   53   2.641   1.704   1.426
    1mop_t    C   54   2.673   1.573   1.375
    1mop_t    O   55   2.567   1.503   1.324
    1mop_t    C   56   2.592   1.373   1.274
    1mop_t    C   57   2.810   1.526   1.375
    1mop_t    C   58   2.914   1.611   1.431
    1mop_t    C   59   2.704   1.932   1.517
    1mop_t    C   60   2.769   2.052   1.462
    1mop_t    C   61   2.732   2.185   1.507
    1mop_t    C   62   2.629   2.202   1.607
    1mop_t    C   63   2.563   2.085   1.666
    1mop_t    C   64   2.601   1.952   1.621
    1mop_t    C   65   2.473   2.098   1.788
    1mop_t    N   66   2.537   2.163   1.903
    1mop_t    C   67   2.349   2.179   1.748
    1mop_t    C   68   3.116   1.858   1.477
    1mop_t    C   69   3.221   1.937   1.538
    1mop_t    H   70   3.071   1.994   1.848
    1mop_t    H   71   2.891   1.860   1.745
    1mop_t    H   72   2.537   1.737   1.427
    1mop_t    H   73   2.497   1.331   1.240
    1mop_t    H   74   2.631   1.308   1.353
    1mop_t    H   75   2.660   1.376   1.188
    1mop_t    H   76   2.838   1.428   1.340
    1mop_t    H   77   3.015   1.572   1.441
    1mop_t    H   78   2.861   2.040   1.406
    1mop_t    H   79   2.807   2.264   1.497
    1mop_t    H   80   2.632   2.294   1.666
    1mop_t    H   81   2.572   1.867   1.683
    1mop_t    H   82   2.436   1.999   1.817
    1mop_t    H   83   2.584   2.246   1.871
    1mop_t    H   84   2.374   2.283   1.724
    1mop_t    H   85   2.275   2.181   1.829
    1mop_t    H   86   2.300   2.136   1.660
    1mop_t    H   87   3.126   1.830   1.373
    1mop_t    H   88   3.310   1.962   1.482
    1mop_t    C   89   2.642   2.085   1.960
    1mop_t    O   90   2.753   2.143   1.958
    1mop_t    C   91   2.620   1.983   2.063
    1mop_t    C   92   2.489   1.965   2.129
    1mop_t    C   93   2.470   1.874   2.240
    1mop_t    C   94   2.578   1.787   2.289
    1mop_t    C   95   2.557   1.690   2.398
    1mop_t    C   96   2.450   1.584   2.393
    1mop_t    C   97   2.428   1.503   2.515
    1mop_t    C   98   2.512   1.514   2.630
    1mop_t    O   99   2.481   1.429   2.733
    1mop_t    C  100   2.559   1.437   2.851
    1mop_t    C  101   2.621   1.610   2.633
    1mop_t    C  102   2.642   1.696   2.518
    1mop_t    C  103   2.365   1.560   2.275
    1mop_t    C  104   2.422   1.530   2.143
    1mop_t    C  105   2.336   1.511   2.027
    1mop_t    C  106   2.191   1.521   2.040
    1mop_t    C  107   2.132   1.553   2.170
    1mop_t    C  108   2.219   1.574   2.285
    1mop_t    C  109   1.985   1.591   2.183
    1mop_t    N  110   1.944   1.704   2.098
    1mop_t    C  111   1.901   1.468   2.145
    1mop_t    C  112   2.707   1.799   2.220
    1mop_t    C  113   2.727   1.892   2.110
    1mop_t    H  114   2.403   2.018   2.089
    1mop_t    H  115   2.369   1.862   2.277
    1mop_t    H  116   2.344   1.434   2.515
    1mop_t    H  117   2.520   1.363   2.922
    1mop_t    H  118   2.550   1.536   2.897
    1mop_t    H  119   2.663   1.412   2.830
    1mop_t    H  120   2.683   1.626   2.720
    1mop_t    H  121   2.718   1.774   2.524
    1mop_t    H  122   2.527   1.548   2.125
    1mop_t    H  123   2.379   1.530   1.929
    1mop_t    H  124   2.135   1.545   1.951
    1mop_t    H  125   2.178   1.625   2.372
    1mop_t    H  126   1.961   1.612   2.288
    1mop_t    H  127   1.978   1.688   2.005
    1mop_t    H  128   1.911   1.442   2.039
    1mop_t    H  129   1.795   1.485   2.165
    1mop_t    H  130   1.932   1.380   2.203
    1mop_t    H  131   2.789   1.733   2.247
    1mop_t    H  132   2.823   1.898   2.061
    1mop_t    C  133   2.006   1.828   2.135
    1mop_t    O  134   2.072   1.879   2.042
    1mop_t    C  135   1.948   1.920   2.234
    1mop_t    C  136   1.815   1.896   2.290
    1mop_t    C  137   1.757   1.985   2.388
    1mop_t    C  138   1.818   2.111   2.428
    1mop_t    C  139   1.750   2.202   2.524
    1mop_t    C  140   1.690   2.154   2.654
    1mop_t    C  141   1.608   2.249   2.732
    1mop_t    C  142   1.591   2.387   2.692
    1mop_t    O  143   1.515   2.463   2.778
    1mop_t    C  144   1.499   2.600   2.746
    1mop_t    C  145   1.651   2.435   2.570
    1mop_t    C  146   1.730   2.344   2.488
    1mop_t    C  147   1.706   2.018   2.707
    1mop_t    C  148   1.838   1.955   2.723
    1mop_t    C  149   1.852   1.817   2.767
    1mop_t    C  150   1.734   1.737   2.794
    1mop_t    C  151   1.601   1.796   2.780
    1mop_t    C  152   1.588   1.934   2.736
    1mop_t    C  153   1.475   1.714   2.801
    1mop_t    N  154   1.458   1.602   2.710
    1mop_t    C  155   1.473   1.661   2.945
    1mop_t    C  156   1.952   2.136   2.374
    1mop_t    C  157   2.017   2.042   2.283
    1mop_t    H  158   1.765   1.803   2.266
    1mop_t    H  159   1.682   1.941   2.452
    1mop_t    H  160   1.563   2.215   2.825
    1mop_t    H  161   1.440   2.646   2.826
    1mop_t    H  162   1.443   2.612   2.652
    1mop_t    H  163   1.595   2.651   2.741
    1mop_t    H  164   1.630   2.533   2.530
    1mop_t    H  165   1.761   2.377   2.389
    1mop_t    H  166   1.925   2.003   2.678
    1mop_t    H  167   1.946   1.766   2.747
    1mop_t    H  168   1.744   1.629   2.795
    1mop_t    H  169   1.491   1.967   2.700
    1mop_t    H  170   1.387   1.780   2.793
    1mop_t    H  171   1.538   1.540   2.708
    1mop_t    H  172   1.555   1.592   2.965
    1mop_t    H  173   1.379   1.608   2.966
    1mop_t    H  174   1.480   1.744   3.016
    1mop_t    H  175   2.010   2.221   2.408
    1mop_t    H  176   2.118   2.060   2.248
    1mop_t    C  177   3.945   1.903   1.278
    1mop_t    O  178   3.854   2.001   1.325
    1mop_t    H  179   3.945   1.901   1.168
    1mop_t    H  180   3.911   1.805   1.313
    1mop_t    H  181   4.046   1.919   1.316
    1mop_t    C  182   1.221   1.896   2.423
    1mop_t    C  183   1.332   1.789   2.412
    1mop_t    C  184   1.289   1.686   2.306
    1mop_t    C  185   1.457   1.863   2.366
    1mop_t    O  186   1.345   1.736   2.546
    1mop_t    C  187   1.434   1.634   2.573
    1mop_t    O  188   1.495   1.553   2.501
    1mop_t    H  189   1.203   1.945   2.327
    1mop_t    H  190   1.129   1.852   2.459
    1mop_t    H  191   1.250   1.973   2.495
    1mop_t    H  192   1.204   1.627   2.341
    1mop_t    H  193   1.370   1.615   2.282
    1mop_t    H  194   1.263   1.735   2.212
    1mop_t    H  195   1.482   1.939   2.440
    1mop_t    H  196   1.542   1.795   2.356
    1mop_t    H  197   1.443   1.913   2.270
    2MOL1    Cl  198   4.418   0.277   2.821
    2MOL1     C  199   4.349   0.335   2.669
    2MOL1    Cl  200   4.174   0.307   2.665
    2MOL1    Cl  201   4.385   0.507   2.645
    2MOL1     H  202   4.394   0.279   2.587
    2MOL1    Cl  203   1.802   2.274   4.445
    2MOL1     C  204   1.858   2.407   4.547
    2MOL1    Cl  205   1.995   2.491   4.472
    2MOL1    Cl  206   1.726   2.521   4.578
    2MOL1     H  207   1.891   2.366   4.643
    2MOL1    Cl  208   1.924   2.118   1.095
    2MOL1     C  209   1.888   2.280   1.033
    2MOL1    Cl  210   2.026   2.388   1.058
    2MOL1    Cl  211   1.844   2.274   0.862
    2MOL1     H  212   1.803   2.320   1.089
    2MOL1    Cl  213   2.482   0.546   3.740
    2MOL1     C  214   2.620   0.557   3.852
    2MOL1    Cl  215   2.582   0.475   4.004
    2MOL1    Cl  216   2.765   0.488   3.778
    2MOL1     H  217   2.638   0.662   3.873
    2MOL1    Cl  218   2.087   1.898   2.802
    2MOL1     C  219   2.180   1.796   2.914
    2MOL1    Cl  220   2.071   1.713   3.026
    2MOL1    Cl  221   2.278   1.679   2.824
    2MOL1     H  222   2.246   1.860   2.971
    2MOL1    Cl  223   5.099   1.390   0.444
    2MOL1     C  224   5.028   1.278   0.560
    2MOL1    Cl  225   4.999   1.120   0.486
    2MOL1    Cl  226   5.132   1.261   0.703
    2MOL1     H  227   4.932   1.318   0.593
    2MOL1    Cl  228   2.874   0.761   2.726
    2MOL1     C  229   2.852   0.790   2.552
    2MOL1    Cl  230   2.960   0.686   2.458
    2MOL1    Cl  231   2.683   0.762   2.506
    2MOL1     H  232   2.877   0.894   2.531
    2MOL1    Cl  233   3.940   4.148   4.852
    2MOL1     C  234   3.765   4.122   4.835
    2MOL1    Cl  235   3.693   4.249   4.734
    2MOL1    Cl  236   3.732   3.962   4.766
    2MOL1     H  237   3.720   4.127   4.934
    2MOL1    Cl  238   0.834   4.194   3.619
    2MOL1     C  239   0.799   4.127   3.459
    2MOL1    Cl  240   0.856   3.960   3.447
    2MOL1    Cl  241   0.625   4.136   3.425
    2MOL1     H  242   0.851   4.188   3.384
    2MOL1    Cl  243   4.049   1.359   2.726
    2MOL1     C  244   3.935   1.311   2.598
    2MOL1    Cl  245   4.019   1.220   2.471
    2MOL1    Cl  246   3.803   1.214   2.666
    2MOL1     H  247   3.893   1.401   2.554
    2MOL1    Cl  248   5.049   3.027   4.435
    2MOL1     C  249   4.912   3.130   4.479
    2MOL1    Cl  250   4.760   3.059   4.422
    2MOL1    Cl  251   4.908   3.156   4.654
    2MOL1     H  252   4.926   3.227   4.430
    2MOL1    Cl  253   0.658   2.733   1.480
    2MOL1     C  254   0.549   2.848   1.401
    2MOL1    Cl  255   0.473   2.954   1.521
    2MOL1    Cl  256   0.636   2.944   1.280
    2MOL1     H  257   0.470   2.792   1.350
    2MOL1    Cl  258   1.401   2.312   2.284
    2MOL1     C  259   1.488   2.171   2.220
    2MOL1    Cl  260   1.375   2.056   2.148
    2MOL1    Cl  261   1.610   2.222   2.102
    2MOL1     H  262   1.539   2.122   2.303
    2MOL1    Cl  263   4.214   4.514   0.862
    2MOL1     C  264   4.296   4.427   0.731
    2MOL1    Cl  265   4.182   4.384   0.603
    2MOL1    Cl  266   4.429   4.524   0.665
    2MOL1     H  267   4.338   4.335   0.772
    2MOL1    Cl  268   2.551   5.164   3.859
    2MOL1     C  269   2.536   5.232   3.697
    2MOL1    Cl  270   2.686   5.210   3.605
    2MOL1    Cl  271   2.399   5.159   3.611
    2MOL1     H  272   2.517   5.340   3.706
    2MOL1    Cl  273   3.036   1.816   3.203
    2MOL1     C  274   2.867   1.795   3.156
    2MOL1    Cl  275   2.763   1.793   3.300
    2MOL1    Cl  276   2.816   1.922   3.044
    2MOL1     H  277   2.857   1.698   3.105
    2MOL1    Cl  278   0.585   2.992   4.927
    2MOL1     C  279   0.683   3.106   5.021
    2MOL1    Cl  280   0.847   3.115   4.956
    2MOL1    Cl  281   0.608   3.267   5.022
    2MOL1     H  282   0.688   3.070   5.124
    2MOL1    Cl  283   4.692   3.467   2.267
    2MOL1     C  284   4.585   3.536   2.145
    2MOL1    Cl  285   4.439   3.603   2.220
    2MOL1    Cl  286   4.669   3.660   2.051
    2MOL1     H  287   4.554   3.456   2.077
    2MOL1    Cl  288   5.304   3.726   5.097
    2MOL1     C  289   5.233   3.702   4.936
    2MOL1    Cl  290   5.112   3.573   4.941
    2MOL1    Cl  291   5.162   3.852   4.875
    2MOL1     H  292   5.313   3.671   4.868
    2MOL1    Cl  293   2.236   1.284   3.392
    2MOL1     C  294   2.165   1.136   3.460
    2MOL1    Cl  295   2.211   1.118   3.630
    2MOL1    Cl  296   1.989   1.138   3.442
    2MOL1     H  297   2.204   1.050   3.404
    2MOL1    Cl  298   1.479   1.927   2.904
    2MOL1     C  299   1.344   2.019   2.837
    2MOL1    Cl  300   1.247   2.091   2.967
    2MOL1    Cl  301   1.404   2.145   2.727
    2MOL1     H  302   1.280   1.951   2.780
    2MOL1    Cl  303   3.271   4.703   4.805
    2MOL1     C  304   3.112   4.658   4.867
    2MOL1    Cl  305   3.128   4.569   5.019
    2MOL1    Cl  306   3.011   4.803   4.890
    2MOL1     H  307   3.063   4.594   4.794
    2MOL1    Cl  308   2.509   2.716   2.089
    2MOL1     C  309   2.571   2.558   2.038
    2MOL1    Cl  310   2.735   2.532   2.099
    2MOL1    Cl  311   2.463   2.428   2.094
    2MOL1     H  312   2.574   2.555   1.929
    2MOL1    Cl  313   2.599   2.129   5.052
    2MOL1     C  314   2.740   2.029   5.088
    2MOL1    Cl  315   2.731   1.875   5.001
    2MOL1    Cl  316   2.890   2.115   5.046
    2MOL1     H  317   2.741   2.009   5.195
    2MOL1    Cl  318   5.101   0.156   1.221
    2MOL1     C  319   5.023   0.252   1.347
    2MOL1    Cl  320   5.088   0.417   1.349
    2MOL1    Cl  321   4.847   0.255   1.324
    2MOL1     H  322   5.044   0.206   1.444
    2MOL1    Cl  323   2.951   0.934   1.335
    2MOL1     C  324   3.092   0.883   1.241
    2MOL1    Cl  325   3.043   0.777   1.107
    2MOL1    Cl  326   3.180   1.024   1.179
    2MOL1     H  327   3.159   0.827   1.306
    2MOL1    Cl  328   4.109   3.327   1.844
    2MOL1     C  329   3.947   3.258   1.863
    2MOL1    Cl  330   3.912   3.227   2.034
    2MOL1    Cl  331   3.825   3.366   1.792
    2MOL1     H  332   3.944   3.163   1.809
    2MOL1    Cl  333   0.996   1.055   3.613
    2MOL1     C  334   1.094   0.911   3.645
    2MOL1    Cl  335   1.022   0.769   3.567
    2MOL1    Cl  336   1.260   0.936   3.588
    2MOL1     H  337   1.097   0.894   3.753
    2MOL1    Cl  338   0.605   5.027   4.161
    2MOL1     C  339   0.690   5.179   4.126
    2MOL1    Cl  340   0.715   5.198   3.952
    2MOL1    Cl  341   0.600   5.317   4.192
    2MOL1     H  342   0.788   5.175   4.175
    2MOL1    Cl  343   2.787   3.656   3.251
    2MOL1     C  344   2.771   3.649   3.427
    2MOL1    Cl  345   2.748   3.481   3.481
    2MOL1    Cl  346   2.913   3.720   3.506
    2MOL1     H  347   2.683   3.706   3.457
    2MOL1    Cl  348   0.228   0.826   2.617
    2MOL1     C  349   0.297   0.885   2.464
    2MOL1    Cl  350   0.402   1.025   2.493
    2MOL1    Cl  351   0.386   0.756   2.382
    2MOL1     H  352   0.214   0.917   2.400
    2MOL1    Cl  353   4.823   2.060   2.193
    2MOL1     C  354   4.976   2.000   2.128
    2MOL1    Cl  355   5.100   1.995   2.254
    2MOL1    Cl  356   4.955   1.839   2.056
    2MOL1     H  357   5.009   2.068   2.050
    2MOL1    Cl  358   1.345   3.344   2.335
    2MOL1     C  359   1.249   3.486   2.293
    2MOL1    Cl  360   1.346   3.603   2.201
    2MOL1    Cl  361   1.105   3.439   2.200
    2MOL1     H  362   1.215   3.534   2.385
    2MOL1    Cl  363   4.085   1.464   2.084
    2MOL1     C  364   3.918   1.423   2.041
    2MOL1    Cl  365   3.834   1.565   1.977
    2MOL1    Cl  366   3.915   1.290   1.924
    2MOL1     H  367   3.867   1.390   2.132
    2MOL1    Cl  368   1.005   2.189   2.163
    2MOL1     C  369   0.854   2.280   2.175
    2MOL1    Cl  370   0.716   2.169   2.186
    2MOL1    Cl  371   0.857   2.389   2.314
    2MOL1     H  372   0.843   2.340   2.084
    2MOL1    Cl  373   2.081   3.802   1.921
    2MOL1     C  374   2.125   3.865   1.761
    2MOL1    Cl  375   2.182   4.032   1.773
    2MOL1    Cl  376   2.247   3.762   1.685
    2MOL1     H  377   2.035   3.864   1.698
    2MOL1    Cl  378   1.057   4.689   1.072
    2MOL1     C  379   0.995   4.530   1.118
    2MOL1    Cl  380   1.114   4.441   1.215
    2MOL1    Cl  381   0.842   4.546   1.207
    2MOL1     H  382   0.976   4.473   1.027
    2MOL1    Cl  383   0.391   1.176   4.868
    2MOL1     C  384   0.257   1.283   4.826
    2MOL1    Cl  385   0.273   1.439   4.908
    2MOL1    Cl  386   0.248   1.306   4.650
    2MOL1     H  387   0.164   1.236   4.859
    2MOL1    Cl  388   1.283   3.812   4.634
    2MOL1     C  389   1.333   3.881   4.789
    2MOL1    Cl  390   1.496   3.950   4.778
    2MOL1    Cl  391   1.217   4.005   4.842
    2MOL1     H  392   1.334   3.801   4.863
    2MOL1    Cl  393   0.232   0.795   4.987
    2MOL1     C  394   0.319   0.732   4.847
    2MOL1    Cl  395   0.286   0.830   4.703
    2MOL1    Cl  396   0.493   0.726   4.879
    2MOL1     H  397   0.284   0.630   4.827
    2MOL1    Cl  398   1.222   4.136   2.015
    2MOL1     C  399   1.248   4.272   2.125
    2MOL1    Cl  400   1.094   4.344   2.173
    2MOL1    Cl  401   1.341   4.221   2.267
    2MOL1     H  402   1.306   4.348   2.072
    2MOL1    Cl  403   3.547   4.015   0.193
    2MOL1     C  404   3.694   4.111   0.169
    2MOL1    Cl  405   3.687   4.200   0.016
    2MOL1    Cl  406   3.719   4.222   0.305
    2MOL1     H  407   3.779   4.043   0.165
    2MOL1    Cl  408   1.523   1.499   1.324
    2MOL1     C  409   1.691   1.507   1.379
    2MOL1    Cl  410   1.759   1.344   1.394
    2MOL1    Cl  411   1.788   1.604   1.267
    2MOL1     H  412   1.693   1.554   1.477
    2MOL1    Cl  413   3.574   0.826   2.292
    2MOL1     C  414   3.479   0.676   2.293
    2MOL1    Cl  415   3.548   0.560   2.408
    2MOL1    Cl  416   3.310   0.710   2.332
    2MOL1     H  417   3.484   0.632   2.193
    2MOL1    Cl  418   0.307   0.724   2.072
    2MOL1     C  419   0.158   0.666   1.996
    2MOL1    Cl  420   0.144   0.728   1.831
    2MOL1    Cl  421   0.153   0.488   1.996
    2MOL1     H  422   0.073   0.702   2.054
    2MOL1    Cl  423   3.948   2.641   0.924
    2MOL1     C  424   3.907   2.592   1.089
    2MOL1    Cl  425   4.046   2.517   1.168
    2MOL1    Cl  426   3.849   2.730   1.183
    2MOL1     H  427   3.826   2.518   1.083
    2MOL1    Cl  428   5.023   1.616   3.309
    2MOL1     C  429   4.962   1.758   3.396
    2MOL1    Cl  430   4.829   1.712   3.504
    2MOL1    Cl  431   5.092   1.836   3.488
    2MOL1     H  432   4.924   1.830   3.323
    2MOL1    Cl  433   1.995   3.464   2.409
    2MOL1     C  434   1.936   3.603   2.501
    2MOL1    Cl  435   2.026   3.621   2.652
    2MOL1    Cl  436   1.949   3.751   2.404
    2MOL1     H  437   1.831   3.587   2.525
    2MOL1    Cl  438   0.457   0.120   4.877
    2MOL1     C  439   0.571   0.256   4.875
    2MOL1    Cl  440   0.571   0.339   5.031
    2MOL1    Cl  441   0.734   0.200   4.834
    2MOL1     H  442   0.539   0.327   4.798
    2MOL1    Cl  443   4.493   0.470   4.480
    2MOL1     C  444   4.558   0.623   4.543
    2MOL1    Cl  445   4.735   0.621   4.540
    2MOL1    Cl  446   4.495   0.760   4.450
    2MOL1     H  447   4.525   0.633   4.646
    2MOL1    Cl  448   3.805   4.570   1.492
    2MOL1     C  449   3.875   4.721   1.553
    2MOL1    Cl  450   3.778   4.860   1.501
    2MOL1    Cl  451   3.887   4.716   1.730
    2MOL1     H  452   3.976   4.732   1.512
    2MOL1    Cl  453   4.400   4.426   4.863
    2MOL1     C  454   4.490   4.567   4.921
    2MOL1    Cl  455   4.659   4.559   4.868
    2MOL1    Cl  456   4.414   4.717   4.866
    2MOL1     H  457   4.489   4.566   5.030
    2MOL1    Cl  458   4.184   4.219   1.693
    2MOL1     C  459   4.023   4.293   1.699
    2MOL1    Cl  460   3.920   4.229   1.569
    2MOL1    Cl  461   3.947   4.265   1.857
    2MOL1     H  462   4.033   4.400   1.684
    2MOL1    Cl  463   4.055   4.090   3.411
    2MOL1     C  464   3.882   4.069   3.437
    2MOL1    Cl  465   3.851   3.938   3.553
    2MOL1    Cl  466   3.809   4.221   3.495
    2MOL1     H  467   3.835   4.043   3.342
    2MOL1    Cl  468   0.433   0.841   3.557
    2MOL1     C  469   0.361   0.905   3.409
    2MOL1    Cl  470   0.486   0.966   3.300
    2MOL1    Cl  471   0.263   0.781   3.329
    2MOL1     H  472   0.295   0.988   3.436
    2MOL1    Cl  473   2.929   2.521   2.992
    2MOL1     C  474   3.074   2.591   2.919
    2MOL1    Cl  475   3.206   2.473   2.918
    2MOL1    Cl  476   3.040   2.648   2.755
    2MOL1     H  477   3.105   2.677   2.979
    2MOL1    Cl  478   3.708   2.241   2.358
    2MOL1     C  479   3.731   2.382   2.462
    2MOL1    Cl  480   3.642   2.362   2.614
    2MOL1    Cl  481   3.903   2.409   2.493
    2MOL1     H  482   3.691   2.470   2.410
    2MOL1    Cl  483   4.942   0.587   2.554
    2MOL1     C  484   5.029   0.679   2.431
    2MOL1    Cl  485   5.008   0.605   2.271
    2MOL1    Cl  486   4.976   0.848   2.429
    2MOL1     H  487   5.136   0.677   2.456
    2MOL1    Cl  488   0.247   0.040   3.069
    2MOL1     C  489   0.337   0.191   3.086
    2MOL1    Cl  490   0.257   0.297   3.204
    2MOL1    Cl  491   0.504   0.159   3.134
    2MOL1     H  492   0.338   0.242   2.990
    2MOL1    Cl  493   5.338   3.778   1.390
    2MOL1     C  494   5.253   3.625   1.360
    2MOL1    Cl  495   5.078   3.651   1.355
    2MOL1    Cl  496   5.310   3.551   1.210
    2MOL1     H  497   5.275   3.557   1.443
    2MOL1    Cl  498   1.334   3.279   0.923
    2MOL1     C  499   1.511   3.278   0.908
    2MOL1    Cl  500   1.583   3.398   1.017
    2MOL1    Cl  501   1.576   3.117   0.942
    2MOL1     H  502   1.537   3.305   0.805
    2MOL1    Cl  503   2.553   4.337   4.119
    2MOL1     C  504   2.726   4.311   4.151
    2MOL1    Cl  505   2.786   4.432   4.266
    2MOL1    Cl  506   2.754   4.147   4.214
    2MOL1     H  507   2.780   4.322   4.057
    2MOL1    Cl  508   4.656   1.867   0.381
    2MOL1     C  509   4.618   1.699   0.341
    2MOL1    Cl  510   4.481   1.692   0.229
    2MOL1    Cl  511   4.759   1.617   0.273
    2MOL1     H  512   4.589   1.648   0.434
    2MOL1    Cl  513   2.734   4.753   4.392
    2MOL1     C  514   2.907   4.773   4.420
    2MOL1    Cl  515   2.938   4.913   4.524
    2MOL1    Cl  516   2.977   4.626   4.490
    2MOL1     H  517   2.956   4.791   4.323
    2MOL1    Cl  518   3.966   4.300   2.148
    2MOL1     C  519   3.799   4.255   2.110
    2MOL1    Cl  520   3.740   4.346   1.971
    2MOL1    Cl  521   3.788   4.080   2.081
    2MOL1     H  522   3.737   4.279   2.197
    2MOL1    Cl  523   0.976   0.383   3.498
    2MOL1     C  524   1.045   0.242   3.416
    2MOL1    Cl  525   1.179   0.174   3.511
    2MOL1    Cl  526   0.921   0.119   3.387
    2MOL1     H  527   1.085   0.275   3.319
    2MOL1    Cl  528   0.901   1.543   2.553
    2MOL1     C  529   0.938   1.438   2.691
    2MOL1    Cl  530   0.886   1.513   2.843
    2MOL1    Cl  531   0.862   1.279   2.671
    2MOL1     H  532   1.046   1.423   2.695
    2MOL1    Cl  533   1.302   0.748   2.463
    2MOL1     C  534   1.158   0.715   2.364
    2MOL1    Cl  535   1.011   0.767   2.449
    2MOL1    Cl  536   1.171   0.795   2.207
    2MOL1     H  537   1.152   0.607   2.348
    2MOL1    Cl  538   2.835   1.115   3.792
    2MOL1     C  539   2.870   1.133   3.965
    2MOL1    Cl  540   2.804   1.285   4.027
    2MOL1    Cl  541   2.806   0.995   4.056
    2MOL1     H  542   2.979   1.135   3.977
    2MOL1    Cl  543   4.629   5.286   1.213
    2MOL1     C  544   4.634   5.117   1.264
    2MOL1    Cl  545   4.706   5.103   1.426
    2MOL1    Cl  546   4.471   5.047   1.263
    2MOL1     H  547   4.696   5.061   1.194
    2MOL1    Cl  548   0.604   4.578   0.316
    2MOL1     C  549   0.519   4.422   0.315
    2MOL1    Cl  550   0.632   4.289   0.286
    2MOL1    Cl  551   0.432   4.398   0.468
    2MOL1     H  552   0.445   4.424   0.234
    2MOL1    Cl  553   2.616   3.403   2.129
    2MOL1     C  554   2.488   3.289   2.172
    2MOL1    Cl  555   2.534   3.123   2.127
    2MOL1    Cl  556   2.453   3.298   2.346
    2MOL1     H  557   2.398   3.315   2.117
    2MOL1    Cl  558   0.214   3.134   1.097
    2MOL1     C  559   0.390   3.154   1.102
    2MOL1    Cl  560   0.439   3.234   1.252
    2MOL1    Cl  561   0.471   2.998   1.084
    2MOL1     H  562   0.419   3.218   1.018
    2MOL1    Cl  563   3.288   3.650   0.891
    2MOL1     C  564   3.386   3.631   1.037
    2MOL1    Cl  565   3.367   3.770   1.144
    2MOL1    Cl  566   3.343   3.481   1.121
    2MOL1     H  567   3.491   3.624   1.007
    2MOL1    Cl  568   3.017   3.052   4.881
    2MOL1     C  569   3.192   3.047   4.860
    2MOL1    Cl  570   3.268   3.193   4.927
    2MOL1    Cl  571   3.259   2.902   4.937
    2MOL1     H  572   3.215   3.042   4.753
    2MOL1    Cl  573   1.109   1.158   1.866
    2MOL1     C  574   1.085   1.330   1.900
    2MOL1    Cl  575   1.221   1.426   1.838
    2MOL1    Cl  576   0.932   1.386   1.831
    2MOL1     H  577   1.081   1.343   2.009
    2MOL1    Cl  578   2.016   2.516   4.927
    2MOL1     C  579   1.971   2.608   4.782
    2MOL1    Cl  580   1.800   2.655   4.789
    2MOL1    Cl  581   2.074   2.752   4.765
    2MOL1     H  582   1.986   2.545   4.695
    2MOL1    Cl  583   2.359   4.232   3.972
    2MOL1     C  584   2.289   4.234   4.135
    2MOL1    Cl  585   2.307   4.395   4.208
    2MOL1    Cl  586   2.118   4.187   4.130
    2MOL1     H  587   2.343   4.162   4.196
    2MOL1    Cl  588   0.930   0.427   0.170
    2MOL1     C  589   0.776   0.341   0.154
    2MOL1    Cl  590   0.665   0.430   0.048
    2MOL1    Cl  591   0.802   0.177   0.092
    2MOL1     H  592   0.730   0.333   0.253
    2MOL1    Cl  593   1.036   0.577   3.143
    2MOL1     C  594   1.131   0.579   2.993
    2MOL1    Cl  595   1.030   0.532   2.855
    2MOL1    Cl  596   1.201   0.739   2.966
    2MOL1     H  597   1.212   0.507   3.003
    2MOL1    Cl  598   4.493   3.203   3.424
    2MOL1     C  599   4.537   3.191   3.253
    2MOL1    Cl  600   4.712   3.209   3.232
    2MOL1    Cl  601   4.482   3.036   3.185
    2MOL1     H  602   4.487   3.271   3.199
    2MOL1    Cl  603   3.245   4.945   5.177
    2MOL1     C  604   3.232   4.773   5.215
    2MOL1    Cl  605   3.349   4.727   5.340
    2MOL1    Cl  606   3.067   4.733   5.267
    2MOL1     H  607   3.254   4.716   5.125
    2MOL1    Cl  608   1.971   0.380   3.567
    2MOL1     C  609   1.836   0.275   3.615
    2MOL1    Cl  610   1.797   0.161   3.485
    2MOL1    Cl  611   1.874   0.189   3.765
    2MOL1     H  612   1.749   0.338   3.633
    2MOL1    Cl  613   0.943   0.965   3.975
    2MOL1     C  614   1.026   0.815   4.024
    2MOL1    Cl  615   1.098   0.833   4.184
    2MOL1    Cl  616   0.913   0.678   4.021
    2MOL1     H  617   1.106   0.796   3.952
    2MOL1    Cl  618   1.883   5.165   2.452
    2MOL1     C  619   2.057   5.162   2.418
    2MOL1    Cl  620   2.093   5.046   2.289
    2MOL1    Cl  621   2.115   5.324   2.374
    2MOL1     H  622   2.109   5.130   2.509
    2MOL1    Cl  623   1.320   1.213   2.353
    2MOL1     C  624   1.150   1.260   2.376
    2MOL1    Cl  625   1.064   1.136   2.468
    2MOL1    Cl  626   1.140   1.417   2.458
    2MOL1     H  627   1.104   1.269   2.278
    2MOL1    Cl  628   1.700   1.659   0.322
    2MOL1     C  629   1.604   1.640   0.175
    2MOL1    Cl  630   1.681   1.723   0.039
    2MOL1    Cl  631   1.581   1.468   0.138
    2MOL1     H  632   1.506   1.685   0.191
    2MOL1    Cl  633   4.103   3.161   2.372
    2MOL1     C  634   4.240   3.118   2.476
    2MOL1    Cl  635   4.189   3.111   2.646
    2MOL1    Cl  636   4.310   2.964   2.426
    2MOL1     H  637   4.316   3.196   2.466
    2MOL1    Cl  638   3.030   4.677   1.479
    2MOL1     C  639   2.973   4.828   1.405
    2MOL1    Cl  640   3.110   4.930   1.360
    2MOL1    Cl  641   2.871   4.793   1.264
    2MOL1     H  642   2.913   4.881   1.479
    2MOL1    Cl  643   4.341   2.292   3.385
    2MOL1     C  644   4.333   2.465   3.347
    2MOL1    Cl  645   4.420   2.500   3.196
    2MOL1    Cl  646   4.164   2.518   3.335
    2MOL1     H  647   4.381   2.520   3.428
    2MOL1    Cl  648   4.339   0.648   3.520
    2MOL1     C  649   4.276   0.738   3.658
    2MOL1    Cl  650   4.307   0.651   3.809
    2MOL1    Cl  651   4.346   0.901   3.664
    2MOL1     H  652   4.167   0.748   3.646
    2MOL1    Cl  653   4.089   0.970   3.309
    2MOL1     C  654   4.265   0.977   3.295
    2MOL1    Cl  655   4.340   0.838   3.375
    2MOL1    Cl  656   4.314   0.985   3.125
    2MOL1     H  657   4.300   1.068   3.345
    2MOL1    Cl  658   2.037   0.191   3.474
    2MOL1     C  659   2.115   0.105   3.340
    2MOL1    Cl  660   2.006   0.095   3.201
    2MOL1    Cl  661   2.267   0.183   3.295
    2MOL1     H  662   2.137   0.003   3.373
    2MOL1    Cl  663   0.661   4.456   3.731
    2MOL1     C  664   0.497   4.510   3.690
    2MOL1    Cl  665   0.468   4.674   3.753
    2MOL1    Cl  666   0.472   4.505   3.515
    2MOL1     H  667   0.426   4.442   3.738
    2MOL1    Cl  668   0.406   2.095   4.934
    2MOL1     C  669   0.296   1.987   4.847
    2MOL1    Cl  670   0.211   2.074   4.719
    2MOL1    Cl  671   0.385   1.848   4.781
    2MOL1     H  672   0.222   1.949   4.918
    2MOL1    Cl  673   1.198   5.029   5.280
    2MOL1     C  674   1.071   5.125   5.203
    2MOL1    Cl  675   1.068   5.097   5.028
    2MOL1    Cl  676   0.913   5.088   5.275
    2MOL1     H  677   1.093   5.231   5.221
    2MOL1    Cl  678   0.895   2.032   1.158
    2MOL1     C  679   0.869   2.204   1.124
    2MOL1    Cl  680   0.932   2.305   1.255
    2MOL1    Cl  681   0.944   2.249   0.969
    2MOL1     H  682   0.761   2.222   1.116
    2MOL1    Cl  683   4.937   1.616   2.229
    2MOL1     C  684   4.803   1.703   2.305
    2MOL1    Cl  685   4.709   1.595   2.408
    2MOL1    Cl  686   4.864   1.841   2.398
    2MOL1     H  687   4.738   1.742   2.226
    2MOL1    Cl  688   3.145   1.291   2.633
    2MOL1     C  689   2.971   1.302   2.605
    2MOL1    Cl  690   2.934   1.436   2.495
    2MOL1    Cl  691   2.909   1.150   2.540
    2MOL1     H  692   2.922   1.321   2.700
    2MOL1    Cl  693   3.295   0.669   2.629
    2MOL1     C  694   3.166   0.549   2.646
    2MOL1    Cl  695   3.106   0.499   2.487
    2MOL1    Cl  696   3.223   0.409   2.739
    2MOL1     H  697   3.084   0.595   2.701
    2MOL1    Cl  698   2.458   4.818   0.971
    2MOL1     C  699   2.425   4.679   1.075
    2MOL1    Cl  700   2.544   4.669   1.206
    2MOL1    Cl  701   2.261   4.688   1.142
    2MOL1     H  702   2.432   4.588   1.015
    2MOL1    Cl  703   0.455   3.558   4.153
    2MOL1     C  704   0.560   3.430   4.091
    2MOL1    Cl  705   0.474   3.331   3.973
    2MOL1    Cl  706   0.707   3.499   4.019
    2MOL1     H  707   0.590   3.367   4.174
    2MOL1    Cl  708   2.633   0.002   1.673
    2MOL1     C  709   2.483   0.092   1.698
    2MOL1    Cl  710   2.370   0.000   1.799
    2MOL1    Cl  711   2.517   0.250   1.771
    2MOL1     H  712   2.437   0.109   1.600
    2MOL1    Cl  713   2.788   4.803   3.706
    2MOL1     C  714   2.688   4.917   3.798
    2MOL1    Cl  715   2.790   5.024   3.896
    2MOL1    Cl  716   2.586   5.012   3.688
    2MOL1     H  717   2.623   4.860   3.864
    2MOL1    Cl  718   3.409   3.669   4.638
    2MOL1     C  719   3.575   3.615   4.668
    2MOL1    Cl  720   3.589   3.440   4.643
    2MOL1    Cl  721   3.688   3.702   4.563
    2MOL1     H  722   3.600   3.637   4.772
    2MOL1    Cl  723   1.750   0.352   4.721
    2MOL1     C  724   1.657   0.209   4.767
    2MOL1    Cl  725   1.748   0.112   4.885
    2MOL1    Cl  726   1.500   0.256   4.833
    2MOL1     H  727   1.641   0.148   4.678
    2MOL1    Cl  728   3.635   4.046   1.718
    2MOL1     C  729   3.524   3.909   1.739
    2MOL1    Cl  730   3.358   3.958   1.704
    2MOL1    Cl  731   3.572   3.773   1.635
    2MOL1     H  732   3.530   3.876   1.843
    2MOL1    Cl  733   0.159   2.846   2.217
    2MOL1     C  734   0.134   2.671   2.213
    2MOL1    Cl  735   0.026   2.626   2.080
    2MOL1    Cl  736   0.289   2.586   2.198
    2MOL1     H  737   0.087   2.640   2.307
    2MOL1    Cl  738   1.971   0.940   3.745
    2MOL1     C  739   1.805   0.919   3.687
    2MOL1    Cl  740   1.726   0.783   3.770
    2MOL1    Cl  741   1.711   1.068   3.709
    2MOL1     H  742   1.809   0.896   3.580
    2MOL1    Cl  743   1.325   4.619   3.566
    2MOL1     C  744   1.457   4.564   3.670
    2MOL1    Cl  745   1.505   4.692   3.783
    2MOL1    Cl  746   1.410   4.418   3.758
    2MOL1     H  747   1.543   4.540   3.607
    2MOL1    Cl  748   1.250   3.150   3.432
    2MOL1     C  749   1.282   3.222   3.590
    2MOL1    Cl  750   1.138   3.212   3.693
    2MOL1    Cl  751   1.419   3.142   3.668
    2MOL1     H  752   1.307   3.327   3.576
    2MOL1    Cl  753   4.733   2.460   2.520
    2MOL1     C  754   4.857   2.335   2.497
    2MOL1    Cl  755   4.850   2.269   2.333
    2MOL1    Cl  756   5.018   2.401   2.531
    2MOL1     H  757   4.837   2.254   2.568
    2MOL1    Cl  758   2.770   1.350   1.660
    2MOL1     C  759   2.649   1.329   1.788
    2MOL1    Cl  760   2.696   1.417   1.934
    2MOL1    Cl  761   2.490   1.381   1.732
    2MOL1     H  762   2.644   1.222   1.812
    2MOL1    Cl  763   1.153   0.256   3.785
    2MOL1     C  764   1.249   0.110   3.756
    2MOL1    Cl  765   1.165   0.001   3.646
    2MOL1    Cl  766   1.409   0.153   3.693
    2MOL1     H  767   1.263   0.059   3.852
    2MOL1    Cl  768   4.374   3.806   2.872
    2MOL1     C  769   4.276   3.711   2.760
    2MOL1    Cl  770   4.361   3.563   2.712
    2MOL1    Cl  771   4.119   3.671   2.833
    2MOL1     H  772   4.258   3.771   2.671
    2MOL1    Cl  773   4.347   1.176   4.146
    2MOL1     C  774   4.467   1.274   4.061
    2MOL1    Cl  775   4.572   1.358   4.177
    2MOL1    Cl  776   4.563   1.174   3.952
    2MOL1     H  777   4.414   1.349   4.002
    2MOL1    Cl  778   3.864   1.963   2.605
    2MOL1     C  779   3.751   2.046   2.714
    2MOL1    Cl  780   3.839   2.137   2.837
    2MOL1    Cl  781   3.644   2.153   2.621
    2MOL1     H  782   3.689   1.971   2.764
    2MOL1    Cl  783   5.093   4.187   3.335
    2MOL1     C  784   5.016   4.028   3.335
    2MOL1    Cl  785   5.103   3.915   3.441
    2MOL1    Cl  786   4.846   4.040   3.384
    2MOL1     H  787   5.020   3.988   3.233
    2MOL1    Cl  788   0.247   1.959   0.564
    2MOL1     C  789   0.399   1.878   0.526
    2MOL1    Cl  790   0.461   1.792   0.668
    2MOL1    Cl  791   0.378   1.766   0.390
    2MOL1     H  792   0.472   1.953   0.497
    2MOL1    Cl  793   3.551   1.612   3.772
    2MOL1     C  794   3.700   1.698   3.732
    2MOL1    Cl  795   3.823   1.586   3.671
    2MOL1    Cl  796   3.669   1.826   3.613
    2MOL1     H  797   3.739   1.745   3.823
    2MOL1    Cl  798   1.471   2.235   3.030
    2MOL1     C  799   1.439   2.409   3.020
    2MOL1    Cl  800   1.583   2.496   2.963
    2MOL1    Cl  801   1.301   2.441   2.914
    2MOL1     H  802   1.415   2.445   3.120
    2MOL1    Cl  803   0.848   4.761   4.983
    2MOL1     C  804   0.804   4.597   5.032
    2MOL1    Cl  805   0.887   4.552   5.181
    2MOL1    Cl  806   0.628   4.583   5.051
    2MOL1     H  807   0.835   4.528   4.953
    2MOL1    Cl  808   4.818   4.881   0.084
    2MOL1     C  809   4.751   4.741   0.169
    2MOL1    Cl  810   4.804   4.739   0.338
    2MOL1    Cl  811   4.574   4.741   0.159
    2MOL1     H  812   4.788   4.650   0.121
    2MOL1    Cl  813   0.774   1.398   0.929
    2MOL1     C  814   0.926   1.488   0.925
    2MOL1    Cl  815   1.032   1.426   0.796
    2MOL1    Cl  816   0.896   1.661   0.902
    2MOL1     H  817   0.977   1.475   1.020
    2MOL1    Cl  818   2.537   0.222   3.465
    2MOL1     C  819   2.473   0.384   3.495
    2MOL1    Cl  820   2.335   0.377   3.606
    2MOL1    Cl  821   2.599   0.491   3.559
    2MOL1     H  822   2.438   0.426   3.400
    2MOL1    Cl  823   0.448   1.460   3.214
    2MOL1     C  824   0.566   1.566   3.294
    2MOL1    Cl  825   0.492   1.646   3.434
    2MOL1    Cl  826   0.709   1.474   3.344
    2MOL1     H  827   0.597   1.643   3.223
    2MOL1    Cl  828   0.292   4.279   5.201
    2MOL1     C  829   0.282   4.354   5.041
    2MOL1    Cl  830   0.131   4.308   4.960
    2MOL1    Cl  831   0.293   4.531   5.054
    2MOL1     H  832   0.366   4.319   4.981
    2MOL1    Cl  833   4.402   1.266   2.226
    2MOL1     C  834   4.336   1.430   2.210
    2MOL1    Cl  835   4.176   1.440   2.287
    2MOL1    Cl  836   4.447   1.549   2.281
    2MOL1     H  837   4.325   1.452   2.104
    2MOL1    Cl  838   1.576   0.644   1.954
    2MOL1     C  839   1.497   0.662   1.797
    2MOL1    Cl  840   1.495   0.507   1.710
    2MOL1    Cl  841   1.332   0.724   1.817
    2MOL1     H  842   1.554   0.734   1.737
    2MOL1    Cl  843   1.945   1.791   3.523
    2MOL1     C  844   2.013   1.954   3.516
    2MOL1    Cl  845   2.056   2.011   3.678
    2MOL1    Cl  846   2.154   1.959   3.409
    2MOL1     H  847   1.937   2.021   3.475
    2MOL1    Cl  848   2.479   3.503   3.738
    2MOL1     C  849   2.627   3.575   3.801
    2MOL1    Cl  850   2.630   3.750   3.770
    2MOL1    Cl  851   2.643   3.542   3.975
    2MOL1     H  852   2.712   3.530   3.750
    2MOL1    Cl  853   0.894   1.558   3.771
    2MOL1     C  854   0.908   1.383   3.747
    2MOL1    Cl  855   0.781   1.324   3.639
    2MOL1    Cl  856   1.068   1.342   3.682
    2MOL1     H  857   0.896   1.334   3.844
    2MOL1    Cl  858   0.620   4.543   1.801
    2MOL1     C  859   0.736   4.435   1.880
    2MOL1    Cl  860   0.756   4.480   2.050
    2MOL1    Cl  861   0.685   4.266   1.866
    2MOL1     H  862   0.833   4.446   1.830
    2MOL1    Cl  863   3.642   4.009   2.505
    2MOL1     C  864   3.670   4.172   2.569
    2MOL1    Cl  865   3.572   4.291   2.482
    2MOL1    Cl  866   3.636   4.178   2.743
    2MOL1     H  867   3.776   4.197   2.554
    2MOL1    Cl  868   0.814   2.500   3.440
    2MOL1     C  869   0.693   2.560   3.555
    2MOL1    Cl  870   0.574   2.662   3.473
    2MOL1    Cl  871   0.614   2.426   3.638
    2MOL1     H  872   0.745   2.621   3.630
    2MOL1    Cl  873   1.780   4.209   1.711
    2MOL1     C  874   1.868   4.115   1.833
    2MOL1    Cl  875   1.863   3.942   1.795
    2MOL1    Cl  876   2.036   4.172   1.846
    2MOL1     H  877   1.819   4.131   1.930
    2MOL1    Cl  878   1.832   1.302   2.706
    2MOL1     C  879   1.690   1.407   2.711
    2MOL1    Cl  880   1.715   1.552   2.612
    2MOL1    Cl  881   1.546   1.319   2.657
    2MOL1     H  882   1.674   1.439   2.815
    2MOL1    Cl  883   4.069   0.009   4.125
    2MOL1     C  884   3.947   0.112   4.050
    2MOL1    Cl  885   4.023   0.249   3.967
    2MOL1    Cl  886   3.847   0.019   3.937
    2MOL1     H  887   3.882   0.151   4.129
    2MOL1    Cl  888   0.032   4.570   4.492
    2MOL1     C  889   0.169   4.558   4.603
    2MOL1    Cl  890   0.141   4.432   4.725
    2MOL1    Cl  891   0.319   4.526   4.514
    2MOL1     H  892   0.180   4.654   4.655
    2MOL1    Cl  893   0.947   1.694   0.689
    2MOL1     C  894   1.064   1.826   0.707
    2MOL1    Cl  895   1.011   1.939   0.832
    2MOL1    Cl  896   1.225   1.762   0.744
    2MOL1     H  897   1.069   1.880   0.612
    2MOL1    Cl  898   2.880   2.672   0.407
    2MOL1     C  899   2.725   2.714   0.332
    2MOL1    Cl  900   2.743   2.857   0.229
    2MOL1    Cl  901   2.663   2.577   0.238
    2MOL1     H  902   2.654   2.737   0.411
    2MOL1    Cl  903   3.522   1.585   3.332
    2MOL1     C  904   3.631   1.446   3.348
    2MOL1    Cl  905   3.747   1.472   3.479
    2MOL1    Cl  906   3.538   1.298   3.376
    2MOL1     H  907   3.686   1.435   3.254
    2MOL1    Cl  908   3.387   0.323   2.040
    2MOL1     C  909   3.531   0.293   1.942
    2MOL1    Cl  910   3.674   0.274   2.046
    2MOL1    Cl  911   3.509   0.149   1.841
    2MOL1     H  912   3.548   0.379   1.876
    2MOL1    Cl  913   3.974   2.616   1.510
    2MOL1     C  914   4.124   2.710   1.494
    2MOL1    Cl  915   4.241   2.662   1.618
    2MOL1    Cl  916   4.193   2.689   1.332
    2MOL1     H  917   4.100   2.815   1.508
    2MOL1    Cl  918   2.849   4.194   2.793
    2MOL1     C  919   2.975   4.271   2.695
    2MOL1    Cl  920   3.100   4.153   2.652
    2MOL1    Cl  921   2.905   4.343   2.549
    2MOL1     H  922   3.021   4.350   2.754
    2MOL1    Cl  923   4.593   1.083   2.865
    2MOL1     C  924   4.440   1.112   2.781
    2MOL1    Cl  925   4.459   1.242   2.661
    2MOL1    Cl  926   4.383   0.963   2.703
    2MOL1     H  927   4.366   1.143   2.854
    2MOL1    Cl  928   1.084   2.037   4.830
    2MOL1     C  929   1.118   2.103   4.991
    2MOL1    Cl  930   1.259   2.023   5.062
    2MOL1    Cl  931   1.143   2.278   4.983
    2MOL1     H  932   1.031   2.083   5.055
    2MOL1    Cl  933   2.424   4.608   4.483
    2MOL1     C  934   2.370   4.680   4.635
    2MOL1    Cl  935   2.399   4.855   4.634
    2MOL1    Cl  936   2.199   4.645   4.663
    2MOL1     H  937   2.428   4.636   4.716
    2MOL1    Cl  938   2.492   5.145   5.042
    2MOL1     C  939   2.334   5.082   5.092
    2MOL1    Cl  940   2.260   4.988   4.962
    2MOL1    Cl  941   2.350   4.984   5.239
    2MOL1     H  942   2.269   5.167   5.115
    2MOL1    Cl  943   2.033   1.167   2.865
    2MOL1     C  944   2.074   1.291   2.984
    2MOL1    Cl  945   2.154   1.219   3.125
    2MOL1    Cl  946   2.176   1.416   2.911
    2MOL1     H  947   1.981   1.338   3.018
    2MOL1    Cl  948   1.972   2.224   4.997
    2MOL1     C  949   1.934   2.234   5.169
    2MOL1    Cl  950   1.937   2.402   5.225
    2MOL1    Cl  951   1.775   2.161   5.202
    2MOL1     H  952   2.009   2.178   5.225
    2MOL1    Cl  953   2.419   1.726   1.932
    2MOL1     C  954   2.292   1.818   1.849
    2MOL1    Cl  955   2.348   1.871   1.690
    2MOL1    Cl  956   2.145   1.720   1.834
    2MOL1     H  957   2.269   1.906   1.909
    2MOL1    Cl  958   2.871   2.616   0.749
    2MOL1     C  959   2.737   2.728   0.777
    2MOL1    Cl  960   2.613   2.653   0.879
    2MOL1    Cl  961   2.796   2.878   0.850
    2MOL1     H  962   2.692   2.753   0.680
    2MOL1    Cl  963   3.004   1.996   2.036
    2MOL1     C  964   3.106   1.852   2.040
    2MOL1    Cl  965   3.257   1.884   2.128
    2MOL1    Cl  966   3.020   1.716   2.113
    2MOL1     H  967   3.132   1.825   1.937
    2MOL1    Cl  968   4.432   4.420   2.856
    2MOL1     C  969   4.583   4.497   2.805
    2MOL1    Cl  970   4.599   4.491   2.628
    2MOL1    Cl  971   4.590   4.664   2.862
    2MOL1     H  972   4.666   4.442   2.849
    2MOL1    Cl  973   3.405   0.528   5.007
    2MOL1     C  974   3.271   0.475   4.904
    2MOL1    Cl  975   3.248   0.587   4.769
    2MOL1    Cl  976   3.300   0.311   4.845
    2MOL1     H  977   3.180   0.474   4.964
    2MOL1    Cl  978   3.979   4.044   3.980
    2MOL1     C  979   3.965   4.013   4.153
    2MOL1    Cl  980   3.826   3.908   4.187
    2MOL1    Cl  981   4.114   3.941   4.216
    2MOL1     H  982   3.949   4.108   4.204
    2MOL1    Cl  983   1.962   1.152   2.677
    2MOL1     C  984   2.066   1.295   2.684
    2MOL1    Cl  985   1.988   1.424   2.778
    2MOL1    Cl  986   2.224   1.254   2.754
    2MOL1     H  987   2.082   1.332   2.583
    2MOL1    Cl  988   2.817   0.518   0.049
    2MOL1     C  989   2.666   0.480   0.134
    2MOL1    Cl  990   2.684   0.333   0.232
    2MOL1    Cl  991   2.615   0.616   0.234
    2MOL1     H  992   2.588   0.461   0.059
    2MOL1    Cl  993   2.289   2.976   2.091
    2MOL1     C  994   2.357   2.939   2.250
    2MOL1    Cl  995   2.447   3.079   2.313
    2MOL1    Cl  996   2.230   2.892   2.364
    2MOL1     H  997   2.426   2.856   2.240
    2MOL1    Cl  998   0.971   4.883   1.556
    2MOL1     C  999   1.079   5.023   1.573
    2MOL1    Cl 1000   0.986   5.169   1.612
    2MOL1    Cl 1001   1.202   4.992   1.696
    2MOL1     H 1002   1.130   5.039   1.477
    2MOL1    Cl 1003   4.306   2.438   4.548
    2MOL1     C 1004   4.300   2.332   4.406
    2MOL1    Cl 1005   4.175   2.208   4.426
    2MOL1    Cl 1006   4.272   2.427   4.259
    2MOL1     H 1007   4.397   2.282   4.396
    2MOL1    Cl 1008   1.942   4.946   5.194
    2MOL1     C 1009   1.927   5.119   5.161
    2MOL1    Cl 1010   1.966   5.214   5.305
    2MOL1    Cl 1011   2.032   5.166   5.025
    2MOL1     H 1012   1.824   5.140   5.132
    2MOL1    Cl 1013   3.481   4.050   0.604
    2MOL1     C 1014   3.432   3.899   0.682
    2MOL1    Cl 1015   3.558   3.844   0.794
    2MOL1    Cl 1016   3.278   3.920   0.766
    2MOL1     H 1017   3.419   3.823   0.605
    2MOL1    Cl 1018   4.724   1.133   1.123
    2MOL1     C 1019   4.646   0.978   1.088
    2MOL1    Cl 1020   4.556   0.987   0.935
    2MOL1    Cl 1021   4.766   0.848   1.082
    2MOL1     H 1022   4.575   0.956   1.168
    2MOL1    Cl 1023   4.203   2.038   1.903
    2MOL1     C 1024   4.190   1.886   1.992
    2MOL1    Cl 1025   4.031   1.872   2.069
    2MOL1    Cl 1026   4.218   1.748   1.884
    2MOL1     H 1027   4.267   1.884   2.069
    2MOL1    Cl 1028   4.007   1.621   0.056
    2MOL1     C 1029   4.139   1.728   0.107
    2MOL1    Cl 1030   4.096   1.898   0.079
    2MOL1    Cl 1031   4.178   1.701   0.278
    2MOL1     H 1032   4.227   1.705   0.048
    2MOL1    Cl 1033   0.009   0.189   4.377
    2MOL1     C 1034   0.143   0.099   4.450
    2MOL1    Cl 1035   0.261   0.052   4.326
    2MOL1    Cl 1036   0.221   0.195   4.576
    2MOL1     H 1037   0.103   0.008   4.495
    2MOL1    Cl 1038   3.861   3.335   4.870
    2MOL1     C 1039   4.006   3.251   4.812
    2MOL1    Cl 1040   4.049   3.118   4.922
    2MOL1    Cl 1041   3.980   3.189   4.648
    2MOL1     H 1042   4.088   3.322   4.809
    2MOL1    Cl 1043   1.227   0.680   3.809
    2MOL1     C 1044   1.215   0.528   3.718
    2MOL1    Cl 1045   1.317   0.403   3.792
    2MOL1    Cl 1046   1.046   0.474   3.710
    2MOL1     H 1047   1.251   0.546   3.617
    2MOL1    Cl 1048   3.440   0.260   1.504
    2MOL1     C 1049   3.583   0.341   1.438
    2MOL1    Cl 1050   3.552   0.397   1.273
    2MOL1    Cl 1051   3.631   0.477   1.541
    2MOL1     H 1052   3.665   0.269   1.435
    2MOL1    Cl 1053   1.299   0.458   4.196
    2MOL1     C 1054   1.210   0.330   4.280
    2MOL1    Cl 1055   1.044   0.320   4.218
    2MOL1    Cl 1056   1.292   0.174   4.263
    2MOL1     H 1057   1.205   0.355   4.386
    2MOL1    Cl 1058   3.233   5.132   3.549
    2MOL1     C 1059   3.202   5.230   3.694
    2MOL1    Cl 1060   3.347   5.322   3.739
    2MOL1    Cl 1061   3.065   5.339   3.668
    2MOL1     H 1062   3.178   5.162   3.776
    2MOL1    Cl 1063   2.110   1.138   4.375
    2MOL1     C 1064   2.265   1.121   4.290
    2MOL1    Cl 1065   2.284   0.957   4.226
    2MOL1    Cl 1066   2.278   1.240   4.160
    2MOL1     H 1067   2.346   1.139   4.362
    2MOL1    Cl 1068   3.267   0.757   0.174
    2MOL1     C 1069   3.334   0.684   0.321
    2MOL1    Cl 1070   3.245   0.741   0.464
    2MOL1    Cl 1071   3.329   0.508   0.310
    2MOL1     H 1072   3.438   0.716   0.330
    2MOL1    Cl 1073   1.925   2.058   3.006
    2MOL1     C 1074   1.795   2.141   2.920
    2MOL1    Cl 1075   1.852   2.200   2.762
    2MOL1    Cl 1076   1.655   2.034   2.899
    2MOL1     H 1077   1.764   2.227   2.979
    2MOL1    Cl 1078   5.139   4.045   4.712
    2MOL1     C 1079   4.972   3.984   4.714
    2MOL1    Cl 1080   4.871   4.077   4.602
    2MOL1    Cl 1081   4.969   3.812   4.674
    2MOL1     H 1082   4.932   3.997   4.815
    2MOL1    Cl 1083   0.696   0.955   2.692
    2MOL1     C 1084   0.853   0.968   2.774
    2MOL1    Cl 1085   0.831   1.015   2.943
    2MOL1    Cl 1086   0.942   0.815   2.763
    2MOL1     H 1087   0.912   1.045   2.724
    2MOL1    Cl 1088   4.599   0.981   3.591
    2MOL1     C 1089   4.759   1.002   3.663
    2MOL1    Cl 1090   4.821   1.165   3.630
    2MOL1    Cl 1091   4.755   0.971   3.837
    2MOL1     H 1092   4.827   0.930   3.617
    2MOL1    Cl 1093   5.187   4.773   0.554
    2MOL1     C 1094   5.074   4.796   0.689
    2MOL1    Cl 1095   5.150   4.891   0.818
    2MOL1    Cl 1096   4.925   4.873   0.633
    2MOL1     H 1097   5.049   4.697   0.729
    2MOL1    Cl 1098   0.664   3.563   0.284
    2MOL1     C 1099   0.748   3.409   0.305
    2MOL1    Cl 1100   0.868   3.421   0.435
    2MOL1    Cl 1101   0.633   3.278   0.337
    2MOL1     H 1102   0.801   3.385   0.212
    2MOL1    Cl 1103   1.060   2.610   4.682
    2MOL1     C 1104   1.166   2.481   4.739
    2MOL1    Cl 1105   1.277   2.430   4.610
    2MOL1    Cl 1106   1.257   2.534   4.882
    2MOL1     H 1107   1.104   2.396   4.767
    2MOL1    Cl 1108   1.542   3.999   0.211
    2MOL1     C 1109   1.615   4.128   0.114
    2MOL1    Cl 1110   1.733   4.061   0.000
    2MOL1    Cl 1111   1.490   4.220   0.028
    2MOL1     H 1112   1.667   4.197   0.181
    2MOL1    Cl 1113   0.756   3.434   0.745
    2MOL1     C 1114   0.727   3.261   0.723
    2MOL1    Cl 1115   0.578   3.234   0.630
    2MOL1    Cl 1116   0.865   3.184   0.642
    2MOL1     H 1117   0.715   3.215   0.821
    2MOL1    Cl 1118   4.100   1.563   2.588
    2MOL1     C 1119   4.260   1.638   2.600
    2MOL1    Cl 1120   4.272   1.736   2.747
    2MOL1    Cl 1121   4.387   1.514   2.597
    2MOL1     H 1122   4.274   1.703   2.513
    2MOL1    Cl 1123   2.056   0.744   4.455
    2MOL1     C 1124   2.127   0.589   4.408
    2MOL1    Cl 1125   2.049   0.526   4.262
    2MOL1    Cl 1126   2.302   0.605   4.383
    2MOL1     H 1127   2.111   0.517   4.489
    2MOL1    Cl 1128   0.345   0.020   2.610
    2MOL1     C 1129   0.460   0.152   2.586
    2MOL1    Cl 1130   0.605   0.094   2.502
    2MOL1    Cl 1131   0.385   0.285   2.496
    2MOL1     H 1132   0.490   0.189   2.685
    2MOL1    Cl 1133   1.940   4.486   4.615
    2MOL1     C 1134   1.894   4.579   4.471
    2MOL1    Cl 1135   1.719   4.608   4.470
    2MOL1    Cl 1136   1.982   4.732   4.465
    2MOL1     H 1137   1.920   4.520   4.383
    2MOL1    Cl 1138   4.261   4.456   1.675
    2MOL1     C 1139   4.206   4.606   1.599
    2MOL1    Cl 1140   4.118   4.573   1.449
    2MOL1    Cl 1141   4.106   4.700   1.711
    2MOL1     H 1142   4.294   4.666   1.574
    2MOL1    Cl 1143   1.107   2.398   0.629
    2MOL1     C 1144   1.138   2.572   0.637
    2MOL1    Cl 1145   1.018   2.662   0.541
    2MOL1    Cl 1146   1.136   2.628   0.805
    2MOL1     H 1147   1.237   2.592   0.595
    2MOL1    Cl 1148   1.296   1.064   4.186
    2MOL1     C 1149   1.372   0.956   4.305
    2MOL1    Cl 1150   1.329   1.006   4.470
    2MOL1    Cl 1151   1.323   0.788   4.277
    2MOL1     H 1152   1.480   0.963   4.294
    2MOL1    Cl 1153   1.983   1.397   1.014
    2MOL1     C 1154   1.921   1.514   0.897
    2MOL1    Cl 1155   2.033   1.650   0.879
    2MOL1    Cl 1156   1.892   1.436   0.740
    2MOL1     H 1157   1.825   1.553   0.934
    2MOL1    Cl 1158   1.375   4.752   1.467
    2MOL1     C 1159   1.247   4.656   1.392
    2MOL1    Cl 1160   1.112   4.633   1.505
    2MOL1    Cl 1161   1.191   4.733   1.242
    2MOL1     H 1162   1.288   4.558   1.367
    2MOL1    Cl 1163   5.073   2.682   2.726
    2MOL1     C 1164   5.089   2.771   2.574
    2MOL1    Cl 1165   5.232   2.876   2.578
    2MOL1    Cl 1166   5.098   2.659   2.437
    2MOL1     H 1167   5.001   2.834   2.561
    2MOL1    Cl 1168   0.997   2.363   0.215
    2MOL1     C 1169   0.902   2.493   0.144
    2MOL1    Cl 1170   0.815   2.436   0.000
    2MOL1    Cl 1171   0.788   2.559   0.263
    2MOL1     H 1172   0.970   2.573   0.114
    2MOL1    Cl 1173   3.483   4.643   3.293
    2MOL1     C 1174   3.615   4.706   3.393
    2MOL1    Cl 1175   3.616   4.628   3.552
    2MOL1    Cl 1176   3.771   4.684   3.311
    2MOL1     H 1177   3.599   4.813   3.407
    2MOL1    Cl 1178   2.066   0.936   2.522
    2MOL1     C 1179   2.205   1.021   2.454
    2MOL1    Cl 1180   2.200   1.193   2.497
    2MOL1    Cl 1181   2.356   0.948   2.510
    2MOL1     H 1182   2.201   1.013   2.345
    2MOL1    Cl 1183   0.744   4.667   4.642
    2MOL1     C 1184   0.680   4.584   4.499
    2MOL1    Cl 1185   0.808   4.559   4.379
    2MOL1    Cl 1186   0.606   4.430   4.544
    2MOL1     H 1187   0.603   4.648   4.454
    2MOL1    Cl 1188   2.060   4.995   3.840
    2MOL1     C 1189   2.063   4.843   3.931
    2MOL1    Cl 1190   1.968   4.857   4.080
    2MOL1    Cl 1191   2.004   4.709   3.831
    2MOL1     H 1192   2.167   4.822   3.959
    2MOL1    Cl 1193   1.029   0.305   1.366
    2MOL1     C 1194   1.182   0.378   1.314
    2MOL1    Cl 1195   1.258   0.279   1.188
    2MOL1    Cl 1196   1.155   0.543   1.256
    2MOL1     H 1197   1.249   0.382   1.400
    2MOL1    Cl 1198   2.616   3.096   1.150
    2MOL1     C 1199   2.441   3.115   1.158
    2MOL1    Cl 1200   2.364   2.964   1.211
    2MOL1    Cl 1201   2.397   3.248   1.266
    2MOL1     H 1202   2.404   3.139   1.058
    2MOL1    Cl 1203   0.842   3.646   1.131
    2MOL1     C 1204   1.018   3.632   1.109
    2MOL1    Cl 1205   1.073   3.468   1.149
    2MOL1    Cl 1206   1.063   3.673   0.942
    2MOL1     H 1207   1.067   3.702   1.176
    2MOL1    Cl 1208   3.863   2.303   1.888
    2MOL1     C 1209   3.821   2.373   2.045
    2MOL1    Cl 1210   3.957   2.359   2.158
    2MOL1    Cl 1211   3.774   2.543   2.027
    2MOL1     H 1212   3.736   2.318   2.086
    2MOL1    Cl 1213   2.615   2.383   1.250
    2MOL1     C 1214   2.785   2.404   1.204
    2MOL1    Cl 1215   2.833   2.573   1.220
    2MOL1    Cl 1216   2.889   2.300   1.304
    2MOL1     H 1217   2.797   2.374   1.100
    2MOL1    Cl 1218   2.892   3.419   4.226
    2MOL1     C 1219   2.748   3.506   4.281
    2MOL1    Cl 1220   2.613   3.394   4.304
    2MOL1    Cl 1221   2.782   3.594   4.431
    2MOL1     H 1222   2.720   3.579   4.204
    2MOL1    Cl 1223   1.191   2.736   4.190
    2MOL1     C 1224   1.170   2.910   4.162
    2MOL1    Cl 1225   1.292   2.970   4.049
    2MOL1    Cl 1226   1.007   2.944   4.102
    2MOL1     H 1227   1.183   2.961   4.258
    2MOL1    Cl 1228   1.558   2.802   3.539
    2MOL1     C 1229   1.553   2.938   3.425
    2MOL1    Cl 1230   1.398   2.942   3.340
    2MOL1    Cl 1231   1.582   3.091   3.510
    2MOL1     H 1232   1.632   2.924   3.351
    2MOL1    Cl 1233   3.806   4.717   3.781
    2MOL1     C 1234   3.877   4.781   3.930
    2MOL1    Cl 1235   3.818   4.945   3.963
    2MOL1    Cl 1236   3.841   4.673   4.067
    2MOL1     H 1237   3.985   4.785   3.917
    2MOL1    Cl 1238   0.265   3.072   0.491
    2MOL1     C 1239   0.161   3.215   0.512
    2MOL1    Cl 1240   0.181   3.282   0.675
    2MOL1    Cl 1241   0.198   3.337   0.389
    2MOL1     H 1242   0.057   3.184   0.500
    2MOL1    Cl 1243   1.638   2.292   5.003
    2MOL1     C 1244   1.501   2.300   5.116
    2MOL1    Cl 1245   1.353   2.240   5.038
    2MOL1    Cl 1246   1.535   2.207   5.263
    2MOL1     H 1247   1.485   2.404   5.144
    2MOL1    Cl 1248   0.394   1.792   3.152
    2MOL1     C 1249   0.303   1.925   3.078
    2MOL1    Cl 1250   0.132   1.881   3.059
    2MOL1    Cl 1251   0.319   2.072   3.175
    2MOL1     H 1252   0.345   1.944   2.979
    2MOL1    Cl 1253   3.770   0.164   5.054
    2MOL1     C 1254   3.607   0.176   4.987
    2MOL1    Cl 1255   3.560   0.346   4.967
    2MOL1    Cl 1256   3.596   0.090   4.832
    2MOL1     H 1257   3.537   0.129   5.057
    2MOL1    Cl 1258   1.838   2.664   2.044
    2MOL1     C 1259   1.765   2.801   2.129
    2MOL1    Cl 1260   1.632   2.746   2.233
    2MOL1    Cl 1261   1.886   2.888   2.225
    2MOL1     H 1262   1.724   2.870   2.055
    2MOL1    Cl 1263   4.376   0.664   4.278
    2MOL1     C 1264   4.203   0.631   4.272
    2MOL1    Cl 1265   4.127   0.716   4.137
    2MOL1    Cl 1266   4.173   0.457   4.261
    2MOL1     H 1267   4.158   0.668   4.365
    2MOL1    Cl 1268   0.340   3.975   1.492
    2MOL1     C 1269   0.282   3.824   1.566
    2MOL1    Cl 1270   0.127   3.851   1.647
    2MOL1    Cl 1271   0.268   3.697   1.444
    2MOL1     H 1272   0.355   3.792   1.640
    2MOL1    Cl 1273   0.281   1.451   0.897
    2MOL1     C 1274   0.265   1.627   0.913
    2MOL1    Cl 1275   0.107   1.680   0.855
    2MOL1    Cl 1276   0.291   1.677   1.081
    2MOL1     H 1277   0.342   1.674   0.851
    2MOL1    Cl 1278   3.859   2.582   2.756
    2MOL1     C 1279   3.745   2.539   2.884
    2MOL1    Cl 1280   3.675   2.685   2.957
    2MOL1    Cl 1281   3.617   2.434   2.821
    2MOL1     H 1282   3.799   2.484   2.962
    2MOL1    Cl 1283   0.442   4.975   2.841
    2MOL1     C 1284   0.316   4.850   2.836
    2MOL1    Cl 1285   0.378   4.703   2.759
    2MOL1    Cl 1286   0.257   4.815   2.999
    2MOL1     H 1287   0.233   4.888   2.776
    2MOL1    Cl 1288   0.001   4.491   2.452
    2MOL1     C 1289   0.061   4.645   2.516
    2MOL1    Cl 1290   0.238   4.646   2.521
    2MOL1    Cl 1291   0.000   4.781   2.419
    2MOL1     H 1292   0.024   4.656   2.618
    2MOL1    Cl 1293   0.770   2.677   2.349
    2MOL1     C 1294   0.607   2.611   2.364
    2MOL1    Cl 1295   0.487   2.741   2.379
    2MOL1    Cl 1296   0.569   2.506   2.226
    2MOL1     H 1297   0.603   2.550   2.455
    2MOL1    Cl 1298   0.641   3.940   2.733
    2MOL1     C 1299   0.597   4.026   2.882
    2MOL1    Cl 1300   0.736   4.114   2.947
    2MOL1    Cl 1301   0.461   4.136   2.852
    2MOL1     H 1302   0.565   3.952   2.956
    2MOL1    Cl 1303   2.235   0.858   3.942
    2MOL1     C 1304   2.397   0.798   3.984
    2MOL1    Cl 1305   2.405   0.622   3.968
    2MOL1    Cl 1306   2.520   0.876   3.882
    2MOL1     H 1307   2.417   0.825   4.088
    2MOL1    Cl 1308   1.634   1.959   2.233
    2MOL1     C 1309   1.622   1.857   2.089
    2MOL1    Cl 1310   1.522   1.935   1.965
    2MOL1    Cl 1311   1.783   1.821   2.025
    2MOL1     H 1312   1.575   1.763   2.117
    2MOL1    Cl 1313   1.052   3.155   2.414
    2MOL1     C 1314   0.914   3.257   2.371
    2MOL1    Cl 1315   0.924   3.309   2.202
    2MOL1    Cl 1316   0.762   3.170   2.401
    2MOL1     H 1317   0.916   3.345   2.435
    2MOL1    Cl 1318   4.701   3.756   2.973
    2MOL1     C 1319   4.777   3.705   3.124
    2MOL1    Cl 1320   4.919   3.804   3.159
    2MOL1    Cl 1321   4.661   3.713   3.258
    2MOL1     H 1322   4.809   3.601   3.113
    2MOL1    Cl 1323   4.043   0.983   4.623
    2MOL1     C 1324   4.174   1.074   4.545
    2MOL1    Cl 1325   4.284   0.964   4.460
    2MOL1    Cl 1326   4.108   1.194   4.433
    2MOL1     H 1327   4.230   1.126   4.622
    2MOL1    Cl 1328   0.001   3.159   4.619
    2MOL1     C 1329   0.154   3.115   4.695
    2MOL1    Cl 1330   0.196   2.947   4.658
    2MOL1    Cl 1331   0.283   3.224   4.643
    2MOL1     H 1332   0.143   3.124   4.804
    2MOL1    Cl 1333   0.979   1.855   0.186
    2MOL1     C 1334   1.128   1.861   0.282
    2MOL1    Cl 1335   1.266   1.808   0.184
    2MOL1    Cl 1336   1.154   2.024   0.345
    2MOL1     H 1337   1.117   1.792   0.366
    2MOL1    Cl 1338   1.776   2.212   1.790
    2MOL1     C 1339   1.685   2.234   1.640
    2MOL1    Cl 1340   1.732   2.111   1.521
    2MOL1    Cl 1341   1.511   2.227   1.671
    2MOL1     H 1342   1.709   2.332   1.599
    2MOL1    Cl 1343   2.631   4.470   3.704
    2MOL1     C 1344   2.613   4.445   3.879
    2MOL1    Cl 1345   2.462   4.518   3.936
    2MOL1    Cl 1346   2.617   4.272   3.917
    2MOL1     H 1347   2.696   4.494   3.929
    2MOL1    Cl 1348   3.261   0.494   1.940
    2MOL1     C 1349   3.249   0.549   1.771
    2MOL1    Cl 1350   3.377   0.666   1.735
    2MOL1    Cl 1351   3.257   0.411   1.661
    2MOL1     H 1352   3.153   0.598   1.758
    2MOL1    Cl 1353   2.502   4.619   4.941
    2MOL1     C 1354   2.474   4.784   4.885
    2MOL1    Cl 1355   2.584   4.824   4.751
    2MOL1    Cl 1356   2.306   4.806   4.834
    2MOL1     H 1357   2.494   4.853   4.967
    2MOL1    Cl 1358   2.898   1.908   3.445
    2MOL1     C 1359   2.747   1.966   3.516
    2MOL1    Cl 1360   2.710   1.878   3.665
    2MOL1    Cl 1361   2.756   2.140   3.548
    2MOL1     H 1362   2.666   1.948   3.445
    2MOL1    Cl 1363   0.845   1.720   5.150
    2MOL1     C 1364   0.841   1.809   4.997
    2MOL1    Cl 1365   0.972   1.755   4.891
    2MOL1    Cl 1366   0.684   1.790   4.917
    2MOL1     H 1367   0.856   1.915   5.019
    2MOL1    Cl 1368   3.009   1.191   3.035
    2MOL1     C 1369   3.150   1.145   3.131
    2MOL1    Cl 1370   3.300   1.175   3.041
    2MOL1    Cl 1371   3.152   1.232   3.285
    2MOL1     H 1372   3.144   1.038   3.153
    2MOL1    Cl 1373   3.817   0.658   1.595
    2MOL1     C 1374   3.743   0.796   1.678
    2MOL1    Cl 1375   3.782   0.947   1.595
    2MOL1    Cl 1376   3.567   0.774   1.689
    2MOL1     H 1377   3.783   0.801   1.779
    2MOL1    Cl 1378   0.602   0.350   0.451
    2MOL1     C 1379   0.527   0.397   0.605
    2MOL1    Cl 1380   0.636   0.361   0.740
    2MOL1    Cl 1381   0.484   0.568   0.603
    2MOL1     H 1382   0.436   0.338   0.618
    2MOL1    Cl 1383   0.817   3.836   3.906
    2MOL1     C 1384   0.863   3.849   3.736
    2MOL1    Cl 1385   1.027   3.916   3.721
    2MOL1    Cl 1386   0.853   3.691   3.656
    2MOL1     H 1387   0.794   3.917   3.686
    2MOL1    Cl 1388   5.167   4.102   4.406
    2MOL1     C 1389   5.201   4.275   4.422
    2MOL1    Cl 1390   5.056   4.361   4.476
    2MOL1    Cl 1391   5.335   4.302   4.535
    2MOL1     H 1392   5.231   4.313   4.325
    2MOL1    Cl 1393   3.635   1.758   0.818
    2MOL1     C 1394   3.754   1.810   0.939
    2MOL1    Cl 1395   3.729   1.723   1.091
    2MOL1    Cl 1396   3.919   1.785   0.879
    2MOL1     H 1397   3.740   1.917   0.958
    2MOL1    Cl 1398   3.563   4.471   3.912
    2MOL1     C 1399   3.414   4.467   3.817
    2MOL1    Cl 1400   3.288   4.376   3.902
    2MOL1    Cl 1401   3.358   4.631   3.780
    2MOL1     H 1402   3.435   4.416   3.723
    2MOL1    Cl 1403   1.761   4.830   3.097
    2MOL1     C 1404   1.684   4.745   3.232
    2MOL1    Cl 1405   1.681   4.846   3.377
    2MOL1    Cl 1406   1.519   4.695   3.188
    2MOL1     H 1407   1.742   4.655   3.254
    2MOL1    Cl 1408   2.747   0.537   2.513
    2MOL1     C 1409   2.634   0.528   2.649
    2MOL1    Cl 1410   2.480   0.457   2.598
    2MOL1    Cl 1411   2.704   0.435   2.782
    2MOL1     H 1412   2.615   0.630   2.684
    2MOL1    Cl 1413   3.219   2.259   4.137
    2MOL1     C 1414   3.325   2.157   4.236
    2MOL1    Cl 1415   3.284   1.986   4.215
    2MOL1    Cl 1416   3.495   2.185   4.193
    2MOL1     H 1417   3.311   2.183   4.341
    2MOL1    Cl 1418   2.964   2.250   0.619
    2MOL1     C 1419   2.975   2.384   0.504
    2MOL1    Cl 1420   3.135   2.389   0.428
    2MOL1    Cl 1421   2.848   2.370   0.381
    2MOL1     H 1422   2.960   2.478   0.558
    2MOL1    Cl 1423   1.612   0.617   4.993
    2MOL1     C 1424   1.752   0.514   5.026
    2MOL1    Cl 1425   1.860   0.592   5.143
    2MOL1    Cl 1426   1.700   0.356   5.085
    2MOL1     H 1427   1.807   0.500   4.932
    2MOL1    Cl 1428   0.712   1.490   1.615
    2MOL1     C 1429   0.777   1.644   1.673
    2MOL1    Cl 1430   0.688   1.699   1.816
    2MOL1    Cl 1431   0.950   1.629   1.709
    2MOL1     H 1432   0.765   1.719   1.594
    2MOL1    Cl 1433   4.845   3.248   0.376
    2MOL1     C 1434   5.007   3.210   0.314
    2MOL1    Cl 1435   5.067   3.059   0.385
    2MOL1    Cl 1436   5.005   3.199   0.137
    2MOL1     H 1437   5.074   3.290   0.343
    2MOL1    Cl 1438   0.500   1.746   4.020
    2MOL1     C 1439   0.667   1.687   4.012
    2MOL1    Cl 1440   0.781   1.822   4.028
    2MOL1    Cl 1441   0.696   1.566   4.138
    2MOL1     H 1442   0.683   1.641   3.915
    2MOL1    Cl 1443   0.973   0.656   0.565
    2MOL1     C 1444   0.931   0.774   0.439
    2MOL1    Cl 1445   0.756   0.793   0.429
    2MOL1    Cl 1446   1.010   0.929   0.471
    2MOL1     H 1447   0.968   0.736   0.343
    2MOL1    Cl 1448   3.644   4.864   4.950
    2MOL1     C 1449   3.546   5.011   4.952
    2MOL1    Cl 1450   3.594   5.121   4.822
    2MOL1    Cl 1451   3.374   4.971   4.938
    2MOL1     H 1452   3.561   5.062   5.047
    2MOL1    Cl 1453   3.054   3.895   3.784
    2MOL1     C 1454   3.199   3.838   3.699
    2MOL1    Cl 1455   3.336   3.827   3.811
    2MOL1    Cl 1456   3.168   3.681   3.622
    2MOL1     H 1457   3.224   3.910   3.621
    2MOL1    Cl 1458   2.902   4.133   3.279
    2MOL1     C 1459   2.799   4.276   3.267
    2MOL1    Cl 1460   2.841   4.393   3.393
    2MOL1    Cl 1461   2.814   4.350   3.106
    2MOL1     H 1462   2.695   4.246   3.281
    2MOL1    Cl 1463   3.616   1.410   2.863
    2MOL1     C 1464   3.514   1.336   2.739
    2MOL1    Cl 1465   3.398   1.224   2.812
    2MOL1    Cl 1466   3.430   1.461   2.646
    2MOL1     H 1467   3.578   1.280   2.670
    2MOL1    Cl 1468   4.653   2.222   5.190
    2MOL1     C 1469   4.588   2.090   5.092
    2MOL1    Cl 1470   4.677   1.940   5.122
    2MOL1    Cl 1471   4.415   2.068   5.125
    2MOL1     H 1472   4.599   2.117   4.987
    2MOL1    Cl 1473   3.229   2.209   0.699
    2MOL1     C 1474   3.202   2.288   0.855
    2MOL1    Cl 1475   3.323   2.235   0.974
    2MOL1    Cl 1476   3.206   2.464   0.838
    2MOL1     H 1477   3.104   2.259   0.892
    2MOL1    Cl 1478   4.791   4.830   1.481
    2MOL1     C 1479   4.615   4.810   1.493
    2MOL1    Cl 1480   4.575   4.673   1.598
    2MOL1    Cl 1481   4.540   4.959   1.554
    2MOL1     H 1482   4.576   4.791   1.393
    2MOL1    Cl 1483   4.547   0.618   3.319
    2MOL1     C 1484   4.693   0.712   3.287
    2MOL1    Cl 1485   4.652   0.872   3.223
    2MOL1    Cl 1486   4.792   0.727   3.433
    2MOL1     H 1487   4.752   0.659   3.211
    2MOL1    Cl 1488   3.531   2.377   0.428
    2MOL1     C 1489   3.569   2.204   0.426
    2MOL1    Cl 1490   3.689   2.165   0.550
    2MOL1    Cl 1491   3.422   2.108   0.449
    2MOL1     H 1492   3.611   2.180   0.328
    2MOL1    Cl 1493   1.865   0.274   2.806
    2MOL1     C 1494   1.756   0.156   2.732
    2MOL1    Cl 1495   1.800   0.129   2.562
    2MOL1    Cl 1496   1.760   0.003   2.822
    2MOL1     H 1497   1.655   0.195   2.735
    2MOL1    Cl 1498   1.344   4.557   5.203
    2MOL1     C 1499   1.260   4.686   5.115
    2MOL1    Cl 1500   1.127   4.620   5.020
    2MOL1    Cl 1501   1.201   4.810   5.227
    2MOL1     H 1502   1.332   4.733   5.047
    2MOL1    Cl 1503   4.985   0.174   4.486
    2MOL1     C 1504   5.115   0.290   4.519
    2MOL1    Cl 1505   5.220   0.231   4.649
    2MOL1    Cl 1506   5.210   0.320   4.372
    2MOL1     H 1507   5.070   0.384   4.550
    2MOL1    Cl 1508   4.237   4.934   0.341
    2MOL1     C 1509   4.382   4.877   0.257
    2MOL1    Cl 1510   4.356   4.714   0.192
    2MOL1    Cl 1511   4.428   4.989   0.128
    2MOL1     H 1512   4.464   4.872   0.330
    2MOL1    Cl 1513   0.704   2.580   4.140
    2MOL1     C 1514   0.611   2.649   4.006
    2MOL1    Cl 1515   0.662   2.579   3.852
    2MOL1    Cl 1516   0.437   2.624   4.031
    2MOL1     H 1517   0.630   2.757   4.002
    2MOL1    Cl 1518   4.114   1.344   1.498
    2MOL1     C 1519   4.063   1.362   1.667
    2MOL1    Cl 1520   3.927   1.254   1.702
    2MOL1    Cl 1521   4.198   1.330   1.776
    2MOL1     H 1522   4.030   1.465   1.682
    2MOL1    Cl 1523   1.316   4.807   0.400
    2MOL1     C 1524   1.442   4.932   0.397
    2MOL1    Cl 1525   1.579   4.879   0.297
    2MOL1    Cl 1526   1.376   5.085   0.337
    2MOL1     H 1527   1.477   4.947   0.499
    2MOL1    Cl 1528   3.491   1.181   4.014
    2MOL1     C 1529   3.320   1.136   4.017
    2MOL1    Cl 1530   3.219   1.270   3.961
    2MOL1    Cl 1531   3.293   0.991   3.919
    2MOL1     H 1532   3.293   1.113   4.120
    2MOL1    Cl 1533   4.582   3.341   3.726
    2MOL1     C 1534   4.607   3.516   3.720
    2MOL1    Cl 1535   4.602   3.586   3.883
    2MOL1    Cl 1536   4.761   3.555   3.641
    2MOL1     H 1537   4.526   3.561   3.661
    2MOL1    Cl 1538   1.252   0.879   0.544
    2MOL1     C 1539   1.414   0.875   0.615
    2MOL1    Cl 1540   1.412   0.942   0.779
    2MOL1    Cl 1541   1.477   0.710   0.616
    2MOL1     H 1542   1.480   0.937   0.553
    2MOL1    Cl 1543   1.228   1.994   0.982
    2MOL1     C 1544   1.229   1.969   1.158
    2MOL1    Cl 1545   1.239   1.796   1.197
    2MOL1    Cl 1546   1.363   2.058   1.232
    2MOL1     H 1547   1.135   2.008   1.198
    2MOL1    Cl 1548   3.464   3.226   2.363
    2MOL1     C 1549   3.584   3.100   2.336
    2MOL1    Cl 1550   3.607   3.002   2.482
    2MOL1    Cl 1551   3.537   2.998   2.199
    2MOL1     H 1552   3.680   3.148   2.311
    2MOL1    Cl 1553   3.156   3.459   2.935
    2MOL1     C 1554   3.247   3.549   2.812
    2MOL1    Cl 1555   3.276   3.715   2.865
    2MOL1    Cl 1556   3.400   3.467   2.775
    2MOL1     H 1557   3.187   3.552   2.721
    2MOL1    Cl 1558   1.331   1.318   0.402
    2MOL1     C 1559   1.318   1.158   0.328
    2MOL1    Cl 1560   1.286   1.172   0.155
    2MOL1    Cl 1561   1.466   1.064   0.357
    2MOL1     H 1562   1.234   1.106   0.375
    2MOL1    Cl 1563   2.892   0.281   0.894
    2MOL1     C 1564   3.057   0.220   0.874
    2MOL1    Cl 1565   3.139   0.306   0.743
    2MOL1    Cl 1566   3.148   0.235   1.025
    2MOL1     H 1567   3.051   0.114   0.848
    2MOL1    Cl 1568   1.842   3.278   1.100
    2MOL1     C 1569   1.943   3.414   1.047
    2MOL1    Cl 1570   2.111   3.391   1.098
    2MOL1    Cl 1571   1.934   3.434   0.871
    2MOL1     H 1572   1.905   3.505   1.094
    2MOL1    Cl 1573   2.953   3.532   2.262
    2MOL1     C 1574   2.883   3.487   2.106
    2MOL1    Cl 1575   2.777   3.616   2.046
    2MOL1    Cl 1576   3.010   3.452   1.988
    2MOL1     H 1577   2.823   3.397   2.120
    2MOL1    Cl 1578   4.672   0.625   4.150
    2MOL1     C 1579   4.569   0.487   4.110
    2MOL1    Cl 1580   4.503   0.503   3.946
    2MOL1    Cl 1581   4.660   0.335   4.126
    2MOL1     H 1582   4.485   0.484   4.180
    2MOL1    Cl 1583   4.571   2.874   4.787
    2MOL1     C 1584   4.659   3.027   4.791
    2MOL1    Cl 1585   4.570   3.148   4.885
    2MOL1    Cl 1586   4.822   3.004   4.858
    2MOL1     H 1587   4.670   3.064   4.689
    2MOL1    Cl 1588   1.108   4.906   2.526
    2MOL1     C 1589   1.044   4.742   2.510
    2MOL1    Cl 1590   0.961   4.722   2.355
    2MOL1    Cl 1591   1.174   4.622   2.527
    2MOL1     H 1592   0.971   4.725   2.590
    2MOL1    Cl 1593   5.203   0.146   0.219
    2MOL1     C 1594   5.132   0.235   0.354
    2MOL1    Cl 1595   4.962   0.191   0.376
    2MOL1    Cl 1596   5.224   0.206   0.503
    2MOL1     H 1597   5.137   0.342   0.331
    2MOL1    Cl 1598   4.713   0.572   3.722
    2MOL1     C 1599   4.610   0.440   3.666
    2MOL1    Cl 1600   4.656   0.288   3.743
    2MOL1    Cl 1601   4.439   0.477   3.698
    2MOL1     H 1602   4.623   0.430   3.558
    2MOL1    Cl 1603   3.582   5.281   4.477
    2MOL1     C 1604   3.617   5.110   4.444
    2MOL1    Cl 1605   3.757   5.056   4.539
    2MOL1    Cl 1606   3.475   5.010   4.480
    2MOL1     H 1607   3.640   5.100   4.338
    2MOL1    Cl 1608   1.244   2.083   1.676
    2MOL1     C 1609   1.337   1.985   1.561
    2MOL1    Cl 1610   1.252   1.973   1.406
    2MOL1    Cl 1611   1.499   2.052   1.539
    2MOL1     H 1612   1.347   1.884   1.603
    2MOL1    Cl 1613   3.192   1.831   2.821
    2MOL1     C 1614   3.351   1.777   2.766
    2MOL1    Cl 1615   3.408   1.640   2.863
    2MOL1    Cl 1616   3.346   1.734   2.594
    2MOL1     H 1617   3.422   1.859   2.778
    2MOL1    Cl 1618   3.785   0.378   0.543
    2MOL1     C 1619   3.614   0.415   0.515
    2MOL1    Cl 1620   3.516   0.269   0.530
    2MOL1    Cl 1621   3.559   0.539   0.629
    2MOL1     H 1622   3.603   0.455   0.414
    2MOL1    Cl 1623   0.736   1.486   2.087
    2MOL1     C 1624   0.663   1.350   1.999
    2MOL1    Cl 1625   0.581   1.406   1.853
    2MOL1    Cl 1626   0.787   1.229   1.959
    2MOL1     H 1627   0.589   1.302   2.065
    2MOL1    Cl 1628   2.897   3.993   1.360
    2MOL1     C 1629   2.917   3.828   1.298
    2MOL1    Cl 1630   3.080   3.807   1.230
    2MOL1    Cl 1631   2.887   3.709   1.425
    2MOL1     H 1632   2.844   3.812   1.218
    2MOL1    Cl 1633   2.518   2.638   4.385
    2MOL1     C 1634   2.431   2.483   4.385
    2MOL1    Cl 1635   2.388   2.436   4.220
    2MOL1    Cl 1636   2.528   2.357   4.463
    2MOL1     H 1637   2.339   2.496   4.442
    2MOL1    Cl 1638   0.544   2.273   0.777
    2MOL1     C 1639   0.558   2.427   0.863
    2MOL1    Cl 1640   0.397   2.498   0.889
    2MOL1    Cl 1641   0.641   2.405   1.018
    2MOL1     H 1642   0.616   2.495   0.802
    2MOL1    Cl 1643   2.556   0.730   1.630
    2MOL1     C 1644   2.522   0.556   1.639
    2MOL1    Cl 1645   2.364   0.520   1.568
    2MOL1    Cl 1646   2.650   0.463   1.559
    2MOL1     H 1647   2.520   0.527   1.745
    2MOL1    Cl 1648   2.561   3.678   0.000
    2MOL1     C 1649   2.464   3.628   0.140
    2MOL1    Cl 1650   2.561   3.531   0.252
    2MOL1    Cl 1651   2.396   3.769   0.222
    2MOL1     H 1652   2.381   3.566   0.104
    2MOL1    Cl 1653   0.240   3.598   4.959
    2MOL1     C 1654   0.162   3.439   4.959
    2MOL1    Cl 1655   0.262   3.321   5.047
    2MOL1    Cl 1656   0.000   3.448   5.029
    2MOL1     H 1657   0.153   3.405   4.855
    2MOL1    Cl 1658   4.009   2.016   1.793
    2MOL1     C 1659   3.922   1.874   1.733
    2MOL1    Cl 1660   4.029   1.770   1.638
    2MOL1    Cl 1661   3.851   1.784   1.868
    2MOL1     H 1662   3.841   1.908   1.668
    2MOL1    Cl 1663   2.207   2.904   2.621
    2MOL1     C 1664   2.265   2.817   2.764
    2MOL1    Cl 1665   2.170   2.862   2.907
    2MOL1    Cl 1666   2.259   2.642   2.738
    2MOL1     H 1667   2.369   2.846   2.781
    2MOL1    Cl 1668   4.314   2.685   0.758
    2MOL1     C 1669   4.405   2.823   0.822
    2MOL1    Cl 1670   4.295   2.949   0.880
    2MOL1    Cl 1671   4.515   2.771   0.951
    2MOL1     H 1672   4.465   2.865   0.741
    2MOL1    Cl 1673   5.121   4.467   1.890
    2MOL1     C 1674   5.103   4.294   1.858
    2MOL1    Cl 1675   4.970   4.266   1.743
    2MOL1    Cl 1676   5.254   4.226   1.796
    2MOL1     H 1677   5.078   4.244   1.951
    2MOL1    Cl 1678   3.281   1.616   3.852
    2MOL1     C 1679   3.219   1.781   3.841
    2MOL1    Cl 1680   3.300   1.870   3.711
    2MOL1    Cl 1681   3.044   1.780   3.817
    2MOL1     H 1682   3.240   1.832   3.936
    2MOL1    Cl 1683   0.742   3.789   2.585
    2MOL1     C 1684   0.869   3.874   2.496
    2MOL1    Cl 1685   1.030   3.823   2.551
    2MOL1    Cl 1686   0.852   3.847   2.322
    2MOL1     H 1687   0.859   3.981   2.516
    2MOL1    Cl 1688   3.147   4.333   2.369
    2MOL1     C 1689   3.052   4.188   2.332
    2MOL1    Cl 1690   3.155   4.044   2.331
    2MOL1    Cl 1691   2.919   4.170   2.447
    2MOL1     H 1692   3.009   4.200   2.232
    2MOL1    Cl 1693   1.435   2.898   2.246
    2MOL1     C 1694   1.348   3.024   2.335
    2MOL1    Cl 1695   1.190   3.055   2.261
    2MOL1    Cl 1696   1.329   2.977   2.505
    2MOL1     H 1697   1.407   3.116   2.331
    2MOL1    Cl 1698   4.704   0.291   5.196
    2MOL1     C 1699   4.615   0.139   5.206
    2MOL1    Cl 1700   4.713   0.014   5.285
    2MOL1    Cl 1701   4.461   0.161   5.291
    2MOL1     H 1702   4.592   0.105   5.104
    2MOL1    Cl 1703   4.055   5.122   2.292
    2MOL1     C 1704   4.086   4.961   2.360
    2MOL1    Cl 1705   3.959   4.847   2.311
    2MOL1    Cl 1706   4.246   4.902   2.310
    2MOL1     H 1707   4.085   4.969   2.469
    2MOL1    Cl 1708   1.322   4.999   3.004
    2MOL1     C 1709   1.452   5.005   3.125
    2MOL1    Cl 1710   1.608   5.038   3.049
    2MOL1    Cl 1711   1.416   5.128   3.248
    2MOL1     H 1712   1.457   4.908   3.175
    2MOL1    Cl 1713   3.273   4.912   3.734
    2MOL1     C 1714   3.435   4.972   3.772
    2MOL1    Cl 1715   3.555   4.842   3.757
    2MOL1    Cl 1716   3.477   5.108   3.666
    2MOL1     H 1717   3.436   5.008   3.875
    2MOL1    Cl 1718   3.754   2.309   4.816
    2MOL1     C 1719   3.637   2.185   4.866
    2MOL1    Cl 1720   3.701   2.090   5.001
    2MOL1    Cl 1721   3.482   2.259   4.910
    2MOL1     H 1722   3.620   2.118   4.781
    2MOL1    Cl 1723   5.015   4.387   2.417
    2MOL1     C 1724   4.916   4.260   2.491
    2MOL1    Cl 1725   4.967   4.230   2.658
    2MOL1    Cl 1726   4.744   4.304   2.485
    2MOL1     H 1727   4.930   4.168   2.434
    2MOL1    Cl 1728   5.006   3.200   2.615
    2MOL1     C 1729   5.018   3.143   2.448
    2MOL1    Cl 1730   5.175   3.065   2.420
    2MOL1    Cl 1731   4.886   3.031   2.411
    2MOL1     H 1732   5.010   3.229   2.381
    2MOL1    Cl 1733   1.462   2.230   0.817
    2MOL1     C 1734   1.345   2.345   0.883
    2MOL1    Cl 1735   1.335   2.329   1.059
    2MOL1    Cl 1736   1.387   2.510   0.837
    2MOL1     H 1737   1.246   2.322   0.841
    2MOL1    Cl 1738   1.272   1.861   4.138
    2MOL1     C 1739   1.140   1.962   4.078
    2MOL1    Cl 1740   1.197   2.126   4.044
    2MOL1    Cl 1741   1.067   1.890   3.933
    2MOL1     H 1742   1.063   1.968   4.156
    2MOL1    Cl 1743   4.213   3.594   1.455
    2MOL1     C 1744   4.097   3.562   1.325
    2MOL1    Cl 1745   4.177   3.569   1.167
    2MOL1    Cl 1746   4.019   3.405   1.348
    2MOL1     H 1747   4.020   3.640   1.328
    2MOL1    Cl 1748   0.276   5.114   2.010
    2MOL1     C 1749   0.188   5.218   2.123
    2MOL1    Cl 1750   0.055   5.129   2.199
    2MOL1    Cl 1751   0.298   5.284   2.246
    2MOL1     H 1752   0.146   5.302   2.067
    2MOL1    Cl 1753   1.470   2.433   1.747
    2MOL1     C 1754   1.333   2.542   1.771
    2MOL1    Cl 1755   1.204   2.461   1.861
    2MOL1    Cl 1756   1.385   2.690   1.854
    2MOL1     H 1757   1.294   2.570   1.672
    2MOL1    Cl 1758   0.711   2.194   4.090
    2MOL1     C 1759   0.860   2.289   4.105
    2MOL1    Cl 1760   0.848   2.402   4.241
    2MOL1    Cl 1761   1.000   2.182   4.125
    2MOL1     H 1762   0.873   2.346   4.013
    2MOL1    Cl 1763   1.243   0.869   5.157
    2MOL1     C 1764   1.076   0.911   5.200
    2MOL1    Cl 1765   1.044   1.082   5.167
    2MOL1    Cl 1766   0.962   0.808   5.112
    2MOL1     H 1767   1.063   0.893   5.307
    2MOL1    Cl 1768   3.798   2.938   0.876
    2MOL1     C 1769   3.674   3.003   0.984
    2MOL1    Cl 1770   3.670   3.180   0.975
    2MOL1    Cl 1771   3.515   2.936   0.945
    2MOL1     H 1772   3.699   2.974   1.087
    2MOL1    Cl 1773   3.773   4.938   2.885
    2MOL1     C 1774   3.683   5.006   3.022
    2MOL1    Cl 1775   3.517   5.043   2.975
    2MOL1    Cl 1776   3.685   4.894   3.160
    2MOL1     H 1777   3.732   5.099   3.053
    2MOL1    Cl 1778   4.720   3.099   5.057
    2MOL1     C 1779   4.611   3.194   5.159
    2MOL1    Cl 1780   4.467   3.101   5.201
    2MOL1    Cl 1781   4.695   3.249   5.306
    2MOL1     H 1782   4.580   3.283   5.103
    2MOL1    Cl 1783   4.491   2.735   2.831
    2MOL1     C 1784   4.444   2.826   2.975
    2MOL1    Cl 1785   4.536   2.771   3.116
    2MOL1    Cl 1786   4.466   3.000   2.949
    2MOL1     H 1787   4.338   2.807   2.994
    2MOL1    Cl 1788   2.382   4.618   3.628
    2MOL1     C 1789   2.246   4.613   3.514
    2MOL1    Cl 1790   2.120   4.727   3.564
    2MOL1    Cl 1791   2.301   4.649   3.350
    2MOL1     H 1792   2.204   4.513   3.515
    2MOL1    Cl 1793   3.495   2.095   0.872
    2MOL1     C 1794   3.584   2.220   0.962
    2MOL1    Cl 1795   3.550   2.380   0.895
    2MOL1    Cl 1796   3.542   2.214   1.134
    2MOL1     H 1797   3.691   2.200   0.952
    2MOL1    Cl 1798   2.491   2.053   2.518
    2MOL1     C 1799   2.324   2.081   2.570
    2MOL1    Cl 1800   2.224   2.130   2.433
    2MOL1    Cl 1801   2.258   1.936   2.648
    2MOL1     H 1802   2.324   2.162   2.644
    2MOL1    Cl 1803   2.776   2.846   3.538
    2MOL1     C 1804   2.936   2.903   3.488
    2MOL1    Cl 1805   3.058   2.777   3.512
    2MOL1    Cl 1806   2.933   2.956   3.319
    2MOL1     H 1807   2.963   2.989   3.550
    2MOL1    Cl 1808   4.975   2.031   1.569
    2MOL1     C 1809   5.022   1.906   1.686
    2MOL1    Cl 1810   5.026   1.972   1.850
    2MOL1    Cl 1811   4.911   1.768   1.677
    2MOL1     H 1812   5.122   1.871   1.660
    2MOL1    Cl 1813   1.677   1.517   3.689
    2MOL1     C 1814   1.642   1.364   3.608
    2MOL1    Cl 1815   1.503   1.381   3.499
    2MOL1    Cl 1816   1.784   1.306   3.519
    2MOL1     H 1817   1.617   1.289   3.684
    2MOL1    Cl 1818   3.314   4.086   2.156
    2MOL1     C 1819   3.438   4.197   2.214
    2MOL1    Cl 1820   3.378   4.293   2.350
    2MOL1    Cl 1821   3.584   4.108   2.261
    2MOL1     H 1822   3.464   4.265   2.133
    2MOL1    Cl 1823   2.241   3.624   0.532
    2MOL1     C 1824   2.069   3.600   0.496
    2MOL1    Cl 1825   2.016   3.712   0.369
    2MOL1    Cl 1826   2.038   3.432   0.448
    2MOL1     H 1827   2.012   3.621   0.586
    2MOL1    Cl 1828   4.642   2.042   3.103
    2MOL1     C 1829   4.614   2.125   3.257
    2MOL1    Cl 1830   4.725   2.066   3.382
    2MOL1    Cl 1831   4.632   2.301   3.237
    2MOL1     H 1832   4.512   2.105   3.289
    2MOL1    Cl 1833   2.562   3.384   1.478
    2MOL1     C 1834   2.509   3.553   1.486
    2MOL1    Cl 1835   2.447   3.606   1.329
    2MOL1    Cl 1836   2.387   3.575   1.613
    2MOL1     H 1837   2.596   3.615   1.511
    2MOL1    Cl 1838   1.116   4.799   4.676
    2MOL1     C 1839   1.099   4.965   4.736
    2MOL1    Cl 1840   1.116   5.081   4.604
    2MOL1    Cl 1841   0.944   4.986   4.818
    2MOL1     H 1842   1.179   4.984   4.808
    2MOL1    Cl 1843   3.656   3.092   3.913
    2MOL1     C 1844   3.661   3.172   3.755
    2MOL1    Cl 1845   3.548   3.308   3.750
    2MOL1    Cl 1846   3.826   3.226   3.718
    2MOL1     H 1847   3.631   3.099   3.679
    2MOL1    Cl 1848   3.637   3.814   1.269
    2MOL1     C 1849   3.789   3.904   1.264
    2MOL1    Cl 1850   3.919   3.802   1.199
    2MOL1    Cl 1851   3.772   4.051   1.167
    2MOL1     H 1852   3.816   3.933   1.366
    2MOL1    Cl 1853   2.581   1.358   4.098
    2MOL1     C 1854   2.541   1.285   3.942
    2MOL1    Cl 1855   2.559   1.109   3.949
    2MOL1    Cl 1856   2.377   1.329   3.893
    2MOL1     H 1857   2.611   1.324   3.867
    2MOL1    Cl 1858   1.985   3.613   5.048
    2MOL1     C 1859   2.107   3.677   4.937
    2MOL1    Cl 1860   2.060   3.648   4.769
    2MOL1    Cl 1861   2.132   3.850   4.966
    2MOL1     H 1862   2.201   3.625   4.956
    2MOL1    Cl 1863   4.206   3.843   3.229
    2MOL1     C 1864   4.379   3.878   3.233
    2MOL1    Cl 1865   4.455   3.831   3.080
    2MOL1    Cl 1866   4.407   4.050   3.267
    2MOL1     H 1867   4.424   3.819   3.313
    2MOL1    Cl 1868   2.364   5.340   4.845
    2MOL1     C 1869   2.455   5.239   4.731
    2MOL1    Cl 1870   2.345   5.137   4.636
    2MOL1    Cl 1871   2.554   5.340   4.624
    2MOL1     H 1872   2.522   5.174   4.788
    2MOL1    Cl 1873   3.198   1.676   5.088
    2MOL1     C 1874   3.077   1.576   5.005
    2MOL1    Cl 1875   3.001   1.668   4.874
    2MOL1    Cl 1876   3.151   1.428   4.942
    2MOL1     H 1877   3.000   1.549   5.077
    2MOL1    Cl 1878   2.354   3.940   5.338
    2MOL1     C 1879   2.504   3.975   5.252
    2MOL1    Cl 1880   2.529   3.859   5.120
    2MOL1    Cl 1881   2.503   4.141   5.190
    2MOL1     H 1882   2.588   3.965   5.322
    2MOL1    Cl 1883   0.566   0.494   4.192
    2MOL1     C 1884   0.634   0.632   4.105
    2MOL1    Cl 1885   0.741   0.726   4.211
    2MOL1    Cl 1886   0.721   0.578   3.961
    2MOL1     H 1887   0.551   0.697   4.074
    2MOL1    Cl 1888   3.605   1.056   2.087
    2MOL1     C 1889   3.553   0.902   2.018
    2MOL1    Cl 1890   3.664   0.772   2.066
    2MOL1    Cl 1891   3.388   0.863   2.068
    2MOL1     H 1892   3.555   0.910   1.909
    2MOL1    Cl 1893   2.561   4.519   2.552
    2MOL1     C 1894   2.719   4.559   2.483
    2MOL1    Cl 1895   2.702   4.686   2.360
    2MOL1    Cl 1896   2.832   4.610   2.609
    2MOL1     H 1897   2.759   4.470   2.435
    2MOL1    Cl 1898   0.726   1.034   2.083
    2MOL1     C 1899   0.880   0.975   2.146
    2MOL1    Cl 1900   0.939   1.080   2.276
    2MOL1    Cl 1901   0.866   0.808   2.201
    2MOL1     H 1902   0.954   0.978   2.064
    2MOL1    Cl 1903   2.378   4.302   2.999
    2MOL1     C 1904   2.397   4.277   3.174
    2MOL1    Cl 1905   2.393   4.432   3.259
    2MOL1    Cl 1906   2.272   4.169   3.236
    2MOL1     H 1907   2.495   4.231   3.191
    2MOL1    Cl 1908   4.281   1.703   4.687
    2MOL1     C 1909   4.237   1.861   4.754
    2MOL1    Cl 1910   4.191   1.846   4.924
    2MOL1    Cl 1911   4.371   1.976   4.735
    2MOL1     H 1912   4.151   1.899   4.698
    2MOL1    Cl 1913   0.126   0.566   0.265
    2MOL1     C 1914   0.294   0.535   0.222
    2MOL1    Cl 1915   0.304   0.459   0.062
    2MOL1    Cl 1916   0.389   0.685   0.225
    2MOL1     H 1917   0.337   0.466   0.295
    2MOL1    Cl 1918   4.150   3.818   5.164
    2MOL1     C 1919   3.991   3.760   5.214
    2MOL1    Cl 1920   4.006   3.636   5.340
    2MOL1    Cl 1921   3.890   3.895   5.271
    2MOL1     H 1922   3.942   3.715   5.127
    2MOL1    Cl 1923   1.785   2.436   2.843
    2MOL1     C 1924   1.938   2.482   2.766
    2MOL1    Cl 1925   2.072   2.388   2.834
    2MOL1    Cl 1926   1.928   2.458   2.590
    2MOL1     H 1927   1.956   2.587   2.785
    2MOL1    Cl 1928   2.064   4.417   1.472
    2MOL1     C 1929   2.136   4.263   1.521
    2MOL1    Cl 1930   2.067   4.130   1.427
    2MOL1    Cl 1931   2.312   4.268   1.504
    2MOL1     H 1932   2.112   4.247   1.627
    2MOL1    Cl 1933   4.167   3.787   1.891
    2MOL1     C 1934   4.112   3.621   1.915
    2MOL1    Cl 1935   4.187   3.551   2.059
    2MOL1    Cl 1936   3.935   3.615   1.927
    2MOL1     H 1937   4.142   3.562   1.828
    2MOL1    Cl 1938   2.788   4.549   0.667
    2MOL1     C 1939   2.622   4.608   0.683
    2MOL1    Cl 1940   2.530   4.505   0.793
    2MOL1    Cl 1941   2.621   4.776   0.740
    2MOL1     H 1942   2.575   4.605   0.585
    2MOL1    Cl 1943   2.923   2.244   4.599
    2MOL1     C 1944   2.842   2.356   4.710
    2MOL1    Cl 1945   2.818   2.513   4.633
    2MOL1    Cl 1946   2.688   2.288   4.764
    2MOL1     H 1947   2.906   2.370   4.797
    2MOL1    Cl 1948   1.401   3.313   2.598
    2MOL1     C 1949   1.555   3.351   2.677
    2MOL1    Cl 1950   1.530   3.458   2.816
    2MOL1    Cl 1951   1.638   3.202   2.727
    2MOL1     H 1952   1.619   3.403   2.605
    2MOL1    Cl 1953   0.711   4.372   4.753
    2MOL1     C 1954   0.742   4.254   4.882
    2MOL1    Cl 1955   0.914   4.216   4.892
    2MOL1    Cl 1956   0.682   4.315   5.037
    2MOL1     H 1957   0.688   4.162   4.858
    2MOL1    Cl 1958   0.315   2.528   1.800
    2MOL1     C 1959   0.148   2.565   1.756
    2MOL1    Cl 1960   0.139   2.621   1.588
    2MOL1    Cl 1961   0.044   2.423   1.779
    2MOL1     H 1962   0.112   2.645   1.820
    2MOL1    Cl 1963   4.364   0.923   4.249
    2MOL1     C 1964   4.517   0.875   4.172
    2MOL1    Cl 1965   4.485   0.789   4.020
    2MOL1    Cl 1966   4.619   1.017   4.144
    2MOL1     H 1967   4.570   0.807   4.240
    2MOL1    Cl 1968   3.920   1.231   0.325
    2MOL1     C 1969   3.965   1.116   0.452
    2MOL1    Cl 1970   4.059   1.196   0.578
    2MOL1    Cl 1971   3.821   1.039   0.520
    2MOL1     H 1972   4.028   1.038   0.407
    2MOL1    Cl 1973   1.788   1.798   3.862
    2MOL1     C 1974   1.855   1.686   3.981
    2MOL1    Cl 1975   2.024   1.648   3.942
    2MOL1    Cl 1976   1.842   1.752   4.144
    2MOL1     H 1977   1.798   1.593   3.977
    2MOL1    Cl 1978   0.154   1.663   1.931
    2MOL1     C 1979   0.239   1.767   2.046
    2MOL1    Cl 1980   0.309   1.907   1.962
    2MOL1    Cl 1981   0.130   1.820   2.175
    2MOL1     H 1982   0.320   1.710   2.091
    2MOL1    Cl 1983   1.504   0.652   3.411
    2MOL1     C 1984   1.657   0.581   3.355
    2MOL1    Cl 1985   1.666   0.583   3.178
    2MOL1    Cl 1986   1.794   0.668   3.426
    2MOL1     H 1987   1.661   0.477   3.389
    2MOL1    Cl 1988   2.319   4.210   1.311
    2MOL1     C 1989   2.230   4.216   1.158
    2MOL1    Cl 1990   2.102   4.338   1.166
    2MOL1    Cl 1991   2.340   4.250   1.023
    2MOL1     H 1992   2.184   4.118   1.141
    2MOL1    Cl 1993   3.371   1.670   4.336
    2MOL1     C 1994   3.478   1.810   4.352
    2MOL1    Cl 1995   3.419   1.920   4.478
    2MOL1    Cl 1996   3.644   1.758   4.388
    2MOL1     H 1997   3.479   1.864   4.257
    2MOL1    Cl 1998   2.362   3.866   4.163
    2MOL1     C 1999   2.276   3.714   4.191
    2MOL1    Cl 2000   2.367   3.610   4.302
    2MOL1    Cl 2001   2.114   3.745   4.254
    2MOL1     H 2002   2.266   3.662   4.095
    2MOL1    Cl 2003   3.099   1.137   4.971
    2MOL1     C 2004   3.162   0.974   4.945
    2MOL1    Cl 2005   3.339   0.977   4.933
    2MOL1    Cl 2006   3.111   0.866   5.075
    2MOL1     H 2007   3.122   0.936   4.851
    2MOL1    Cl 2008   2.924   2.792   2.426
    2MOL1     C 2009   2.889   2.892   2.568
    2MOL1    Cl 2010   2.766   2.816   2.670
    2MOL1    Cl 2011   3.037   2.922   2.661
    2MOL1     H 2012   2.850   2.988   2.533
    2MOL1    Cl 2013   4.899   4.215   0.696
    2MOL1     C 2014   4.766   4.223   0.813
    2MOL1    Cl 2015   4.749   4.070   0.900
    2MOL1    Cl 2016   4.791   4.357   0.926
    2MOL1     H 2017   4.673   4.242   0.758
    2MOL1    Cl 2018   2.208   3.116   4.446
    2MOL1     C 2019   2.108   2.971   4.462
    2MOL1    Cl 2020   1.936   3.011   4.446
    2MOL1    Cl 2021   2.155   2.849   4.342
    2MOL1     H 2022   2.124   2.929   4.562
    2MOL1    Cl 2023   2.780   4.148   4.494
    2MOL1     C 2024   2.609   4.176   4.457
    2MOL1    Cl 2025   2.592   4.306   4.338
    2MOL1    Cl 2026   2.533   4.027   4.398
    2MOL1     H 2027   2.558   4.207   4.549
    2MOL1    Cl 2028   4.406   5.145   2.858
    2MOL1     C 2029   4.491   5.152   2.703
    2MOL1    Cl 2030   4.666   5.156   2.729
    2MOL1    Cl 2031   4.446   5.015   2.601
    2MOL1     H 2032   4.462   5.244   2.652
    2MOL1    Cl 2033   2.016   3.470   1.936
    2MOL1     C 2034   1.939   3.610   2.013
    2MOL1    Cl 2035   1.812   3.558   2.124
    2MOL1    Cl 2036   2.060   3.708   2.097
    2MOL1     H 2037   1.893   3.671   1.935
    2MOL1    Cl 2038   3.599   0.894   0.942
    2MOL1     C 2039   3.507   0.781   1.042
    2MOL1    Cl 2040   3.341   0.840   1.066
    2MOL1    Cl 2041   3.505   0.620   0.969
    2MOL1     H 2042   3.555   0.774   1.140
    2MOL1    Cl 2043   0.248   3.865   3.111
    2MOL1     C 2044   0.334   3.737   3.025
    2MOL1    Cl 2045   0.483   3.694   3.111
    2MOL1    Cl 2046   0.231   3.594   3.006
    2MOL1     H 2047   0.361   3.774   2.926
    2MOL1    Cl 2048   3.003   2.596   4.855
    2MOL1     C 2049   2.881   2.692   4.940
    2MOL1    Cl 2050   2.925   2.712   5.110
    2MOL1    Cl 2051   2.859   2.849   4.862
    2MOL1     H 2052   2.786   2.638   4.935
    2MOL1    Cl 2053   2.157   0.670   0.559
    2MOL1     C 2054   2.271   0.674   0.694
    2MOL1    Cl 2055   2.227   0.553   0.817
    2MOL1    Cl 2056   2.436   0.646   0.637
    2MOL1     H 2057   2.267   0.773   0.740
    2MOL1    Cl 2058   2.818   0.443   2.227
    2MOL1     C 2059   2.916   0.308   2.288
    2MOL1    Cl 2060   2.918   0.309   2.466
    2MOL1    Cl 2061   2.854   0.154   2.228
    2MOL1     H 2062   3.018   0.321   2.252
    2MOL1    Cl 2063   1.716   3.432   4.731
    2MOL1     C 2064   1.833   3.481   4.608
    2MOL1    Cl 2065   1.875   3.344   4.503
    2MOL1    Cl 2066   1.770   3.616   4.511
    2MOL1     H 2067   1.924   3.515   4.658
    2MOL1    Cl 2068   0.693   2.879   0.857
    2MOL1     C 2069   0.798   2.793   0.743
    2MOL1    Cl 2070   0.855   2.903   0.616
    2MOL1    Cl 2071   0.936   2.721   0.828
    2MOL1     H 2072   0.741   2.713   0.696
    2MOL1    Cl 2073   3.030   0.119   3.409
    2MOL1     C 2074   2.927   0.257   3.371
    2MOL1    Cl 2075   2.844   0.315   3.516
    2MOL1    Cl 2076   3.022   0.387   3.297
    2MOL1     H 2077   2.851   0.225   3.299
    2MOL1    Cl 2078   2.114   2.864   1.134
    2MOL1     C 2079   2.048   3.028   1.118
    2MOL1    Cl 2080   2.053   3.112   1.274
    2MOL1    Cl 2081   2.137   3.119   0.995
    2MOL1     H 2082   1.944   3.020   1.087
    2MOL1    Cl 2083   2.964   5.340   4.058
    2MOL1     C 2084   3.107   5.246   4.105
    2MOL1    Cl 2085   3.111   5.092   4.017
    2MOL1    Cl 2086   3.255   5.338   4.075
    2MOL1     H 2087   3.100   5.224   4.212
    2MOL1    Cl 2088   0.445   0.357   4.331
    2MOL1     C 2089   0.308   0.391   4.224
    2MOL1    Cl 2090   0.214   0.244   4.194
    2MOL1    Cl 2091   0.204   0.517   4.294
    2MOL1     H 2092   0.346   0.427   4.128
    2MOL1    Cl 2093   2.291   2.523   4.016
    2MOL1     C 2094   2.417   2.639   3.972
    2MOL1    Cl 2095   2.531   2.662   4.106
    2MOL1    Cl 2096   2.503   2.585   3.826
    2MOL1     H 2097   2.370   2.735   3.950
    2MOL1    Cl 2098   0.854   1.518   0.196
    2MOL1     C 2099   0.725   1.401   0.161
    2MOL1    Cl 2100   0.654   1.341   0.312
    2MOL1    Cl 2101   0.601   1.473   0.058
    2MOL1     H 2102   0.769   1.316   0.108
    2MOL1    Cl 2103   4.805   2.938   2.027
    2MOL1     C 2104   4.666   2.984   1.929
    2MOL1    Cl 2105   4.517   2.917   1.998
    2MOL1    Cl 2106   4.654   3.160   1.916
    2MOL1     H 2107   4.679   2.943   1.829
    2MOL1    Cl 2108   3.271   3.163   0.616
    2MOL1     C 2109   3.116   3.249   0.605
    2MOL1    Cl 2110   3.135   3.400   0.513
    2MOL1    Cl 2111   2.993   3.146   0.531
    2MOL1     H 2112   3.084   3.275   0.706
    2MOL1    Cl 2113   2.515   4.837   1.735
    2MOL1     C 2114   2.605   4.931   1.615
    2MOL1    Cl 2115   2.599   4.852   1.456
    2MOL1    Cl 2116   2.542   5.096   1.604
    2MOL1     H 2117   2.710   4.936   1.646
    2MOL1    Cl 2118   2.755   4.030   4.999
    2MOL1     C 2119   2.643   4.019   4.863
    2MOL1    Cl 2120   2.527   4.152   4.867
    2MOL1    Cl 2121   2.731   4.018   4.709
    2MOL1     H 2122   2.588   3.925   4.871
    2MOL1    Cl 2123   4.090   4.221   2.730
    2MOL1     C 2124   4.091   4.044   2.739
    2MOL1    Cl 2125   3.976   3.987   2.861
    2MOL1    Cl 2126   4.055   3.973   2.581
    2MOL1     H 2127   4.191   4.012   2.769
    2MOL1    Cl 2128   2.089   1.771   2.592
    2MOL1     C 2129   2.153   1.606   2.591
    2MOL1    Cl 2130   2.151   1.538   2.755
    2MOL1    Cl 2131   2.060   1.504   2.480
    2MOL1     H 2132   2.257   1.609   2.556
    2MOL1    Cl 2133   4.842   2.505   0.528
    2MOL1     C 2134   4.901   2.383   0.643
    2MOL1    Cl 2135   4.770   2.329   0.749
    2MOL1    Cl 2136   4.972   2.246   0.557
    2MOL1     H 2137   4.978   2.429   0.705
    2MOL1    Cl 2138   4.114   0.771   3.101
    2MOL1     C 2139   4.177   0.620   3.169
    2MOL1    Cl 2140   4.070   0.484   3.128
    2MOL1    Cl 2141   4.342   0.589   3.112
    2MOL1     H 2142   4.179   0.630   3.278
    2MOL1    Cl 2143   4.956   2.336   0.284
    2MOL1     C 2144   4.869   2.317   0.131
    2MOL1    Cl 2145   4.982   2.278   0.000
    2MOL1    Cl 2146   4.744   2.192   0.145
    2MOL1     H 2147   4.820   2.412   0.108
    2MOL1    Cl 2148   3.394   1.075   0.977
    2MOL1     C 2149   3.371   1.219   1.078
    2MOL1    Cl 2150   3.507   1.331   1.059
    2MOL1    Cl 2151   3.218   1.300   1.037
    2MOL1     H 2152   3.366   1.188   1.182
    2MOL1    Cl 2153   2.665   4.505   4.848
    2MOL1     C 2154   2.773   4.447   4.720
    2MOL1    Cl 2155   2.815   4.277   4.747
    2MOL1    Cl 2156   2.697   4.467   4.561
    2MOL1     H 2157   2.864   4.506   4.722
    2MOL1    Cl 2158   1.423   5.143   0.786
    2MOL1     C 2159   1.532   5.229   0.677
    2MOL1    Cl 2160   1.685   5.141   0.659
    2MOL1    Cl 2161   1.456   5.254   0.519
    2MOL1     H 2162   1.554   5.327   0.720
    2MOL1    Cl 2163   1.387   3.484   4.521
    2MOL1     C 2164   1.417   3.311   4.497
    2MOL1    Cl 2165   1.546   3.286   4.379
    2MOL1    Cl 2166   1.457   3.233   4.651
    2MOL1     H 2167   1.326   3.265   4.458
    2MOL1    Cl 2168   1.256   2.315   2.547
    2MOL1     C 2169   1.109   2.371   2.464
    2MOL1    Cl 2170   1.102   2.548   2.463
    2MOL1    Cl 2171   1.103   2.307   2.299
    2MOL1     H 2172   1.023   2.334   2.519
    2MOL1    Cl 2173   1.361   1.434   0.636
    2MOL1     C 2174   1.283   1.276   0.621
    2MOL1    Cl 2175   1.136   1.288   0.522
    2MOL1    Cl 2176   1.395   1.158   0.552
    2MOL1     H 2177   1.254   1.242   0.721
    2MOL1    Cl 2178   0.481   5.090   3.239
    2MOL1     C 2179   0.349   5.207   3.252
    2MOL1    Cl 2180   0.209   5.153   3.158
    2MOL1    Cl 2181   0.304   5.232   3.422
    2MOL1     H 2182   0.383   5.302   3.211
    2MOL1    Cl 2183   2.768   3.846   0.466
    2MOL1     C 2184   2.790   3.958   0.330
    2MOL1    Cl 2185   2.863   3.874   0.192
    2MOL1    Cl 2186   2.635   4.030   0.283
    2MOL1     H 2187   2.857   4.038   0.362
    2MOL1    Cl 2188   5.004   2.016   0.819
    2MOL1     C 2189   5.130   1.919   0.896
    2MOL1    Cl 2190   5.067   1.839   1.041
    2MOL1    Cl 2191   5.197   1.801   0.783
    2MOL1     H 2192   5.211   1.987   0.927
    2MOL1    Cl 2193   3.064   4.810   4.094
    2MOL1     C 2194   3.227   4.749   4.125
    2MOL1    Cl 2195   3.235   4.574   4.102
    2MOL1    Cl 2196   3.345   4.831   4.021
    2MOL1     H 2197   3.253   4.771   4.230
    2MOL1    Cl 2198   0.572   3.293   3.323
    2MOL1     C 2199   0.465   3.222   3.445
    2MOL1    Cl 2200   0.522   3.260   3.608
    2MOL1    Cl 2201   0.298   3.280   3.423
    2MOL1     H 2202   0.465   3.114   3.433
    2MOL1    Cl 2203   2.860   0.674   1.932
    2MOL1     C 2204   2.880   0.500   1.904
    2MOL1    Cl 2205   2.946   0.421   2.049
    2MOL1    Cl 2206   2.726   0.427   1.857
    2MOL1     H 2207   2.951   0.487   1.822
    2MOL1    Cl 2208   4.911   5.165   4.326
    2MOL1     C 2209   4.840   5.003   4.337
    2MOL1    Cl 2210   4.920   4.908   4.463
    2MOL1    Cl 2211   4.665   5.014   4.368
    2MOL1     H 2212   4.854   4.952   4.241
    2MOL1    Cl 2213   4.063   0.806   2.010
    2MOL1     C 2214   4.045   0.977   2.052
    2MOL1    Cl 2215   4.065   1.079   1.908
    2MOL1    Cl 2216   3.887   1.007   2.127
    2MOL1     H 2217   4.123   1.004   2.124
    2MOL1    Cl 2218   2.274   4.678   2.576
    2MOL1     C 2219   2.346   4.785   2.455
    2MOL1    Cl 2220   2.408   4.691   2.318
    2MOL1    Cl 2221   2.227   4.905   2.400
    2MOL1     H 2222   2.429   4.838   2.502
    2MOL1    Cl 2223   2.424   2.611   0.990
    2MOL1     C 2224   2.273   2.644   0.903
    2MOL1    Cl 2225   2.268   2.556   0.749
    2MOL1    Cl 2226   2.133   2.602   1.003
    2MOL1     H 2227   2.268   2.751   0.881
    2MOL1    Cl 2228   2.114   4.691   0.199
    2MOL1     C 2229   2.068   4.722   0.368
    2MOL1    Cl 2230   2.014   4.890   0.388
    2MOL1    Cl 2231   1.941   4.610   0.419
    2MOL1     H 2232   2.155   4.706   0.431
    2MOL1    Cl 2233   3.764   1.048   2.473
    2MOL1     C 2234   3.613   1.117   2.409
    2MOL1    Cl 2235   3.477   1.077   2.515
    2MOL1    Cl 2236   3.628   1.292   2.390
    2MOL1     H 2237   3.595   1.073   2.311
    2MOL1    Cl 2238   3.811   3.986   0.710
    2MOL1     C 2239   3.760   4.032   0.873
    2MOL1    Cl 2240   3.637   4.160   0.866
    2MOL1    Cl 2241   3.697   3.891   0.961
    2MOL1     H 2242   3.846   4.070   0.927
    2MOL1    Cl 2243   1.541   4.174   2.210
    2MOL1     C 2244   1.634   4.287   2.309
    2MOL1    Cl 2245   1.528   4.409   2.381
    2MOL1    Cl 2246   1.725   4.201   2.434
    2MOL1     H 2247   1.706   4.338   2.244
    2MOL1    Cl 2248   4.894   2.908   3.155
    2MOL1     C 2249   4.987   2.779   3.077
    2MOL1    Cl 2250   5.016   2.646   3.191
    2MOL1    Cl 2251   4.902   2.719   2.933
    2MOL1     H 2252   5.083   2.819   3.045
    2MOL1    Cl 2253   1.744   1.312   2.038
    2MOL1     C 2254   1.589   1.306   2.123
    2MOL1    Cl 2255   1.591   1.182   2.249
    2MOL1    Cl 2256   1.549   1.464   2.191
    2MOL1     H 2257   1.511   1.279   2.050
    2MOL1    Cl 2258   0.000   0.604   1.554
    2MOL1     C 2259   0.131   0.514   1.476
    2MOL1    Cl 2260   0.276   0.615   1.461
    2MOL1    Cl 2261   0.167   0.366   1.566
    2MOL1     H 2262   0.098   0.487   1.375
    2MOL1    Cl 2263   0.965   4.609   0.100
    2MOL1     C 2264   1.016   4.481   0.212
    2MOL1    Cl 2265   0.921   4.488   0.361
    2MOL1    Cl 2266   1.001   4.322   0.136
    2MOL1     H 2267   1.121   4.498   0.237
    2MOL1    Cl 2268   2.963   2.790   0.995
    2MOL1     C 2269   3.075   2.652   0.996
    2MOL1    Cl 2270   2.999   2.510   0.923
    2MOL1    Cl 2271   3.225   2.694   0.910
    2MOL1     H 2272   3.100   2.629   1.100
    2MOL1    Cl 2273   0.448   2.012   2.580
    2MOL1     C 2274   0.616   2.000   2.526
    2MOL1    Cl 2275   0.653   1.834   2.477
    2MOL1    Cl 2276   0.647   2.113   2.393
    2MOL1     H 2277   0.681   2.027   2.610
    2MOL1    Cl 2278   2.492   0.663   5.029
    2MOL1     C 2279   2.621   0.775   4.986
    2MOL1    Cl 2280   2.610   0.923   5.081
    2MOL1    Cl 2281   2.780   0.698   5.008
    2MOL1     H 2282   2.610   0.800   4.880
    2MOL1    Cl 2283   0.441   4.324   4.057
    2MOL1     C 2284   0.432   4.329   4.234
    2MOL1    Cl 2285   0.332   4.465   4.288
    2MOL1    Cl 2286   0.369   4.176   4.298
    2MOL1     H 2287   0.534   4.343   4.273
    2MOL1    Cl 2288   4.922   4.228   1.462
    2MOL1     C 2289   5.034   4.092   1.482
    2MOL1    Cl 2290   5.202   4.148   1.484
    2MOL1    Cl 2291   4.997   4.002   1.630
    2MOL1     H 2292   5.021   4.024   1.397
    2MOL1    Cl 2293   2.397   2.303   0.571
    2MOL1     C 2294   2.560   2.307   0.502
    2MOL1    Cl 2295   2.653   2.165   0.551
    2MOL1    Cl 2296   2.552   2.318   0.325
    2MOL1     H 2297   2.611   2.397   0.539
    2MOL1    Cl 2298   3.590   2.622   2.033
    2MOL1     C 2299   3.453   2.515   2.067
    2MOL1    Cl 2300   3.344   2.508   1.928
    2MOL1    Cl 2301   3.509   2.353   2.111
    2MOL1     H 2302   3.398   2.556   2.152
    2MOL1    Cl 2303   4.024   1.409   5.289
    2MOL1     C 2304   4.068   1.245   5.237
    2MOL1    Cl 2305   3.970   1.196   5.098
    2MOL1    Cl 2306   4.240   1.236   5.199
    2MOL1     H 2307   4.047   1.176   5.319
    2MOL1    Cl 2308   0.992   2.137   4.555
    2MOL1     C 2309   1.108   2.022   4.486
    2MOL1    Cl 2310   1.030   1.866   4.456
    2MOL1    Cl 2311   1.178   2.086   4.337
    2MOL1     H 2312   1.188   2.007   4.559
    2MOL1    Cl 2313   0.267   0.137   2.174
    2MOL1     C 2314   0.381   0.273   2.169
    2MOL1    Cl 2315   0.388   0.343   2.007
    2MOL1    Cl 2316   0.336   0.396   2.288
    2MOL1     H 2317   0.480   0.235   2.195
    2MOL1    Cl 2318   3.655   0.490   1.067
    2MOL1     C 2319   3.816   0.430   1.108
    2MOL1    Cl 2320   3.841   0.267   1.042
    2MOL1    Cl 2321   3.941   0.540   1.048
    2MOL1     H 2322   3.825   0.425   1.217
    2MOL1    Cl 2323   3.230   2.422   3.488
    2MOL1     C 2324   3.203   2.311   3.623
    2MOL1    Cl 2325   3.339   2.198   3.640
    2MOL1    Cl 2326   3.177   2.401   3.774
    2MOL1     H 2327   3.113   2.253   3.602
    2MOL1    Cl 2328   3.700   2.703   3.538
    2MOL1     C 2329   3.747   2.873   3.553
    2MOL1    Cl 2330   3.804   2.908   3.717
    2MOL1    Cl 2331   3.872   2.914   3.434
    2MOL1     H 2332   3.659   2.935   3.533
    2MOL1    Cl 2333   3.311   4.465   1.944
    2MOL1     C 2334   3.225   4.438   1.791
    2MOL1    Cl 2335   3.217   4.588   1.697
    2MOL1    Cl 2336   3.304   4.310   1.697
    2MOL1     H 2337   3.123   4.407   1.814
    2MOL1    Cl 2338   0.676   1.249   4.279
    2MOL1     C 2339   0.535   1.325   4.204
    2MOL1    Cl 2340   0.389   1.231   4.237
    2MOL1    Cl 2341   0.516   1.492   4.261
    2MOL1     H 2342   0.551   1.327   4.096
    2MOL1    Cl 2343   0.578   1.842   1.676
    2MOL1     C 2344   0.414   1.787   1.636
    2MOL1    Cl 2345   0.380   1.809   1.464
    2MOL1    Cl 2346   0.392   1.618   1.683
    2MOL1     H 2347   0.343   1.848   1.693
    2MOL1    Cl 2348   0.148   2.781   1.317
    2MOL1     C 2349   0.083   2.934   1.377
    2MOL1    Cl 2350   0.206   3.024   1.467
    2MOL1    Cl 2351   0.020   3.032   1.243
    2MOL1     H 2352   0.000   2.912   1.445
    2MOL1    Cl 2353   0.700   3.497   0.017
    2MOL1     C 2354   0.859   3.566   0.054
    2MOL1    Cl 2355   0.874   3.599   0.228
    2MOL1    Cl 2356   0.988   3.458   0.000
    2MOL1     H 2357   0.869   3.661   0.000
    2MOL1    Cl 2358   3.364   1.293   1.502
    2MOL1     C 2359   3.538   1.264   1.484
    2MOL1    Cl 2360   3.631   1.398   1.553
    2MOL1    Cl 2361   3.584   1.110   1.559
    2MOL1     H 2362   3.561   1.258   1.377
    2MOL1    Cl 2363   3.599   1.640   4.906
    2MOL1     C 2364   3.483   1.671   4.775
    2MOL1    Cl 2365   3.501   1.551   4.646
    2MOL1    Cl 2366   3.317   1.672   4.837
    2MOL1     H 2367   3.505   1.770   4.733
    2MOL1    Cl 2368   0.666   4.074   4.457
    2MOL1     C 2369   0.695   3.991   4.304
    2MOL1    Cl 2370   0.561   4.018   4.191
    2MOL1    Cl 2371   0.848   4.043   4.232
    2MOL1     H 2372   0.701   3.883   4.323
    2MOL1    Cl 2373   3.745   3.255   5.068
    2MOL1     C 2374   3.603   3.225   5.169
    2MOL1    Cl 2375   3.554   3.055   5.158
    2MOL1    Cl 2376   3.635   3.270   5.338
    2MOL1     H 2377   3.521   3.287   5.132
    2MOL1    Cl 2378   1.055   2.854   1.573
    2MOL1     C 2379   0.951   2.713   1.547
    2MOL1    Cl 2380   0.936   2.677   1.374
    2MOL1    Cl 2381   1.014   2.572   1.634
    2MOL1     H 2382   0.851   2.736   1.586
    2MOL1    Cl 2383   4.279   1.212   0.250
    2MOL1     C 2384   4.426   1.124   0.294
    2MOL1    Cl 2385   4.490   1.182   0.449
    2MOL1    Cl 2386   4.394   0.949   0.301
    2MOL1     H 2387   4.501   1.141   0.217
    2MOL1    Cl 2388   3.008   0.908   3.641
    2MOL1     C 2389   3.102   0.841   3.507
    2MOL1    Cl 2390   3.039   0.683   3.458
    2MOL1    Cl 2391   3.103   0.953   3.369
    2MOL1     H 2392   3.206   0.828   3.541
    2MOL1    Cl 2393   4.252   1.294   4.918
    2MOL1     C 2394   4.417   1.343   4.876
    2MOL1    Cl 2395   4.463   1.278   4.717
    2MOL1    Cl 2396   4.433   1.519   4.878
    2MOL1     H 2397   4.485   1.302   4.951
    2MOL1    Cl 2398   4.807   1.995   3.739
    2MOL1     C 2399   4.761   2.144   3.824
    2MOL1    Cl 2400   4.905   2.239   3.866
    2MOL1    Cl 2401   4.650   2.240   3.726
    2MOL1     H 2402   4.710   2.116   3.917
    2MOL1    Cl 2403   3.468   0.624   3.676
    2MOL1     C 2404   3.381   0.713   3.802
    2MOL1    Cl 2405   3.316   0.601   3.924
    2MOL1    Cl 2406   3.488   0.832   3.878
    2MOL1     H 2407   3.298   0.766   3.756
    2MOL1    Cl 2408   3.966   3.832   1.561
    2MOL1     C 2409   3.831   3.718   1.576
    2MOL1    Cl 2410   3.701   3.760   1.462
    2MOL1    Cl 2411   3.886   3.552   1.549
    2MOL1     H 2412   3.791   3.725   1.677
    2MOL1    Cl 2413   0.384   0.101   1.333
    2MOL1     C 2414   0.543   0.172   1.364
    2MOL1    Cl 2415   0.571   0.189   1.538
    2MOL1    Cl 2416   0.671   0.074   1.290
    2MOL1     H 2417   0.546   0.272   1.319
    2MOL1    Cl 2418   2.098   3.816   3.706
    2MOL1     C 2419   2.177   3.974   3.700
    2MOL1    Cl 2420   2.325   3.966   3.603
    2MOL1    Cl 2421   2.066   4.096   3.635
    2MOL1     H 2422   2.204   4.003   3.802
    2MOL1    Cl 2423   4.576   3.916   1.191
    2MOL1     C 2424   4.509   3.941   1.353
    2MOL1    Cl 2425   4.537   3.799   1.455
    2MOL1    Cl 2426   4.580   4.086   1.428
    2MOL1     H 2427   4.401   3.956   1.344
    2MOL1    Cl 2428   3.394   4.324   4.576
    2MOL1     C 2429   3.217   4.313   4.575
    2MOL1    Cl 2430   3.166   4.143   4.582
    2MOL1    Cl 2431   3.148   4.404   4.710
    2MOL1     H 2432   3.180   4.356   4.482
    2MOL1    Cl 2433   1.961   1.889   4.664
    2MOL1     C 2434   2.084   1.832   4.778
    2MOL1    Cl 2435   2.096   1.942   4.917
    2MOL1    Cl 2436   2.046   1.668   4.832
    2MOL1     H 2437   2.180   1.831   4.727
    2MOL1    Cl 2438   1.468   3.441   2.077
    2MOL1     C 2439   1.373   3.333   1.974
    2MOL1    Cl 2440   1.218   3.294   2.050
    2MOL1    Cl 2441   1.348   3.405   1.814
    2MOL1     H 2442   1.429   3.240   1.961
    2MOL1    Cl 2443   4.299   4.512   3.686
    2MOL1     C 2444   4.203   4.375   3.745
    2MOL1    Cl 2445   4.147   4.276   3.610
    2MOL1    Cl 2446   4.297   4.278   3.859
    2MOL1     H 2447   4.116   4.415   3.797
    2MOL1    Cl 2448   0.607   1.042   3.634
    2MOL1     C 2449   0.686   1.004   3.788
    2MOL1    Cl 2450   0.815   1.120   3.823
    2MOL1    Cl 2451   0.566   1.002   3.919
    2MOL1     H 2452   0.730   0.904   3.780
    2MOL1    Cl 2453   1.764   4.269   0.660
    2MOL1     C 2454   1.613   4.354   0.626
    2MOL1    Cl 2455   1.643   4.494   0.521
    2MOL1    Cl 2456   1.495   4.245   0.551
    2MOL1     H 2457   1.571   4.390   0.720
    2MOL1    Cl 2458   3.863   0.743   3.320
    2MOL1     C 2459   3.801   0.908   3.313
    2MOL1    Cl 2460   3.643   0.912   3.234
    2MOL1    Cl 2461   3.792   0.979   3.475
    2MOL1     H 2462   3.871   0.968   3.253
    2MOL1    Cl 2463   0.251   4.699   4.124
    2MOL1     C 2464   0.161   4.620   3.993
    2MOL1    Cl 2465   0.150   4.726   3.852
    2MOL1    Cl 2466   0.238   4.466   3.949
    2MOL1     H 2467   0.060   4.599   4.029
    2MOL1    Cl 2468   4.445   1.881   5.340
    2MOL1     C 2469   4.348   1.744   5.285
    2MOL1    Cl 2470   4.316   1.756   5.111
    2MOL1    Cl 2471   4.428   1.591   5.322
    2MOL1     H 2472   4.252   1.746   5.337
    2MOL1    Cl 2473   0.522   0.641   2.589
    2MOL1     C 2474   0.535   0.696   2.756
    2MOL1    Cl 2475   0.395   0.796   2.801
    2MOL1    Cl 2476   0.550   0.558   2.866
    2MOL1     H 2477   0.625   0.757   2.766
    2MOL1    Cl 2478   0.258   2.188   2.046
    2MOL1     C 2479   0.405   2.127   2.124
    2MOL1    Cl 2480   0.445   2.224   2.267
    2MOL1    Cl 2481   0.386   1.956   2.168
    2MOL1     H 2482   0.488   2.135   2.053
    2MOL1    Cl 2483   3.693   2.220   1.824
    2MOL1     C 2484   3.681   2.213   1.647
    2MOL1    Cl 2485   3.730   2.367   1.575
    2MOL1    Cl 2486   3.780   2.081   1.584
    2MOL1     H 2487   3.577   2.194   1.621
    2MOL1    Cl 2488   2.606   1.063   4.285
    2MOL1     C 2489   2.682   0.906   4.312
    2MOL1    Cl 2490   2.828   0.922   4.410
    2MOL1    Cl 2491   2.568   0.794   4.389
    2MOL1     H 2492   2.710   0.864   4.214
    2MOL1    Cl 2493   4.536   2.642   4.884
    2MOL1     C 2494   4.664   2.530   4.934
    2MOL1    Cl 2495   4.771   2.608   5.053
    2MOL1    Cl 2496   4.595   2.381   5.000
    2MOL1     H 2497   4.724   2.505   4.846
    2MOL1    Cl 2498   3.945   0.881   2.787
    2MOL1     C 2499   3.821   0.780   2.862
    2MOL1    Cl 2500   3.701   0.730   2.742
    2MOL1    Cl 2501   3.894   0.639   2.940
    2MOL1     H 2502   3.770   0.839   2.939
    2MOL1    Cl 2503   3.424   2.138   3.408
    2MOL1     C 2504   3.336   2.251   3.303
    2MOL1    Cl 2505   3.171   2.276   3.363
    2MOL1    Cl 2506   3.423   2.405   3.292
    2MOL1     H 2507   3.330   2.207   3.203
    2MOL1    Cl 2508   4.004   1.697   1.453
    2MOL1     C 2509   3.835   1.646   1.473
    2MOL1    Cl 2510   3.732   1.726   1.354
    2MOL1    Cl 2511   3.822   1.469   1.458
    2MOL1     H 2512   3.802   1.675   1.573
    2MOL1    Cl 2513   0.634   3.422   1.715
    2MOL1     C 2514   0.477   3.428   1.634
    2MOL1    Cl 2515   0.395   3.270   1.643
    2MOL1    Cl 2516   0.375   3.555   1.704
    2MOL1     H 2517   0.494   3.451   1.528
    2MOL1    Cl 2518   2.642   3.820   4.641
    2MOL1     C 2519   2.473   3.772   4.658
    2MOL1    Cl 2520   2.410   3.708   4.505
    2MOL1    Cl 2521   2.455   3.652   4.788
    2MOL1     H 2522   2.415   3.860   4.685
    2MOL1    Cl 2523   1.913   1.495   1.456
    2MOL1     C 2524   1.977   1.425   1.307
    2MOL1    Cl 2525   1.849   1.408   1.186
    2MOL1    Cl 2526   2.110   1.523   1.244
    2MOL1     H 2527   2.016   1.325   1.329
    2MOL1    Cl 2528   4.683   2.632   0.354
    2MOL1     C 2529   4.552   2.516   0.328
    2MOL1    Cl 2530   4.489   2.529   0.163
    2MOL1    Cl 2531   4.607   2.351   0.361
    2MOL1     H 2532   4.471   2.540   0.397
    2MOL1    Cl 2533   3.258   4.691   3.468
    2MOL1     C 2534   3.102   4.620   3.514
    2MOL1    Cl 2535   3.094   4.450   3.466
    2MOL1    Cl 2536   3.075   4.637   3.688
    2MOL1     H 2537   3.023   4.674   3.461
    2MOL1    Cl 2538   5.106   3.742   5.316
    2MOL1     C 2539   5.062   3.854   5.185
    2MOL1    Cl 2540   4.999   3.765   5.046
    2MOL1    Cl 2541   4.944   3.973   5.242
    2MOL1     H 2542   5.152   3.907   5.154
    2MOL1    Cl 2543   1.153   2.834   3.296
    2MOL1     C 2544   1.210   2.671   3.334
    2MOL1    Cl 2545   1.204   2.642   3.509
    2MOL1    Cl 2546   1.114   2.550   3.248
    2MOL1     H 2547   1.314   2.663   3.301
    2MOL1    Cl 2548   2.626   2.701   1.163
    2MOL1     C 2549   2.716   2.810   1.269
    2MOL1    Cl 2550   2.814   2.923   1.174
    2MOL1    Cl 2551   2.606   2.897   1.377
    2MOL1     H 2552   2.784   2.749   1.331
    2MOL1    Cl 2553   0.156   3.763   3.656
    2MOL1     C 2554   0.083   3.619   3.584
    2MOL1    Cl 2555   0.001   3.660   3.433
    2MOL1    Cl 2556   0.206   3.494   3.556
    2MOL1     H 2557   0.010   3.578   3.654
    2MOL1    Cl 2558   2.574   4.778   3.184
    2MOL1     C 2559   2.476   4.856   3.309
    2MOL1    Cl 2560   2.555   5.004   3.366
    2MOL1    Cl 2561   2.313   4.890   3.249
    2MOL1     H 2562   2.468   4.787   3.394
    2MOL1    Cl 2563   5.169   2.707   4.231
    2MOL1     C 2564   4.995   2.696   4.202
    2MOL1    Cl 2565   4.940   2.830   4.100
    2MOL1    Cl 2566   4.954   2.541   4.128
    2MOL1     H 2567   4.943   2.703   4.298
    2MOL1    Cl 2568   2.460   2.238   3.524
    2MOL1     C 2569   2.588   2.353   3.565
    2MOL1    Cl 2570   2.684   2.292   3.701
    2MOL1    Cl 2571   2.691   2.385   3.425
    2MOL1     H 2572   2.541   2.447   3.595
    2MOL1    Cl 2573   2.099   1.106   4.122
    2MOL1     C 2574   1.982   0.975   4.099
    2MOL1    Cl 2575   1.877   0.958   4.240
    2MOL1    Cl 2576   1.886   1.004   3.953
    2MOL1     H 2577   2.037   0.882   4.085
    2MOL1    Cl 2578   1.092   0.295   0.998
    2MOL1     C 2579   0.973   0.349   0.878
    2MOL1    Cl 2580   0.822   0.397   0.957
    2MOL1    Cl 2581   1.038   0.482   0.781
    2MOL1     H 2582   0.952   0.265   0.811
    2MOL1    Cl 2583   4.245   1.363   3.534
    2MOL1     C 2584   4.173   1.440   3.676
    2MOL1    Cl 2585   4.049   1.558   3.628
    2MOL1    Cl 2586   4.104   1.319   3.785
    2MOL1     H 2587   4.252   1.494   3.730
    2MOL1    Cl 2588   3.090   4.918   3.442
    2MOL1     C 2589   3.210   4.955   3.317
    2MOL1    Cl 2590   3.177   5.113   3.245
    2MOL1    Cl 2591   3.374   4.950   3.385
    2MOL1     H 2592   3.203   4.879   3.239
    2MOL1    Cl 2593   2.380   2.433   3.067
    2MOL1     C 2594   2.244   2.542   3.097
    2MOL1    Cl 2595   2.090   2.458   3.072
    2MOL1    Cl 2596   2.253   2.610   3.260
    2MOL1     H 2597   2.250   2.624   3.025
    2MOL1    Cl 2598   1.497   0.527   5.195
    2MOL1     C 2599   1.454   0.695   5.227
    2MOL1    Cl 2600   1.311   0.705   5.331
    2MOL1    Cl 2601   1.590   0.781   5.301
    2MOL1     H 2602   1.431   0.744   5.132
    2MOL1    Cl 2603   2.346   4.297   4.436
    2MOL1     C 2604   2.172   4.265   4.453
    2MOL1    Cl 2605   2.081   4.350   4.327
    2MOL1    Cl 2606   2.140   4.091   4.448
    2MOL1     H 2607   2.140   4.304   4.550
    2MOL1    Cl 2608   0.783   3.943   5.051
    2MOL1     C 2609   0.785   3.766   5.058
    2MOL1    Cl 2610   0.775   3.710   5.226
    2MOL1    Cl 2611   0.652   3.699   4.962
    2MOL1     H 2612   0.879   3.731   5.015
    2MOL1    Cl 2613   5.108   3.200   1.772
    2MOL1     C 2614   5.090   3.057   1.875
    2MOL1    Cl 2615   5.171   2.917   1.804
    2MOL1    Cl 2616   5.153   3.090   2.038
    2MOL1     H 2617   4.983   3.034   1.884
    2MOL1    Cl 2618   3.374   1.156   3.443
    2MOL1     C 2619   3.358   1.203   3.613
    2MOL1    Cl 2620   3.505   1.161   3.703
    2MOL1    Cl 2621   3.324   1.376   3.627
    2MOL1     H 2622   3.274   1.148   3.656
    2MOL1    Cl 2623   1.590   0.245   1.296
    2MOL1     C 2624   1.591   0.068   1.284
    2MOL1    Cl 2625   1.733   0.000   1.366
    2MOL1    Cl 2626   1.442   0.001   1.352
    2MOL1     H 2627   1.595   0.040   1.178
    2MOL1    Cl 2628   2.704   3.064   3.797
    2MOL1     C 2629   2.755   2.934   3.906
    2MOL1    Cl 2630   2.808   2.792   3.813
    2MOL1    Cl 2631   2.883   2.989   4.014
    2MOL1     H 2632   2.669   2.904   3.966
    2MOL1    Cl 2633   5.164   3.370   1.089
    2MOL1     C 2634   5.079   3.306   1.231
    2MOL1    Cl 2635   5.188   3.206   1.329
    2MOL1    Cl 2636   5.012   3.438   1.328
    2MOL1     H 2637   4.997   3.243   1.196
    2MOL1    Cl 2638   1.751   0.334   0.108
    2MOL1     C 2639   1.899   0.268   0.181
    2MOL1    Cl 2640   1.990   0.396   0.263
    2MOL1    Cl 2641   1.860   0.137   0.293
    2MOL1     H 2642   1.961   0.227   0.101
    2MOL1    Cl 2643   0.927   1.814   3.027
    2MOL1     C 2644   1.063   1.924   3.057
    2MOL1    Cl 2645   1.004   2.079   3.118
    2MOL1    Cl 2646   1.177   1.851   3.171
    2MOL1     H 2647   1.115   1.941   2.963
    2MOL1    Cl 2648   2.716   4.118   2.460
    2MOL1     C 2649   2.683   3.949   2.421
    2MOL1    Cl 2650   2.833   3.861   2.390
    2MOL1    Cl 2651   2.590   3.872   2.551
    2MOL1     H 2652   2.622   3.946   2.329
    2MOL1    Cl 2653   1.676   0.476   2.954
    2MOL1     C 2654   1.547   0.588   2.910
    2MOL1    Cl 2655   1.614   0.732   2.830
    2MOL1    Cl 2656   1.428   0.509   2.806
    2MOL1     H 2657   1.497   0.620   3.002
    2MOL1    Cl 2658   5.224   5.018   2.814
    2MOL1     C 2659   5.068   5.099   2.790
    2MOL1    Cl 2660   5.074   5.204   2.647
    2MOL1    Cl 2661   4.938   4.981   2.774
    2MOL1     H 2662   5.048   5.162   2.877
    2MOL1    Cl 2663   2.750   3.973   3.082
    2MOL1     C 2664   2.640   3.913   3.207
    2MOL1    Cl 2665   2.581   3.751   3.165
    2MOL1    Cl 2666   2.721   3.910   3.365
    2MOL1     H 2667   2.555   3.981   3.213
    2MOL1    Cl 2668   5.049   4.946   0.152
    2MOL1     C 2669   4.982   5.092   0.225
    2MOL1    Cl 2670   4.808   5.075   0.251
    2MOL1    Cl 2671   5.064   5.129   0.378
    2MOL1     H 2672   4.999   5.176   0.156
    2MOL1    Cl 2673   0.341   1.923   3.382
    2MOL1     C 2674   0.413   1.910   3.543
    2MOL1    Cl 2675   0.589   1.890   3.530
    2MOL1    Cl 2676   0.374   2.052   3.641
    2MOL1     H 2677   0.372   1.822   3.592
    2MOL1    Cl 2678   4.786   0.496   4.752
    2MOL1     C 2679   4.635   0.472   4.842
    2MOL1    Cl 2680   4.653   0.342   4.960
    2MOL1    Cl 2681   4.585   0.622   4.921
    2MOL1     H 2682   4.558   0.443   4.770
    2MOL1    Cl 2683   4.233   2.564   2.490
    2MOL1     C 2684   4.315   2.416   2.541
    2MOL1    Cl 2685   4.408   2.347   2.407
    2MOL1    Cl 2686   4.421   2.448   2.680
    2MOL1     H 2687   4.240   2.344   2.572
    2MOL1    Cl 2688   3.572   4.580   1.545
    2MOL1     C 2689   3.505   4.682   1.674
    2MOL1    Cl 2690   3.379   4.789   1.610
    2MOL1    Cl 2691   3.441   4.582   1.805
    2MOL1     H 2692   3.586   4.744   1.714
    2MOL1    Cl 2693   5.301   5.180   0.563
    2MOL1     C 2694   5.209   5.210   0.711
    2MOL1    Cl 2695   5.318   5.251   0.845
    2MOL1    Cl 2696   5.090   5.340   0.685
    2MOL1     H 2697   5.155   5.119   0.737
    2MOL1    Cl 2698   4.143   5.215   0.271
    2MOL1     C 2699   3.975   5.157   0.269
    2MOL1    Cl 2700   3.877   5.252   0.156
    2MOL1    Cl 2701   3.969   4.985   0.227
    2MOL1     H 2702   3.934   5.169   0.369
    2MOL1    Cl 2703   0.720   5.024   2.503
    2MOL1     C 2704   0.646   5.146   2.398
    2MOL1    Cl 2705   0.697   5.122   2.230
    2MOL1    Cl 2706   0.469   5.140   2.411
    2MOL1     H 2707   0.680   5.245   2.431
    2MOL1    Cl 2708   2.995   5.054   4.361
    2MOL1     C 2709   2.867   5.176   4.372
    2MOL1    Cl 2710   2.739   5.123   4.482
    2MOL1    Cl 2711   2.934   5.331   4.426
    2MOL1     H 2712   2.824   5.190   4.273
    2MOL1    Cl 2713   4.260   4.167   1.893
    2MOL1     C 2714   4.431   4.184   1.852
    2MOL1    Cl 2715   4.476   4.068   1.726
    2MOL1    Cl 2716   4.466   4.350   1.798
    2MOL1     H 2717   4.490   4.164   1.941
    2MOL1    Cl 2718   3.132   3.783   4.874
    2MOL1     C 2719   3.280   3.729   4.955
    2MOL1    Cl 2720   3.295   3.553   4.944
    2MOL1    Cl 2721   3.422   3.808   4.885
    2MOL1     H 2722   3.274   3.756   5.061
    2MOL1    Cl 2723   2.618   0.432   4.326
    2MOL1     C 2724   2.770   0.502   4.385
    2MOL1    Cl 2725   2.739   0.614   4.519
    2MOL1    Cl 2726   2.882   0.374   4.436
    2MOL1     H 2727   2.816   0.558   4.304
    2MOL1    Cl 2728   3.491   3.512   1.741
    2MOL1     C 2729   3.511   3.372   1.848
    2MOL1    Cl 2730   3.450   3.408   2.010
    2MOL1    Cl 2731   3.429   3.230   1.780
    2MOL1     H 2732   3.618   3.350   1.855
    2MOL1    Cl 2733   0.290   2.888   3.612
    2MOL1     C 2734   0.138   2.960   3.666
    2MOL1    Cl 2735   0.135   3.134   3.631
    2MOL1    Cl 2736   0.000   2.879   3.590
    2MOL1     H 2737   0.130   2.947   3.774
    2MOL1    Cl 2738   1.643   3.764   3.050
    2MOL1     C 2739   1.496   3.846   3.103
    2MOL1    Cl 2740   1.443   3.785   3.260
    2MOL1    Cl 2741   1.522   4.021   3.110
    2MOL1     H 2742   1.417   3.826   3.030
    2MOL1    Cl 2743   2.743   4.439   1.646
    2MOL1     C 2744   2.881   4.327   1.634
    2MOL1    Cl 2745   2.825   4.165   1.589
    2MOL1    Cl 2746   3.000   4.387   1.518
    2MOL1     H 2747   2.928   4.321   1.732
    2MOL1    Cl 2748   5.231   1.770   3.061
    2MOL1     C 2749   5.150   1.654   2.954
    2MOL1    Cl 2750   5.041   1.549   3.047
    2MOL1    Cl 2751   5.061   1.738   2.827
    2MOL1     H 2752   5.226   1.591   2.908
    2MOL1    Cl 2753   4.406   3.410   2.866
    2MOL1     C 2754   4.332   3.472   3.014
    2MOL1    Cl 2755   4.270   3.636   2.989
    2MOL1    Cl 2756   4.203   3.364   3.069
    2MOL1     H 2757   4.409   3.476   3.092
    2MOL1    Cl 2758   2.695   5.078   2.680
    2MOL1     C 2759   2.750   4.910   2.669
    2MOL1    Cl 2760   2.849   4.886   2.524
    2MOL1    Cl 2761   2.841   4.865   2.815
    2MOL1     H 2762   2.662   4.845   2.662
    2MOL1    Cl 2763   3.458   3.076   2.621
    2MOL1     C 2764   3.466   3.250   2.590
    2MOL1    Cl 2765   3.606   3.290   2.490
    2MOL1    Cl 2766   3.316   3.306   2.514
    2MOL1     H 2767   3.476   3.302   2.686
    2MOL1    Cl 2768   1.965   3.299   4.237
    2MOL1     C 2769   1.907   3.452   4.169
    2MOL1    Cl 2770   1.787   3.421   4.041
    2MOL1    Cl 2771   1.838   3.555   4.295
    2MOL1     H 2772   1.992   3.504   4.124
    2MOL1    Cl 2773   5.068   1.715   0.524
    2MOL1     C 2774   4.923   1.805   0.569
    2MOL1    Cl 2775   4.915   1.959   0.483
    2MOL1    Cl 2776   4.777   1.708   0.537
    2MOL1     H 2777   4.927   1.825   0.677
    2MOL1    Cl 2778   2.214   3.148   1.943
    2MOL1     C 2779   2.069   3.108   2.037
    2MOL1    Cl 2780   2.014   3.248   2.130
    2MOL1    Cl 2781   1.941   3.048   1.932
    2MOL1     H 2782   2.096   3.028   2.108
    2MOL1    Cl 2783   2.025   0.778   4.941
    2MOL1     C 2784   1.995   0.950   4.971
    2MOL1    Cl 2785   2.097   1.050   4.867
    2MOL1    Cl 2786   1.824   0.988   4.946
    2MOL1     H 2787   2.020   0.971   5.076
    2MOL1    Cl 2788   0.238   5.156   4.146
    2MOL1     C 2789   0.300   5.100   3.990
    2MOL1    Cl 2790   0.466   5.155   3.966
    2MOL1    Cl 2791   0.290   4.923   3.980
    2MOL1     H 2792   0.237   5.142   3.911
    2MOL1    Cl 2793   1.632   2.653   4.071
    2MOL1     C 2794   1.714   2.782   4.160
    2MOL1    Cl 2795   1.853   2.842   4.068
    2MOL1    Cl 2796   1.601   2.914   4.195
    2MOL1     H 2797   1.750   2.742   4.255
    2MOL1    Cl 2798   4.890   0.947   4.239
    2MOL1     C 2799   4.963   1.108   4.224
    2MOL1    Cl 2800   4.856   1.217   4.135
    2MOL1    Cl 2801   5.001   1.174   4.385
    2MOL1     H 2802   5.057   1.098   4.168
    2MOL1    Cl 2803   2.477   3.307   0.165
    2MOL1     C 2804   2.353   3.315   0.291
    2MOL1    Cl 2805   2.191   3.308   0.219
    2MOL1    Cl 2806   2.375   3.185   0.409
    2MOL1     H 2807   2.363   3.411   0.343
    2MOL1    Cl 2808   2.608   4.533   1.532
    2MOL1     C 2809   2.656   4.428   1.398
    2MOL1    Cl 2810   2.523   4.411   1.281
    2MOL1    Cl 2811   2.801   4.492   1.318
    2MOL1     H 2812   2.679   4.329   1.438
    2MOL1    Cl 2813   1.570   0.694   3.897
    2MOL1     C 2814   1.540   0.868   3.919
    2MOL1    Cl 2815   1.379   0.894   3.988
    2MOL1    Cl 2816   1.665   0.940   4.021
    2MOL1     H 2817   1.544   0.916   3.821
    2MOL1    Cl 2818   1.478   1.018   2.854
    2MOL1     C 2819   1.593   1.149   2.823
    2MOL1    Cl 2820   1.518   1.306   2.855
    2MOL1    Cl 2821   1.738   1.128   2.922
    2MOL1     H 2822   1.622   1.145   2.718
    2MOL1    Cl 2823   2.154   3.122   3.512
    2MOL1     C 2824   1.997   3.199   3.484
    2MOL1    Cl 2825   2.013   3.331   3.367
    2MOL1    Cl 2826   1.879   3.079   3.428
    2MOL1     H 2827   1.962   3.240   3.579
    2MOL1    Cl 2828   3.984   4.288   3.010
    2MOL1     C 2829   3.807   4.285   3.024
    2MOL1    Cl 2830   3.757   4.334   3.186
    2MOL1    Cl 2831   3.734   4.391   2.902
    2MOL1     H 2832   3.773   4.183   3.006
    2MOL1    Cl 2833   2.530   5.202   0.687
    2MOL1     C 2834   2.663   5.174   0.574
    2MOL1    Cl 2835   2.725   5.009   0.589
    2MOL1    Cl 2836   2.611   5.206   0.407
    2MOL1     H 2837   2.744   5.243   0.598
    2MOL1    Cl 2838   1.704   3.744   3.959
    2MOL1     C 2839   1.656   3.832   4.105
    2MOL1    Cl 2840   1.555   3.971   4.063
    2MOL1    Cl 2841   1.570   3.724   4.217
    2MOL1     H 2842   1.746   3.868   4.155
    2MOL1    Cl 2843   2.303   2.392   1.331
    2MOL1     C 2844   2.314   2.217   1.355
    2MOL1    Cl 2845   2.161   2.152   1.414
    2MOL1    Cl 2846   2.362   2.137   1.204
    2MOL1     H 2847   2.391   2.197   1.430
    2MOL1    Cl 2848   3.027   0.000   3.660
    2MOL1     C 2849   3.137   0.092   3.763
    2MOL1    Cl 2850   3.065   0.248   3.807
    2MOL1    Cl 2851   3.178   0.000   3.909
    2MOL1     H 2852   3.229   0.111   3.708
    2MOL1    Cl 2853   1.738   1.343   2.528
    2MOL1     C 2854   1.826   1.382   2.379
    2MOL1    Cl 2855   1.996   1.335   2.394
    2MOL1    Cl 2856   1.751   1.302   2.239
    2MOL1     H 2857   1.821   1.490   2.364
    2MOL1    Cl 2858   2.366   2.836   0.477
    2MOL1     C 2859   2.241   2.888   0.362
    2MOL1    Cl 2860   2.316   2.948   0.213
    2MOL1    Cl 2861   2.130   2.755   0.327
    2MOL1     H 2862   2.185   2.970   0.408
    2MOL1    Cl 2863   3.659   2.481   4.299
    2MOL1     C 2864   3.503   2.559   4.329
    2MOL1    Cl 2865   3.404   2.460   4.438
    2MOL1    Cl 2866   3.526   2.721   4.397
    2MOL1     H 2867   3.450   2.569   4.234
    2MOL1    Cl 2868   0.641   0.479   1.881
    2MOL1     C 2869   0.729   0.389   2.005
    2MOL1    Cl 2870   0.667   0.427   2.166
    2MOL1    Cl 2871   0.719   0.215   1.973
    2MOL1     H 2872   0.834   0.418   2.001
    2MOL1    Cl 2873   4.419   4.783   0.725
    2MOL1     C 2874   4.283   4.862   0.807
    2MOL1    Cl 2875   4.324   5.029   0.850
    2MOL1    Cl 2876   4.138   4.858   0.704
    2MOL1     H 2877   4.261   4.807   0.899
    2MOL1    Cl 2878   0.304   4.309   1.239
    2MOL1     C 2879   0.205   4.347   1.097
    2MOL1    Cl 2880   0.160   4.519   1.097
    2MOL1    Cl 2881   0.290   4.305   0.948
    2MOL1     H 2882   0.113   4.288   1.103
    2MOL1    Cl 2883   2.237   2.526   3.785
    2MOL1     C 2884   2.228   2.349   3.780
    2MOL1    Cl 2885   2.381   2.278   3.836
    2MOL1    Cl 2886   2.093   2.290   3.877
    2MOL1     H 2887   2.212   2.318   3.676
    2MOL1    Cl 2888   0.812   4.118   1.325
    2MOL1     C 2889   0.661   4.044   1.271
    2MOL1    Cl 2890   0.585   3.955   1.404
    2MOL1    Cl 2891   0.551   4.166   1.206
    2MOL1     H 2892   0.684   3.973   1.191
    2MOL1    Cl 2893   1.489   3.728   0.277
    2MOL1     C 2894   1.533   3.742   0.448
    2MOL1    Cl 2895   1.567   3.911   0.490
    2MOL1    Cl 2896   1.404   3.677   0.551
    2MOL1     H 2897   1.623   3.683   0.465
    2MOL1    Cl 2898   3.037   2.031   2.524
    2MOL1     C 2899   3.202   2.094   2.545
    2MOL1    Cl 2900   3.290   2.090   2.392
    2MOL1    Cl 2901   3.198   2.258   2.611
    2MOL1     H 2902   3.253   2.029   2.616
    2MOL1    Cl 2903   2.056   2.769   2.465
    2MOL1     C 2904   1.901   2.761   2.550
    2MOL1    Cl 2905   1.806   2.909   2.521
    2MOL1    Cl 2906   1.809   2.618   2.501
    2MOL1     H 2907   1.921   2.754   2.657
    2MOL1    Cl 2908   3.461   5.001   2.006
    2MOL1     C 2909   3.408   5.144   2.096
    2MOL1    Cl 2910   3.232   5.142   2.117
    2MOL1    Cl 2911   3.490   5.153   2.253
    2MOL1     H 2912   3.435   5.233   2.038
    2MOL1    Cl 2913   0.841   2.429   4.469
    2MOL1     C 2914   1.014   2.432   4.431
    2MOL1    Cl 2915   1.060   2.287   4.340
    2MOL1    Cl 2916   1.055   2.578   4.340
    2MOL1     H 2917   1.070   2.433   4.525
    2MOL1    Cl 2918   4.490   3.847   4.864
    2MOL1     C 2919   4.637   3.895   4.950
    2MOL1    Cl 2920   4.781   3.840   4.862
    2MOL1    Cl 2921   4.642   4.071   4.972
    2MOL1     H 2922   4.637   3.848   5.048
    2MOL1    Cl 2923   4.824   1.762   4.229
    2MOL1     C 2924   4.935   1.884   4.165
    2MOL1    Cl 2925   4.993   1.839   4.004
    2MOL1    Cl 2926   4.857   2.043   4.161
    2MOL1     H 2927   5.022   1.891   4.232
    2MOL1    Cl 2928   4.067   2.480   2.747
    2MOL1     C 2929   4.081   2.313   2.806
    2MOL1    Cl 2930   4.062   2.198   2.673
    2MOL1    Cl 2931   4.236   2.289   2.888
    2MOL1     H 2932   4.000   2.296   2.878
    2MOL1    Cl 2933   1.467   2.832   5.013
    2MOL1     C 2934   1.469   2.836   5.190
    2MOL1    Cl 2935   1.305   2.852   5.254
    2MOL1    Cl 2936   1.548   2.691   5.254
    2MOL1     H 2937   1.527   2.924   5.221
    2MOL1    Cl 2938   3.624   1.990   3.160
    2MOL1     C 2939   3.658   2.160   3.127
    2MOL1    Cl 2940   3.631   2.259   3.272
    2MOL1    Cl 2941   3.825   2.180   3.068
    2MOL1     H 2942   3.590   2.195   3.049
    2MOL1    Cl 2943   2.814   4.759   1.013
    2MOL1     C 2944   2.708   4.898   1.040
    2MOL1    Cl 2945   2.621   4.940   0.891
    2MOL1    Cl 2946   2.594   4.865   1.171
    2MOL1     H 2947   2.770   4.983   1.069
    2MOL1    Cl 2948   1.562   3.740   0.962
    2MOL1     C 2949   1.677   3.852   0.886
    2MOL1    Cl 2950   1.753   3.778   0.745
    2MOL1    Cl 2951   1.595   4.003   0.841
    2MOL1     H 2952   1.755   3.876   0.959
    2MOL1    Cl 2953   5.020   3.265   4.996
    2MOL1     C 2954   5.084   3.224   5.156
    2MOL1    Cl 2955   4.956   3.155   5.258
    2MOL1    Cl 2956   5.220   3.112   5.142
    2MOL1     H 2957   5.119   3.316   5.204
    2MOL1    Cl 2958   2.991   4.893   3.076
    2MOL1     C 2959   2.894   5.040   3.060
    2MOL1    Cl 2960   2.888   5.092   2.890
    2MOL1    Cl 2961   2.730   5.013   3.122
    2MOL1     H 2962   2.940   5.119   3.119
    2MOL1    Cl 2963   4.842   4.037   3.657
    2MOL1     C 2964   4.793   3.867   3.642
    2MOL1    Cl 2965   4.639   3.855   3.556
    2MOL1    Cl 2966   4.918   3.773   3.559
    2MOL1     H 2967   4.780   3.826   3.742
    2MOL1    Cl 2968   1.519   1.045   3.350
    2MOL1     C 2969   1.631   0.956   3.246
    2MOL1    Cl 2970   1.798   1.009   3.274
    2MOL1    Cl 2971   1.616   0.782   3.273
    2MOL1     H 2972   1.606   0.977   3.142
    2MOL1    Cl 2973   3.487   2.760   4.701
    2MOL1     C 2974   3.322   2.697   4.683
    2MOL1    Cl 2975   3.257   2.738   4.524
    2MOL1    Cl 2976   3.320   2.522   4.709
    2MOL1     H 2977   3.259   2.744   4.759
    2MOL1    Cl 2978   2.344   4.199   0.409
    2MOL1     C 2979   2.486   4.244   0.505
    2MOL1    Cl 2980   2.443   4.261   0.676
    2MOL1    Cl 2981   2.615   4.125   0.484
    2MOL1     H 2982   2.522   4.341   0.469
    2MOL1    Cl 2983   3.329   1.481   0.373
    2MOL1     C 2984   3.239   1.605   0.284
    2MOL1    Cl 2985   3.213   1.556   0.116
    2MOL1    Cl 2986   3.084   1.638   0.364
    2MOL1     H 2987   3.298   1.697   0.285
    2MOL1    Cl 2988   2.474   1.925   4.188
    2MOL1     C 2989   2.382   1.778   4.154
    2MOL1    Cl 2990   2.208   1.810   4.165
    2MOL1    Cl 2991   2.423   1.714   3.994
    2MOL1     H 2992   2.407   1.703   4.229
    2MOL1    Cl 2993   1.305   0.800   2.724
    2MOL1     C 2994   1.316   0.959   2.645
    2MOL1    Cl 2995   1.485   0.996   2.605
    2MOL1    Cl 2996   1.216   0.963   2.499
    2MOL1     H 2997   1.280   1.034   2.714
    2MOL1    Cl 2998   2.775   4.508   5.148
    2MOL1     C 2999   2.846   4.348   5.119
    2MOL1    Cl 3000   2.742   4.251   5.014
    2MOL1    Cl 3001   3.008   4.364   5.049
    2MOL1     H 3002   2.855   4.297   5.215
    2MOL1    Cl 3003   2.396   4.468   1.553
    2MOL1     C 3004   2.301   4.575   1.657
    2MOL1    Cl 3005   2.280   4.733   1.582
    2MOL1    Cl 3006   2.143   4.502   1.693
    2MOL1     H 3007   2.355   4.588   1.751
    2MOL1    Cl 3008   0.971   2.655   5.028
    2MOL1     C 3009   0.966   2.523   5.146
    2MOL1    Cl 3010   0.880   2.383   5.079
    2MOL1    Cl 3011   1.130   2.478   5.196
    2MOL1     H 3012   0.911   2.558   5.235
    2MOL1    Cl 3013   1.786   1.100   1.675
    2MOL1     C 3014   1.681   1.108   1.817
    2MOL1    Cl 3015   1.519   1.164   1.772
    2MOL1    Cl 3016   1.672   0.949   1.897
    2MOL1     H 3017   1.723   1.179   1.888
    2MOL1    Cl 3018   0.543   3.767   3.676
    2MOL1     C 3019   0.491   3.598   3.664
    2MOL1    Cl 3020   0.477   3.549   3.494
    2MOL1    Cl 3021   0.605   3.492   3.750
    2MOL1     H 3022   0.393   3.588   3.711
    2MOL1    Cl 3023   0.229   0.114   3.933
    2MOL1     C 3024   0.224   0.175   3.767
    2MOL1    Cl 3025   0.378   0.249   3.722
    2MOL1    Cl 3026   0.182   0.044   3.654
    2MOL1     H 3027   0.146   0.251   3.761
    2MOL1    Cl 3028   4.154   5.125   3.408
    2MOL1     C 3029   4.276   5.208   3.311
    2MOL1    Cl 3030   4.397   5.093   3.251
    2MOL1    Cl 3031   4.200   5.295   3.176
    2MOL1     H 3032   4.327   5.281   3.375
    2MOL1    Cl 3033   3.171   4.052   1.661
    2MOL1     C 3034   3.285   4.058   1.526
    2MOL1    Cl 3035   3.449   4.091   1.585
    2MOL1    Cl 3036   3.282   3.906   1.435
    2MOL1     H 3037   3.256   4.139   1.459
    2MOL1    Cl 3038   4.648   4.163   3.850
    2MOL1     C 3039   4.636   4.332   3.902
    2MOL1    Cl 3040   4.572   4.342   4.066
    2MOL1    Cl 3041   4.794   4.411   3.891
    2MOL1     H 3042   4.567   4.384   3.835
    2MOL1    Cl 3043   0.782   3.802   0.595
    2MOL1     C 3044   0.905   3.832   0.471
    2MOL1    Cl 3045   0.973   3.995   0.488
    2MOL1    Cl 3046   1.033   3.710   0.479
    2MOL1     H 3047   0.857   3.825   0.373
    2MOL1    Cl 3048   5.142   2.199   5.008
    2MOL1     C 3049   5.098   2.339   5.107
    2MOL1    Cl 3050   5.230   2.380   5.218
    2MOL1    Cl 3051   5.055   2.477   5.006
    2MOL1     H 3052   5.010   2.312   5.167
    2MOL1    Cl 3053   0.968   5.290   2.460
    2MOL1     C 3054   1.070   5.166   2.535
    2MOL1    Cl 3055   1.168   5.084   2.412
    2MOL1    Cl 3056   1.174   5.238   2.659
    2MOL1     H 3057   1.005   5.092   2.582
    2MOL1    Cl 3058   1.148   1.264   4.174
    2MOL1     C 3059   0.983   1.289   4.235
    2MOL1    Cl 3060   0.905   1.423   4.149
    2MOL1    Cl 3061   0.888   1.141   4.219
    2MOL1     H 3062   0.989   1.315   4.341
    2MOL1    Cl 3063   4.105   2.728   4.117
    2MOL1     C 3064   3.951   2.704   4.200
    2MOL1    Cl 3065   3.928   2.534   4.241
    2MOL1    Cl 3066   3.942   2.805   4.345
    2MOL1     H 3067   3.870   2.735   4.132
    2MOL1    Cl 3068   2.307   3.445   5.340
    2MOL1     C 3069   2.337   3.521   5.183
    2MOL1    Cl 3070   2.254   3.433   5.054
    2MOL1    Cl 3071   2.285   3.691   5.186
    2MOL1     H 3072   2.444   3.519   5.163
    2MOL1    Cl 3073   1.151   0.525   0.987
    2MOL1     C 3074   1.308   0.598   0.949
    2MOL1    Cl 3075   1.293   0.774   0.939
    2MOL1    Cl 3076   1.429   0.552   1.071
    2MOL1     H 3077   1.341   0.561   0.852
    2MOL1    Cl 3078   0.541   3.636   0.611
    2MOL1     C 3079   0.377   3.672   0.554
    2MOL1    Cl 3080   0.278   3.525   0.550
    2MOL1    Cl 3081   0.302   3.795   0.657
    2MOL1     H 3082   0.384   3.712   0.453
    2MOL1    Cl 3083   3.394   1.642   3.605
    2MOL1     C 3084   3.251   1.663   3.503
    2MOL1    Cl 3085   3.287   1.618   3.335
    2MOL1    Cl 3086   3.116   1.567   3.565
    2MOL1     H 3087   3.222   1.768   3.506
    2MOL1    Cl 3088   2.940   4.632   0.469
    2MOL1     C 3089   2.776   4.606   0.410
    2MOL1    Cl 3090   2.774   4.592   0.233
    2MOL1    Cl 3091   2.706   4.460   0.484
    2MOL1     H 3092   2.714   4.691   0.438
    2MOL1    Cl 3093   3.774   3.455   3.260
    2MOL1     C 3094   3.705   3.557   3.387
    2MOL1    Cl 3095   3.747   3.727   3.360
    2MOL1    Cl 3096   3.529   3.537   3.394
    2MOL1     H 3097   3.746   3.526   3.483
    2MOL1    Cl 3098   2.915   3.711   0.784
    2MOL1     C 3099   2.898   3.845   0.899
    2MOL1    Cl 3100   2.727   3.883   0.925
    2MOL1    Cl 3101   2.977   3.805   1.053
    2MOL1     H 3102   2.947   3.933   0.857
    2MOL1    Cl 3103   4.482   4.502   1.324
    2MOL1     C 3104   4.420   4.375   1.218
    2MOL1    Cl 3105   4.548   4.261   1.174
    2MOL1    Cl 3106   4.285   4.290   1.295
    2MOL1     H 3107   4.382   4.422   1.126
    2MOL1    Cl 3108   4.496   2.975   0.157
    2MOL1     C 3109   4.633   3.088   0.149
    2MOL1    Cl 3110   4.775   3.009   0.079
    2MOL1    Cl 3111   4.589   3.232   0.056
    2MOL1     H 3112   4.658   3.119   0.251
    2MOL1    Cl 3113   2.986   1.205   2.218
    2MOL1     C 3114   2.926   1.042   2.255
    2MOL1    Cl 3115   2.796   0.997   2.143
    2MOL1    Cl 3116   3.058   0.924   2.249
    2MOL1     H 3117   2.885   1.043   2.356
    2MOL1    Cl 3118   3.413   4.453   2.945
    2MOL1     C 3119   3.449   4.620   2.992
    2MOL1    Cl 3120   3.310   4.693   3.074
    2MOL1    Cl 3121   3.593   4.625   3.095
    2MOL1     H 3122   3.469   4.677   2.901
    2MOL1    Cl 3123   3.571   3.459   3.982
    2MOL1     C 3124   3.736   3.506   3.935
    2MOL1    Cl 3125   3.835   3.362   3.906
    2MOL1    Cl 3126   3.733   3.610   3.792
    2MOL1     H 3127   3.780   3.562   4.017
    2MOL1    Cl 3128   4.076   0.189   0.261
    2MOL1     C 3129   4.183   0.321   0.214
    2MOL1    Cl 3130   4.309   0.263   0.104
    2MOL1    Cl 3131   4.091   0.453   0.139
    2MOL1     H 3132   4.231   0.360   0.304
    2MOL1    Cl 3133   3.154   3.209   3.450
    2MOL1     C 3134   3.318   3.169   3.504
    2MOL1    Cl 3135   3.388   3.043   3.402
    2MOL1    Cl 3136   3.420   3.314   3.504
    2MOL1     H 3137   3.312   3.132   3.606
    2MOL1    Cl 3138   0.700   2.527   1.984
    2MOL1     C 3139   0.687   2.607   1.827
    2MOL1    Cl 3140   0.725   2.494   1.696
    2MOL1    Cl 3141   0.524   2.674   1.805
    2MOL1     H 3142   0.759   2.689   1.824
    2MOL1    Cl 3143   5.034   4.273   3.055
    2MOL1     C 3144   5.203   4.305   3.013
    2MOL1    Cl 3145   5.278   4.414   3.131
    2MOL1    Cl 3146   5.294   4.153   3.003
    2MOL1     H 3147   5.206   4.353   2.915
    2MOL1    Cl 3148   2.425   3.799   1.496
    2MOL1     C 3149   2.475   3.834   1.663
    2MOL1    Cl 3150   2.641   3.895   1.666
    2MOL1    Cl 3151   2.364   3.950   1.738
    2MOL1     H 3152   2.471   3.741   1.720
    2MOL1    Cl 3153   5.104   1.413   2.593
    2MOL1     C 3154   5.042   1.394   2.429
    2MOL1    Cl 3155   5.112   1.250   2.352
    2MOL1    Cl 3156   4.865   1.384   2.429
    2MOL1     H 3157   5.071   1.482   2.370
    2MOL1    Cl 3158   4.181   3.107   3.841
    2MOL1     C 3159   4.181   3.118   4.018
    2MOL1    Cl 3160   4.212   2.960   4.091
    2MOL1    Cl 3161   4.301   3.237   4.073
    2MOL1     H 3162   4.082   3.152   4.050
    2MOL1    Cl 3163   1.729   3.554   3.580
    2MOL1     C 3164   1.600   3.588   3.464
    2MOL1    Cl 3165   1.572   3.447   3.360
    2MOL1    Cl 3166   1.451   3.633   3.549
    2MOL1     H 3167   1.631   3.672   3.402
    2MOL1    Cl 3168   2.703   3.206   2.612
    2MOL1     C 3169   2.572   3.243   2.726
    2MOL1    Cl 3170   2.564   3.120   2.853
    2MOL1    Cl 3171   2.595   3.404   2.796
    2MOL1     H 3172   2.478   3.243   2.671
    2MOL1    Cl 3173   1.938   3.020   0.174
    2MOL1     C 3174   1.917   2.849   0.134
    2MOL1    Cl 3175   1.773   2.826   0.033
    2MOL1    Cl 3176   2.061   2.786   0.053
    2MOL1     H 3177   1.903   2.794   0.227
    2MOL1    Cl 3178   4.767   0.966   2.956
    2MOL1     C 3179   4.827   0.821   2.874
    2MOL1    Cl 3180   4.708   0.760   2.758
    2MOL1    Cl 3181   4.982   0.854   2.794
    2MOL1     H 3182   4.844   0.744   2.950
    2MOL1    Cl 3183   4.845   1.926   1.374
    2MOL1     C 3184   4.880   2.049   1.251
    2MOL1    Cl 3185   4.772   2.188   1.270
    2MOL1    Cl 3186   5.049   2.100   1.260
    2MOL1     H 3187   4.862   2.005   1.153
    2MOL1    Cl 3188   3.068   3.831   0.289
    2MOL1     C 3189   3.170   3.954   0.365
    2MOL1    Cl 3190   3.299   4.005   0.255
    2MOL1    Cl 3191   3.072   4.094   0.414
    2MOL1     H 3192   3.216   3.911   0.455
    2MOL1    Cl 3193   2.598   4.228   3.615
    2MOL1     C 3194   2.728   4.118   3.664
    2MOL1    Cl 3195   2.695   3.954   3.606
    2MOL1    Cl 3196   2.884   4.175   3.604
    2MOL1     H 3197   2.732   4.116   3.773
    2MOL1    Cl 3198   2.199   4.568   2.261
    2MOL1     C 3199   2.062   4.460   2.291
    2MOL1    Cl 3200   2.110   4.326   2.396
    2MOL1    Cl 3201   1.927   4.550   2.364
    2MOL1     H 3202   2.028   4.420   2.195
    2MOL1    Cl 3203   1.553   1.658   0.641
    2MOL1     C 3204   1.581   1.820   0.706
    2MOL1    Cl 3205   1.714   1.819   0.823
    2MOL1    Cl 3206   1.615   1.934   0.574
    2MOL1     H 3207   1.490   1.853   0.757
    2MOL1    Cl 3208   0.369   2.867   4.489
    2MOL1     C 3209   0.300   2.831   4.330
    2MOL1    Cl 3210   0.360   2.675   4.271
    2MOL1    Cl 3211   0.123   2.831   4.338
    2MOL1     H 3212   0.332   2.908   4.260
    2MOL1    Cl 3213   0.315   1.532   4.702
    2MOL1     C 3214   0.490   1.549   4.680
    2MOL1    Cl 3215   0.578   1.478   4.816
    2MOL1    Cl 3216   0.541   1.474   4.528
    2MOL1     H 3217   0.514   1.656   4.675
    2MOL1    Cl 3218   4.894   3.002   0.766
    2MOL1     C 3219   5.058   2.939   0.745
    2MOL1    Cl 3220   5.060   2.763   0.766
    2MOL1    Cl 3221   5.123   2.983   0.586
    2MOL1     H 3222   5.122   2.984   0.822
    2MOL1    Cl 3223   2.106   4.394   4.803
    2MOL1     C 3224   2.192   4.241   4.831
    2MOL1    Cl 3225   2.329   4.265   4.940
    2MOL1    Cl 3226   2.081   4.119   4.896
    2MOL1     H 3227   2.230   4.205   4.735
    2MOL1    Cl 3228   3.046   3.451   3.397
    2MOL1     C 3229   3.051   3.507   3.230
    2MOL1    Cl 3230   3.005   3.677   3.219
    2MOL1    Cl 3231   3.213   3.482   3.161
    2MOL1     H 3232   2.980   3.448   3.171
    2MOL1    Cl 3233   2.929   4.437   0.222
    2MOL1     C 3234   3.049   4.393   0.345
    2MOL1    Cl 3235   3.168   4.280   0.279
    2MOL1    Cl 3236   3.130   4.539   0.407
    2MOL1     H 3237   2.997   4.345   0.428
    2MOL1    Cl 3238   3.411   4.575   0.533
    2MOL1     C 3239   3.468   4.413   0.490
    2MOL1    Cl 3240   3.638   4.393   0.534
    2MOL1    Cl 3241   3.368   4.289   0.568
    2MOL1     H 3242   3.459   4.401   0.382
    2MOL1    Cl 3243   2.435   3.944   0.967
    2MOL1     C 3244   2.464   3.770   0.986
    2MOL1    Cl 3245   2.598   3.741   1.098
    2MOL1    Cl 3246   2.317   3.688   1.042
    2MOL1     H 3247   2.491   3.729   0.888
    2MOL1    Cl 3248   3.982   4.048   3.719
    2MOL1     C 3249   4.094   3.912   3.737
    2MOL1    Cl 3250   4.240   3.962   3.823
    2MOL1    Cl 3251   4.015   3.777   3.822
    2MOL1     H 3252   4.123   3.877   3.637
    2MOL1    Cl 3253   5.276   4.639   4.250
    2MOL1     C 3254   5.203   4.790   4.194
    2MOL1    Cl 3255   5.075   4.843   4.305
    2MOL1    Cl 3256   5.326   4.917   4.177
    2MOL1     H 3257   5.158   4.773   4.096
    2MOL1    Cl 3258   4.144   0.530   3.619
    2MOL1     C 3259   4.172   0.358   3.587
    2MOL1    Cl 3260   4.036   0.261   3.645
    2MOL1    Cl 3261   4.200   0.330   3.415
    2MOL1     H 3262   4.262   0.327   3.642
    2MOL1    Cl 3263   2.334   2.537   3.502
    2MOL1     C 3264   2.448   2.670   3.471
    2MOL1    Cl 3265   2.385   2.822   3.536
    2MOL1    Cl 3266   2.606   2.633   3.541
    2MOL1     H 3267   2.460   2.681   3.363
    2MOL1    Cl 3268   4.923   4.689   2.621
    2MOL1     C 3269   5.074   4.611   2.670
    2MOL1    Cl 3270   5.111   4.648   2.840
    2MOL1    Cl 3271   5.064   4.435   2.646
    2MOL1     H 3272   5.155   4.649   2.608
    2MOL1    Cl 3273   2.526   0.865   2.023
    2MOL1     C 3274   2.355   0.829   2.054
    2MOL1    Cl 3275   2.340   0.697   2.172
    2MOL1    Cl 3276   2.270   0.974   2.111
    2MOL1     H 3277   2.309   0.797   1.961
    2MOL1    Cl 3278   0.425   2.395   2.994
    2MOL1     C 3279   0.255   2.372   3.038
    2MOL1    Cl 3280   0.167   2.292   2.907
    2MOL1    Cl 3281   0.241   2.280   3.188
    2MOL1     H 3282   0.210   2.471   3.054
    2MOL1    Cl 3283   1.163   4.196   1.155
    2MOL1     C 3284   1.090   4.045   1.098
    2MOL1    Cl 3285   1.216   3.930   1.050
    2MOL1    Cl 3286   0.985   3.975   1.222
    2MOL1     H 3287   1.029   4.068   1.010
    2MOL1    Cl 3288   2.498   2.988   0.643
    2MOL1     C 3289   2.661   3.054   0.663
    2MOL1    Cl 3290   2.685   3.196   0.560
    2MOL1    Cl 3291   2.691   3.094   0.833
    2MOL1     H 3292   2.733   2.977   0.633
    2MOL1    Cl 3293   0.737   0.731   1.042
    2MOL1     C 3294   0.600   0.663   0.952
    2MOL1    Cl 3295   0.527   0.529   1.043
    2MOL1    Cl 3296   0.479   0.788   0.918
    2MOL1     H 3297   0.637   0.624   0.857
    2MOL1    Cl 3298   5.081   2.038   3.265
    2MOL1     C 3299   5.015   2.202   3.251
    2MOL1    Cl 3300   5.117   2.301   3.145
    2MOL1    Cl 3301   4.849   2.196   3.190
    2MOL1     H 3302   5.014   2.247   3.350
    2MOL1    Cl 3303   2.693   1.115   3.447
    2MOL1     C 3304   2.565   0.998   3.481
    2MOL1    Cl 3305   2.625   0.868   3.586
    2MOL1    Cl 3306   2.426   1.079   3.556
    2MOL1     H 3307   2.532   0.954   3.387
    2MOL1    Cl 3308   5.221   0.969   2.385
    2MOL1     C 3309   5.129   1.004   2.237
    2MOL1    Cl 3310   5.102   0.856   2.144
    2MOL1    Cl 3311   4.975   1.083   2.277
    2MOL1     H 3312   5.188   1.073   2.176
    2MOL1    Cl 3313   4.060   0.567   4.570
    2MOL1     C 3314   3.893   0.511   4.555
    2MOL1    Cl 3315   3.800   0.552   4.700
    2MOL1    Cl 3316   3.817   0.580   4.411
    2MOL1     H 3317   3.894   0.402   4.544
    2MOL1    Cl 3318   5.144   1.037   5.057
    2MOL1     C 3319   5.107   0.864   5.062
    2MOL1    Cl 3320   5.234   0.775   5.147
    2MOL1    Cl 3321   4.950   0.837   5.140
    2MOL1     H 3322   5.101   0.827   4.960
    2MOL1    Cl 3323   2.849   0.617   1.369
    2MOL1     C 3324   2.959   0.552   1.491
    2MOL1    Cl 3325   2.966   0.659   1.632
    2MOL1    Cl 3326   2.909   0.389   1.539
    2MOL1     H 3327   3.059   0.546   1.447
    2MOL1    Cl 3328   2.139   1.369   3.654
    2MOL1     C 3329   2.064   1.332   3.810
    2MOL1    Cl 3330   1.889   1.355   3.803
    2MOL1    Cl 3331   2.103   1.166   3.860
    2MOL1     H 3332   2.105   1.400   3.885
    2MOL1    Cl 3333   3.410   1.364   2.201
    2MOL1     C 3334   3.466   1.433   2.047
    2MOL1    Cl 3335   3.535   1.594   2.072
    2MOL1    Cl 3336   3.584   1.325   1.970
    2MOL1     H 3337   3.380   1.442   1.981
    2MOL1    Cl 3338   3.960   2.240   4.311
    2MOL1     C 3339   3.854   2.104   4.350
    2MOL1    Cl 3340   3.841   2.083   4.525
    2MOL1    Cl 3341   3.693   2.128   4.278
    2MOL1     H 3342   3.897   2.013   4.307
    2MOL1    Cl 3343   1.388   2.143   4.305
    2MOL1     C 3344   1.405   2.319   4.289
    2MOL1    Cl 3345   1.475   2.361   4.132
    2MOL1    Cl 3346   1.248   2.398   4.310
    2MOL1     H 3347   1.472   2.354   4.368
    2MOL1    Cl 3348   1.277   0.511   1.947
    2MOL1     C 3349   1.118   0.497   2.024
    2MOL1    Cl 3350   0.993   0.574   1.924
    2MOL1    Cl 3351   1.078   0.327   2.053
    2MOL1     H 3352   1.122   0.549   2.120
    2MOL1    Cl 3353   3.060   0.427   4.081
    2MOL1     C 3354   3.190   0.343   4.168
    2MOL1    Cl 3355   3.346   0.423   4.139
    2MOL1    Cl 3356   3.155   0.337   4.342
    2MOL1     H 3357   3.197   0.241   4.130
    2MOL1    Cl 3358   3.417   2.819   0.236
    2MOL1     C 3359   3.545   2.927   0.295
    2MOL1    Cl 3360   3.601   2.874   0.455
    2MOL1    Cl 3361   3.679   2.933   0.180
    2MOL1     H 3362   3.503   3.028   0.305
    2MOL1    Cl 3363   4.103   3.305   0.107
    2MOL1     C 3364   4.230   3.221   0.196
    2MOL1    Cl 3365   4.270   3.067   0.119
    2MOL1    Cl 3366   4.374   3.323   0.210
    2MOL1     H 3367   4.193   3.200   0.297
  5.5400000  5.5400000  5.5400000
