FOO
 3367
    1POP     C1    1   1.765   3.156   0.026
    1POP     O2    2   1.880   3.117   0.047
    1POP     C3    3   1.656   3.102   0.111
    1POP     C4    4   1.521   3.136   0.085
    1POP     C5    5   1.417   3.088   0.168
    1POP     C6    6   1.445   3.005   0.279
    1POP     C7    7   1.335   2.961   0.371
    1POP     C8    8   1.330   2.833   0.435
    1POP     C9    9   1.229   2.807   0.530
    1POP    C10   10   1.129   2.901   0.560
    1POP    O11   11   1.035   2.865   0.656
    1POP    C12   12   0.930   2.961   0.687
    1POP    C13   13   1.130   3.025   0.493
    1POP    C14   14   1.232   3.055   0.399
    1POP    C15   15   1.425   2.722   0.403
    1POP    C16   16   1.482   2.645   0.507
    1POP    C17   17   1.575   2.543   0.478
    1POP    C18   18   1.613   2.516   0.345
    1POP    C19   19   1.551   2.589   0.240
    1POP    C20   20   1.457   2.690   0.269
    1POP    C21   21   1.720   2.413   0.310
    1POP    N22   22   1.666   2.281   0.272
    1POP    C23   23   1.830   2.396   0.417
    1POP    C24   24   1.580   2.971   0.305
    1POP    C25   25   1.684   3.017   0.222
    1POP    H26   26   1.496   3.200   0.001
    1POP    H27   27   1.315   3.116   0.145
    1POP    H28   28   1.224   2.711   0.580
    1POP    H29   29   0.865   2.916   0.763
    1POP    H30   30   0.871   2.981   0.598
    1POP    H31   31   0.974   3.052   0.727
    1POP    H32   32   1.055   3.101   0.511
    1POP    H33   33   1.231   3.153   0.353
    1POP    H34   34   1.456   2.665   0.610
    1POP    H35   35   1.616   2.485   0.560
    1POP    H36   36   1.576   2.567   0.137
    1POP    H37   37   1.411   2.745   0.187
    1POP    H38   38   1.773   2.452   0.222
    1POP    H39   39   1.717   2.226   0.203
    1POP    H40   40   1.872   2.494   0.441
    1POP    H41   41   1.789   2.349   0.506
    1POP    H42   42   1.909   2.331   0.377
    1POP    H43   43   1.607   2.909   0.390
    1POP    H44   44   1.786   2.989   0.245
    2POP    C45   45   1.571   2.207   0.340
    2POP    O46   46   1.542   2.235   0.456
    2POP    C47   47   1.526   2.078   0.282
    2POP    C48   48   1.507   2.066   0.142
    2POP    C49   49   1.465   1.943   0.085
    2POP    C50   50   1.442   1.831   0.168
    2POP    C51   51   1.397   1.702   0.109
    2POP    C52   52   1.471   1.581   0.124
    2POP    C53   53   1.414   1.460   0.077
    2POP    C54   54   1.288   1.457   0.015
    2POP    O55   55   1.242   1.334  -0.031
    2POP    C56   56   1.116   1.330  -0.101
    2POP    C57   57   1.215   1.578   0.000
    2POP    C58   58   1.270   1.699   0.048
    2POP    C59   59   1.610   1.577   0.181
    2POP    C60   60   1.649   1.474   0.270
    2POP    C61   61   1.780   1.469   0.321
    2POP    C62   62   1.876   1.566   0.284
    2POP    C63   63   1.837   1.669   0.194
    2POP    C64   64   1.706   1.674   0.143
    2POP    C65   65   2.017   1.566   0.341
    2POP    N66   66   2.079   1.431   0.346
    2POP    C67   67   2.019   1.644   0.475
    2POP    C68   68   1.460   1.843   0.308
    2POP    C69   69   1.501   1.966   0.364
    2POP    H70   70   1.524   2.151   0.076
    2POP    H71   71   1.450   1.935  -0.022
    2POP    H72   72   1.469   1.367   0.086
    2POP    H73   73   1.096   1.227  -0.131
    2POP    H74   74   1.121   1.393  -0.191
    2POP    H75   75   1.035   1.364  -0.035
    2POP    H76   76   1.118   1.581  -0.047
    2POP    H77   77   1.213   1.791   0.039
    2POP    H78   78   1.577   1.398   0.300
    2POP    H79   79   1.807   1.390   0.391
    2POP    H80   80   1.908   1.745   0.165
    2POP    H81   81   1.680   1.752   0.073
    2POP    H82   82   2.079   1.624   0.272
    2POP    H83   83   2.121   1.396   0.260
    2POP    H84   84   1.994   1.749   0.455
    2POP    H85   85   1.945   1.602   0.544
    2POP    H86   86   2.119   1.638   0.519
    2POP    H87   87   1.441   1.758   0.371
    2POP    H88   88   1.513   1.974   0.472
    3POP    C89   89   2.088   1.343   0.454
    3POP    O90   90   2.015   1.359   0.551
    3POP    C91   91   2.176   1.222   0.445
    3POP    C92   92   2.272   1.208   0.341
    3POP    C93   93   2.356   1.095   0.336
    3POP    C94   94   2.348   0.995   0.436
    3POP    C95   95   2.438   0.875   0.429
    3POP    C96   96   2.508   0.822   0.542
    3POP    C97   97   2.581   0.701   0.528
    3POP    C98   98   2.589   0.634   0.405
    3POP    O99   99   2.664   0.517   0.401
    3POP   C100  100   2.675   0.447   0.274
    3POP   C101  101   2.522   0.688   0.292
    3POP   C102  102   2.448   0.807   0.305
    3POP   C103  103   2.510   0.891   0.675
    3POP   C104  104   2.489   0.817   0.794
    3POP   C105  105   2.480   0.883   0.919
    3POP   C106  106   2.493   1.024   0.926
    3POP   C107  107   2.523   1.096   0.808
    3POP   C108  108   2.532   1.030   0.684
    3POP   C109  109   2.467   1.102   1.056
    3POP   N110  110   2.588   1.129   1.136
    3POP   C111  111   2.356   1.041   1.145
    3POP   C112  112   2.252   1.008   0.538
    3POP   C113  113   2.167   1.121   0.544
    3POP   H114  114   2.284   1.285   0.265
    3POP   H115  115   2.430   1.087   0.257
    3POP   H116  116   2.634   0.660   0.613
    3POP   H117  117   2.738   0.359   0.289
    3POP   H118  118   2.723   0.512   0.200
    3POP   H119  119   2.576   0.415   0.240
    3POP   H120  120   2.525   0.640   0.195
    3POP   H121  121   2.395   0.845   0.218
    3POP   H122  122   2.475   0.710   0.790
    3POP   H123  123   2.461   0.825   1.008
    3POP   H124  124   2.535   1.204   0.812
    3POP   H125  125   2.552   1.088   0.595
    3POP   H126  126   2.428   1.199   1.025
    3POP   H127  127   2.591   1.216   1.188
    3POP   H128  128   2.267   1.024   1.084
    3POP   H129  129   2.390   0.946   1.188
    3POP   H130  130   2.333   1.111   1.225
    3POP   H131  131   2.244   0.931   0.615
    3POP   H132  132   2.095   1.129   0.625
    4POP   C133  133   2.681   1.037   1.181
    4POP   O134  134   2.658   0.917   1.176
    4POP   C135  135   2.796   1.087   1.260
    4POP   C136  136   2.862   1.207   1.223
    4POP   C137  137   2.968   1.257   1.301
    4POP   C138  138   3.008   1.190   1.419
    4POP   C139  139   3.119   1.245   1.502
    4POP   C140  140   3.104   1.268   1.642
    4POP   C141  141   3.217   1.306   1.718
    4POP   C142  142   3.343   1.323   1.658
    4POP   O143  143   3.448   1.360   1.741
    4POP   C144  144   3.579   1.376   1.682
    4POP   C145  145   3.357   1.302   1.518
    4POP   C146  146   3.245   1.263   1.442
    4POP   C147  147   2.973   1.259   1.711
    4POP   C148  148   2.963   1.188   1.834
    4POP   C149  149   2.840   1.182   1.902
    4POP   C150  150   2.726   1.248   1.851
    4POP   C151  151   2.736   1.319   1.730
    4POP   C152  152   2.858   1.324   1.660
    4POP   C153  153   2.593   1.243   1.928
    4POP   N154  154   2.602   1.286   2.069
    4POP   C155  155   2.538   1.099   1.924
    4POP   C156  156   2.944   1.070   1.455
    4POP   C157  157   2.839   1.018   1.376
    4POP   H158  158   2.832   1.260   1.133
    4POP   H159  159   3.018   1.349   1.272
    4POP   H160  160   3.207   1.325   1.824
    4POP   H161  161   3.649   1.406   1.761
    4POP   H162  162   3.577   1.454   1.606
    4POP   H163  163   3.612   1.281   1.639
    4POP   H164  164   3.452   1.315   1.468
    4POP   H165  165   3.257   1.244   1.335
    4POP   H166  166   3.049   1.138   1.875
    4POP   H167  167   2.833   1.127   1.995
    4POP   H168  168   2.650   1.373   1.690
    4POP   H169  169   2.865   1.382   1.568
    4POP   H170  170   2.520   1.307   1.877
    4POP   H171  171   2.528   1.261   2.134
    4POP   H172  172   2.528   1.067   1.819
    4POP   H173  173   2.606   1.032   1.977
    4POP   H174  174   2.439   1.097   1.971
    4POP   H175  175   2.976   1.016   1.544
    4POP   H176  176   2.790   0.926   1.406
    5CAP   C177  177   1.845   3.296  -0.151
    5CAP   O178  178   1.734   3.245  -0.072
    5CAP   H179  179   1.916   3.348  -0.086
    5CAP   H180  180   1.806   3.367  -0.224
    5CAP   H181  181   1.894   3.214  -0.203
    6CAP   C182  182   2.763   1.486   2.458
    6CAP   C183  183   2.763   1.516   2.306
    6CAP   C184  184   2.694   1.653   2.288
    6CAP   C185  185   2.911   1.519   2.260
    6CAP   O186  186   2.688   1.403   2.250
    6CAP   C187  187   2.673   1.395   2.114
    6CAP   O188  188   2.709   1.480   2.034
    6CAP   H189  189   2.815   1.566   2.510
    6CAP   H190  190   2.660   1.479   2.493
    6CAP   H191  191   2.814   1.391   2.476
    6CAP   H192  192   2.592   1.648   2.327
    6CAP   H193  193   2.691   1.681   2.182
    6CAP   H194  194   2.750   1.730   2.342
    6CAP   H195  195   2.953   1.419   2.268
    6CAP   H196  196   2.917   1.552   2.156
    6CAP   H197  197   2.967   1.589   2.322
    7TCM     c1  198   4.343   0.409   2.813
    7TCM    cl1  199   4.418   0.472   2.663
    7TCM    cl2  200   4.467   0.325   2.911
    7TCM     h1  201   4.300   0.491   2.871
    7TCM    cl3  202   4.215   0.291   2.770
    8TCM     c1  203   1.663   2.305   4.175
    8TCM    cl1  204   1.622   2.172   4.061
    8TCM    cl2  205   1.778   2.244   4.299
    8TCM     h1  206   1.709   2.387   4.120
    8TCM    cl3  207   1.513   2.362   4.255
    9TCM     c1  208   1.697   2.485   0.876
    9TCM    cl1  209   1.817   2.556   0.762
    9TCM    cl2  210   1.650   2.322   0.819
    9TCM     h1  211   1.741   2.478   0.975
    9TCM    cl3  212   1.553   2.592   0.883
   10TCM     c1  213   2.738   0.438   3.723
   10TCM    cl1  214   2.859   0.442   3.591
   10TCM    cl2  215   2.594   0.533   3.674
   10TCM     h1  216   2.710   0.335   3.743
   10TCM    cl3  217   2.808   0.512   3.870
   11TCM     c1  218   1.983   1.776   2.711
   11TCM    cl1  219   2.082   1.661   2.807
   11TCM    cl2  220   2.066   1.808   2.555
   11TCM     h1  221   1.884   1.733   2.692
   11TCM    cl3  222   1.965   1.930   2.802
   12TCM     c1  223   0.199   1.145   0.259
   12TCM    cl1  224   0.124   1.291   0.331
   12TCM    cl2  225   0.377   1.153   0.279
   12TCM     h1  226   0.160   1.056   0.309
   12TCM    cl3  227   0.158   1.138   0.084
   13TCM     c1  228   2.820   0.734   2.479
   13TCM    cl1  229   2.717   0.664   2.349
   13TCM    cl2  230   2.990   0.691   2.447
   13TCM     h1  231   2.809   0.842   2.481
   13TCM    cl3  232   2.770   0.666   2.637
   14TCM     c1  233   3.543   3.879   4.503
   14TCM    cl1  234   3.696   3.914   4.590
   14TCM    cl2  235   3.572   3.881   4.326
   14TCM     h1  236   3.505   3.781   4.533
   14TCM    cl3  237   3.423   4.006   4.544
   15TCM     c1  238   0.270   4.023   3.544
   15TCM    cl1  239   0.189   3.895   3.639
   15TCM    cl2  240   0.409   3.951   3.456
   15TCM     h1  241   0.200   4.066   3.473
   15TCM    cl3  242   0.329   4.151   3.656
   16TCM     c1  243   3.770   1.160   2.592
   16TCM    cl1  244   3.841   1.224   2.744
   16TCM    cl2  245   3.877   1.032   2.525
   16TCM     h1  246   3.671   1.118   2.612
   16TCM    cl3  247   3.754   1.293   2.472
   17TCM     c1  248   0.024   2.926   4.285
   17TCM    cl1  249   0.063   2.843   4.440
   17TCM    cl2  250  -0.114   3.036   4.309
   17TCM     h1  251   0.111   2.983   4.252
   17TCM    cl3  252  -0.017   2.803   4.161
   18TCM     c1  253   0.442   2.607   1.231
   18TCM    cl1  254   0.548   2.749   1.203
   18TCM    cl2  255   0.419   2.517   1.077
   18TCM     h1  256   0.488   2.541   1.305
   18TCM    cl3  257   0.284   2.663   1.293
   19TCM     c1  258   1.324   1.952   2.062
   19TCM    cl1  259   1.302   1.995   1.890
   19TCM    cl2  260   1.407   1.793   2.073
   19TCM     h1  261   1.384   2.028   2.112
   19TCM    cl3  262   1.162   1.941   2.139
   20TCM     c1  263   4.304   4.364   0.580
   20TCM    cl1  264   4.462   4.447   0.590
   20TCM    cl2  265   4.177   4.467   0.654
   20TCM     h1  266   4.279   4.344   0.475
   20TCM    cl3  267   4.314   4.209   0.670
   21TCM     c1  268   2.335   0.218   3.689
   21TCM    cl1  269   2.256   0.338   3.582
   21TCM    cl2  270   2.349   0.289   3.853
   21TCM     h1  271   2.277   0.126   3.693
   21TCM    cl3  272   2.500   0.182   3.627
   22TCM     c1  273   2.733   1.661   2.862
   22TCM    cl1  274   2.762   1.768   2.721
   22TCM    cl2  275   2.716   1.491   2.807
   22TCM     h1  276   2.818   1.668   2.932
   22TCM    cl3  277   2.583   1.711   2.945
   23TCM     c1  278   0.686   3.007   4.815
   23TCM    cl1  279   0.771   2.977   4.970
   23TCM    cl2  280   0.709   2.867   4.706
   23TCM     h1  281   0.580   3.023   4.834
   23TCM    cl3  282   0.756   3.154   4.738
   24TCM     c1  283   4.354   3.460   2.021
   24TCM    cl1  284   4.304   3.332   1.906
   24TCM    cl2  285   4.498   3.405   2.113
   24TCM     h1  286   4.379   3.552   1.966
   24TCM    cl3  287   4.219   3.493   2.135
   25TCM     c1  288   0.305   3.836   4.927
   25TCM    cl1  289   0.131   3.871   4.901
   25TCM    cl2  290   0.368   3.943   5.056
   25TCM     h1  291   0.317   3.732   4.957
   25TCM    cl3  292   0.394   3.866   4.773
   26TCM     c1  293   2.120   0.994   3.268
   26TCM    cl1  294   2.137   0.956   3.443
   26TCM    cl2  295   2.167   0.850   3.171
   26TCM     h1  296   2.016   1.021   3.246
   26TCM    cl3  297   2.228   1.131   3.228
   27TCM     c1  298   1.133   2.033   2.659
   27TCM    cl1  299   1.189   2.203   2.660
   27TCM    cl2  300   1.259   1.929   2.732
   27TCM     h1  301   1.040   2.024   2.716
   27TCM    cl3  302   1.105   1.980   2.490
   28TCM     c1  303   2.996   4.626   4.691
   28TCM    cl1  304   3.090   4.510   4.791
   28TCM    cl2  305   2.824   4.578   4.689
   28TCM     h1  306   3.006   4.726   4.734
   28TCM    cl3  307   3.062   4.627   4.524
   29TCM     c1  308   2.728   2.367   2.032
   29TCM    cl1  309   2.729   2.199   2.097
   29TCM    cl2  310   2.769   2.482   2.163
   29TCM     h1  311   2.801   2.375   1.951
   29TCM    cl3  312   2.564   2.407   1.969
   30TCM     c1  313   2.604   2.019   4.982
   30TCM    cl1  314   2.710   1.942   4.860
   30TCM    cl2  315   2.638   1.951   5.145
   30TCM     h1  316   2.622   2.127   4.983
   30TCM    cl3  317   2.432   1.987   4.940
   31TCM     c1  318   4.912   0.323   1.176
   31TCM    cl1  319   4.756   0.412   1.167
   31TCM    cl2  320   5.037   0.429   1.250
   31TCM     h1  321   4.899   0.234   1.237
   31TCM    cl3  322   4.963   0.276   1.011
   32TCM     c1  323   2.865   0.764   1.003
   32TCM    cl1  324   2.959   0.738   1.153
   32TCM    cl2  325   2.894   0.627   0.890
   32TCM     h1  326   2.758   0.769   1.027
   32TCM    cl3  327   2.917   0.917   0.925
   33TCM     c1  328   3.909   3.296   2.084
   33TCM    cl1  329   3.752   3.247   2.157
   33TCM    cl2  330   3.894   3.296   1.906
   33TCM     h1  331   3.937   3.396   2.119
   33TCM    cl3  332   4.036   3.178   2.132
   34TCM     c1  333   1.142   0.887   3.470
   34TCM    cl1  334   1.139   0.915   3.648
   34TCM    cl2  335   1.143   1.045   3.385
   34TCM     h1  336   1.231   0.830   3.444
   34TCM    cl3  337   0.996   0.794   3.422
   35TCM     c1  338   0.704   0.192   3.800
   35TCM    cl1  339   0.640   0.121   3.952
   35TCM    cl2  340   0.710   0.065   3.673
   35TCM     h1  341   0.638   0.273   3.768
   35TCM    cl3  342   0.869   0.255   3.829
   36TCM     c1  343   2.725   3.572   3.281
   36TCM    cl1  344   2.679   3.399   3.283
   36TCM    cl2  345   2.840   3.603   3.415
   36TCM     h1  346   2.772   3.597   3.185
   36TCM    cl3  347   2.578   3.671   3.304
   37TCM     c1  348   0.338   0.939   2.417
   37TCM    cl1  349   0.289   1.000   2.579
   37TCM    cl2  350   0.191   0.895   2.324
   37TCM     h1  351   0.393   1.017   2.364
   37TCM    cl3  352   0.443   0.795   2.437
   38TCM     c1  353   4.900   1.924   2.008
   38TCM    cl1  354   4.992   2.033   1.899
   38TCM    cl2  355   4.837   1.786   1.913
   38TCM     h1  356   4.966   1.887   2.087
   38TCM    cl3  357   4.763   2.014   2.083
   39TCM     c1  358   1.428   3.516   2.292
   39TCM    cl1  359   1.361   3.417   2.157
   39TCM    cl2  360   1.588   3.451   2.341
   39TCM     h1  361   1.438   3.619   2.260
   39TCM    cl3  362   1.316   3.507   2.432
   40TCM     c1  363   3.745   1.303   2.102
   40TCM    cl1  364   3.716   1.475   2.146
   40TCM    cl2  365   3.883   1.295   1.988
   40TCM     h1  366   3.768   1.245   2.192
   40TCM    cl3  367   3.600   1.236   2.022
   41TCM     c1  368   0.693   2.126   2.060
   41TCM    cl1  369   0.714   2.247   2.190
   41TCM    cl2  370   0.748   1.966   2.121
   41TCM     h1  371   0.588   2.120   2.031
   41TCM    cl3  372   0.792   2.174   1.918
   42TCM     c1  373   2.174   3.743   1.811
   42TCM    cl1  374   2.117   3.634   1.942
   42TCM    cl2  375   2.100   3.691   1.657
   42TCM     h1  376   2.145   3.846   1.833
   42TCM    cl3  377   2.353   3.731   1.799
   43TCM     c1  378   0.891   4.451   0.746
   43TCM    cl1  379   1.025   4.490   0.633
   43TCM    cl2  380   0.922   4.530   0.904
   43TCM     h1  381   0.796   4.487   0.705
   43TCM    cl3  382   0.882   4.273   0.770
   44TCM     c1  383   0.157   1.135   4.628
   44TCM    cl1  384   0.220   1.200   4.473
   44TCM    cl2  385   0.293   1.113   4.743
   44TCM     h1  386   0.084   1.205   4.671
   44TCM    cl3  387   0.079   0.976   4.600
   45TCM     c1  388   1.279   3.651   4.829
   45TCM    cl1  389   1.355   3.762   4.710
   45TCM    cl2  390   1.405   3.549   4.906
   45TCM     h1  391   1.228   3.710   4.906
   45TCM    cl3  392   1.160   3.546   4.746
   46TCM     c1  393   0.312   0.585   4.646
   46TCM    cl1  394   0.157   0.602   4.558
   46TCM    cl2  395   0.293   0.459   4.773
   46TCM     h1  396   0.391   0.556   4.577
   46TCM    cl3  397   0.353   0.741   4.725
   47TCM     c1  398   1.088   4.106   2.001
   47TCM    cl1  399   1.036   4.206   2.140
   47TCM    cl2  400   1.099   4.208   1.854
   47TCM     h1  401   1.186   4.062   2.022
   47TCM    cl3  402   0.969   3.974   1.974
   48TCM     c1  403   3.453   4.127   4.892
   48TCM    cl1  404   3.521   4.039   5.033
   48TCM    cl2  405   3.481   4.304   4.910
   48TCM     h1  406   3.501   4.092   4.801
   48TCM    cl3  407   3.276   4.097   4.882
   49TCM     c1  408   1.618   1.583   1.306
   49TCM    cl1  409   1.447   1.540   1.275
   49TCM    cl2  410   1.629   1.760   1.335
   49TCM     h1  411   1.653   1.529   1.394
   49TCM    cl3  412   1.719   1.539   1.165
   50TCM     c1  413   3.217   0.556   2.132
   50TCM    cl1  414   3.040   0.535   2.112
   50TCM    cl2  415   3.304   0.442   2.025
   50TCM     h1  416   3.244   0.659   2.106
   50TCM    cl3  417   3.265   0.524   2.302
   51TCM     c1  418   0.155   0.221   1.651
   51TCM    cl1  419   0.221   0.054   1.641
   51TCM    cl2  420  -0.015   0.221   1.594
   51TCM     h1  421   0.159   0.257   1.754
   51TCM    cl3  422   0.252   0.329   1.546
   52TCM     c1  423   3.254   2.410   1.217
   52TCM    cl1  424   3.189   2.243   1.222
   52TCM    cl2  425   3.433   2.404   1.209
   52TCM     h1  426   3.215   2.463   1.130
   52TCM    cl3  427   3.205   2.496   1.367
   53TCM     c1  428   3.896   0.169   0.513
   53TCM    cl1  429   3.841   0.228   0.353
   53TCM    cl2  430   4.074   0.188   0.525
   53TCM     h1  431   3.847   0.227   0.592
   53TCM    cl3  432   3.852  -0.004   0.529
   54TCM     c1  433   4.978   1.642   3.148
   54TCM    cl1  434   5.055   1.803   3.151
   54TCM    cl2  435   5.103   1.516   3.125
   54TCM     h1  436   4.925   1.625   3.242
   54TCM    cl3  437   4.862   1.635   3.012
   55TCM     c1  438   2.023   3.370   2.312
   55TCM    cl1  439   1.898   3.243   2.325
   55TCM    cl2  440   2.096   3.400   2.473
   55TCM     h1  441   2.101   3.337   2.243
   55TCM    cl3  442   1.950   3.522   2.251
   56TCM     c1  443   0.480   4.930   4.657
   56TCM    cl1  444   0.460   4.949   4.479
   56TCM    cl2  445   0.332   4.860   4.728
   56TCM     h1  446   0.565   4.863   4.677
   56TCM    cl3  447   0.511   5.090   4.730
   57TCM     c1  448   4.595   0.552   4.517
   57TCM    cl1  449   4.567   0.396   4.433
   57TCM    cl2  450   4.771   0.577   4.538
   57TCM     h1  451   4.553   0.634   4.458
   57TCM    cl3  452   4.516   0.548   4.678
   58TCM     c1  453   3.705   4.609   1.347
   58TCM    cl1  454   3.730   4.786   1.329
   58TCM    cl2  455   3.744   4.561   1.516
   58TCM     h1  456   3.600   4.585   1.326
   58TCM    cl3  457   3.812   4.521   1.234
   59TCM     c1  458   4.602   4.160   4.984
   59TCM    cl1  459   4.746   4.179   5.089
   59TCM    cl2  460   4.563   4.317   4.905
   59TCM     h1  461   4.622   4.085   4.907
   59TCM    cl3  462   4.462   4.107   5.083
   60TCM     c1  463   3.770   4.136   1.400
   60TCM    cl1  464   3.860   4.124   1.245
   60TCM    cl2  465   3.623   4.236   1.376
   60TCM     h1  466   3.742   4.037   1.434
   60TCM    cl3  467   3.876   4.214   1.522
   61TCM     c1  468   3.644   3.985   3.364
   61TCM    cl1  469   3.635   3.918   3.530
   61TCM    cl2  470   3.773   3.899   3.274
   61TCM     h1  471   3.548   3.971   3.313
   61TCM    cl3  472   3.684   4.160   3.372
   62TCM     c1  473   0.272   0.960   3.108
   62TCM    cl1  474   0.324   1.024   2.949
   62TCM    cl2  475   0.115   0.875   3.089
   62TCM     h1  476   0.347   0.890   3.146
   62TCM    cl3  477   0.252   1.097   3.222
   63TCM     c1  478   3.079   2.328   2.588
   63TCM    cl1  479   3.225   2.273   2.500
   63TCM    cl2  480   3.017   2.194   2.691
   63TCM     h1  481   3.103   2.414   2.650
   63TCM    cl3  482   2.953   2.373   2.469
   64TCM     c1  483   3.517   2.233   2.295
   64TCM    cl1  484   3.449   2.350   2.177
   64TCM    cl2  485   3.692   2.212   2.264
   64TCM     h1  486   3.502   2.271   2.397
   64TCM    cl3  487   3.434   2.075   2.276
   65TCM     c1  488   0.033   0.567   2.333
   65TCM    cl1  489  -0.110   0.493   2.412
   65TCM    cl2  490   0.067   0.483   2.178
   65TCM     h1  491   0.014   0.673   2.313
   65TCM    cl3  492   0.176   0.551   2.441
   66TCM     c1  493   0.559   0.203   2.971
   66TCM    cl1  494   0.382   0.175   2.979
   66TCM    cl2  495   0.594   0.371   3.025
   66TCM     h1  496   0.611   0.132   3.036
   66TCM    cl3  497   0.616   0.182   2.802
   67TCM     c1  498   0.083   3.519   1.029
   67TCM    cl1  499   0.229   3.460   1.116
   67TCM    cl2  500   0.033   3.397   0.908
   67TCM     h1  501   0.002   3.534   1.101
   67TCM    cl3  502   0.120   3.673   0.946
   68TCM     c1  503   1.524   3.005   0.688
   68TCM    cl1  504   1.416   2.932   0.811
   68TCM    cl2  505   1.669   2.902   0.667
   68TCM     h1  506   1.470   3.015   0.593
   68TCM    cl3  507   1.576   3.167   0.745
   69TCM     c1  508   2.869   4.398   3.894
   69TCM    cl1  509   2.766   4.509   3.990
   69TCM    cl2  510   2.933   4.488   3.753
   69TCM     h1  511   2.952   4.363   3.956
   69TCM    cl3  512   2.773   4.257   3.839
   70TCM     c1  513   4.834   1.516   0.134
   70TCM    cl1  514   4.963   1.614   0.211
   70TCM    cl2  515   4.786   1.382   0.243
   70TCM     h1  516   4.748   1.580   0.114
   70TCM    cl3  517   4.895   1.447  -0.020
   71TCM     c1  518   2.609   4.700   4.260
   71TCM    cl1  519   2.553   4.833   4.153
   71TCM    cl2  520   2.529   4.715   4.419
   71TCM     h1  521   2.586   4.604   4.214
   71TCM    cl3  522   2.787   4.715   4.283
   72TCM     c1  523   3.665   4.022   1.871
   72TCM    cl1  524   3.630   3.854   1.924
   72TCM    cl2  525   3.582   4.055   1.715
   72TCM     h1  526   3.629   4.093   1.947
   72TCM    cl3  527   3.842   4.041   1.850
   73TCM     c1  528   0.662   0.407   3.367
   73TCM    cl1  529   0.624   0.434   3.540
   73TCM    cl2  530   0.720   0.239   3.344
   73TCM     h1  531   0.571   0.423   3.307
   73TCM    cl3  532   0.788   0.523   3.314
   74TCM     c1  533   0.644   1.463   2.406
   74TCM    cl1  534   0.499   1.358   2.397
   74TCM    cl2  535   0.776   1.392   2.307
   74TCM     h1  536   0.619   1.563   2.368
   74TCM    cl3  537   0.698   1.476   2.576
   75TCM     c1  538   0.973   0.640   2.365
   75TCM    cl1  539   0.850   0.750   2.435
   75TCM    cl2  540   1.091   0.595   2.493
   75TCM     h1  541   0.924   0.550   2.327
   75TCM    cl3  542   1.059   0.722   2.232
   76TCM     c1  543   2.860   0.983   3.558
   76TCM    cl1  544   2.881   1.028   3.385
   76TCM    cl2  545   2.970   1.084   3.658
   76TCM     h1  546   2.757   0.999   3.588
   76TCM    cl3  547   2.903   0.809   3.579
   77TCM     c1  548   4.735   4.899   0.995
   77TCM    cl1  549   4.779   4.987   1.144
   77TCM    cl2  550   4.624   5.000   0.896
   77TCM     h1  551   4.825   4.876   0.937
   77TCM    cl3  552   4.652   4.746   1.040
   78TCM     c1  553   0.600   4.312   0.196
   78TCM    cl1  554   0.731   4.383   0.095
   78TCM    cl2  555   0.601   4.390   0.358
   78TCM     h1  556   0.504   4.330   0.148
   78TCM    cl3  557   0.628   4.136   0.213
   79TCM     c1  558   2.454   3.457   2.036
   79TCM    cl1  559   2.587   3.575   2.060
   79TCM    cl2  560   2.342   3.466   2.176
   79TCM     h1  561   2.400   3.481   1.944
   79TCM    cl3  562   2.523   3.291   2.024
   80TCM     c1  563   0.300   3.043   0.835
   80TCM    cl1  564   0.381   2.907   0.918
   80TCM    cl2  565   0.365   3.198   0.898
   80TCM     h1  566   0.319   3.037   0.727
   80TCM    cl3  567   0.123   3.036   0.865
   81TCM     c1  568   3.196   3.572   0.800
   81TCM    cl1  569   3.290   3.725   0.793
   81TCM    cl2  570   3.169   3.526   0.971
   81TCM     h1  571   3.100   3.585   0.750
   81TCM    cl3  572   3.289   3.442   0.717
   82TCM     c1  573   2.700   3.100   0.047
   82TCM    cl1  574   2.729   3.269  -0.005
   82TCM    cl2  575   2.844   3.039   0.136
   82TCM     h1  576   2.613   3.097   0.113
   82TCM    cl3  577   2.670   2.997  -0.097
   83TCM     c1  578   1.065   1.500   2.007
   83TCM    cl1  579   1.194   1.553   1.894
   83TCM    cl2  580   1.073   1.595   2.159
   83TCM     h1  581   0.968   1.515   1.959
   83TCM    cl3  582   1.087   1.326   2.045
   84TCM     c1  583   1.712   2.494   4.616
   84TCM    cl1  584   1.603   2.353   4.602
   84TCM    cl2  585   1.674   2.613   4.487
   84TCM     h1  586   1.698   2.542   4.714
   84TCM    cl3  587   1.881   2.439   4.598
   85TCM     c1  588   2.027   3.882   4.167
   85TCM    cl1  589   1.926   4.019   4.222
   85TCM    cl2  590   2.171   3.945   4.081
   85TCM     h1  591   2.059   3.822   4.253
   85TCM    cl3  592   1.934   3.779   4.054
   86TCM     c1  593   0.736   0.293   0.014
   86TCM    cl1  594   0.849   0.251  -0.119
   86TCM    cl2  595   0.584   0.357  -0.056
   86TCM     h1  596   0.714   0.204   0.073
   86TCM    cl3  597   0.810   0.420   0.117
   87TCM     c1  598   0.847   0.560   2.773
   87TCM    cl1  599   0.917   0.397   2.799
   87TCM    cl2  600   0.821   0.640   2.931
   87TCM     h1  601   0.917   0.620   2.713
   87TCM    cl3  602   0.692   0.544   2.686
   88TCM     c1  603   4.354   2.835   3.083
   88TCM    cl1  604   4.188   2.835   3.015
   88TCM    cl2  605   4.470   2.883   2.955
   88TCM     h1  606   4.359   2.906   3.166
   88TCM    cl3  607   4.394   2.670   3.142
   89TCM     c1  608   3.079   4.872   0.285
   89TCM    cl1  609   3.085   4.694   0.306
   89TCM    cl2  610   3.042   4.910   0.114
   89TCM     h1  611   3.002   4.914   0.350
   89TCM    cl3  612   3.239   4.941   0.328
   90TCM     c1  613   1.985   0.029   3.540
   90TCM    cl1  614   2.003   0.059   3.716
   90TCM    cl2  615   2.146   0.004   3.466
   90TCM     h1  616   1.923  -0.061   3.525
   90TCM    cl3  617   1.905   0.170   3.464
   91TCM     c1  618   0.784   0.791   3.745
   91TCM    cl1  619   0.861   0.630   3.732
   91TCM    cl2  620   0.801   0.850   3.914
   91TCM     h1  621   0.833   0.861   3.677
   91TCM    cl3  622   0.610   0.778   3.704
   92TCM     c1  623   2.244   0.033   2.291
   92TCM    cl1  624   2.071   0.066   2.261
   92TCM    cl2  625   2.309  -0.067   2.157
   92TCM     h1  626   2.299   0.127   2.296
   92TCM    cl3  627   2.262  -0.056   2.446
   93TCM     c1  628   1.071   1.216   2.419
   93TCM    cl1  629   1.197   1.340   2.395
   93TCM    cl2  630   0.996   1.239   2.580
   93TCM     h1  631   0.995   1.225   2.340
   93TCM    cl3  632   1.146   1.053   2.411
   94TCM     c1  633   1.379   1.542   0.606
   94TCM    cl1  634   1.541   1.620   0.592
   94TCM    cl2  635   1.324   1.488   0.444
   94TCM     h1  636   1.386   1.456   0.673
   94TCM    cl3  637   1.262   1.661   0.670
   95TCM     c1  638   4.277   3.056   2.394
   95TCM    cl1  639   4.118   3.071   2.476
   95TCM    cl2  640   4.378   2.936   2.481
   95TCM     h1  641   4.262   3.023   2.291
   95TCM    cl3  642   4.359   3.215   2.395
   96TCM     c1  643   2.894   4.471   1.300
   96TCM    cl1  644   2.828   4.355   1.180
   96TCM    cl2  645   3.061   4.423   1.344
   96TCM     h1  646   2.894   4.572   1.258
   96TCM    cl3  647   2.793   4.466   1.449
   97TCM     c1  648   4.091   2.479   3.033
   97TCM    cl1  649   4.000   2.538   3.176
   97TCM    cl2  650   3.981   2.470   2.892
   97TCM     h1  651   4.173   2.548   3.011
   97TCM    cl3  652   4.158   2.316   3.068
   98TCM     c1  653   4.238   0.681   3.535
   98TCM    cl1  654   4.332   0.552   3.618
   98TCM    cl2  655   4.090   0.612   3.462
   98TCM     h1  656   4.210   0.758   3.608
   98TCM    cl3  657   4.339   0.755   3.406
   99TCM     c1  658   4.083   0.969   2.986
   99TCM    cl1  659   4.173   0.850   3.086
   99TCM    cl2  660   4.037   0.891   2.831
   99TCM     h1  661   3.994   1.002   3.039
   99TCM    cl3  662   4.189   1.110   2.953
  100TCM     c1  663   2.007   0.321   3.112
  100TCM    cl1  664   2.061   0.150   3.127
  100TCM    cl2  665   2.080   0.418   3.244
  100TCM     h1  666   2.039   0.361   3.015
  100TCM    cl3  667   1.828   0.327   3.124
  101TCM     c1  668   4.881   4.272   3.585
  101TCM    cl1  669   5.026   4.306   3.485
  101TCM    cl2  670   4.915   4.132   3.693
  101TCM     h1  671   4.856   4.360   3.645
  101TCM    cl3  672   4.742   4.233   3.479
  102TCM     c1  673   0.264   1.584   4.893
  102TCM    cl1  674   0.261   1.493   5.047
  102TCM    cl2  675   0.159   1.729   4.908
  102TCM     h1  676   0.367   1.616   4.872
  102TCM    cl3  677   0.206   1.479   4.760
  103TCM     c1  678   1.067   0.133   0.281
  103TCM    cl1  679   0.890   0.102   0.271
  103TCM    cl2  680   1.099   0.243   0.420
  103TCM     h1  681   1.119   0.039   0.297
  103TCM    cl3  682   1.124   0.209   0.129
  104TCM     c1  683   0.721   2.085   1.114
  104TCM    cl1  684   0.773   2.223   1.012
  104TCM    cl2  685   0.708   1.936   1.014
  104TCM     h1  686   0.794   2.069   1.194
  104TCM    cl3  687   0.561   2.121   1.186
  105TCM     c1  688   4.705   1.622   2.322
  105TCM    cl1  689   4.593   1.680   2.193
  105TCM    cl2  690   4.859   1.714   2.312
  105TCM     h1  691   4.659   1.638   2.420
  105TCM    cl3  692   4.738   1.447   2.299
  106TCM     c1  693   2.913   1.092   2.718
  106TCM    cl1  694   2.974   1.173   2.865
  106TCM    cl2  695   2.749   1.024   2.748
  106TCM     h1  696   2.908   1.164   2.636
  106TCM    cl3  697   3.025   0.959   2.675
  107TCM     c1  698   2.913   0.323   2.559
  107TCM    cl1  699   2.877   0.332   2.383
  107TCM    cl2  700   3.086   0.359   2.588
  107TCM     h1  701   2.851   0.396   2.612
  107TCM    cl3  702   2.876   0.158   2.618
  108TCM     c1  703   2.457   4.328   0.923
  108TCM    cl1  704   2.434   4.499   0.974
  108TCM    cl2  705   2.623   4.307   0.858
  108TCM     h1  706   2.442   4.262   1.008
  108TCM    cl3  707   2.337   4.288   0.794
  109TCM     c1  708   0.435   3.402   4.043
  109TCM    cl1  709   0.278   3.442   4.120
  109TCM    cl2  710   0.406   3.288   3.907
  109TCM     h1  711   0.481   3.493   4.005
  109TCM    cl3  712   0.544   3.326   4.163
  110TCM     c1  713   2.352   0.010   1.669
  110TCM    cl1  714   2.222  -0.107   1.629
  110TCM    cl2  715   2.502  -0.079   1.713
  110TCM     h1  716   2.372   0.074   1.583
  110TCM    cl3  717   2.301   0.111   1.809
  111TCM     c1  718   2.519   4.855   3.369
  111TCM    cl1  719   2.475   4.834   3.542
  111TCM    cl2  720   2.584   4.700   3.304
  111TCM     h1  721   2.430   4.884   3.313
  111TCM    cl3  722   2.644   4.983   3.355
  112TCM     c1  723   3.355   3.661   4.951
  112TCM    cl1  724   3.435   3.746   4.815
  112TCM    cl2  725   3.255   3.778   5.042
  112TCM     h1  726   3.291   3.581   4.912
  112TCM    cl3  727   3.479   3.592   5.060
  113TCM     c1  728   1.503   0.016   4.469
  113TCM    cl1  729   1.365  -0.085   4.526
  113TCM    cl2  730   1.609  -0.082   4.361
  113TCM     h1  731   1.464   0.101   4.413
  113TCM    cl3  732   1.598   0.073   4.609
  114TCM     c1  733   3.302   3.704   1.867
  114TCM    cl1  734   3.282   3.880   1.839
  114TCM    cl2  735   3.208   3.614   1.744
  114TCM     h1  736   3.407   3.678   1.859
  114TCM    cl3  737   3.242   3.662   2.031
  115TCM     c1  738   0.152   2.583   2.059
  115TCM    cl1  739  -0.011   2.630   2.000
  115TCM    cl2  740   0.152   2.582   2.238
  115TCM     h1  741   0.177   2.483   2.022
  115TCM    cl3  742   0.274   2.700   1.999
  116TCM     c1  743   1.928   0.663   3.525
  116TCM    cl1  744   1.846   0.509   3.565
  116TCM    cl2  745   1.874   0.790   3.639
  116TCM     h1  746   2.036   0.650   3.534
  116TCM    cl3  747   1.886   0.712   3.358
  117TCM     c1  748   1.542   0.069   3.705
  117TCM    cl1  749   1.431  -0.015   3.819
  117TCM    cl2  750   1.641  -0.053   3.619
  117TCM     h1  751   1.483   0.126   3.633
  117TCM    cl3  752   1.649   0.179   3.798
  118TCM     c1  753   1.234   3.042   3.409
  118TCM    cl1  754   1.378   3.054   3.515
  118TCM    cl2  755   1.185   2.870   3.394
  118TCM     h1  756   1.152   3.099   3.452
  118TCM    cl3  757   1.274   3.106   3.247
  119TCM     c1  758   4.693   2.097   2.454
  119TCM    cl1  759   4.869   2.073   2.437
  119TCM    cl2  760   4.661   2.192   2.603
  119TCM     h1  761   4.654   2.151   2.367
  119TCM    cl3  762   4.612   1.937   2.466
  120TCM     c1  763   2.325   1.546   1.723
  120TCM    cl1  764   2.328   1.522   1.900
  120TCM    cl2  765   2.331   1.385   1.642
  120TCM     h1  766   2.233   1.598   1.694
  120TCM    cl3  767   2.467   1.642   1.672
  121TCM     c1  768   1.115   0.031   3.421
  121TCM    cl1  769   1.093  -0.109   3.311
  121TCM    cl2  770   1.287   0.081   3.420
  121TCM     h1  771   1.052   0.114   3.387
  121TCM    cl3  772   1.069  -0.015   3.588
  122TCM     c1  773   4.118   3.437   2.557
  122TCM    cl1  774   4.043   3.483   2.714
  122TCM    cl2  775   4.246   3.557   2.516
  122TCM     h1  776   4.163   3.338   2.566
  122TCM    cl3  777   3.993   3.435   2.428
  123TCM     c1  778   4.510   1.065   3.677
  123TCM    cl1  779   4.415   0.922   3.732
  123TCM    cl2  780   4.492   1.084   3.500
  123TCM     h1  781   4.474   1.154   3.728
  123TCM    cl3  782   4.684   1.039   3.717
  124TCM     c1  783   3.664   1.823   2.417
  124TCM    cl1  784   3.658   1.651   2.470
  124TCM    cl2  785   3.833   1.867   2.378
  124TCM     h1  786   3.601   1.836   2.329
  124TCM    cl3  787   3.606   1.927   2.552
  125TCM     c1  788   4.842   3.890   3.402
  125TCM    cl1  789   4.983   3.972   3.328
  125TCM    cl2  790   4.897   3.749   3.497
  125TCM     h1  791   4.789   3.960   3.467
  125TCM    cl3  792   4.731   3.836   3.271
  126TCM     c1  793   0.541   1.639   0.351
  126TCM    cl1  794   0.526   1.753   0.489
  126TCM    cl2  795   0.511   1.725   0.196
  126TCM     h1  796   0.642   1.597   0.350
  126TCM    cl3  797   0.421   1.508   0.370
  127TCM     c1  798   3.508   1.565   3.397
  127TCM    cl1  799   3.412   1.472   3.277
  127TCM    cl2  800   3.528   1.466   3.545
  127TCM     h1  801   3.606   1.590   3.356
  127TCM    cl3  802   3.420   1.716   3.439
  128TCM     c1  803   1.459   2.591   2.673
  128TCM    cl1  804   1.508   2.479   2.804
  128TCM    cl2  805   1.503   2.759   2.718
  128TCM     h1  806   1.510   2.564   2.580
  128TCM    cl3  807   1.281   2.580   2.648
  129TCM     c1  808   0.304   2.763   4.860
  129TCM    cl1  809   0.417   2.837   4.978
  129TCM    cl2  810   0.395   2.655   4.749
  129TCM     h1  811   0.228   2.705   4.913
  129TCM    cl3  812   0.226   2.892   4.763
  130TCM     c1  813   0.704   4.734   5.001
  130TCM    cl1  814   0.572   4.712   5.120
  130TCM    cl2  815   0.729   4.909   4.973
  130TCM     h1  816   0.796   4.689   5.039
  130TCM    cl3  817   0.660   4.656   4.845
  131TCM     c1  818   4.790   4.674   0.108
  131TCM    cl1  819   4.885   4.522   0.114
  131TCM    cl2  820   4.709   4.699   0.266
  131TCM     h1  821   4.858   4.758   0.087
  131TCM    cl3  822   4.666   4.664  -0.021
  132TCM     c1  823   0.765   1.271   0.469
  132TCM    cl1  824   0.703   1.105   0.499
  132TCM    cl2  825   0.696   1.384   0.590
  132TCM     h1  826   0.874   1.271   0.477
  132TCM    cl3  827   0.717   1.323   0.305
  133TCM     c1  828   2.440   0.368   3.266
  133TCM    cl1  829   2.384   0.198   3.252
  133TCM    cl2  830   2.437   0.446   3.105
  133TCM     h1  831   2.374   0.422   3.334
  133TCM    cl3  832   2.607   0.370   3.330
  134TCM     c1  833   0.442   1.395   3.116
  134TCM    cl1  834   0.476   1.544   3.021
  134TCM    cl2  835   0.438   1.435   3.291
  134TCM     h1  836   0.345   1.354   3.086
  134TCM    cl3  837   0.571   1.274   3.087
  135TCM     c1  838   0.200   4.352   4.998
  135TCM    cl1  839   0.346   4.450   4.959
  135TCM    cl2  840   0.221   4.277   5.160
  135TCM     h1  841   0.112   4.416   4.998
  135TCM    cl3  842   0.181   4.222   4.876
  136TCM     c1  843   4.238   1.204   2.216
  136TCM    cl1  844   4.231   1.127   2.054
  136TCM    cl2  845   4.071   1.216   2.280
  136TCM     h1  846   4.299   1.144   2.283
  136TCM    cl3  847   4.309   1.368   2.201
  137TCM     c1  848   1.168   0.454   1.575
  137TCM    cl1  849   1.192   0.279   1.607
  137TCM    cl2  850   1.233   0.549   1.714
  137TCM     h1  851   1.221   0.482   1.484
  137TCM    cl3  852   0.993   0.488   1.557
  138TCM     c1  853   4.894   0.178   3.216
  138TCM    cl1  854   5.052   0.134   3.144
  138TCM    cl2  855   4.774   0.206   3.085
  138TCM     h1  856   4.860   0.097   3.281
  138TCM    cl3  857   4.912   0.329   3.311
  139TCM     c1  858   2.153   1.701   3.248
  139TCM    cl1  859   2.007   1.739   3.151
  139TCM    cl2  860   2.297   1.779   3.175
  139TCM     h1  861   2.139   1.738   3.350
  139TCM    cl3  862   2.178   1.523   3.252
  140TCM     c1  863   2.572   3.499   3.646
  140TCM    cl1  864   2.521   3.327   3.648
  140TCM    cl2  865   2.674   3.533   3.790
  140TCM     h1  866   2.629   3.519   3.555
  140TCM    cl3  867   2.427   3.604   3.649
  141TCM     c1  868   0.854   1.448   3.520
  141TCM    cl1  869   0.724   1.402   3.635
  141TCM    cl2  870   0.802   1.410   3.352
  141TCM     h1  871   0.874   1.555   3.529
  141TCM    cl3  872   1.004   1.356   3.558
  142TCM     c1  873   0.624   4.384   2.040
  142TCM    cl1  874   0.742   4.302   1.933
  142TCM    cl2  875   0.664   4.558   2.051
  142TCM     h1  876   0.523   4.372   2.000
  142TCM    cl3  877   0.632   4.311   2.204
  143TCM     c1  878   3.293   4.006   2.582
  143TCM    cl1  879   3.459   3.965   2.527
  143TCM    cl2  880   3.265   4.182   2.562
  143TCM     h1  881   3.220   3.950   2.523
  143TCM    cl3  882   3.277   3.962   2.755
  144TCM     c1  883   0.378   2.356   3.501
  144TCM    cl1  884   0.290   2.447   3.373
  144TCM    cl2  885   0.446   2.206   3.431
  144TCM     h1  886   0.458   2.418   3.541
  144TCM    cl3  887   0.263   2.314   3.632
  145TCM     c1  888   1.732   3.921   1.751
  145TCM    cl1  889   1.856   3.885   1.876
  145TCM    cl2  890   1.780   3.847   1.594
  145TCM     h1  891   1.636   3.880   1.782
  145TCM    cl3  892   1.718   4.098   1.730
  146TCM     c1  893   1.421   1.582   2.553
  146TCM    cl1  894   1.384   1.707   2.430
  146TCM    cl2  895   1.506   1.657   2.692
  146TCM     h1  896   1.328   1.535   2.587
  146TCM    cl3  897   1.527   1.457   2.481
  147TCM     c1  898   3.822   0.113   4.111
  147TCM    cl1  899   3.872   0.207   4.256
  147TCM    cl2  900   3.952  -0.004   4.070
  147TCM     h1  901   3.730   0.059   4.132
  147TCM    cl3  902   3.797   0.225   3.974
  148TCM     c1  903   4.985   4.561   4.685
  148TCM    cl1  904   4.974   4.707   4.788
  148TCM    cl2  905   4.901   4.424   4.765
  148TCM     h1  906   4.939   4.581   4.588
  148TCM    cl3  907   5.158   4.519   4.662
  149TCM     c1  908   1.137   1.591   1.010
  149TCM    cl1  909   1.226   1.440   0.973
  149TCM    cl2  910   1.096   1.595   1.185
  149TCM     h1  911   1.198   1.678   0.984
  149TCM    cl3  912   0.985   1.595   0.914
  150TCM     c1  913   2.611   2.688   0.258
  150TCM    cl1  914   2.506   2.587   0.364
  150TCM    cl2  915   2.518   2.831   0.203
  150TCM     h1  916   2.699   2.719   0.313
  150TCM    cl3  917   2.660   2.593   0.114
  151TCM     c1  918   3.688   1.244   3.223
  151TCM    cl1  919   3.783   1.396   3.230
  151TCM    cl2  920   3.693   1.164   3.383
  151TCM     h1  921   3.585   1.266   3.196
  151TCM    cl3  922   3.760   1.134   3.100
  152TCM     c1  923   3.347   0.184   1.773
  152TCM    cl1  924   3.456   0.300   1.691
  152TCM    cl2  925   3.444   0.060   1.858
  152TCM     h1  926   3.284   0.237   1.845
  152TCM    cl3  927   3.243   0.104   1.651
  153TCM     c1  928   3.474   2.403   1.611
  153TCM    cl1  929   3.624   2.324   1.670
  153TCM    cl2  930   3.510   2.573   1.567
  153TCM     h1  931   3.437   2.350   1.523
  153TCM    cl3  932   3.351   2.399   1.741
  154TCM     c1  933   2.749   4.040   2.468
  154TCM    cl1  934   2.678   4.121   2.612
  154TCM    cl2  935   2.680   3.875   2.452
  154TCM     h1  936   2.726   4.098   2.379
  154TCM    cl3  937   2.927   4.027   2.488
  155TCM     c1  938   4.335   1.157   2.618
  155TCM    cl1  939   4.184   1.255   2.618
  155TCM    cl2  940   4.463   1.246   2.528
  155TCM     h1  941   4.368   1.141   2.721
  155TCM    cl3  942   4.303   1.000   2.539
  156TCM     c1  943   0.941   1.962   4.785
  156TCM    cl1  944   0.938   1.870   4.939
  156TCM    cl2  945   1.107   1.959   4.718
  156TCM     h1  946   0.872   1.916   4.714
  156TCM    cl3  947   0.892   2.131   4.817
  157TCM     c1  948   2.012   4.683   4.598
  157TCM    cl1  949   1.978   4.653   4.771
  157TCM    cl2  950   2.189   4.687   4.573
  157TCM     h1  951   1.968   4.602   4.538
  157TCM    cl3  952   1.941   4.840   4.548
  158TCM     c1  953   2.070   0.064   4.917
  158TCM    cl1  954   2.083   0.220   4.830
  158TCM    cl2  955   2.194  -0.050   4.855
  158TCM     h1  956   2.085   0.080   5.024
  158TCM    cl3  957   1.907  -0.005   4.888
  159TCM     c1  958   1.887   1.255   3.012
  159TCM    cl1  959   1.855   1.078   3.012
  159TCM    cl2  960   2.048   1.287   2.941
  159TCM     h1  961   1.810   1.306   2.954
  159TCM    cl3  962   1.882   1.314   3.181
  160TCM     c1  963   1.830   2.283   4.926
  160TCM    cl1  964   1.955   2.388   4.997
  160TCM    cl2  965   1.671   2.364   4.944
  160TCM     h1  966   1.851   2.267   4.820
  160TCM    cl3  967   1.829   2.126   5.013
  161TCM     c1  968   2.138   1.796   1.370
  161TCM    cl1  969   2.246   1.656   1.342
  161TCM    cl2  970   2.104   1.809   1.546
  161TCM     h1  971   2.187   1.888   1.336
  161TCM    cl3  972   1.985   1.772   1.281
  162TCM     c1  973   2.634   2.744   0.760
  162TCM    cl1  974   2.481   2.834   0.787
  162TCM    cl2  975   2.751   2.790   0.887
  162TCM     h1  976   2.615   2.636   0.765
  162TCM    cl3  977   2.700   2.785   0.598
  163TCM     c1  978   2.921   1.785   1.903
  163TCM    cl1  979   2.973   1.618   1.864
  163TCM    cl2  980   2.970   1.827   2.071
  163TCM     h1  981   2.968   1.855   1.833
  163TCM    cl3  982   2.742   1.799   1.888
  164TCM     c1  983   4.540   4.578   2.506
  164TCM    cl1  984   4.513   4.661   2.663
  164TCM    cl2  985   4.436   4.655   2.381
  164TCM     h1  986   4.645   4.586   2.478
  164TCM    cl3  987   4.495   4.405   2.522
  165TCM     c1  988   2.910   0.049   4.680
  165TCM    cl1  989   2.854  -0.056   4.815
  165TCM    cl2  990   2.916  -0.047   4.529
  165TCM     h1  991   2.841   0.132   4.668
  165TCM    cl3  992   3.074   0.112   4.717
  166TCM     c1  993   3.568   3.785   3.885
  166TCM    cl1  994   3.508   3.954   3.874
  166TCM    cl2  995   3.456   3.690   3.988
  166TCM     h1  996   3.573   3.741   3.785
  166TCM    cl3  997   3.732   3.785   3.959
  167TCM     c1  998   1.935   1.336   2.584
  167TCM    cl1  999   1.839   1.243   2.465
  167TCM    cl2 1000   1.826   1.437   2.684
  167TCM     h1 1001   1.990   1.267   2.649
  167TCM    cl3 1002   2.051   1.441   2.497
  168TCM     c1 1003   2.341   2.710   2.102
  168TCM    cl1 1004   2.181   2.730   2.180
  168TCM    cl2 1005   2.469   2.758   2.218
  168TCM     h1 1006   2.355   2.605   2.073
  168TCM    cl3 1007   2.350   2.815   1.957
  169TCM     c1 1008   1.083   4.882   1.671
  169TCM    cl1 1009   1.229   4.924   1.575
  169TCM    cl2 1010   0.938   4.955   1.595
  169TCM     h1 1011   1.072   4.774   1.675
  169TCM    cl3 1012   1.101   4.947   1.838
  170TCM     c1 1013   3.959   2.282   4.501
  170TCM    cl1 1014   4.114   2.361   4.546
  170TCM    cl2 1015   3.907   2.340   4.340
  170TCM     h1 1016   3.973   2.173   4.498
  170TCM    cl3 1017   3.834   2.323   4.623
  171TCM     c1 1018   1.582   4.844   4.883
  171TCM    cl1 1019   1.635   4.768   5.037
  171TCM    cl2 1020   1.407   4.884   4.892
  171TCM     h1 1021   1.639   4.935   4.866
  171TCM    cl3 1022   1.611   4.729   4.748
  172TCM     c1 1023   3.426   3.681   0.439
  172TCM    cl1 1024   3.454   3.829   0.341
  172TCM    cl2 1025   3.568   3.573   0.428
  172TCM     h1 1026   3.410   3.710   0.543
  172TCM    cl3 1027   3.280   3.596   0.378
  173TCM     c1 1028   4.830   0.684   0.851
  173TCM    cl1 1029   4.970   0.662   0.962
  173TCM    cl2 1030   4.700   0.774   0.936
  173TCM     h1 1031   4.862   0.740   0.763
  173TCM    cl3 1032   4.768   0.523   0.801
  174TCM     c1 1033   4.001   1.638   1.984
  174TCM    cl1 1034   4.029   1.805   2.045
  174TCM    cl2 1035   4.156   1.570   1.923
  174TCM     h1 1036   3.964   1.575   2.065
  174TCM    cl3 1037   3.881   1.643   1.851
  175TCM     c1 1038   3.840   1.509   0.006
  175TCM    cl1 1039   3.820   1.684   0.041
  175TCM    cl2 1040   4.007   1.459   0.049
  175TCM     h1 1041   3.768   1.452   0.065
  175TCM    cl3 1042   3.812   1.480  -0.168
  176TCM     c1 1043   3.573   3.377   4.705
  176TCM    cl1 1044   3.701   3.447   4.810
  176TCM    cl2 1045   3.532   3.495   4.576
  176TCM     h1 1046   3.610   3.285   4.660
  176TCM    cl3 1047   3.427   3.342   4.803
  177TCM     c1 1048   1.134   0.422   3.657
  177TCM    cl1 1049   1.034   0.356   3.523
  177TCM    cl2 1050   1.226   0.563   3.596
  177TCM     h1 1051   1.069   0.453   3.739
  177TCM    cl3 1052   1.248   0.297   3.715
  178TCM     c1 1053   3.332   4.986   1.330
  178TCM    cl1 1054   3.474   5.091   1.358
  178TCM    cl2 1055   3.379   4.846   1.229
  178TCM     h1 1056   3.293   4.951   1.426
  178TCM    cl3 1057   3.204   5.080   1.246
  179TCM     c1 1058   1.268   0.215   4.063
  179TCM    cl1 1059   1.121   0.304   4.114
  179TCM    cl2 1060   1.304   0.085   4.181
  179TCM     h1 1061   1.253   0.172   3.964
  179TCM    cl3 1062   1.407   0.329   4.058
  180TCM     c1 1063   3.085   0.080   3.413
  180TCM    cl1 1064   3.205   0.047   3.283
  180TCM    cl2 1065   2.955   0.186   3.347
  180TCM     h1 1066   3.042  -0.014   3.448
  180TCM    cl3 1067   3.167   0.165   3.548
  181TCM     c1 1068   2.188   1.109   3.998
  181TCM    cl1 1069   2.194   0.974   4.117
  181TCM    cl2 1070   2.162   1.044   3.833
  181TCM     h1 1071   2.106   1.176   4.024
  181TCM    cl3 1072   2.343   1.199   4.004
  182TCM     c1 1073   2.956   0.643   0.465
  182TCM    cl1 1074   2.984   0.483   0.542
  182TCM    cl2 1075   3.015   0.638   0.295
  182TCM     h1 1076   2.850   0.665   0.466
  182TCM    cl3 1077   3.045   0.769   0.557
  183TCM     c1 1078   1.523   2.091   2.508
  183TCM    cl1 1079   1.633   2.003   2.620
  183TCM    cl2 1080   1.546   2.029   2.341
  183TCM     h1 1081   1.420   2.075   2.539
  183TCM    cl3 1082   1.562   2.266   2.513
  184TCM     c1 1083   4.810   3.901   4.631
  184TCM    cl1 1084   4.850   4.031   4.747
  184TCM    cl2 1085   4.631   3.887   4.617
  184TCM     h1 1086   4.852   3.924   4.533
  184TCM    cl3 1087   4.877   3.744   4.688
  185TCM     c1 1088   0.687   1.065   2.677
  185TCM    cl1 1089   0.570   1.189   2.735
  185TCM    cl2 1090   0.688   1.066   2.498
  185TCM     h1 1091   0.787   1.088   2.716
  185TCM    cl3 1092   0.636   0.904   2.736
  186TCM     c1 1093   4.810   0.772   3.515
  186TCM    cl1 1094   4.675   0.681   3.591
  186TCM    cl2 1095   4.748   0.864   3.374
  186TCM     h1 1096   4.852   0.841   3.588
  186TCM    cl3 1097   4.937   0.658   3.460
  187TCM     c1 1098   4.866   4.715   0.604
  187TCM    cl1 1099   4.864   4.893   0.630
  187TCM    cl2 1100   4.745   4.639   0.713
  187TCM     h1 1101   4.841   4.693   0.500
  187TCM    cl3 1102   5.028   4.649   0.643
  188TCM     c1 1103   0.458   3.395   4.973
  188TCM    cl1 1104   0.565   3.443   4.837
  188TCM    cl2 1105   0.467   3.522   5.099
  188TCM     h1 1106   0.355   3.387   4.937
  188TCM    cl3 1107   0.512   3.238   5.040
  189TCM     c1 1108   1.170   2.416   4.526
  189TCM    cl1 1109   1.247   2.256   4.500
  189TCM    cl2 1110   1.295   2.544   4.537
  189TCM     h1 1111   1.103   2.438   4.442
  189TCM    cl3 1112   1.075   2.412   4.678
  190TCM     c1 1113   0.526   3.054   0.397
  190TCM    cl1 1114   0.668   2.960   0.341
  190TCM    cl2 1115   0.546   3.097   0.570
  190TCM     h1 1116   0.517   3.146   0.337
  190TCM    cl3 1117   0.377   2.956   0.377
  191TCM     c1 1118   4.104   1.642   2.486
  191TCM    cl1 1119   4.007   1.600   2.631
  191TCM    cl2 1120   4.032   1.563   2.342
  191TCM     h1 1121   4.102   1.751   2.471
  191TCM    cl3 1122   4.274   1.589   2.507
  192TCM     c1 1123   2.048   0.474   4.448
  192TCM    cl1 1124   2.167   0.603   4.411
  192TCM    cl2 1125   2.080   0.333   4.342
  192TCM     h1 1126   2.057   0.445   4.553
  192TCM    cl3 1127   1.883   0.536   4.415
  193TCM     c1 1128   0.442   0.276   2.420
  193TCM    cl1 1129   0.557   0.140   2.438
  193TCM    cl2 1130   0.327   0.238   2.287
  193TCM     h1 1131   0.387   0.291   2.513
  193TCM    cl3 1132   0.532   0.425   2.378
  194TCM     c1 1133   1.868   4.834   4.100
  194TCM    cl1 1134   2.039   4.839   4.048
  194TCM    cl2 1135   1.842   4.690   4.203
  194TCM     h1 1136   1.844   4.925   4.156
  194TCM    cl3 1137   1.762   4.823   3.955
  195TCM     c1 1138   4.167   4.443   1.133
  195TCM    cl1 1139   4.131   4.329   0.999
  195TCM    cl2 1140   4.333   4.507   1.112
  195TCM     h1 1141   4.095   4.525   1.132
  195TCM    cl3 1142   4.157   4.355   1.290
  196TCM     c1 1143   0.993   2.539   0.378
  196TCM    cl1 1144   0.932   2.560   0.546
  196TCM    cl2 1145   1.164   2.485   0.382
  196TCM     h1 1146   0.933   2.464   0.327
  196TCM    cl3 1147   0.981   2.695   0.289
  197TCM     c1 1148   1.301   0.713   4.069
  197TCM    cl1 1149   1.198   0.630   3.947
  197TCM    cl2 1150   1.265   0.647   4.232
  197TCM     h1 1151   1.406   0.696   4.045
  197TCM    cl3 1152   1.265   0.889   4.065
  198TCM     c1 1153   1.827   1.466   0.795
  198TCM    cl1 1154   1.668   1.393   0.832
  198TCM    cl2 1155   1.953   1.394   0.901
  198TCM     h1 1156   1.852   1.448   0.690
  198TCM    cl3 1157   1.821   1.643   0.825
  199TCM     c1 1158   1.197   4.611   1.301
  199TCM    cl1 1159   1.297   4.582   1.447
  199TCM    cl2 1160   1.290   4.710   1.183
  199TCM     h1 1161   1.171   4.515   1.255
  199TCM    cl3 1162   1.048   4.698   1.348
  200TCM     c1 1163   4.820   2.520   2.446
  200TCM    cl1 1164   4.699   2.555   2.574
  200TCM    cl2 1165   4.742   2.427   2.314
  200TCM     h1 1166   4.860   2.614   2.406
  200TCM    cl3 1167   4.955   2.424   2.516
  201TCM     c1 1168   0.772   2.178   0.324
  201TCM    cl1 1169   0.944   2.179   0.374
  201TCM    cl2 1170   0.761   2.149   0.147
  201TCM     h1 1171   0.718   2.100   0.377
  201TCM    cl3 1172   0.699   2.338   0.361
  202TCM     c1 1173   3.546   4.597   3.337
  202TCM    cl1 1174   3.674   4.561   3.458
  202TCM    cl2 1175   3.482   4.763   3.364
  202TCM     h1 1176   3.588   4.591   3.237
  202TCM    cl3 1177   3.413   4.479   3.355
  203TCM     c1 1178   2.225   1.014   2.482
  203TCM    cl1 1179   2.145   1.031   2.642
  203TCM    cl2 1180   2.313   1.165   2.443
  203TCM     h1 1181   2.295   0.930   2.485
  203TCM    cl3 1182   2.099   0.984   2.357
  204TCM     c1 1183   0.619   4.548   4.409
  204TCM    cl1 1184   0.661   4.694   4.314
  204TCM    cl2 1185   0.557   4.420   4.299
  204TCM     h1 1186   0.708   4.511   4.461
  204TCM    cl3 1187   0.492   4.589   4.529
  205TCM     c1 1188   2.007   4.646   3.729
  205TCM    cl1 1189   2.161   4.736   3.710
  205TCM    cl2 1190   2.044   4.473   3.761
  205TCM     h1 1191   1.951   4.687   3.812
  205TCM    cl3 1192   1.911   4.660   3.578
  206TCM     c1 1193   1.100   0.147   1.281
  206TCM    cl1 1194   1.085   0.028   1.148
  206TCM    cl2 1195   0.936   0.198   1.333
  206TCM     h1 1196   1.153   0.101   1.365
  206TCM    cl3 1197   1.191   0.291   1.224
  207TCM     c1 1198   2.407   3.210   0.997
  207TCM    cl1 1199   2.342   3.192   0.831
  207TCM    cl2 1200   2.432   3.384   1.032
  207TCM     h1 1201   2.336   3.168   1.069
  207TCM    cl3 1202   2.564   3.124   1.009
  208TCM     c1 1203   0.819   3.400   0.735
  208TCM    cl1 1204   0.875   3.312   0.881
  208TCM    cl2 1205   0.643   3.432   0.749
  208TCM     h1 1206   0.872   3.495   0.726
  208TCM    cl3 1207   0.851   3.300   0.589
  209TCM     c1 1208   3.654   2.032   1.909
  209TCM    cl1 1209   3.682   1.918   2.044
  209TCM    cl2 1210   3.487   2.097   1.919
  209TCM     h1 1211   3.726   2.114   1.915
  209TCM    cl3 1212   3.674   1.947   1.752
  210TCM     c1 1213   2.656   2.248   1.026
  210TCM    cl1 1214   2.631   2.424   1.003
  210TCM    cl2 1215   2.585   2.197   1.183
  210TCM     h1 1216   2.608   2.193   0.944
  210TCM    cl3 1217   2.832   2.211   1.026
  211TCM     c1 1218   2.709   3.509   4.196
  211TCM    cl1 1219   2.567   3.429   4.272
  211TCM    cl2 1220   2.806   3.386   4.107
  211TCM     h1 1221   2.675   3.585   4.126
  211TCM    cl3 1222   2.811   3.584   4.323
  212TCM     c1 1223   1.078   2.557   4.027
  212TCM    cl1 1224   1.178   2.496   4.163
  212TCM    cl2 1225   0.984   2.699   4.081
  212TCM     h1 1226   1.143   2.585   3.944
  212TCM    cl3 1227   0.966   2.428   3.973
  213TCM     c1 1228   1.524   2.817   3.214
  213TCM    cl1 1229   1.603   2.719   3.086
  213TCM    cl2 1230   1.616   2.969   3.238
  213TCM     h1 1231   1.421   2.841   3.184
  213TCM    cl3 1232   1.522   2.724   3.367
  214TCM     c1 1233   3.766   4.701   3.950
  214TCM    cl1 1234   3.802   4.759   3.784
  214TCM    cl2 1235   3.709   4.531   3.944
  214TCM     h1 1236   3.857   4.707   4.011
  214TCM    cl3 1237   3.638   4.805   4.022
  215TCM     c1 1238   0.081   3.279   0.377
  215TCM    cl1 1239  -0.075   3.198   0.343
  215TCM    cl2 1240   0.195   3.246   0.242
  215TCM     h1 1241   0.066   3.387   0.386
  215TCM    cl3 1242   0.151   3.214   0.528
  216TCM     c1 1243   1.201   2.280   0.079
  216TCM    cl1 1244   1.153   2.108   0.090
  216TCM    cl2 1245   1.054   2.382   0.055
  216TCM     h1 1246   1.252   2.310   0.171
  216TCM    cl3 1247   1.310   2.302  -0.061
  217TCM     c1 1248   0.214   1.733   2.631
  217TCM    cl1 1249   0.216   1.910   2.601
  217TCM    cl2 1250   0.180   1.704   2.805
  217TCM     h1 1251   0.137   1.686   2.570
  217TCM    cl3 1252   0.375   1.665   2.590
  218TCM     c1 1253   3.502   0.145   4.908
  218TCM    cl1 1254   3.367   0.092   5.013
  218TCM    cl2 1255   3.575   0.295   4.975
  218TCM     h1 1256   3.578   0.067   4.903
  218TCM    cl3 1257   3.439   0.178   4.743
  219TCM     c1 1258   1.620   2.283   2.008
  219TCM    cl1 1259   1.444   2.318   2.005
  219TCM    cl2 1260   1.645   2.107   1.984
  219TCM     h1 1261   1.670   2.338   1.928
  219TCM    cl3 1262   1.688   2.332   2.167
  220TCM     c1 1263   4.180   0.369   4.100
  220TCM    cl1 1264   4.235   0.228   4.005
  220TCM    cl2 1265   4.239   0.520   4.022
  220TCM     h1 1266   4.071   0.370   4.106
  220TCM    cl3 1267   4.249   0.358   4.266
  221TCM     c1 1268   0.206   3.614   1.457
  221TCM    cl1 1269   0.138   3.587   1.621
  221TCM    cl2 1270   0.354   3.715   1.468
  221TCM     h1 1271   0.232   3.518   1.412
  221TCM    cl3 1272   0.084   3.697   1.355
  222TCM     c1 1273   0.262   1.350   0.653
  222TCM    cl1 1274   0.341   1.189   0.637
  222TCM    cl2 1275   0.365   1.457   0.754
  222TCM     h1 1276   0.250   1.395   0.554
  222TCM    cl3 1277   0.102   1.332   0.731
  223TCM     c1 1278   3.527   2.525   2.633
  223TCM    cl1 1279   3.356   2.566   2.673
  223TCM    cl2 1280   3.558   2.560   2.460
  223TCM     h1 1281   3.594   2.584   2.695
  223TCM    cl3 1282   3.554   2.350   2.663
  224TCM     c1 1283   0.228   4.831   2.755
  224TCM    cl1 1284   0.242   4.836   2.934
  224TCM    cl2 1285   0.284   4.672   2.695
  224TCM     h1 1286   0.124   4.846   2.727
  224TCM    cl3 1287   0.329   4.961   2.684
  225TCM     c1 1288   0.401   4.827   2.107
  225TCM    cl1 1289   0.309   4.679   2.064
  225TCM    cl2 1290   0.370   4.868   2.279
  225TCM     h1 1291   0.508   4.809   2.091
  225TCM    cl3 1292   0.347   4.963   2.002
  226TCM     c1 1293   0.505   2.401   2.436
  226TCM    cl1 1294   0.626   2.437   2.564
  226TCM    cl2 1295   0.504   2.534   2.315
  226TCM     h1 1296   0.532   2.307   2.387
  226TCM    cl3 1297   0.342   2.385   2.510
  227TCM     c1 1298   0.371   3.874   2.928
  227TCM    cl1 1299   0.264   3.919   2.791
  227TCM    cl2 1300   0.370   3.695   2.948
  227TCM     h1 1301   0.473   3.907   2.908
  227TCM    cl3 1302   0.311   3.951   3.079
  228TCM     c1 1303   2.319   0.653   3.886
  228TCM    cl1 1304   2.227   0.621   4.037
  228TCM    cl2 1305   2.435   0.787   3.912
  228TCM     h1 1306   2.374   0.563   3.857
  228TCM    cl3 1307   2.203   0.695   3.756
  229TCM     c1 1308   1.709   1.670   2.246
  229TCM    cl1 1309   1.767   1.784   2.120
  229TCM    cl2 1310   1.760   1.728   2.408
  229TCM     h1 1311   1.599   1.664   2.242
  229TCM    cl3 1312   1.779   1.508   2.216
  230TCM     c1 1313   1.138   3.116   2.139
  230TCM    cl1 1314   1.304   3.049   2.150
  230TCM    cl2 1315   1.092   3.190   2.296
  230TCM     h1 1316   1.135   3.192   2.060
  230TCM    cl3 1317   1.023   2.984   2.098
  231TCM     c1 1318   4.482   3.649   3.017
  231TCM    cl1 1319   4.387   3.737   3.141
  231TCM    cl2 1320   4.370   3.577   2.897
  231TCM     h1 1321   4.550   3.719   2.967
  231TCM    cl3 1322   4.578   3.520   3.096
  232TCM     c1 1323   4.175   0.662   4.595
  232TCM    cl1 1324   4.012   0.737   4.591
  232TCM    cl2 1325   4.265   0.707   4.446
  232TCM     h1 1326   4.230   0.697   4.683
  232TCM    cl3 1327   4.159   0.483   4.602
  233TCM     c1 1328   0.430   3.128   4.468
  233TCM    cl1 1329   0.403   3.188   4.634
  233TCM    cl2 1330   0.286   3.163   4.366
  233TCM     h1 1331   0.518   3.177   4.425
  233TCM    cl3 1332   0.455   2.951   4.473
  234TCM     c1 1333   0.999   1.729   0.299
  234TCM    cl1 1334   0.971   1.578   0.392
  234TCM    cl2 1335   1.123   1.829   0.382
  234TCM     h1 1336   1.033   1.705   0.198
  234TCM    cl3 1337   0.846   1.822   0.292
  235TCM     c1 1338   1.738   2.070   1.529
  235TCM    cl1 1339   1.679   2.214   1.619
  235TCM    cl2 1340   1.770   1.937   1.645
  235TCM     h1 1341   1.663   2.039   1.457
  235TCM    cl3 1342   1.890   2.112   1.442
  236TCM     c1 1343   2.425   4.488   3.730
  236TCM    cl1 1344   2.398   4.318   3.778
  236TCM    cl2 1345   2.579   4.502   3.638
  236TCM     h1 1346   2.342   4.523   3.668
  236TCM    cl3 1347   2.435   4.589   3.879
  237TCM     c1 1348   3.059   0.472   1.552
  237TCM    cl1 1349   3.099   0.440   1.724
  237TCM    cl2 1350   3.180   0.395   1.446
  237TCM     h1 1351   2.960   0.432   1.530
  237TCM    cl3 1352   3.058   0.650   1.524
  238TCM     c1 1353   2.393   4.633   4.890
  238TCM    cl1 1354   2.474   4.474   4.903
  238TCM    cl2 1355   2.496   4.744   4.794
  238TCM     h1 1356   2.295   4.621   4.842
  238TCM    cl3 1357   2.370   4.701   5.055
  239TCM     c1 1358   2.662   1.692   3.330
  239TCM    cl1 1359   2.802   1.740   3.229
  239TCM    cl2 1360   2.715   1.672   3.501
  239TCM     h1 1361   2.585   1.770   3.325
  239TCM    cl3 1362   2.593   1.537   3.271
  240TCM     c1 1363   0.739   1.551   4.864
  240TCM    cl1 1364   0.629   1.692   4.849
  240TCM    cl2 1365   0.806   1.545   5.031
  240TCM     h1 1366   0.683   1.459   4.844
  240TCM    cl3 1367   0.873   1.567   4.746
  241TCM     c1 1368   3.276   0.691   2.865
  241TCM    cl1 1369   3.279   0.859   2.928
  241TCM    cl2 1370   3.298   0.692   2.687
  241TCM     h1 1371   3.356   0.633   2.912
  241TCM    cl3 1372   3.118   0.616   2.905
  242TCM     c1 1373   3.484   0.579   1.455
  242TCM    cl1 1374   3.381   0.708   1.384
  242TCM    cl2 1375   3.627   0.652   1.535
  242TCM     h1 1376   3.426   0.523   1.529
  242TCM    cl3 1377   3.539   0.468   1.325
  243TCM     c1 1378   0.576   0.309   0.468
  243TCM    cl1 1379   0.574   0.130   0.456
  243TCM    cl2 1380   0.494   0.378   0.325
  243TCM     h1 1381   0.524   0.341   0.559
  243TCM    cl3 1382   0.746   0.369   0.472
  244TCM     c1 1383   0.490   3.748   3.768
  244TCM    cl1 1384   0.600   3.607   3.772
  244TCM    cl2 1385   0.586   3.899   3.784
  244TCM     h1 1386   0.435   3.749   3.674
  244TCM    cl3 1387   0.377   3.738   3.906
  245TCM     c1 1388   0.112   4.074   4.407
  245TCM    cl1 1389   0.149   3.958   4.538
  245TCM    cl2 1390   0.050   4.227   4.478
  245TCM     h1 1391   0.202   4.094   4.349
  245TCM    cl3 1392  -0.014   4.004   4.300
  246TCM     c1 1393   3.325   1.701   0.735
  246TCM    cl1 1394   3.193   1.659   0.849
  246TCM    cl2 1395   3.464   1.766   0.827
  246TCM     h1 1396   3.355   1.611   0.680
  246TCM    cl3 1397   3.267   1.825   0.620
  247TCM     c1 1398   3.378   4.224   3.674
  247TCM    cl1 1399   3.261   4.357   3.707
  247TCM    cl2 1400   3.545   4.290   3.681
  247TCM     h1 1401   3.366   4.147   3.750
  247TCM    cl3 1402   3.347   4.155   3.512
  248TCM     c1 1403   1.749   4.956   3.157
  248TCM    cl1 1404   1.846   4.855   3.269
  248TCM    cl2 1405   1.625   5.047   3.249
  248TCM     h1 1406   1.815   5.026   3.104
  248TCM    cl3 1407   1.668   4.849   3.037
  249TCM     c1 1408   2.453   0.456   2.475
  249TCM    cl1 1409   2.405   0.621   2.531
  249TCM    cl2 1410   2.305   0.359   2.446
  249TCM     h1 1411   2.510   0.464   2.383
  249TCM    cl3 1412   2.552   0.375   2.602
  250TCM     c1 1413   3.097   2.042   4.073
  250TCM    cl1 1414   3.089   1.949   3.920
  250TCM    cl2 1415   2.932   2.055   4.143
  250TCM     h1 1416   3.163   1.991   4.144
  250TCM    cl3 1417   3.161   2.206   4.039
  251TCM     c1 1418   2.839   2.286   0.318
  251TCM    cl1 1419   2.682   2.261   0.402
  251TCM    cl2 1420   2.899   2.451   0.354
  251TCM     h1 1421   2.911   2.212   0.353
  251TCM    cl3 1422   2.817   2.268   0.141
  252TCM     c1 1423   1.394   0.369   4.662
  252TCM    cl1 1424   1.307   0.318   4.514
  252TCM    cl2 1425   1.311   0.303   4.807
  252TCM     h1 1426   1.496   0.331   4.659
  252TCM    cl3 1427   1.397   0.548   4.671
  253TCM     c1 1428   0.853   1.814   1.713
  253TCM    cl1 1429   0.691   1.886   1.741
  253TCM    cl2 1430   0.834   1.641   1.669
  253TCM     h1 1431   0.904   1.867   1.633
  253TCM    cl3 1432   0.950   1.825   1.864
  254TCM     c1 1433   0.034   2.881   0.215
  254TCM    cl1 1434  -0.132   2.822   0.244
  254TCM    cl2 1435   0.147   2.742   0.213
  254TCM     h1 1436   0.063   2.951   0.294
  254TCM    cl3 1437   0.040   2.964   0.056
  255TCM     c1 1438   0.556   1.522   3.974
  255TCM    cl1 1439   0.552   1.666   3.867
  255TCM    cl2 1440   0.465   1.557   4.124
  255TCM     h1 1441   0.511   1.436   3.922
  255TCM    cl3 1442   0.726   1.484   4.017
  256TCM     c1 1443   0.757   0.720   0.352
  256TCM    cl1 1444   0.602   0.733   0.443
  256TCM    cl2 1445   0.894   0.733   0.466
  256TCM     h1 1446   0.761   0.624   0.300
  256TCM    cl3 1447   0.768   0.854   0.232
  257TCM     c1 1448   3.390   4.715   4.863
  257TCM    cl1 1449   3.346   4.690   5.036
  257TCM    cl2 1450   3.554   4.787   4.854
  257TCM     h1 1451   3.389   4.619   4.811
  257TCM    cl3 1452   3.272   4.826   4.787
  258TCM     c1 1453   3.037   3.874   3.651
  258TCM    cl1 1454   3.133   3.846   3.502
  258TCM    cl2 1455   3.132   3.976   3.764
  258TCM     h1 1456   2.944   3.926   3.625
  258TCM    cl3 1457   3.000   3.717   3.729
  259TCM     c1 1458   2.649   4.367   3.114
  259TCM    cl1 1459   2.768   4.234   3.137
  259TCM    cl2 1460   2.501   4.332   3.209
  259TCM     h1 1461   2.693   4.462   3.147
  259TCM    cl3 1462   2.609   4.375   2.940
  260TCM     c1 1463   3.339   1.157   2.725
  260TCM    cl1 1464   3.402   1.022   2.626
  260TCM    cl2 1465   3.233   1.257   2.621
  260TCM     h1 1466   3.281   1.117   2.810
  260TCM    cl3 1467   3.476   1.255   2.786
  261TCM     c1 1468   4.608   1.991   0.061
  261TCM    cl1 1469   4.565   2.030   0.231
  261TCM    cl2 1470   4.742   1.871   0.059
  261TCM     h1 1471   4.521   1.950   0.010
  261TCM    cl3 1472   4.661   2.142  -0.021
  262TCM     c1 1473   2.955   2.017   0.616
  262TCM    cl1 1474   2.799   2.053   0.696
  262TCM    cl2 1475   3.050   2.168   0.600
  262TCM     h1 1476   3.011   1.945   0.676
  262TCM    cl3 1477   2.925   1.949   0.453
  263TCM     c1 1478   4.610   4.520   1.421
  263TCM    cl1 1479   4.703   4.472   1.275
  263TCM    cl2 1480   4.482   4.399   1.454
  263TCM     h1 1481   4.678   4.526   1.507
  263TCM    cl3 1482   4.535   4.681   1.393
  264TCM     c1 1483   4.659   0.563   3.098
  264TCM    cl1 1484   4.539   0.675   3.025
  264TCM    cl2 1485   4.616   0.535   3.270
  264TCM     h1 1486   4.658   0.468   3.044
  264TCM    cl3 1487   4.823   0.635   3.087
  265TCM     c1 1488   3.310   2.245   0.309
  265TCM    cl1 1489   3.163   2.178   0.231
  265TCM    cl2 1490   3.378   2.124   0.421
  265TCM     h1 1491   3.383   2.271   0.232
  265TCM    cl3 1492   3.265   2.393   0.401
  266TCM     c1 1493   1.771   0.173   2.746
  266TCM    cl1 1494   1.820   0.345   2.756
  266TCM    cl2 1495   1.617   0.150   2.835
  266TCM     h1 1496   1.757   0.144   2.641
  266TCM    cl3 1497   1.898   0.070   2.820
  267TCM     c1 1498   1.170   4.416   4.820
  267TCM    cl1 1499   1.270   4.553   4.760
  267TCM    cl2 1500   1.021   4.479   4.897
  267TCM     h1 1501   1.143   4.351   4.736
  267TCM    cl3 1502   1.264   4.322   4.941
  268TCM     c1 1503   0.060   0.216   4.598
  268TCM    cl1 1504   0.224   0.214   4.527
  268TCM    cl2 1505   0.014   0.049   4.647
  268TCM     h1 1506   0.057   0.282   4.685
  268TCM    cl3 1507  -0.055   0.273   4.473
  269TCM     c1 1508   4.364   4.595   0.196
  269TCM    cl1 1509   4.296   4.591   0.030
  269TCM    cl2 1510   4.446   4.439   0.232
  269TCM     h1 1511   4.436   4.677   0.205
  269TCM    cl3 1512   4.230   4.620   0.313
  270TCM     c1 1513   0.608   2.462   3.936
  270TCM    cl1 1514   0.636   2.424   3.763
  270TCM    cl2 1515   0.439   2.419   3.979
  270TCM     h1 1516   0.677   2.406   3.998
  270TCM    cl3 1517   0.631   2.638   3.963
  271TCM     c1 1518   3.921   1.145   1.604
  271TCM    cl1 1519   3.920   1.324   1.623
  271TCM    cl2 1520   4.057   1.076   1.698
  271TCM     h1 1521   3.826   1.104   1.640
  271TCM    cl3 1522   3.942   1.105   1.430
  272TCM     c1 1523   1.142   4.667   0.236
  272TCM    cl1 1524   1.046   4.518   0.259
  272TCM    cl2 1525   1.038   4.794   0.165
  272TCM     h1 1526   1.181   4.701   0.333
  272TCM    cl3 1527   1.278   4.635   0.124
  273TCM     c1 1528   3.066   0.790   3.907
  273TCM    cl1 1529   3.185   0.924   3.922
  273TCM    cl2 1530   2.903   0.852   3.948
  273TCM     h1 1531   3.066   0.753   3.804
  273TCM    cl3 1532   3.111   0.657   4.018
  274TCM     c1 1533   4.056   3.197   3.339
  274TCM    cl1 1534   3.884   3.206   3.286
  274TCM    cl2 1535   4.110   3.026   3.345
  274TCM     h1 1536   4.118   3.252   3.269
  274TCM    cl3 1537   4.070   3.271   3.502
  275TCM     c1 1538   1.248   0.665   0.555
  275TCM    cl1 1539   1.230   0.735   0.719
  275TCM    cl2 1540   1.327   0.504   0.567
  275TCM     h1 1541   1.150   0.654   0.509
  275TCM    cl3 1542   1.350   0.773   0.454
  276TCM     c1 1543   1.138   1.992   1.170
  276TCM    cl1 1544   1.293   1.905   1.194
  276TCM    cl2 1545   1.022   1.942   1.297
  276TCM     h1 1546   1.155   2.100   1.176
  276TCM    cl3 1547   1.072   1.951   1.008
  277TCM     c1 1548   3.277   3.177   2.238
  277TCM    cl1 1549   3.362   3.330   2.277
  277TCM    cl2 1550   3.192   3.116   2.384
  277TCM     h1 1551   3.204   3.195   2.158
  277TCM    cl3 1552   3.396   3.055   2.182
  278TCM     c1 1553   2.982   3.642   2.545
  278TCM    cl1 1554   3.140   3.693   2.478
  278TCM    cl2 1555   2.952   3.728   2.700
  278TCM     h1 1556   2.902   3.666   2.474
  278TCM    cl3 1557   2.984   3.465   2.573
  279TCM     c1 1558   1.184   1.123   0.211
  279TCM    cl1 1559   1.118   0.959   0.239
  279TCM    cl2 1560   1.336   1.145   0.305
  279TCM     h1 1561   1.206   1.136   0.104
  279TCM    cl3 1562   1.064   1.246   0.263
  280TCM     c1 1563   2.946   0.175   0.715
  280TCM    cl1 1564   2.924   0.106   0.551
  280TCM    cl2 1565   3.005   0.047   0.826
  280TCM     h1 1566   3.019   0.257   0.711
  280TCM    cl3 1567   2.789   0.237   0.775
  281TCM     c1 1568   1.915   3.301   0.814
  281TCM    cl1 1569   1.859   3.460   0.752
  281TCM    cl2 1570   2.026   3.326   0.952
  281TCM     h1 1571   1.829   3.243   0.848
  281TCM    cl3 1572   2.000   3.212   0.683
  282TCM     c1 1573   2.842   3.569   1.717
  282TCM    cl1 1574   2.663   3.572   1.705
  282TCM    cl2 1575   2.909   3.481   1.577
  282TCM     h1 1576   2.880   3.671   1.718
  282TCM    cl3 1577   2.889   3.486   1.869
  283TCM     c1 1578   4.601   0.236   4.084
  283TCM    cl1 1579   4.573   0.085   3.991
  283TCM    cl2 1580   4.578   0.378   3.976
  283TCM     h1 1581   4.531   0.241   4.167
  283TCM    cl3 1582   4.769   0.236   4.146
  284TCM     c1 1583   4.688   2.910   4.664
  284TCM    cl1 1584   4.671   3.082   4.614
  284TCM    cl2 1585   4.846   2.891   4.748
  284TCM     h1 1586   4.607   2.884   4.732
  284TCM    cl3 1587   4.685   2.803   4.521
  285TCM     c1 1588   1.059   4.557   1.939
  285TCM    cl1 1589   1.225   4.581   1.876
  285TCM    cl2 1590   0.942   4.580   1.805
  285TCM     h1 1591   1.049   4.456   1.980
  285TCM    cl3 1592   1.025   4.677   2.069
  286TCM     c1 1593   0.295   0.178   0.104
  286TCM    cl1 1594   0.182   0.153   0.241
  286TCM    cl2 1595   0.209   0.152  -0.052
  286TCM     h1 1596   0.334   0.280   0.107
  286TCM    cl3 1597   0.430   0.061   0.117
  287TCM     c1 1598   4.656   0.257   3.564
  287TCM    cl1 1599   4.502   0.237   3.654
  287TCM    cl2 1600   4.714   0.094   3.515
  287TCM     h1 1601   4.639   0.318   3.476
  287TCM    cl3 1602   4.779   0.335   3.669
  288TCM     c1 1603   3.380   0.018   4.414
  288TCM    cl1 1604   3.485   0.093   4.290
  288TCM    cl2 1605   3.459  -0.131   4.477
  288TCM     h1 1606   3.364   0.088   4.496
  288TCM    cl3 1607   3.222  -0.026   4.342
  289TCM     c1 1608   1.358   1.800   1.552
  289TCM    cl1 1609   1.389   1.975   1.530
  289TCM    cl2 1610   1.186   1.773   1.593
  289TCM     h1 1611   1.381   1.747   1.459
  289TCM    cl3 1612   1.463   1.739   1.684
  290TCM     c1 1613   0.295   0.077   1.239
  290TCM    cl1 1614   0.357  -0.075   1.168
  290TCM    cl2 1615   0.121   0.056   1.279
  290TCM     h1 1616   0.350   0.101   1.331
  290TCM    cl3 1617   0.313   0.211   1.121
  291TCM     c1 1618   3.212   1.611   2.756
  291TCM    cl1 1619   3.349   1.584   2.644
  291TCM    cl2 1620   3.231   1.505   2.900
  291TCM     h1 1621   3.210   1.715   2.787
  291TCM    cl3 1622   3.059   1.569   2.673
  292TCM     c1 1623   3.432   0.184   0.495
  292TCM    cl1 1624   3.559   0.233   0.611
  292TCM    cl2 1625   3.469   0.253   0.333
  292TCM     h1 1626   3.428   0.075   0.488
  292TCM    cl3 1627   3.273   0.246   0.551
  293TCM     c1 1628   0.628   1.441   1.933
  293TCM    cl1 1629   0.698   1.587   2.010
  293TCM    cl2 1630   0.478   1.396   2.019
  293TCM     h1 1631   0.605   1.462   1.828
  293TCM    cl3 1632   0.746   1.306   1.942
  294TCM     c1 1633   2.737   3.626   1.282
  294TCM    cl1 1634   2.683   3.687   1.122
  294TCM    cl2 1635   2.630   3.492   1.333
  294TCM     h1 1636   2.840   3.591   1.275
  294TCM    cl3 1637   2.727   3.761   1.400
  295TCM     c1 1638   2.237   2.398   4.399
  295TCM    cl1 1639   2.161   2.235   4.405
  295TCM    cl2 1640   2.391   2.388   4.308
  295TCM     h1 1641   2.169   2.468   4.350
  295TCM    cl3 1642   2.270   2.455   4.566
  296TCM     c1 1643   0.538   2.059   0.678
  296TCM    cl1 1644   0.461   2.113   0.526
  296TCM    cl2 1645   0.468   2.149   0.816
  296TCM     h1 1646   0.521   1.952   0.693
  296TCM    cl3 1647   0.715   2.090   0.669
  297TCM     c1 1648   2.483   0.419   1.616
  297TCM    cl1 1649   2.339   0.365   1.524
  297TCM    cl2 1650   2.598   0.282   1.629
  297TCM     h1 1651   2.531   0.503   1.564
  297TCM    cl3 1652   2.433   0.471   1.780
  298TCM     c1 1653   2.434   3.601   0.106
  298TCM    cl1 1654   2.362   3.518  -0.036
  298TCM    cl2 1655   2.487   3.479   0.226
  298TCM     h1 1656   2.520   3.660   0.074
  298TCM    cl3 1657   2.313   3.710   0.181
  299TCM     c1 1658   0.248   3.588   4.549
  299TCM    cl1 1659   0.114   3.513   4.455
  299TCM    cl2 1660   0.405   3.519   4.495
  299TCM     h1 1661   0.248   3.696   4.533
  299TCM    cl3 1662   0.225   3.553   4.723
  300TCM     c1 1663   3.360   1.671   1.800
  300TCM    cl1 1664   3.274   1.818   1.857
  300TCM    cl2 1665   3.510   1.651   1.896
  300TCM     h1 1666   3.296   1.583   1.812
  300TCM    cl3 1667   3.401   1.692   1.626
  301TCM     c1 1668   2.165   2.716   2.710
  301TCM    cl1 1669   2.211   2.659   2.547
  301TCM    cl2 1670   2.294   2.672   2.827
  301TCM     h1 1671   2.152   2.825   2.709
  301TCM    cl3 1672   2.012   2.638   2.759
  302TCM     c1 1673   4.635   2.741   0.650
  302TCM    cl1 1674   4.508   2.867   0.649
  302TCM    cl2 1675   4.648   2.667   0.487
  302TCM     h1 1676   4.731   2.786   0.677
  302TCM    cl3 1677   4.593   2.613   0.769
  303TCM     c1 1678   0.149   4.153   1.284
  303TCM    cl1 1679   0.300   4.245   1.253
  303TCM    cl2 1680   0.011   4.267   1.298
  303TCM     h1 1681   0.131   4.083   1.202
  303TCM    cl3 1682   0.166   4.061   1.438
  304TCM     c1 1683   3.179   1.472   3.730
  304TCM    cl1 1684   3.261   1.627   3.771
  304TCM    cl2 1685   3.001   1.492   3.749
  304TCM     h1 1686   3.202   1.444   3.627
  304TCM    cl3 1687   3.236   1.344   3.842
  305TCM     c1 1688   1.088   3.796   2.268
  305TCM    cl1 1689   1.078   3.792   2.447
  305TCM    cl2 1690   1.054   3.633   2.201
  305TCM     h1 1691   1.014   3.867   2.229
  305TCM    cl3 1692   1.253   3.848   2.219
  306TCM     c1 1693   2.841   3.843   2.066
  306TCM    cl1 1694   2.834   4.009   2.133
  306TCM    cl2 1695   2.909   3.731   2.189
  306TCM     h1 1696   2.740   3.810   2.039
  306TCM    cl3 1697   2.945   3.845   1.920
  307TCM     c1 1698   1.367   2.691   2.201
  307TCM    cl1 1699   1.453   2.692   2.043
  307TCM    cl2 1700   1.446   2.573   2.310
  307TCM     h1 1701   1.371   2.791   2.245
  307TCM    cl3 1702   1.196   2.644   2.175
  308TCM     c1 1703   4.787   0.119   0.100
  308TCM    cl1 1704   4.892   0.008   0.007
  308TCM    cl2 1705   4.861   0.283   0.101
  308TCM     h1 1706   4.689   0.124   0.054
  308TCM    cl3 1707   4.773   0.060   0.269
  309TCM     c1 1708   4.208   4.868   2.604
  309TCM    cl1 1709   4.146   5.011   2.515
  309TCM    cl2 1710   4.080   4.743   2.613
  309TCM     h1 1711   4.295   4.827   2.553
  309TCM    cl3 1712   4.254   4.918   2.770
  310TCM     c1 1713   1.113   0.198   3.011
  310TCM    cl1 1714   1.017   0.054   2.966
  310TCM    cl2 1715   1.278   0.148   3.060
  310TCM     h1 1716   1.120   0.266   2.925
  310TCM    cl3 1717   1.032   0.283   3.146
  311TCM     c1 1718   3.358   4.812   3.746
  311TCM    cl1 1719   3.447   4.658   3.725
  311TCM    cl2 1720   3.212   4.810   3.641
  311TCM     h1 1721   3.328   4.822   3.850
  311TCM    cl3 1722   3.463   4.950   3.699
  312TCM     c1 1723   3.482   2.048   4.800
  312TCM    cl1 1724   3.648   1.984   4.822
  312TCM    cl2 1725   3.488   2.211   4.725
  312TCM     h1 1726   3.425   1.981   4.735
  312TCM    cl3 1727   3.401   2.059   4.960
  313TCM     c1 1728   4.953   4.404   2.439
  313TCM    cl1 1729   5.073   4.534   2.416
  313TCM    cl2 1730   4.825   4.418   2.314
  313TCM     h1 1731   5.002   4.306   2.430
  313TCM    cl3 1732   4.878   4.419   2.601
  314TCM     c1 1733   4.775   2.915   2.230
  314TCM    cl1 1734   4.932   2.867   2.302
  314TCM    cl2 1735   4.716   3.064   2.310
  314TCM     h1 1736   4.788   2.934   2.123
  314TCM    cl3 1737   4.656   2.784   2.255
  315TCM     c1 1738   1.087   2.383   0.826
  315TCM    cl1 1739   1.227   2.467   0.752
  315TCM    cl2 1740   1.131   2.330   0.992
  315TCM     h1 1741   1.002   2.451   0.831
  315TCM    cl3 1742   1.044   2.240   0.728
  316TCM     c1 1743   1.004   1.681   3.892
  316TCM    cl1 1744   1.073   1.834   3.953
  316TCM    cl2 1745   1.135   1.577   3.828
  316TCM     h1 1746   0.953   1.629   3.974
  316TCM    cl3 1747   0.888   1.718   3.761
  317TCM     c1 1748   3.910   3.596   1.208
  317TCM    cl1 1749   3.779   3.476   1.232
  317TCM    cl2 1750   4.028   3.584   1.343
  317TCM     h1 1751   3.960   3.577   1.113
  317TCM    cl3 1752   3.840   3.761   1.207
  318TCM     c1 1753   0.022   0.081   2.140
  318TCM    cl1 1754  -0.112   0.141   2.243
  318TCM    cl2 1755   0.030   0.178   1.990
  318TCM     h1 1756   0.116   0.088   2.194
  318TCM    cl3 1757  -0.008  -0.090   2.095
  319TCM     c1 1758   1.139   2.265   1.736
  319TCM    cl1 1759   1.029   2.407   1.727
  319TCM    cl2 1760   1.293   2.305   1.653
  319TCM     h1 1761   1.159   2.241   1.841
  319TCM    cl3 1762   1.062   2.124   1.655
  320TCM     c1 1763   0.680   2.020   3.812
  320TCM    cl1 1764   0.714   2.059   3.640
  320TCM    cl2 1765   0.518   2.080   3.857
  320TCM     h1 1766   0.685   1.912   3.827
  320TCM    cl3 1767   0.804   2.100   3.915
  321TCM     c1 1768   0.932   0.700   4.929
  321TCM    cl1 1769   1.035   0.573   4.856
  321TCM    cl2 1770   0.771   0.698   4.850
  321TCM     h1 1771   0.921   0.681   5.036
  321TCM    cl3 1772   1.010   0.860   4.904
  322TCM     c1 1773   3.331   2.784   1.044
  322TCM    cl1 1774   3.445   2.770   1.181
  322TCM    cl2 1775   3.162   2.783   1.106
  322TCM     h1 1776   3.349   2.876   0.989
  322TCM    cl3 1777   3.353   2.644   0.933
  323TCM     c1 1778   3.333   4.756   2.865
  323TCM    cl1 1779   3.385   4.652   3.002
  323TCM    cl2 1780   3.284   4.917   2.929
  323TCM     h1 1781   3.415   4.768   2.794
  323TCM    cl3 1782   3.193   4.679   2.783
  324TCM     c1 1783   4.577   3.233   4.960
  324TCM    cl1 1784   4.725   3.144   5.010
  324TCM    cl2 1785   4.514   3.328   5.098
  324TCM     h1 1786   4.602   3.301   4.877
  324TCM    cl3 1787   4.452   3.117   4.905
  325TCM     c1 1788   4.398   2.397   2.739
  325TCM    cl1 1789   4.343   2.564   2.776
  325TCM    cl2 1790   4.256   2.296   2.694
  325TCM     h1 1791   4.469   2.399   2.657
  325TCM    cl3 1792   4.476   2.327   2.885
  326TCM     c1 1793   2.183   4.474   3.312
  326TCM    cl1 1794   2.009   4.464   3.270
  326TCM    cl2 1795   2.219   4.367   3.451
  326TCM     h1 1796   2.243   4.444   3.226
  326TCM    cl3 1797   2.223   4.644   3.356
  327TCM     c1 1798   3.329   2.112   0.870
  327TCM    cl1 1799   3.178   2.028   0.918
  327TCM    cl2 1800   3.452   2.091   0.999
  327TCM     h1 1801   3.367   2.069   0.777
  327TCM    cl3 1802   3.296   2.287   0.848
  328TCM     c1 1803   2.436   1.889   2.633
  328TCM    cl1 1804   2.420   1.713   2.598
  328TCM    cl2 1805   2.341   1.930   2.780
  328TCM     h1 1806   2.541   1.913   2.650
  328TCM    cl3 1807   2.375   1.983   2.493
  329TCM     c1 1808   2.733   2.998   3.301
  329TCM    cl1 1809   2.818   3.078   3.165
  329TCM    cl2 1810   2.763   3.088   3.453
  329TCM     h1 1811   2.625   2.996   3.280
  329TCM    cl3 1812   2.793   2.830   3.318
  330TCM     c1 1813   4.959   1.891   1.414
  330TCM    cl1 1814   5.066   1.761   1.351
  330TCM    cl2 1815   4.839   1.933   1.288
  330TCM     h1 1816   4.907   1.857   1.504
  330TCM    cl3 1817   5.058   2.036   1.452
  331TCM     c1 1818   1.666   1.179   3.495
  331TCM    cl1 1819   1.736   1.206   3.659
  331TCM    cl2 1820   1.495   1.130   3.512
  331TCM     h1 1821   1.672   1.272   3.437
  331TCM    cl3 1822   1.759   1.051   3.411
  332TCM     c1 1823   3.195   4.116   2.103
  332TCM    cl1 1824   3.363   4.160   2.056
  332TCM    cl2 1825   3.115   4.258   2.177
  332TCM     h1 1826   3.139   4.085   2.014
  332TCM    cl3 1827   3.199   3.982   2.222
  333TCM     c1 1828   1.640   3.402   0.396
  333TCM    cl1 1829   1.468   3.352   0.397
  333TCM    cl2 1830   1.688   3.451   0.230
  333TCM     h1 1831   1.655   3.485   0.465
  333TCM    cl3 1832   1.741   3.263   0.448
  334TCM     c1 1833   4.320   1.976   2.909
  334TCM    cl1 1834   4.436   1.959   2.774
  334TCM    cl2 1835   4.411   2.002   3.062
  334TCM     h1 1836   4.254   2.061   2.891
  334TCM    cl3 1837   4.222   1.826   2.922
  335TCM     c1 1838   2.327   3.675   1.228
  335TCM    cl1 1839   2.360   3.711   1.401
  335TCM    cl2 1840   2.328   3.827   1.133
  335TCM     h1 1841   2.404   3.607   1.189
  335TCM    cl3 1842   2.166   3.597   1.214
  336TCM     c1 1843   0.983   4.830   4.625
  336TCM    cl1 1844   0.945   4.659   4.583
  336TCM    cl2 1845   1.037   4.839   4.796
  336TCM     h1 1846   1.062   4.867   4.559
  336TCM    cl3 1847   0.835   4.929   4.604
  337TCM     c1 1848   3.444   3.002   3.543
  337TCM    cl1 1849   3.351   3.126   3.632
  337TCM    cl2 1850   3.571   2.934   3.650
  337TCM     h1 1851   3.377   2.922   3.511
  337TCM    cl3 1852   3.520   3.077   3.399
  338TCM     c1 1853   3.390   3.795   1.218
  338TCM    cl1 1854   3.275   3.707   1.325
  338TCM    cl2 1855   3.481   3.677   1.119
  338TCM     h1 1856   3.334   3.863   1.153
  338TCM    cl3 1857   3.505   3.890   1.318
  339TCM     c1 1858   2.682   1.311   3.738
  339TCM    cl1 1859   2.628   1.150   3.795
  339TCM    cl2 1860   2.563   1.437   3.785
  339TCM     h1 1861   2.779   1.335   3.783
  339TCM    cl3 1862   2.697   1.308   3.559
  340TCM     c1 1863   2.002   3.700   4.812
  340TCM    cl1 1864   1.921   3.656   4.967
  340TCM    cl2 1865   2.064   3.552   4.732
  340TCM     h1 1866   1.930   3.750   4.746
  340TCM    cl3 1867   2.138   3.812   4.846
  341TCM     c1 1868   3.966   3.614   3.122
  341TCM    cl1 1869   4.028   3.740   3.010
  341TCM    cl2 1870   4.102   3.510   3.174
  341TCM     h1 1871   3.921   3.662   3.209
  341TCM    cl3 1872   3.843   3.514   3.037
  342TCM     c1 1873   2.468   0.048   4.599
  342TCM    cl1 1874   2.535   0.117   4.750
  342TCM    cl2 1875   2.589   0.067   4.468
  342TCM     h1 1876   2.445  -0.058   4.613
  342TCM    cl3 1877   2.318   0.136   4.555
  343TCM     c1 1878   2.993   1.898   4.631
  343TCM    cl1 1879   3.115   2.001   4.715
  343TCM    cl2 1880   2.997   1.734   4.703
  343TCM     h1 1881   2.893   1.942   4.644
  343TCM    cl3 1882   3.031   1.887   4.456
  344TCM     c1 1883   0.533   0.524   4.048
  344TCM    cl1 1884   0.711   0.497   4.047
  344TCM    cl2 1885   0.463   0.461   3.895
  344TCM     h1 1886   0.489   0.471   4.133
  344TCM    cl3 1887   0.499   0.699   4.062
  345TCM     c1 1888   3.306   0.870   1.811
  345TCM    cl1 1889   3.168   0.866   1.926
  345TCM    cl2 1890   3.252   0.942   1.656
  345TCM     h1 1891   3.388   0.928   1.853
  345TCM    cl3 1892   3.361   0.702   1.780
  346TCM     c1 1893   2.711   4.921   2.390
  346TCM    cl1 1894   2.857   4.955   2.291
  346TCM    cl2 1895   2.624   4.781   2.321
  346TCM     h1 1896   2.741   4.899   2.493
  346TCM    cl3 1897   2.604   5.065   2.389
  347TCM     c1 1898   2.695   4.427   2.206
  347TCM    cl1 1899   2.794   4.517   2.086
  347TCM    cl2 1900   2.803   4.364   2.335
  347TCM     h1 1901   2.621   4.494   2.250
  347TCM    cl3 1902   2.613   4.290   2.125
  348TCM     c1 1903   0.712   0.975   2.088
  348TCM    cl1 1904   0.702   0.797   2.108
  348TCM    cl2 1905   0.856   1.037   2.176
  348TCM     h1 1906   0.720   1.000   1.982
  348TCM    cl3 1907   0.564   1.051   2.155
  349TCM     c1 1908   2.195   4.230   2.828
  349TCM    cl1 1909   2.356   4.175   2.771
  349TCM    cl2 1910   2.156   4.387   2.751
  349TCM     h1 1911   2.120   4.156   2.801
  349TCM    cl3 1912   2.199   4.250   3.006
  350TCM     c1 1913   3.971   1.785   4.706
  350TCM    cl1 1914   3.958   1.705   4.546
  350TCM    cl2 1915   4.001   1.961   4.683
  350TCM     h1 1916   3.879   1.771   4.763
  350TCM    cl3 1917   4.109   1.713   4.795
  351TCM     c1 1918   0.320   0.689   0.098
  351TCM    cl1 1919   0.496   0.658   0.097
  351TCM    cl2 1920   0.281   0.801   0.233
  351TCM     h1 1921   0.291   0.735   0.003
  351TCM    cl3 1922   0.231   0.536   0.122
  352TCM     c1 1923   3.827   3.692   0.072
  352TCM    cl1 1924   3.788   3.792  -0.072
  352TCM    cl2 1925   3.805   3.790   0.220
  352TCM     h1 1926   3.761   3.605   0.075
  352TCM    cl3 1927   3.998   3.637   0.062
  353TCM     c1 1928   1.921   2.263   2.452
  353TCM    cl1 1929   1.919   2.095   2.388
  353TCM    cl2 1930   2.043   2.359   2.362
  353TCM     h1 1931   1.823   2.308   2.439
  353TCM    cl3 1932   1.963   2.261   2.627
  354TCM     c1 1933   2.059   4.094   1.472
  354TCM    cl1 1934   2.069   3.934   1.390
  354TCM    cl2 1935   2.074   4.071   1.649
  354TCM     h1 1936   2.140   4.158   1.436
  354TCM    cl3 1937   1.901   4.169   1.433
  355TCM     c1 1938   4.057   3.732   1.828
  355TCM    cl1 1939   3.942   3.659   1.945
  355TCM    cl2 1940   4.120   3.606   1.718
  355TCM     h1 1941   4.005   3.810   1.770
  355TCM    cl3 1942   4.194   3.805   1.918
  356TCM     c1 1943   2.406   4.670   0.526
  356TCM    cl1 1944   2.317   4.763   0.651
  356TCM    cl2 1945   2.289   4.578   0.424
  356TCM     h1 1946   2.463   4.739   0.463
  356TCM    cl3 1947   2.518   4.556   0.607
  357TCM     c1 1948   2.574   2.249   4.614
  357TCM    cl1 1949   2.747   2.199   4.606
  357TCM    cl2 1950   2.537   2.308   4.779
  357TCM     h1 1951   2.556   2.329   4.542
  357TCM    cl3 1952   2.470   2.108   4.577
  358TCM     c1 1953   1.574   3.098   2.469
  358TCM    cl1 1954   1.561   2.937   2.391
  358TCM    cl2 1955   1.680   3.087   2.613
  358TCM     h1 1956   1.615   3.171   2.398
  358TCM    cl3 1957   1.410   3.151   2.520
  359TCM     c1 1958   0.559   4.172   4.668
  359TCM    cl1 1959   0.702   4.264   4.611
  359TCM    cl2 1960   0.409   4.244   4.599
  359TCM     h1 1961   0.567   4.068   4.637
  359TCM    cl3 1962   0.554   4.180   4.847
  360TCM     c1 1963   0.301   2.254   1.648
  360TCM    cl1 1964   0.369   2.369   1.528
  360TCM    cl2 1965   0.212   2.345   1.775
  360TCM     h1 1966   0.232   2.186   1.598
  360TCM    cl3 1967   0.433   2.160   1.724
  361TCM     c1 1968   4.575   0.766   4.026
  361TCM    cl1 1969   4.735   0.733   3.951
  361TCM    cl2 1970   4.562   0.941   4.064
  361TCM     h1 1971   4.495   0.737   3.956
  361TCM    cl3 1972   4.559   0.672   4.178
  362TCM     c1 1973   4.083   0.908   0.126
  362TCM    cl1 1974   4.156   1.071   0.112
  362TCM    cl2 1975   4.192   0.785   0.054
  362TCM     h1 1976   4.066   0.884   0.232
  362TCM    cl3 1977   3.926   0.905   0.039
  363TCM     c1 1978   1.841   1.580   3.606
  363TCM    cl1 1979   1.726   1.679   3.701
  363TCM    cl2 1980   1.987   1.677   3.570
  363TCM     h1 1981   1.868   1.491   3.662
  363TCM    cl3 1982   1.764   1.533   3.451
  364TCM     c1 1983   0.369   1.740   2.056
  364TCM    cl1 1984   0.193   1.704   2.044
  364TCM    cl2 1985   0.422   1.718   2.226
  364TCM     h1 1986   0.424   1.671   1.992
  364TCM    cl3 1987   0.401   1.908   2.003
  365TCM     c1 1988   1.499   0.398   3.310
  365TCM    cl1 1989   1.325   0.434   3.285
  365TCM    cl2 1990   1.526   0.351   3.481
  365TCM     h1 1991   1.530   0.316   3.244
  365TCM    cl3 1992   1.595   0.545   3.274
  366TCM     c1 1993   2.064   4.052   1.057
  366TCM    cl1 1994   2.187   4.165   1.122
  366TCM    cl2 1995   2.102   4.012   0.886
  366TCM     h1 1996   2.063   3.960   1.116
  366TCM    cl3 1997   1.903   4.130   1.064
  367TCM     c1 1998   3.268   1.609   4.134
  367TCM    cl1 1999   3.307   1.532   4.291
  367TCM    cl2 2000   3.354   1.766   4.122
  367TCM     h1 2001   3.301   1.543   4.052
  367TCM    cl3 2002   3.091   1.636   4.122
  368TCM     c1 2003   2.291   3.592   4.019
  368TCM    cl1 2004   2.439   3.693   4.030
  368TCM    cl2 2005   2.216   3.578   4.181
  368TCM     h1 2006   2.220   3.638   3.949
  368TCM    cl3 2007   2.335   3.428   3.960
  369TCM     c1 2008   2.907   0.521   4.616
  369TCM    cl1 2009   3.075   0.462   4.596
  369TCM    cl2 2010   2.889   0.598   4.777
  369TCM     h1 2011   2.884   0.593   4.537
  369TCM    cl3 2012   2.794   0.381   4.604
  370TCM     c1 2013   3.052   2.698   2.298
  370TCM    cl1 2014   3.070   2.827   2.174
  370TCM    cl2 2015   3.002   2.771   2.454
  370TCM     h1 2016   2.977   2.626   2.266
  370TCM    cl3 2017   3.209   2.613   2.320
  371TCM     c1 2018   4.787   4.294   0.603
  371TCM    cl1 2019   4.816   4.381   0.448
  371TCM    cl2 2020   4.944   4.257   0.681
  371TCM     h1 2021   4.727   4.357   0.669
  371TCM    cl3 2022   4.699   4.141   0.570
  372TCM     c1 2023   2.040   2.725   4.280
  372TCM    cl1 2024   2.056   2.735   4.458
  372TCM    cl2 2025   1.940   2.582   4.237
  372TCM     h1 2026   1.992   2.816   4.242
  372TCM    cl3 2027   2.203   2.707   4.206
  373TCM     c1 2028   2.471   4.154   4.146
  373TCM    cl1 2029   2.376   4.121   4.294
  373TCM    cl2 2030   2.618   4.052   4.145
  373TCM     h1 2031   2.411   4.132   4.057
  373TCM    cl3 2032   2.518   4.327   4.145
  374TCM     c1 2033   4.565   0.112   2.636
  374TCM    cl1 2034   4.616   0.010   2.775
  374TCM    cl2 2035   4.526   0.006   2.497
  374TCM     h1 2036   4.478   0.171   2.664
  374TCM    cl3 2037   4.701   0.220   2.591
  375TCM     c1 2038   1.745   3.536   1.952
  375TCM    cl1 2039   1.616   3.650   2.006
  375TCM    cl2 2040   1.756   3.537   1.773
  375TCM     h1 2041   1.840   3.566   1.995
  375TCM    cl3 2042   1.705   3.370   2.007
  376TCM     c1 2043   3.273   0.650   0.971
  376TCM    cl1 2044   3.432   0.728   1.000
  376TCM    cl2 2045   3.246   0.524   1.096
  376TCM     h1 2046   3.193   0.725   0.977
  376TCM    cl3 2047   3.271   0.573   0.809
  377TCM     c1 2048   0.080   3.593   3.155
  377TCM    cl1 2049   0.013   3.723   3.051
  377TCM    cl2 2050  -0.054   3.499   3.228
  377TCM     h1 2051   0.142   3.526   3.094
  377TCM    cl3 2052   0.181   3.665   3.284
  378TCM     c1 2053   2.649   2.686   4.694
  378TCM    cl1 2054   2.499   2.681   4.793
  378TCM    cl2 2055   2.613   2.621   4.530
  378TCM     h1 2056   2.684   2.789   4.686
  378TCM    cl3 2057   2.776   2.585   4.770
  379TCM     c1 2058   2.152   0.591   0.668
  379TCM    cl1 2059   2.148   0.721   0.792
  379TCM    cl2 2060   2.303   0.495   0.686
  379TCM     h1 2061   2.066   0.525   0.681
  379TCM    cl3 2062   2.146   0.663   0.504
  380TCM     c1 2063   2.591   0.224   2.001
  380TCM    cl1 2064   2.741   0.321   2.010
  380TCM    cl2 2065   2.476   0.279   2.127
  380TCM     h1 2066   2.545   0.236   1.903
  380TCM    cl3 2067   2.629   0.050   2.026
  381TCM     c1 2068   1.740   3.591   4.483
  381TCM    cl1 2069   1.690   3.620   4.652
  381TCM    cl2 2070   1.809   3.426   4.468
  381TCM     h1 2071   1.653   3.601   4.417
  381TCM    cl3 2072   1.864   3.712   4.437
  382TCM     c1 2073   0.582   2.620   0.767
  382TCM    cl1 2074   0.723   2.599   0.876
  382TCM    cl2 2075   0.553   2.468   0.677
  382TCM     h1 2076   0.493   2.645   0.826
  382TCM    cl3 2077   0.615   2.752   0.651
  383TCM     c1 2078   2.815   0.265   3.021
  383TCM    cl1 2079   2.954   0.161   2.974
  383TCM    cl2 2080   2.666   0.166   3.025
  383TCM     h1 2081   2.833   0.309   3.119
  383TCM    cl3 2082   2.795   0.396   2.900
  384TCM     c1 2083   1.931   2.864   0.926
  384TCM    cl1 2084   1.945   2.735   1.050
  384TCM    cl2 2085   2.093   2.935   0.896
  384TCM     h1 2086   1.892   2.822   0.833
  384TCM    cl3 2087   1.820   2.992   0.986
  385TCM     c1 2088   3.215   0.235   3.983
  385TCM    cl1 2089   3.256   0.060   3.982
  385TCM    cl2 2090   3.187   0.289   4.152
  385TCM     h1 2091   3.297   0.292   3.940
  385TCM    cl3 2092   3.066   0.261   3.886
  386TCM     c1 2093   0.063   0.438   4.166
  386TCM    cl1 2094  -0.072   0.552   4.194
  386TCM    cl2 2095   0.217   0.516   4.217
  386TCM     h1 2096   0.047   0.347   4.225
  386TCM    cl3 2097   0.074   0.396   3.992
  387TCM     c1 2098   2.310   2.344   3.938
  387TCM    cl1 2099   2.150   2.375   4.012
  387TCM    cl2 2100   2.313   2.407   3.771
  387TCM     h1 2101   2.388   2.393   3.998
  387TCM    cl3 2102   2.340   2.167   3.935
  388TCM     c1 2103   0.628   1.134   0.026
  388TCM    cl1 2104   0.798   1.156  -0.027
  388TCM    cl2 2105   0.559   0.988  -0.051
  388TCM     h1 2106   0.625   1.122   0.135
  388TCM    cl3 2107   0.532   1.278  -0.021
  389TCM     c1 2108   4.538   3.015   1.917
  389TCM    cl1 2109   4.435   3.019   2.063
  389TCM    cl2 2110   4.605   2.850   1.896
  389TCM     h1 2111   4.478   3.042   1.829
  389TCM    cl3 2112   4.673   3.131   1.935
  390TCM     c1 2113   2.971   3.393   0.420
  390TCM    cl1 2114   3.018   3.220   0.431
  390TCM    cl2 2115   2.931   3.456   0.583
  390TCM     h1 2116   3.055   3.451   0.378
  390TCM    cl3 2117   2.829   3.409   0.312
  391TCM     c1 2118   2.438   4.664   1.317
  391TCM    cl1 2119   2.333   4.806   1.287
  391TCM    cl2 2120   2.458   4.639   1.493
  391TCM     h1 2121   2.392   4.575   1.272
  391TCM    cl3 2122   2.599   4.692   1.243
  392TCM     c1 2123   2.712   3.812   4.828
  392TCM    cl1 2124   2.733   3.750   4.661
  392TCM    cl2 2125   2.776   3.692   4.946
  392TCM     h1 2126   2.766   3.906   4.839
  392TCM    cl3 2127   2.537   3.836   4.860
  393TCM     c1 2128   3.644   3.869   2.849
  393TCM    cl1 2129   3.562   3.781   2.983
  393TCM    cl2 2130   3.736   3.752   2.749
  393TCM     h1 2131   3.570   3.920   2.788
  393TCM    cl3 2132   3.758   3.989   2.919
  394TCM     c1 2133   2.266   1.654   2.270
  394TCM    cl1 2134   2.107   1.633   2.189
  394TCM    cl2 2135   2.363   1.773   2.178
  394TCM     h1 2136   2.250   1.690   2.372
  394TCM    cl3 2137   2.351   1.496   2.274
  395TCM     c1 2138   0.165   2.290   0.671
  395TCM    cl1 2139  -0.009   2.252   0.655
  395TCM    cl2 2140   0.193   2.385   0.820
  395TCM     h1 2141   0.223   2.197   0.675
  395TCM    cl3 2142   0.218   2.386   0.529
  396TCM     c1 2143   4.064   0.446   3.125
  396TCM    cl1 2144   4.235   0.493   3.152
  396TCM    cl2 2145   4.055   0.267   3.108
  396TCM     h1 2146   4.003   0.478   3.209
  396TCM    cl3 2147   4.005   0.523   2.974
  397TCM     c1 2148   0.068   1.967   0.211
  397TCM    cl1 2149   0.026   2.107   0.106
  397TCM    cl2 2150   0.081   2.104   0.326
  397TCM     h1 2151   0.127   1.943   0.123
  397TCM    cl3 2152   0.224   1.928   0.290
  398TCM     c1 2153   3.273   1.106   1.012
  398TCM    cl1 2154   3.168   1.251   1.004
  398TCM    cl2 2155   3.259   1.014   0.858
  398TCM     h1 2156   3.377   1.136   1.026
  398TCM    cl3 2157   3.221   1.002   1.149
  399TCM     c1 2158   2.676   4.293   4.529
  399TCM    cl1 2159   2.516   4.373   4.521
  399TCM    cl2 2160   2.778   4.348   4.392
  399TCM     h1 2161   2.725   4.318   4.623
  399TCM    cl3 2162   2.654   4.115   4.519
  400TCM     c1 2163   1.458   4.986   0.411
  400TCM    cl1 2164   1.349   4.901   0.526
  400TCM    cl2 2165   1.465   5.160   0.454
  400TCM     h1 2166   1.558   4.943   0.416
  400TCM    cl3 2167   1.391   4.970   0.245
  401TCM     c1 2168   1.380   3.388   4.431
  401TCM    cl1 2169   1.448   3.349   4.592
  401TCM    cl2 2170   1.480   3.311   4.304
  401TCM     h1 2171   1.277   3.351   4.424
  401TCM    cl3 2172   1.380   3.566   4.407
  402TCM     c1 2173   1.086   2.262   2.264
  402TCM    cl1 2174   1.260   2.255   2.307
  402TCM    cl2 2175   1.071   2.311   2.092
  402TCM     h1 2176   1.040   2.164   2.277
  402TCM    cl3 2177   1.004   2.382   2.369
  403TCM     c1 2178   1.137   1.173   0.700
  403TCM    cl1 2179   1.064   1.333   0.663
  403TCM    cl2 2180   1.314   1.181   0.673
  403TCM     h1 2181   1.117   1.147   0.804
  403TCM    cl3 2182   1.065   1.050   0.591
  404TCM     c1 2183   0.231   0.487   3.268
  404TCM    cl1 2184   0.176   0.486   3.097
  404TCM    cl2 2185   0.346   0.623   3.292
  404TCM     h1 2186   0.145   0.500   3.334
  404TCM    cl3 2187   0.314   0.333   3.305
  405TCM     c1 2188   2.615   3.865   0.461
  405TCM    cl1 2189   2.706   3.967   0.577
  405TCM    cl2 2190   2.682   3.699   0.466
  405TCM     h1 2191   2.510   3.863   0.488
  405TCM    cl3 2192   2.634   3.931   0.295
  406TCM     c1 2193   0.178   1.749   0.682
  406TCM    cl1 2194   0.141   1.665   0.528
  406TCM    cl2 2195   0.052   1.709   0.803
  406TCM     h1 2196   0.276   1.718   0.719
  406TCM    cl3 2197   0.178   1.926   0.654
  407TCM     c1 2198   3.134   4.674   4.138
  407TCM    cl1 2199   3.089   4.502   4.164
  407TCM    cl2 2200   3.072   4.728   3.978
  407TCM     h1 2201   3.090   4.736   4.217
  407TCM    cl3 2202   3.312   4.690   4.139
  408TCM     c1 2203   0.235   3.092   3.416
  408TCM    cl1 2204   0.314   3.132   3.573
  408TCM    cl2 2205   0.330   2.964   3.334
  408TCM     h1 2206   0.134   3.056   3.435
  408TCM    cl3 2207   0.229   3.239   3.313
  409TCM     c1 2208   2.835   0.703   1.845
  409TCM    cl1 2209   2.830   0.861   1.761
  409TCM    cl2 2210   2.774   0.577   1.732
  409TCM     h1 2211   2.937   0.679   1.875
  409TCM    cl3 2212   2.727   0.708   1.988
  410TCM     c1 2213   4.788   4.930   4.385
  410TCM    cl1 2214   4.779   4.789   4.496
  410TCM    cl2 2215   4.651   5.040   4.421
  410TCM     h1 2216   4.882   4.983   4.400
  410TCM    cl3 2217   4.776   4.872   4.216
  411TCM     c1 2218   3.897   0.935   1.985
  411TCM    cl1 2219   3.982   0.779   1.963
  411TCM    cl2 2220   3.843   0.950   2.156
  411TCM     h1 2221   3.965   1.018   1.961
  411TCM    cl3 2222   3.754   0.941   1.877
  412TCM     c1 2223   2.387   4.648   1.965
  412TCM    cl1 2224   2.499   4.553   1.863
  412TCM    cl2 2225   2.379   4.574   2.129
  412TCM     h1 2226   2.423   4.751   1.973
  412TCM    cl3 2227   2.224   4.646   1.892
  413TCM     c1 2228   2.235   2.502   0.619
  413TCM    cl1 2229   2.396   2.472   0.694
  413TCM    cl2 2230   2.165   2.653   0.684
  413TCM     h1 2231   2.246   2.510   0.511
  413TCM    cl3 2232   2.126   2.365   0.659
  414TCM     c1 2233   1.959   4.588   0.140
  414TCM    cl1 2234   1.902   4.531   0.300
  414TCM    cl2 2235   2.090   4.479   0.082
  414TCM     h1 2236   1.876   4.586   0.069
  414TCM    cl3 2237   2.022   4.755   0.155
  415TCM     c1 2238   3.436   0.872   2.289
  415TCM    cl1 2239   3.523   1.027   2.305
  415TCM    cl2 2240   3.484   0.795   2.134
  415TCM     h1 2241   3.462   0.806   2.372
  415TCM    cl3 2242   3.259   0.900   2.288
  416TCM     c1 2243   3.479   4.078   0.590
  416TCM    cl1 2244   3.540   4.238   0.644
  416TCM    cl2 2245   3.308   4.060   0.641
  416TCM     h1 2246   3.486   4.071   0.482
  416TCM    cl3 2247   3.576   3.948   0.667
  417TCM     c1 2248   1.526   4.128   2.033
  417TCM    cl1 2249   1.436   4.010   1.933
  417TCM    cl2 2250   1.599   4.042   2.173
  417TCM     h1 2251   1.606   4.175   1.974
  417TCM    cl3 2252   1.412   4.254   2.092
  418TCM     c1 2253   4.806   2.441   2.979
  418TCM    cl1 2254   4.983   2.465   2.967
  418TCM    cl2 2255   4.723   2.596   2.942
  418TCM     h1 2256   4.774   2.364   2.908
  418TCM    cl3 2257   4.764   2.389   3.146
  419TCM     c1 2258   1.520   1.274   2.111
  419TCM    cl1 2259   1.456   1.195   1.964
  419TCM    cl2 2260   1.488   1.170   2.254
  419TCM     h1 2261   1.628   1.289   2.101
  419TCM    cl3 2262   1.440   1.433   2.132
  420TCM     c1 2263   1.057   4.160   0.292
  420TCM    cl1 2264   1.147   4.014   0.345
  420TCM    cl2 2265   0.923   4.191   0.407
  420TCM     h1 2266   1.124   4.246   0.291
  420TCM    cl3 2267   0.991   4.135   0.127
  421TCM     c1 2268   3.001   2.495   0.758
  421TCM    cl1 2269   2.835   2.448   0.707
  421TCM    cl2 2270   3.007   2.505   0.937
  421TCM     h1 2271   3.072   2.420   0.723
  421TCM    cl3 2272   3.043   2.654   0.687
  422TCM     c1 2273   0.633   1.969   2.523
  422TCM    cl1 2274   0.505   2.030   2.412
  422TCM    cl2 2275   0.762   2.093   2.538
  422TCM     h1 2276   0.590   1.949   2.621
  422TCM    cl3 2277   0.704   1.819   2.455
  423TCM     c1 2278   2.482   0.491   4.740
  423TCM    cl1 2279   2.535   0.649   4.672
  423TCM    cl2 2280   2.303   0.481   4.733
  423TCM     h1 2281   2.526   0.410   4.682
  423TCM    cl3 2282   2.536   0.479   4.911
  424TCM     c1 2283   0.304   4.199   4.015
  424TCM    cl1 2284   0.249   4.291   4.158
  424TCM    cl2 2285   0.202   4.053   3.996
  424TCM     h1 2286   0.296   4.262   3.925
  424TCM    cl3 2287   0.474   4.150   4.039
  425TCM     c1 2288   4.784   3.912   1.148
  425TCM    cl1 2289   4.809   3.947   1.322
  425TCM    cl2 2290   4.794   3.735   1.121
  425TCM     h1 2291   4.686   3.948   1.117
  425TCM    cl3 2292   4.912   3.994   1.051
  426TCM     c1 2293   2.280   2.368   0.114
  426TCM    cl1 2294   2.289   2.534   0.047
  426TCM    cl2 2295   2.199   2.373   0.274
  426TCM     h1 2296   2.222   2.304   0.046
  426TCM    cl3 2297   2.444   2.300   0.134
  427TCM     c1 2298   3.144   2.236   2.018
  427TCM    cl1 2299   3.100   2.410   2.023
  427TCM    cl2 2300   3.058   2.157   1.882
  427TCM     h1 2301   3.252   2.225   2.005
  427TCM    cl3 2302   3.094   2.160   2.173
  428TCM     c1 2303   4.158   1.164   4.727
  428TCM    cl1 2304   4.232   1.002   4.749
  428TCM    cl2 2305   4.251   1.286   4.819
  428TCM     h1 2306   4.159   1.190   4.621
  428TCM    cl3 2307   3.988   1.160   4.786
  429TCM     c1 2308   0.878   1.827   4.302
  429TCM    cl1 2309   0.801   1.817   4.463
  429TCM    cl2 2310   0.752   1.838   4.175
  429TCM     h1 2311   0.943   1.915   4.297
  429TCM    cl3 2312   0.977   1.679   4.274
  430TCM     c1 2313   0.478   0.457   2.008
  430TCM    cl1 2314   0.591   0.508   1.878
  430TCM    cl2 2315   0.354   0.348   1.939
  430TCM     h1 2316   0.534   0.405   2.086
  430TCM    cl3 2317   0.398   0.602   2.078
  431TCM     c1 2318   3.471   0.236   1.014
  431TCM    cl1 2319   3.321   0.216   0.917
  431TCM    cl2 2320   3.565   0.375   0.951
  431TCM     h1 2321   3.444   0.254   1.119
  431TCM    cl3 2322   3.570   0.087   1.001
  432TCM     c1 2323   3.048   1.954   3.528
  432TCM    cl1 2324   3.198   2.028   3.464
  432TCM    cl2 2325   3.057   1.776   3.507
  432TCM     h1 2326   3.037   1.978   3.634
  432TCM    cl3 2327   2.907   2.018   3.436
  433TCM     c1 2328   3.708   2.685   3.357
  433TCM    cl1 2329   3.792   2.843   3.339
  433TCM    cl2 2330   3.531   2.710   3.340
  433TCM     h1 2331   3.743   2.617   3.279
  433TCM    cl3 2332   3.744   2.616   3.518
  434TCM     c1 2333   3.028   4.306   1.737
  434TCM    cl1 2334   2.927   4.215   1.854
  434TCM    cl2 2335   3.183   4.218   1.713
  434TCM     h1 2336   2.975   4.315   1.641
  434TCM    cl3 2337   3.062   4.469   1.802
  435TCM     c1 2338   0.486   1.077   4.037
  435TCM    cl1 2339   0.321   1.027   3.987
  435TCM    cl2 2340   0.474   1.195   4.171
  435TCM     h1 2341   0.543   0.989   4.070
  435TCM    cl3 2342   0.568   1.153   3.896
  436TCM     c1 2343   0.326   1.733   1.594
  436TCM    cl1 2344   0.438   1.640   1.699
  436TCM    cl2 2345   0.418   1.850   1.494
  436TCM     h1 2346   0.272   1.664   1.529
  436TCM    cl3 2347   0.210   1.822   1.698
  437TCM     c1 2348   4.927   2.678   1.050
  437TCM    cl1 2349   4.917   2.690   1.229
  437TCM    cl2 2350   5.098   2.691   0.998
  437TCM     h1 2351   4.886   2.582   1.018
  437TCM    cl3 2352   4.833   2.813   0.977
  438TCM     c1 2353   0.920   3.318   0.050
  438TCM    cl1 2354   0.879   3.491   0.025
  438TCM    cl2 2355   0.851   3.263   0.206
  438TCM     h1 2356   0.878   3.258  -0.032
  438TCM    cl3 2357   1.098   3.299   0.053
  439TCM     c1 2358   3.552   1.001   1.326
  439TCM    cl1 2359   3.586   1.020   1.501
  439TCM    cl2 2360   3.673   0.890   1.253
  439TCM     h1 2361   3.452   0.960   1.312
  439TCM    cl3 2362   3.563   1.161   1.244
  440TCM     c1 2363   3.420   1.699   4.595
  440TCM    cl1 2364   3.359   1.716   4.763
  440TCM    cl2 2365   3.597   1.674   4.600
  440TCM     h1 2366   3.372   1.613   4.547
  440TCM    cl3 2367   3.384   1.848   4.502
  441TCM     c1 2368   0.462   3.843   4.239
  441TCM    cl1 2369   0.292   3.788   4.253
  441TCM    cl2 2370   0.572   3.702   4.233
  441TCM     h1 2371   0.473   3.901   4.147
  441TCM    cl3 2372   0.501   3.946   4.381
  442TCM     c1 2373   3.095   3.300   0.068
  442TCM    cl1 2374   3.056   3.472   0.038
  442TCM    cl2 2375   3.255   3.291   0.149
  442TCM     h1 2376   3.018   3.256   0.133
  442TCM    cl3 2377   3.100   3.212  -0.088
  443TCM     c1 2378   0.839   2.336   1.424
  443TCM    cl1 2379   0.729   2.426   1.314
  443TCM    cl2 2380   0.990   2.296   1.336
  443TCM     h1 2381   0.862   2.398   1.511
  443TCM    cl3 2382   0.758   2.185   1.478
  444TCM     c1 2383   4.276   0.022   0.109
  444TCM    cl1 2384   4.161  -0.024   0.239
  444TCM    cl2 2385   4.215  -0.042  -0.048
  444TCM     h1 2386   4.284   0.130   0.104
  444TCM    cl3 2387   4.437  -0.049   0.144
  445TCM     c1 2388   4.589   1.098   0.089
  445TCM    cl1 2389   4.509   0.957   0.013
  445TCM    cl2 2390   4.505   1.137   0.243
  445TCM     h1 2391   4.693   1.075   0.109
  445TCM    cl3 2392   4.578   1.238  -0.023
  446TCM     c1 2393   3.049   0.599   3.308
  446TCM    cl1 2394   3.109   0.760   3.257
  446TCM    cl2 2395   3.174   0.475   3.274
  446TCM     h1 2396   3.026   0.600   3.415
  446TCM    cl3 2397   2.900   0.559   3.216
  447TCM     c1 2398   4.575   1.060   4.659
  447TCM    cl1 2399   4.750   1.092   4.681
  447TCM    cl2 2400   4.553   0.903   4.576
  447TCM     h1 2401   4.525   1.058   4.756
  447TCM    cl3 2402   4.503   1.190   4.558
  448TCM     c1 2403   0.003   2.146   3.343
  448TCM    cl1 2404   0.114   2.037   3.432
  448TCM    cl2 2405  -0.154   2.063   3.316
  448TCM     h1 2406  -0.014   2.237   3.401
  448TCM    cl3 2407   0.076   2.189   3.185
  449TCM     c1 2408   4.885   4.883   3.862
  449TCM    cl1 2409   5.007   4.795   3.959
  449TCM    cl2 2410   4.891   4.823   3.693
  449TCM     h1 2411   4.785   4.866   3.903
  449TCM    cl3 2412   4.922   5.059   3.865
  450TCM     c1 2413   3.348   0.470   3.587
  450TCM    cl1 2414   3.432   0.378   3.717
  450TCM    cl2 2415   3.458   0.596   3.522
  450TCM     h1 2416   3.320   0.401   3.507
  450TCM    cl3 2417   3.201   0.548   3.654
  451TCM     c1 2418   3.701   3.652   1.544
  451TCM    cl1 2419   3.536   3.676   1.609
  451TCM    cl2 2420   3.779   3.515   1.630
  451TCM     h1 2421   3.696   3.631   1.437
  451TCM    cl3 2422   3.797   3.801   1.571
  452TCM     c1 2423   0.738   4.951   1.036
  452TCM    cl1 2424   0.668   5.100   1.108
  452TCM    cl2 2425   0.629   4.887   0.909
  452TCM     h1 2426   0.836   4.974   0.993
  452TCM    cl3 2427   0.758   4.828   1.165
  453TCM     c1 2428   2.250   3.977   3.704
  453TCM    cl1 2429   2.397   3.966   3.806
  453TCM    cl2 2430   2.145   3.835   3.736
  453TCM     h1 2431   2.195   4.069   3.727
  453TCM    cl3 2432   2.297   3.978   3.531
  454TCM     c1 2433   4.253   3.834   1.177
  454TCM    cl1 2434   4.431   3.818   1.191
  454TCM    cl2 2435   4.195   3.738   1.037
  454TCM     h1 2436   4.206   3.797   1.269
  454TCM    cl3 2437   4.209   4.006   1.153
  455TCM     c1 2438   3.082   4.130   4.574
  455TCM    cl1 2439   3.003   4.024   4.453
  455TCM    cl2 2440   2.964   4.177   4.700
  455TCM     h1 2441   3.165   4.076   4.621
  455TCM    cl3 2442   3.144   4.277   4.492
  456TCM     c1 2443   2.101   2.041   4.716
  456TCM    cl1 2444   2.086   1.915   4.843
  456TCM    cl2 2445   2.165   2.192   4.790
  456TCM     h1 2446   2.170   2.007   4.638
  456TCM    cl3 2447   1.940   2.073   4.645
  457TCM     c1 2448   1.300   3.628   1.737
  457TCM    cl1 2449   1.428   3.737   1.673
  457TCM    cl2 2450   1.225   3.705   1.881
  457TCM     h1 2451   1.225   3.611   1.660
  457TCM    cl3 2452   1.374   3.472   1.785
  458TCM     c1 2453   1.695   4.815   1.480
  458TCM    cl1 2454   1.579   4.795   1.616
  458TCM    cl2 2455   1.642   4.714   1.342
  458TCM     h1 2456   1.697   4.920   1.450
  458TCM    cl3 2457   1.858   4.764   1.532
  459TCM     c1 2458   3.912   4.223   3.642
  459TCM    cl1 2459   4.013   4.135   3.523
  459TCM    cl2 2460   4.011   4.348   3.725
  459TCM     h1 2461   3.828   4.271   3.591
  459TCM    cl3 2462   3.849   4.106   3.763
  460TCM     c1 2463   0.627   1.088   3.408
  460TCM    cl1 2464   0.596   0.941   3.309
  460TCM    cl2 2465   0.774   1.063   3.507
  460TCM     h1 2466   0.641   1.174   3.342
  460TCM    cl3 2467   0.487   1.117   3.516
  461TCM     c1 2468   1.534   4.421   0.324
  461TCM    cl1 2469   1.538   4.595   0.368
  461TCM    cl2 2470   1.574   4.402   0.150
  461TCM     h1 2471   1.606   4.366   0.384
  461TCM    cl3 2472   1.369   4.356   0.354
  462TCM     c1 2473   3.035   0.265   0.040
  462TCM    cl1 2474   3.140   0.399  -0.017
  462TCM    cl2 2475   2.869   0.287  -0.022
  462TCM     h1 2476   3.076   0.170   0.004
  462TCM    cl3 2477   3.033   0.264   0.220
  463TCM     c1 2478   3.676   0.690   3.242
  463TCM    cl1 2479   3.520   0.675   3.155
  463TCM    cl2 2480   3.796   0.772   3.137
  463TCM     h1 2481   3.662   0.748   3.334
  463TCM    cl3 2482   3.737   0.526   3.283
  464TCM     c1 2483   4.929   4.452   3.966
  464TCM    cl1 2484   4.786   4.500   3.870
  464TCM    cl2 2485   5.072   4.438   3.858
  464TCM     h1 2486   4.948   4.527   4.043
  464TCM    cl3 2487   4.899   4.293   4.044
  465TCM     c1 2488   4.358   1.586   0.037
  465TCM    cl1 2489   4.313   1.749   0.099
  465TCM    cl2 2490   4.370   1.472   0.174
  465TCM     h1 2491   4.281   1.551  -0.034
  465TCM    cl3 2492   4.516   1.597  -0.047
  466TCM     c1 2493   0.354   0.639   2.775
  466TCM    cl1 2494   0.185   0.699   2.778
  466TCM    cl2 2495   0.352   0.461   2.750
  466TCM     h1 2496   0.409   0.688   2.694
  466TCM    cl3 2497   0.433   0.677   2.932
  467TCM     c1 2498   0.173   2.184   2.253
  467TCM    cl1 2499   0.032   2.256   2.171
  467TCM    cl2 2500   0.322   2.233   2.166
  467TCM     h1 2501   0.178   2.219   2.357
  467TCM    cl3 2502   0.160   2.005   2.251
  468TCM     c1 2503   3.451   1.990   1.446
  468TCM    cl1 2504   3.364   1.904   1.315
  468TCM    cl2 2505   3.332   2.074   1.552
  468TCM     h1 2506   3.508   1.918   1.505
  468TCM    cl3 2507   3.563   2.110   1.375
  469TCM     c1 2508   2.638   0.795   4.217
  469TCM    cl1 2509   2.678   0.970   4.214
  469TCM    cl2 2510   2.475   0.774   4.290
  469TCM     h1 2511   2.638   0.756   4.115
  469TCM    cl3 2512   2.759   0.707   4.316
  470TCM     c1 2513   4.874   2.516   4.806
  470TCM    cl1 2514   4.695   2.524   4.798
  470TCM    cl2 2515   4.926   2.346   4.830
  470TCM     h1 2516   4.917   2.555   4.713
  470TCM    cl3 2517   4.934   2.615   4.944
  471TCM     c1 2518   3.710   0.746   2.739
  471TCM    cl1 2519   3.648   0.599   2.821
  471TCM    cl2 2520   3.656   0.892   2.829
  471TCM     h1 2521   3.819   0.743   2.736
  471TCM    cl3 2522   3.646   0.753   2.571
  472TCM     c1 2523   3.104   1.910   3.105
  472TCM    cl1 2524   3.177   1.756   3.163
  472TCM    cl2 2525   3.025   1.879   2.947
  472TCM     h1 2526   3.031   1.946   3.178
  472TCM    cl3 2527   3.233   2.032   3.083
  473TCM     c1 2528   3.437   1.576   1.161
  473TCM    cl1 2529   3.480   1.455   1.035
  473TCM    cl2 2530   3.546   1.556   1.302
  473TCM     h1 2531   3.447   1.677   1.120
  473TCM    cl3 2532   3.267   1.549   1.212
  474TCM     c1 2533   0.373   3.217   1.371
  474TCM    cl1 2534   0.235   3.249   1.482
  474TCM    cl2 2535   0.458   3.068   1.425
  474TCM     h1 2536   0.336   3.203   1.270
  474TCM    cl3 2537   0.486   3.356   1.375
  475TCM     c1 2538   2.389   3.760   4.521
  475TCM    cl1 2539   2.395   3.587   4.568
  475TCM    cl2 2540   2.220   3.804   4.478
  475TCM     h1 2541   2.423   3.821   4.604
  475TCM    cl3 2542   2.494   3.786   4.378
  476TCM     c1 2543   1.807   1.600   1.780
  476TCM    cl1 2544   1.724   1.462   1.859
  476TCM    cl2 2545   1.821   1.567   1.604
  476TCM     h1 2546   1.749   1.691   1.796
  476TCM    cl3 2547   1.971   1.620   1.849
  477TCM     c1 2548   4.798   2.362   0.253
  477TCM    cl1 2549   4.679   2.468   0.171
  477TCM    cl2 2550   4.728   2.303   0.407
  477TCM     h1 2551   4.822   2.277   0.189
  477TCM    cl3 2552   4.947   2.456   0.289
  478TCM     c1 2553   3.020   4.363   3.425
  478TCM    cl1 2554   3.095   4.314   3.269
  478TCM    cl2 2555   2.987   4.216   3.523
  478TCM     h1 2556   3.089   4.429   3.480
  478TCM    cl3 2557   2.866   4.450   3.395
  479TCM     c1 2558   4.949   3.623   0.081
  479TCM    cl1 2559   5.112   3.551   0.067
  479TCM    cl2 2560   4.953   3.756   0.202
  479TCM     h1 2561   4.917   3.662  -0.016
  479TCM    cl3 2562   4.834   3.497   0.136
  480TCM     c1 2563   1.247   2.539   3.058
  480TCM    cl1 2564   1.242   2.712   3.008
  480TCM    cl2 2565   1.113   2.450   2.979
  480TCM     h1 2566   1.343   2.495   3.027
  480TCM    cl3 2567   1.231   2.528   3.236
  481TCM     c1 2568   2.406   2.698   1.114
  481TCM    cl1 2569   2.339   2.861   1.146
  481TCM    cl2 2570   2.287   2.601   1.021
  481TCM     h1 2571   2.499   2.707   1.056
  481TCM    cl3 2572   2.441   2.616   1.269
  482TCM     c1 2573   2.252   4.763   2.959
  482TCM    cl1 2574   2.320   4.603   3.001
  482TCM    cl2 2575   2.339   4.891   3.051
  482TCM     h1 2576   2.265   4.781   2.851
  482TCM    cl3 2577   2.078   4.768   3.001
  483TCM     c1 2578   0.272   2.711   3.831
  483TCM    cl1 2579   0.219   2.882   3.834
  483TCM    cl2 2580   0.368   2.680   3.683
  483TCM     h1 2581   0.334   2.690   3.919
  483TCM    cl3 2582   0.129   2.603   3.833
  484TCM     c1 2583   2.468   2.086   3.265
  484TCM    cl1 2584   2.459   2.265   3.278
  484TCM    cl2 2585   2.516   2.018   3.423
  484TCM     h1 2586   2.370   2.047   3.236
  484TCM    cl3 2587   2.589   2.040   3.141
  485TCM     c1 2588   1.850   0.693   4.072
  485TCM    cl1 2589   1.879   0.565   3.949
  485TCM    cl2 2590   1.682   0.679   4.133
  485TCM     h1 2591   1.921   0.681   4.154
  485TCM    cl3 2592   1.872   0.854   3.996
  486TCM     c1 2593   1.014   4.972   0.670
  486TCM    cl1 2594   1.035   4.875   0.819
  486TCM    cl2 2595   0.868   5.075   0.686
  486TCM     h1 2596   1.102   5.035   0.654
  486TCM    cl3 2597   0.993   4.861   0.530
  487TCM     c1 2598   4.127   1.067   3.394
  487TCM    cl1 2599   4.140   1.117   3.566
  487TCM    cl2 2600   4.091   1.210   3.292
  487TCM     h1 2601   4.221   1.021   3.362
  487TCM    cl3 2602   3.993   0.949   3.379
  488TCM     c1 2603   3.033   4.728   3.131
  488TCM    cl1 2604   2.910   4.856   3.161
  488TCM    cl2 2605   2.951   4.582   3.066
  488TCM     h1 2606   3.106   4.765   3.058
  488TCM    cl3 2607   3.116   4.688   3.284
  489TCM     c1 2608   2.171   2.240   2.964
  489TCM    cl1 2609   2.108   2.388   3.043
  489TCM    cl2 2610   2.157   2.102   3.078
  489TCM     h1 2611   2.114   2.219   2.873
  489TCM    cl3 2612   2.344   2.266   2.923
  490TCM     c1 2613   1.277   0.536   0.112
  490TCM    cl1 2614   1.340   0.694   0.054
  490TCM    cl2 2615   1.137   0.566   0.221
  490TCM     h1 2616   1.244   0.476   0.027
  490TCM    cl3 2617   1.406   0.449   0.201
  491TCM     c1 2618   2.118   4.454   4.182
  491TCM    cl1 2619   2.076   4.385   4.342
  491TCM    cl2 2620   2.164   4.322   4.070
  491TCM     h1 2621   2.031   4.506   4.141
  491TCM    cl3 2622   2.254   4.569   4.201
  492TCM     c1 2623   0.806   3.902   4.869
  492TCM    cl1 2624   0.972   3.843   4.903
  492TCM    cl2 2625   0.687   3.791   4.945
  492TCM     h1 2626   0.793   4.003   4.910
  492TCM    cl3 2627   0.779   3.903   4.692
  493TCM     c1 2628   0.243   2.819   1.608
  493TCM    cl1 2629   0.120   2.691   1.632
  493TCM    cl2 2630   0.407   2.751   1.639
  493TCM     h1 2631   0.238   2.856   1.505
  493TCM    cl3 2632   0.212   2.954   1.722
  494TCM     c1 2633   3.265   1.026   3.426
  494TCM    cl1 2634   3.274   0.902   3.555
  494TCM    cl2 2635   3.390   0.993   3.302
  494TCM     h1 2636   3.166   1.024   3.380
  494TCM    cl3 2637   3.295   1.188   3.498
  495TCM     c1 2638   1.520   4.987   1.154
  495TCM    cl1 2639   1.435   5.069   1.018
  495TCM    cl2 2640   1.443   5.033   1.309
  495TCM     h1 2641   1.514   4.879   1.140
  495TCM    cl3 2642   1.692   5.039   1.157
  496TCM     c1 2643   2.471   2.950   3.634
  496TCM    cl1 2644   2.411   2.987   3.469
  496TCM    cl2 2645   2.569   2.800   3.630
  496TCM     h1 2646   2.533   3.032   3.670
  496TCM    cl3 2647   2.332   2.927   3.746
  497TCM     c1 2648   4.987   3.043   1.259
  497TCM    cl1 2649   4.956   3.004   1.431
  497TCM    cl2 2650   5.154   2.995   1.217
  497TCM     h1 2651   4.916   2.989   1.196
  497TCM    cl3 2652   4.967   3.220   1.233
  498TCM     c1 2653   1.709   0.218   0.154
  498TCM    cl1 2654   1.610   0.187   0.008
  498TCM    cl2 2655   1.856   0.310   0.108
  498TCM     h1 2656   1.651   0.276   0.226
  498TCM    cl3 2657   1.759   0.062   0.228
  499TCM     c1 2658   0.997   1.607   2.713
  499TCM    cl1 2659   1.036   1.625   2.539
  499TCM    cl2 2660   0.916   1.757   2.770
  499TCM     h1 2661   0.931   1.522   2.727
  499TCM    cl3 2662   1.148   1.581   2.806
  500TCM     c1 2663   2.362   3.920   2.237
  500TCM    cl1 2664   2.489   3.913   2.110
  500TCM    cl2 2665   2.201   3.914   2.159
  500TCM     h1 2666   2.373   3.834   2.304
  500TCM    cl3 2667   2.379   4.072   2.330
  501TCM     c1 2668   1.344   0.519   2.839
  501TCM    cl1 2669   1.208   0.580   2.939
  501TCM    cl2 2670   1.286   0.383   2.737
  501TCM     h1 2671   1.381   0.599   2.775
  501TCM    cl3 2672   1.475   0.462   2.946
  502TCM     c1 2673   0.069   0.236   2.763
  502TCM    cl1 2674  -0.033   0.378   2.804
  502TCM    cl2 2675   0.106   0.237   2.588
  502TCM     h1 2676   0.161   0.239   2.821
  502TCM    cl3 2677  -0.021   0.085   2.801
  503TCM     c1 2678   2.646   3.926   2.939
  503TCM    cl1 2679   2.565   3.824   2.815
  503TCM    cl2 2680   2.776   3.831   3.018
  503TCM     h1 2681   2.689   4.014   2.891
  503TCM    cl3 2682   2.526   3.977   3.062
  504TCM     c1 2683   0.208   4.775   0.243
  504TCM    cl1 2684   0.191   4.766   0.065
  504TCM    cl2 2685   0.257   4.614   0.307
  504TCM     h1 2686   0.284   4.849   0.269
  504TCM    cl3 2687   0.050   4.821   0.314
  505TCM     c1 2688   1.476   4.019   0.050
  505TCM    cl1 2689   1.499   4.024   0.228
  505TCM    cl2 2690   1.307   3.970   0.013
  505TCM     h1 2691   1.495   4.118   0.008
  505TCM    cl3 2692   1.590   3.900  -0.021
  506TCM     c1 2693   0.494   1.850   3.449
  506TCM    cl1 2694   0.395   1.814   3.304
  506TCM    cl2 2695   0.616   1.720   3.471
  506TCM     h1 2696   0.545   1.945   3.435
  506TCM    cl3 2697   0.389   1.857   3.594
  507TCM     c1 2698   4.565   0.171   4.764
  507TCM    cl1 2699   4.591  -0.004   4.794
  507TCM    cl2 2700   4.724   0.254   4.756
  507TCM     h1 2701   4.511   0.186   4.670
  507TCM    cl3 2702   4.471   0.241   4.900
  508TCM     c1 2703   4.252   2.068   2.238
  508TCM    cl1 2704   4.361   2.184   2.321
  508TCM    cl2 2705   4.081   2.118   2.263
  508TCM     h1 2706   4.274   2.067   2.131
  508TCM    cl3 2707   4.277   1.904   2.306
  509TCM     c1 2708   3.324   4.663   1.625
  509TCM    cl1 2709   3.455   4.783   1.605
  509TCM    cl2 2710   3.371   4.509   1.546
  509TCM     h1 2711   3.306   4.645   1.732
  509TCM    cl3 2712   3.174   4.726   1.549
  510TCM     c1 2713   0.230   0.003   0.812
  510TCM    cl1 2714   0.102  -0.083   0.905
  510TCM    cl2 2715   0.157   0.142   0.726
  510TCM     h1 2716   0.308   0.038   0.881
  510TCM    cl3 2717   0.303  -0.108   0.692
  511TCM     c1 2718   3.810   4.920   0.164
  511TCM    cl1 2719   3.833   5.044   0.037
  511TCM    cl2 2720   3.857   4.759   0.100
  511TCM     h1 2721   3.873   4.944   0.251
  511TCM    cl3 2722   3.638   4.917   0.214
  512TCM     c1 2723   0.768   5.000   2.063
  512TCM    cl1 2724   0.725   4.907   1.915
  512TCM    cl2 2725   0.752   4.894   2.207
  512TCM     h1 2726   0.871   5.036   2.055
  512TCM    cl3 2727   0.656   5.139   2.082
  513TCM     c1 2728   2.776   0.128   4.148
  513TCM    cl1 2729   2.915   0.016   4.128
  513TCM    cl2 2730   2.710   0.170   3.987
  513TCM     h1 2731   2.699   0.079   4.208
  513TCM    cl3 2732   2.832   0.277   4.232
  514TCM     c1 2733   4.221   4.073   1.533
  514TCM    cl1 2734   4.206   4.119   1.705
  514TCM    cl2 2735   4.118   3.929   1.502
  514TCM     h1 2736   4.187   4.156   1.470
  514TCM    cl3 2737   4.391   4.033   1.495
  515TCM     c1 2738   3.086   3.678   4.603
  515TCM    cl1 2739   3.216   3.713   4.485
  515TCM    cl2 2740   3.083   3.806   4.729
  515TCM     h1 2741   2.989   3.673   4.552
  515TCM    cl3 2742   3.119   3.520   4.682
  516TCM     c1 2743   2.434   0.394   4.231
  516TCM    cl1 2744   2.543   0.464   4.107
  516TCM    cl2 2745   2.508   0.413   4.393
  516TCM     h1 2746   2.338   0.445   4.229
  516TCM    cl3 2747   2.410   0.219   4.198
  517TCM     c1 2748   3.466   3.306   1.864
  517TCM    cl1 2749   3.545   3.452   1.933
  517TCM    cl2 2750   3.478   3.311   1.685
  517TCM     h1 2751   3.516   3.216   1.902
  517TCM    cl3 2752   3.293   3.304   1.911
  518TCM     c1 2753   4.990   2.644   3.371
  518TCM    cl1 2754   4.934   2.501   3.463
  518TCM    cl2 2755   5.064   2.762   3.483
  518TCM     h1 2756   5.063   2.613   3.296
  518TCM    cl3 2757   4.850   2.721   3.289
  519TCM     c1 2758   1.534   3.227   2.962
  519TCM    cl1 2759   1.503   3.344   2.829
  519TCM    cl2 2760   1.711   3.203   2.979
  519TCM     h1 2761   1.493   3.266   3.055
  519TCM    cl3 2762   1.455   3.070   2.923
  520TCM     c1 2763   2.582   4.109   1.796
  520TCM    cl1 2764   2.660   3.962   1.729
  520TCM    cl2 2765   2.405   4.083   1.806
  520TCM     h1 2766   2.621   4.131   1.895
  520TCM    cl3 2767   2.615   4.248   1.687
  521TCM     c1 2768   0.061   1.340   2.797
  521TCM    cl1 2769  -0.050   1.440   2.697
  521TCM    cl2 2770   0.227   1.350   2.730
  521TCM     h1 2771   0.061   1.377   2.900
  521TCM    cl3 2772   0.007   1.169   2.796
  522TCM     c1 2773   4.214   3.251   2.939
  522TCM    cl1 2774   4.051   3.180   2.962
  522TCM    cl2 2775   4.285   3.189   2.786
  522TCM     h1 2776   4.206   3.359   2.934
  522TCM    cl3 2777   4.319   3.204   3.076
  523TCM     c1 2778   2.484   4.503   2.621
  523TCM    cl1 2779   2.384   4.652   2.628
  523TCM    cl2 2780   2.657   4.549   2.612
  523TCM     h1 2781   2.466   4.443   2.711
  523TCM    cl3 2782   2.441   4.408   2.475
  524TCM     c1 2783   2.835   3.231   2.299
  524TCM    cl1 2784   2.933   3.259   2.151
  524TCM    cl2 2785   2.732   3.086   2.276
  524TCM     h1 2786   2.902   3.216   2.384
  524TCM    cl3 2787   2.733   3.375   2.328
  525TCM     c1 2788   1.994   3.318   3.893
  525TCM    cl1 2789   1.940   3.349   4.062
  525TCM    cl2 2790   1.997   3.474   3.804
  525TCM     h1 2791   2.094   3.274   3.895
  525TCM    cl3 2792   1.880   3.205   3.813
  526TCM     c1 2793   4.699   1.738   0.493
  526TCM    cl1 2794   4.822   1.861   0.449
  526TCM    cl2 2795   4.781   1.593   0.560
  526TCM     h1 2796   4.631   1.779   0.568
  526TCM    cl3 2797   4.606   1.690   0.347
  527TCM     c1 2798   2.114   3.108   1.996
  527TCM    cl1 2799   2.224   3.105   2.138
  527TCM    cl2 2800   2.074   3.278   1.956
  527TCM     h1 2801   2.163   3.061   1.910
  527TCM    cl3 2802   1.963   3.019   2.036
  528TCM     c1 2803   1.764   0.548   4.767
  528TCM    cl1 2804   1.763   0.375   4.720
  528TCM    cl2 2805   1.934   0.602   4.788
  528TCM     h1 2806   1.717   0.608   4.688
  528TCM    cl3 2807   1.674   0.569   4.920
  529TCM     c1 2808   0.277   0.054   4.150
  529TCM    cl1 2809   0.107   0.074   4.202
  529TCM    cl2 2810   0.371   0.200   4.194
  529TCM     h1 2811   0.321  -0.034   4.198
  529TCM    cl3 2812   0.282   0.034   3.972
  530TCM     c1 2813   1.535   4.443   1.697
  530TCM    cl1 2814   1.637   4.419   1.551
  530TCM    cl2 2815   1.639   4.443   1.843
  530TCM     h1 2816   1.482   4.538   1.689
  530TCM    cl3 2817   1.417   4.308   1.708
  531TCM     c1 2818   4.950   0.922   4.212
  531TCM    cl1 2819   5.117   0.873   4.255
  531TCM    cl2 2820   4.943   1.100   4.191
  531TCM     h1 2821   4.921   0.873   4.118
  531TCM    cl3 2822   4.837   0.874   4.342
  532TCM     c1 2823   2.201   3.112   4.988
  532TCM    cl1 2824   2.183   2.933   4.985
  532TCM    cl2 2825   2.225   3.173   4.821
  532TCM     h1 2826   2.112   3.157   5.031
  532TCM    cl3 2827   2.344   3.153   5.089
  533TCM     c1 2828   2.538   4.156   1.349
  533TCM    cl1 2829   2.588   4.066   1.202
  533TCM    cl2 2830   2.413   4.063   1.437
  533TCM     h1 2831   2.625   4.171   1.414
  533TCM    cl3 2832   2.470   4.314   1.301
  534TCM     c1 2833   1.482   0.759   3.724
  534TCM    cl1 2834   1.524   0.772   3.550
  534TCM    cl2 2835   1.551   0.898   3.814
  534TCM     h1 2836   1.373   0.760   3.735
  534TCM    cl3 2837   1.547   0.605   3.790
  535TCM     c1 2838   1.475   1.212   2.832
  535TCM    cl1 2839   1.544   1.351   2.922
  535TCM    cl2 2840   1.603   1.134   2.734
  535TCM     h1 2841   1.435   1.139   2.903
  535TCM    cl3 2842   1.343   1.270   2.726
  536TCM     c1 2843   1.894   2.880   3.447
  536TCM    cl1 2844   2.052   2.944   3.503
  536TCM    cl2 2845   1.767   2.930   3.563
  536TCM     h1 2846   1.872   2.920   3.348
  536TCM    cl3 2847   1.901   2.701   3.440
  537TCM     c1 2848   3.485   4.283   3.003
  537TCM    cl1 2849   3.632   4.358   3.074
  537TCM    cl2 2850   3.446   4.131   3.091
  537TCM     h1 2851   3.401   4.352   3.012
  537TCM    cl3 2852   3.515   4.246   2.830
  538TCM     c1 2853   2.519   0.018   0.154
  538TCM    cl1 2854   2.687   0.066   0.195
  538TCM    cl2 2855   2.429   0.160   0.090
  538TCM     h1 2856   2.520  -0.061   0.079
  538TCM    cl3 2857   2.435  -0.040   0.302
  539TCM     c1 2858   1.651   3.557   3.957
  539TCM    cl1 2859   1.629   3.606   4.128
  539TCM    cl2 2860   1.571   3.676   3.850
  539TCM     h1 2861   1.757   3.553   3.933
  539TCM    cl3 2862   1.577   3.395   3.932
  540TCM     c1 2863   2.151   2.259   1.078
  540TCM    cl1 2864   2.288   2.226   0.967
  540TCM    cl2 2865   2.213   2.294   1.242
  540TCM     h1 2866   2.095   2.345   1.041
  540TCM    cl3 2867   2.044   2.115   1.084
  541TCM     c1 2868   2.858   4.877   3.712
  541TCM    cl1 2869   2.845   5.052   3.676
  541TCM    cl2 2870   2.860   4.785   3.558
  541TCM     h1 2871   2.950   4.857   3.767
  541TCM    cl3 2872   2.718   4.826   3.812
  542TCM     c1 2873   2.047   1.285   2.024
  542TCM    cl1 2874   2.201   1.222   2.091
  542TCM    cl2 2875   1.909   1.196   2.095
  542TCM     h1 2876   2.038   1.392   2.048
  542TCM    cl3 2877   2.046   1.263   1.846
  543TCM     c1 2878   2.204   2.913   0.347
  543TCM    cl1 2879   2.050   3.005   0.354
  543TCM    cl2 2880   2.167   2.738   0.337
  543TCM     h1 2881   2.260   2.944   0.258
  543TCM    cl3 2882   2.300   2.946   0.494
  544TCM     c1 2883   3.491   2.268   4.212
  544TCM    cl1 2884   3.536   2.333   4.373
  544TCM    cl2 2885   3.441   2.097   4.230
  544TCM     h1 2886   3.408   2.326   4.171
  544TCM    cl3 2887   3.632   2.277   4.102
  545TCM     c1 2888   0.632   0.144   1.530
  545TCM    cl1 2889   0.564   0.171   1.693
  545TCM    cl2 2890   0.580   0.275   1.419
  545TCM     h1 2891   0.741   0.142   1.536
  545TCM    cl3 2892   0.574  -0.014   1.467
  546TCM     c1 2893   4.362   4.854   0.665
  546TCM    cl1 2894   4.385   4.732   0.795
  546TCM    cl2 2895   4.192   4.846   0.607
  546TCM     h1 2896   4.382   4.954   0.705
  546TCM    cl3 2897   4.473   4.820   0.528
  547TCM     c1 2898   0.298   4.108   0.706
  547TCM    cl1 2899   0.469   4.159   0.687
  547TCM    cl2 2900   0.247   4.131   0.876
  547TCM     h1 2901   0.234   4.168   0.640
  547TCM    cl3 2902   0.283   3.934   0.663
  548TCM     c1 2903   2.163   2.158   3.540
  548TCM    cl1 2904   2.155   2.002   3.451
  548TCM    cl2 2905   2.041   2.158   3.672
  548TCM     h1 2906   2.263   2.170   3.583
  548TCM    cl3 2907   2.130   2.292   3.426
  549TCM     c1 2908   0.436   3.846   1.005
  549TCM    cl1 2909   0.508   3.683   1.020
  549TCM    cl2 2910   0.566   3.970   1.000
  549TCM     h1 2911   0.376   3.852   0.913
  549TCM    cl3 2912   0.330   3.878   1.146
  550TCM     c1 2913   1.155   3.648   0.342
  550TCM    cl1 2914   1.108   3.478   0.374
  550TCM    cl2 2915   1.166   3.672   0.165
  550TCM     h1 2916   1.081   3.716   0.384
  550TCM    cl3 2917   1.315   3.681   0.416
  551TCM     c1 2918   3.161   1.906   2.435
  551TCM    cl1 2919   3.242   1.923   2.595
  551TCM    cl2 2920   2.986   1.879   2.461
  551TCM     h1 2921   3.176   1.997   2.377
  551TCM    cl3 2922   3.232   1.766   2.348
  552TCM     c1 2923   1.879   2.687   2.373
  552TCM    cl1 2924   1.799   2.700   2.213
  552TCM    cl2 2925   1.774   2.592   2.483
  552TCM     h1 2926   1.975   2.636   2.361
  552TCM    cl3 2927   1.905   2.850   2.441
  553TCM     c1 2928   2.977   0.019   1.931
  553TCM    cl1 2929   3.086  -0.118   1.890
  553TCM    cl2 2930   2.900   0.080   1.780
  553TCM     h1 2931   2.900  -0.015   2.000
  553TCM    cl3 2932   3.072   0.151   2.006
  554TCM     c1 2933   0.746   2.320   4.380
  554TCM    cl1 2934   0.837   2.196   4.472
  554TCM    cl2 2935   0.675   2.245   4.233
  554TCM     h1 2936   0.666   2.361   4.443
  554TCM    cl3 2937   0.856   2.453   4.331
  555TCM     c1 2938   4.521   3.692   4.953
  555TCM    cl1 2939   4.575   3.572   4.832
  555TCM    cl2 2940   4.382   3.785   4.887
  555TCM     h1 2941   4.491   3.641   5.045
  555TCM    cl3 2942   4.656   3.805   4.988
  556TCM     c1 2943   0.063   1.703   3.581
  556TCM    cl1 2944  -0.096   1.733   3.502
  556TCM    cl2 2945   0.156   1.588   3.480
  556TCM     h1 2946   0.117   1.797   3.590
  556TCM    cl3 2947   0.037   1.631   3.743
  557TCM     c1 2948   3.937   2.052   2.679
  557TCM    cl1 2949   3.892   2.198   2.586
  557TCM    cl2 2950   3.960   2.096   2.851
  557TCM     h1 2951   3.857   1.977   2.671
  557TCM    cl3 2952   4.090   1.984   2.614
  558TCM     c1 2953   1.119   2.742   4.951
  558TCM    cl1 2954   1.046   2.758   4.788
  558TCM    cl2 2955   1.139   2.906   5.023
  558TCM     h1 2956   1.055   2.682   5.015
  558TCM    cl3 2957   1.280   2.664   4.935
  559TCM     c1 2958   3.610   1.694   2.849
  559TCM    cl1 2959   3.769   1.776   2.861
  559TCM    cl2 2960   3.480   1.808   2.897
  559TCM     h1 2961   3.594   1.662   2.746
  559TCM    cl3 2962   3.607   1.552   2.958
  560TCM     c1 2963   2.660   4.795   0.867
  560TCM    cl1 2964   2.774   4.663   0.908
  560TCM    cl2 2965   2.695   4.855   0.701
  560TCM     h1 2966   2.557   4.756   0.870
  560TCM    cl3 2967   2.678   4.930   0.983
  561TCM     c1 2968   1.270   3.440   0.683
  561TCM    cl1 2969   1.142   3.557   0.728
  561TCM    cl2 2970   1.224   3.276   0.740
  561TCM     h1 2971   1.282   3.439   0.575
  561TCM    cl3 2972   1.425   3.491   0.759
  562TCM     c1 2973   4.990   3.224   4.780
  562TCM    cl1 2974   5.140   3.243   4.876
  562TCM    cl2 2975   5.032   3.189   4.609
  562TCM     h1 2976   4.931   3.142   4.821
  562TCM    cl3 2977   4.895   3.376   4.787
  563TCM     c1 2978   2.718   4.867   2.846
  563TCM    cl1 2979   2.649   4.729   2.937
  563TCM    cl2 2980   2.592   4.934   2.737
  563TCM     h1 2981   2.750   4.944   2.916
  563TCM    cl3 2982   2.858   4.811   2.750
  564TCM     c1 2983   4.396   3.546   3.455
  564TCM    cl1 2984   4.568   3.592   3.478
  564TCM    cl2 2985   4.314   3.548   3.615
  564TCM     h1 2986   4.347   3.618   3.388
  564TCM    cl3 2987   4.387   3.382   3.384
  565TCM     c1 2988   1.523   0.884   3.154
  565TCM    cl1 2989   1.504   1.063   3.155
  565TCM    cl2 2990   1.563   0.830   2.988
  565TCM     h1 2991   1.602   0.854   3.223
  565TCM    cl3 2992   1.368   0.809   3.205
  566TCM     c1 2993   3.165   2.406   4.448
  566TCM    cl1 2994   3.170   2.228   4.429
  566TCM    cl2 2995   3.000   2.456   4.498
  566TCM     h1 2996   3.237   2.437   4.524
  566TCM    cl3 2997   3.205   2.483   4.291
  567TCM     c1 2998   2.347   4.200   0.377
  567TCM    cl1 2999   2.496   4.231   0.471
  567TCM    cl2 3000   2.285   4.036   0.419
  567TCM     h1 3001   2.271   4.275   0.401
  567TCM    cl3 3002   2.386   4.207   0.202
  568TCM     c1 3003   3.152   1.799   0.069
  568TCM    cl1 3004   3.248   1.820   0.219
  568TCM    cl2 3005   2.997   1.889   0.084
  568TCM     h1 3006   3.208   1.838  -0.016
  568TCM    cl3 3007   3.117   1.625   0.044
  569TCM     c1 3008   2.371   1.748   3.735
  569TCM    cl1 3009   2.518   1.848   3.759
  569TCM    cl2 3010   2.356   1.703   3.562
  569TCM     h1 3011   2.377   1.658   3.796
  569TCM    cl3 3012   2.226   1.843   3.785
  570TCM     c1 3013   1.181   0.954   2.748
  570TCM    cl1 3014   1.205   0.982   2.923
  570TCM    cl2 3015   1.020   0.879   2.722
  570TCM     h1 3016   1.185   1.049   2.694
  570TCM    cl3 3017   1.310   0.846   2.686
  571TCM     c1 3018   2.746   4.204   0.027
  571TCM    cl1 3019   2.648   4.172  -0.120
  571TCM    cl2 3020   2.837   4.356   0.005
  571TCM     h1 3021   2.680   4.212   0.114
  571TCM    cl3 3022   2.862   4.069   0.051
  572TCM     c1 3023   2.139   4.485   1.579
  572TCM    cl1 3024   1.984   4.442   1.659
  572TCM    cl2 3025   2.121   4.472   1.401
  572TCM     h1 3026   2.168   4.587   1.606
  572TCM    cl3 3027   2.266   4.370   1.633
  573TCM     c1 3028   0.742   2.459   4.865
  573TCM    cl1 3029   0.737   2.514   4.694
  573TCM    cl2 3030   0.596   2.361   4.898
  573TCM     h1 3031   0.831   2.398   4.881
  573TCM    cl3 3032   0.745   2.601   4.975
  574TCM     c1 3033   1.542   1.247   1.615
  574TCM    cl1 3034   1.439   1.394   1.617
  574TCM    cl2 3035   1.660   1.259   1.480
  574TCM     h1 3036   1.595   1.238   1.710
  574TCM    cl3 3037   1.438   1.103   1.590
  575TCM     c1 3038   0.142   3.433   3.692
  575TCM    cl1 3039   0.076   3.551   3.809
  575TCM    cl2 3040   0.278   3.508   3.603
  575TCM     h1 3041   0.177   3.344   3.745
  575TCM    cl3 3042   0.013   3.386   3.576
  576TCM     c1 3043   0.180   0.234   3.665
  576TCM    cl1 3044   0.356   0.200   3.657
  576TCM    cl2 3045   0.094   0.129   3.548
  576TCM     h1 3046   0.144   0.214   3.766
  576TCM    cl3 3047   0.152   0.406   3.625
  577TCM     c1 3048   4.355   0.076   3.246
  577TCM    cl1 3049   4.444   0.228   3.276
  577TCM    cl2 3050   4.371  -0.031   3.390
  577TCM     h1 3051   4.249   0.098   3.228
  577TCM    cl3 3052   4.425  -0.006   3.103
  578TCM     c1 3053   3.010   3.983   1.417
  578TCM    cl1 3054   2.889   4.108   1.459
  578TCM    cl2 3055   3.037   3.879   1.561
  578TCM     h1 3056   2.974   3.922   1.334
  578TCM    cl3 3057   3.164   4.062   1.371
  579TCM     c1 3058   4.413   3.938   3.639
  579TCM    cl1 3059   4.378   3.919   3.464
  579TCM    cl2 3060   4.351   4.097   3.695
  579TCM     h1 3061   4.365   3.857   3.696
  579TCM    cl3 3062   4.591   3.931   3.665
  580TCM     c1 3063   0.719   3.706   0.281
  580TCM    cl1 3064   0.767   3.593   0.412
  580TCM    cl2 3065   0.848   3.829   0.261
  580TCM     h1 3066   0.706   3.651   0.188
  580TCM    cl3 3067   0.566   3.788   0.326
  581TCM     c1 3068   0.313   2.398   0.181
  581TCM    cl1 3069   0.396   2.239   0.177
  581TCM    cl2 3070   0.238   2.430   0.021
  581TCM     h1 3071   0.235   2.397   0.258
  581TCM    cl3 3072   0.432   2.528   0.218
  582TCM     c1 3073   0.936   0.139   2.443
  582TCM    cl1 3074   1.041   0.117   2.587
  582TCM    cl2 3075   1.031   0.111   2.294
  582TCM     h1 3076   0.853   0.068   2.448
  582TCM    cl3 3077   0.872   0.306   2.441
  583TCM     c1 3078   0.985   1.174   4.046
  583TCM    cl1 3079   0.936   1.185   3.873
  583TCM    cl2 3080   0.841   1.142   4.148
  583TCM     h1 3081   1.057   1.093   4.058
  583TCM    cl3 3082   1.059   1.330   4.096
  584TCM     c1 3083   3.792   2.621   4.058
  584TCM    cl1 3084   3.928   2.729   4.102
  584TCM    cl2 3085   3.734   2.662   3.893
  584TCM     h1 3086   3.825   2.517   4.059
  584TCM    cl3 3087   3.658   2.643   4.175
  585TCM     c1 3088   2.069   3.368   0.346
  585TCM    cl1 3089   2.081   3.396   0.169
  585TCM    cl2 3090   2.013   3.518   0.425
  585TCM     h1 3091   1.997   3.288   0.364
  585TCM    cl3 3092   2.229   3.320   0.411
  586TCM     c1 3093   1.057   0.382   0.869
  586TCM    cl1 3094   1.174   0.253   0.825
  586TCM    cl2 3095   0.923   0.310   0.964
  586TCM     h1 3096   1.108   0.458   0.929
  586TCM    cl3 3097   0.991   0.456   0.719
  587TCM     c1 3098   0.370   3.563   0.515
  587TCM    cl1 3099   0.239   3.620   0.407
  587TCM    cl2 3100   0.449   3.420   0.441
  587TCM     h1 3101   0.444   3.643   0.528
  587TCM    cl3 3102   0.301   3.518   0.674
  588TCM     c1 3103   3.071   1.405   3.210
  588TCM    cl1 3104   3.025   1.416   3.383
  588TCM    cl2 3105   2.928   1.436   3.107
  588TCM     h1 3106   3.148   1.480   3.188
  588TCM    cl3 3107   3.136   1.242   3.175
  589TCM     c1 3108   2.746   4.621   0.233
  589TCM    cl1 3109   2.732   4.745   0.360
  589TCM    cl2 3110   2.738   4.700   0.072
  589TCM     h1 3111   2.841   4.567   0.243
  589TCM    cl3 3112   2.610   4.504   0.249
  590TCM     c1 3113   3.518   3.562   3.266
  590TCM    cl1 3114   3.424   3.708   3.310
  590TCM    cl2 3115   3.424   3.416   3.312
  590TCM     h1 3116   3.536   3.561   3.158
  590TCM    cl3 3117   3.674   3.561   3.354
  591TCM     c1 3118   2.965   3.907   0.898
  591TCM    cl1 3119   2.833   4.022   0.938
  591TCM    cl2 3120   2.894   3.755   0.836
  591TCM     h1 3121   3.031   3.951   0.822
  591TCM    cl3 3122   3.059   3.873   1.047
  592TCM     c1 3123   4.502   4.200   0.987
  592TCM    cl1 3124   4.528   4.180   1.163
  592TCM    cl2 3125   4.536   4.045   0.905
  592TCM     h1 3126   4.398   4.230   0.968
  592TCM    cl3 3127   4.614   4.326   0.924
  593TCM     c1 3128   4.513   2.793   0.165
  593TCM    cl1 3129   4.341   2.748   0.143
  593TCM    cl2 3130   4.523   2.951   0.248
  593TCM     h1 3131   4.564   2.717   0.225
  593TCM    cl3 3132   4.593   2.803   0.004
  594TCM     c1 3133   2.856   1.108   2.279
  594TCM    cl1 3134   2.999   1.159   2.376
  594TCM    cl2 3135   2.715   1.089   2.388
  594TCM     h1 3136   2.834   1.184   2.204
  594TCM    cl3 3137   2.893   0.952   2.200
  595TCM     c1 3138   2.985   4.296   2.845
  595TCM    cl1 3139   3.155   4.325   2.897
  595TCM    cl2 3140   2.954   4.120   2.843
  595TCM     h1 3141   2.917   4.345   2.916
  595TCM    cl3 3142   2.960   4.364   2.682
  596TCM     c1 3143   3.612   3.347   3.743
  596TCM    cl1 3144   3.703   3.410   3.884
  596TCM    cl2 3145   3.727   3.293   3.616
  596TCM     h1 3146   3.551   3.262   3.774
  596TCM    cl3 3147   3.507   3.476   3.677
  597TCM     c1 3148   3.934   0.444   0.065
  597TCM    cl1 3149   4.078   0.338   0.085
  597TCM    cl2 3150   3.949   0.536  -0.088
  597TCM     h1 3151   3.843   0.383   0.063
  597TCM    cl3 3152   3.927   0.559   0.203
  598TCM     c1 3153   3.176   3.166   3.315
  598TCM    cl1 3154   3.053   3.292   3.350
  598TCM    cl2 3155   3.204   3.156   3.139
  598TCM     h1 3156   3.269   3.193   3.365
  598TCM    cl3 3157   3.120   3.007   3.376
  599TCM     c1 3158   0.631   2.550   1.864
  599TCM    cl1 3159   0.781   2.561   1.962
  599TCM    cl2 3160   0.517   2.437   1.944
  599TCM     h1 3161   0.585   2.648   1.856
  599TCM    cl3 3162   0.671   2.488   1.701
  600TCM     c1 3163   2.229   3.389   1.530
  600TCM    cl1 3164   2.304   3.299   1.394
  600TCM    cl2 3165   2.337   3.382   1.673
  600TCM     h1 3166   2.214   3.493   1.500
  600TCM    cl3 3167   2.071   3.315   1.571
  601TCM     c1 3168   0.156   1.292   2.378
  601TCM    cl1 3169   0.132   1.470   2.376
  601TCM    cl2 3170   0.202   1.237   2.213
  601TCM     h1 3171   0.236   1.267   2.448
  601TCM    cl3 3172   0.005   1.210   2.428
  602TCM     c1 3173   3.940   3.027   3.856
  602TCM    cl1 3174   3.775   3.042   3.927
  602TCM    cl2 3175   4.020   3.187   3.860
  602TCM     h1 3176   3.998   2.955   3.914
  602TCM    cl3 3177   3.928   2.971   3.686
  603TCM     c1 3178   1.673   3.280   3.451
  603TCM    cl1 3179   1.687   3.411   3.573
  603TCM    cl2 3180   1.835   3.248   3.379
  603TCM     h1 3181   1.636   3.189   3.499
  603TCM    cl3 3182   1.560   3.330   3.321
  604TCM     c1 3183   2.374   3.044   2.451
  604TCM    cl1 3184   2.204   3.035   2.505
  604TCM    cl2 3185   2.478   2.952   2.565
  604TCM     h1 3186   2.383   3.001   2.351
  604TCM    cl3 3187   2.426   3.216   2.447
  605TCM     c1 3188   1.834   2.790   4.959
  605TCM    cl1 3189   1.872   2.720   5.119
  605TCM    cl2 3190   1.661   2.765   4.922
  605TCM     h1 3191   1.857   2.896   4.959
  605TCM    cl3 3192   1.933   2.708   4.833
  606TCM     c1 3193   4.837   0.800   2.743
  606TCM    cl1 3194   4.743   0.650   2.715
  606TCM    cl2 3195   4.727   0.928   2.803
  606TCM     h1 3196   4.915   0.781   2.817
  606TCM    cl3 3197   4.913   0.854   2.589
  607TCM     c1 3198   0.151   2.029   1.089
  607TCM    cl1 3199   0.027   2.050   0.962
  607TCM    cl2 3200   0.216   2.190   1.135
  607TCM     h1 3201   0.106   1.981   1.176
  607TCM    cl3 3202   0.284   1.925   1.026
  608TCM     c1 3203   3.005   3.904   0.367
  608TCM    cl1 3204   2.973   3.769   0.254
  608TCM    cl2 3205   3.138   4.007   0.304
  608TCM     h1 3206   2.915   3.965   0.377
  608TCM    cl3 3207   3.051   3.837   0.526
  609TCM     c1 3208   2.652   3.979   3.459
  609TCM    cl1 3209   2.672   3.877   3.605
  609TCM    cl2 3210   2.800   3.963   3.359
  609TCM     h1 3211   2.565   3.945   3.402
  609TCM    cl3 3212   2.629   4.150   3.507
  610TCM     c1 3213   2.042   4.344   2.013
  610TCM    cl1 3214   2.202   4.267   2.037
  610TCM    cl2 3215   2.011   4.462   2.145
  610TCM     h1 3216   2.041   4.396   1.917
  610TCM    cl3 3217   1.913   4.219   2.014
  611TCM     c1 3218   1.540   1.877   0.888
  611TCM    cl1 3219   1.481   1.719   0.950
  611TCM    cl2 3220   1.628   1.963   1.019
  611TCM     h1 3221   1.607   1.860   0.803
  611TCM    cl3 3222   1.399   1.976   0.837
  612TCM     c1 3223   0.344   2.655   4.309
  612TCM    cl1 3224   0.352   2.778   4.178
  612TCM    cl2 3225   0.505   2.580   4.332
  612TCM     h1 3226   0.313   2.703   4.403
  612TCM    cl3 3227   0.225   2.529   4.264
  613TCM     c1 3228   0.558   1.428   4.469
  613TCM    cl1 3229   0.501   1.593   4.513
  613TCM    cl2 3230   0.567   1.328   4.618
  613TCM     h1 3231   0.488   1.383   4.398
  613TCM    cl3 3232   0.721   1.439   4.395
  614TCM     c1 3233   0.060   2.718   0.573
  614TCM    cl1 3234  -0.012   2.882   0.569
  614TCM    cl2 3235  -0.040   2.613   0.677
  614TCM     h1 3236   0.063   2.676   0.472
  614TCM    cl3 3237   0.227   2.728   0.639
  615TCM     c1 3238   2.212   4.199   4.619
  615TCM    cl1 3239   2.331   4.091   4.698
  615TCM    cl2 3240   2.179   4.340   4.725
  615TCM     h1 3241   2.252   4.234   4.524
  615TCM    cl3 3242   2.059   4.110   4.590
  616TCM     c1 3243   3.047   3.469   3.025
  616TCM    cl1 3244   2.882   3.472   2.956
  616TCM    cl2 3245   3.069   3.609   3.135
  616TCM     h1 3246   3.060   3.376   3.081
  616TCM    cl3 3247   3.169   3.477   2.894
  617TCM     c1 3248   2.845   4.305   0.552
  617TCM    cl1 3249   2.963   4.210   0.648
  617TCM    cl2 3250   2.856   4.257   0.379
  617TCM     h1 3251   2.744   4.285   0.589
  617TCM    cl3 3252   2.881   4.480   0.567
  618TCM     c1 3253   3.299   4.392   0.284
  618TCM    cl1 3254   3.182   4.352   0.153
  618TCM    cl2 3255   3.436   4.277   0.281
  618TCM     h1 3256   3.336   4.494   0.270
  618TCM    cl3 3257   3.217   4.379   0.443
  619TCM     c1 3258   2.272   3.741   0.699
  619TCM    cl1 3259   2.402   3.849   0.759
  619TCM    cl2 3260   2.232   3.619   0.824
  619TCM     h1 3261   2.183   3.800   0.676
  619TCM    cl3 3262   2.328   3.658   0.550
  620TCM     c1 3263   3.968   3.781   3.605
  620TCM    cl1 3264   4.054   3.749   3.451
  620TCM    cl2 3265   4.088   3.813   3.735
  620TCM     h1 3266   3.904   3.869   3.594
  620TCM    cl3 3267   3.869   3.639   3.649
  621TCM     c1 3268   0.184   4.638   4.333
  621TCM    cl1 3269   0.029   4.554   4.299
  621TCM    cl2 3270   0.146   4.793   4.414
  621TCM     h1 3271   0.246   4.576   4.399
  621TCM    cl3 3272   0.272   4.670   4.180
  622TCM     c1 3273   4.130   0.229   3.658
  622TCM    cl1 3274   4.050   0.074   3.700
  622TCM    cl2 3275   4.039   0.365   3.732
  622TCM     h1 3276   4.233   0.229   3.695
  622TCM    cl3 3277   4.131   0.249   3.479
  623TCM     c1 3278   2.296   2.621   3.292
  623TCM    cl1 3279   2.193   2.741   3.207
  623TCM    cl2 3280   2.270   2.634   3.469
  623TCM     h1 3281   2.271   2.520   3.258
  623TCM    cl3 3282   2.469   2.655   3.255
  624TCM     c1 3283   4.875   4.874   2.497
  624TCM    cl1 3284   5.048   4.898   2.456
  624TCM    cl2 3285   4.864   4.776   2.647
  624TCM     h1 3286   4.827   4.971   2.513
  624TCM    cl3 3287   4.793   4.788   2.364
  625TCM     c1 3288   2.394   0.789   2.087
  625TCM    cl1 3289   2.237   0.854   2.029
  625TCM    cl2 3290   2.370   0.624   2.153
  625TCM     h1 3291   2.464   0.785   2.004
  625TCM    cl3 3292   2.458   0.896   2.216
  626TCM     c1 3293   0.343   2.168   2.926
  626TCM    cl1 3294   0.446   2.163   2.779
  626TCM    cl2 3295   0.434   2.245   3.061
  626TCM     h1 3296   0.253   2.226   2.906
  626TCM    cl3 3297   0.299   2.001   2.972
  627TCM     c1 3298   0.797   3.863   0.743
  627TCM    cl1 3299   0.920   3.860   0.613
  627TCM    cl2 3300   0.848   3.752   0.874
  627TCM     h1 3301   0.787   3.965   0.782
  627TCM    cl3 3302   0.639   3.808   0.678
  628TCM     c1 3303   2.580   3.184   0.571
  628TCM    cl1 3304   2.601   3.136   0.399
  628TCM    cl2 3305   2.557   3.362   0.581
  628TCM     h1 3306   2.493   3.133   0.612
  628TCM    cl3 3307   2.726   3.138   0.664
  629TCM     c1 3308   0.490   0.398   0.856
  629TCM    cl1 3309   0.632   0.497   0.807
  629TCM    cl2 3310   0.519   0.227   0.811
  629TCM     h1 3311   0.475   0.406   0.964
  629TCM    cl3 3312   0.345   0.457   0.769
  630TCM     c1 3313   4.919   2.006   2.864
  630TCM    cl1 3314   4.775   2.068   2.950
  630TCM    cl2 3315   5.003   2.143   2.783
  630TCM     h1 3316   4.987   1.958   2.935
  630TCM    cl3 3317   4.868   1.886   2.741
  631TCM     c1 3318   2.464   0.807   3.408
  631TCM    cl1 3319   2.618   0.746   3.341
  631TCM    cl2 3320   2.495   0.890   3.564
  631TCM     h1 3321   2.418   0.877   3.338
  631TCM    cl3 3322   2.353   0.668   3.435
  632TCM     c1 3323   4.748   1.017   2.258
  632TCM    cl1 3324   4.829   1.107   2.125
  632TCM    cl2 3325   4.791   0.843   2.246
  632TCM     h1 3326   4.782   1.056   2.355
  632TCM    cl3 3327   4.570   1.036   2.244
  633TCM     c1 3328   3.869   0.204   4.626
  633TCM    cl1 3329   3.766   0.057   4.634
  633TCM    cl2 3330   3.996   0.193   4.753
  633TCM     h1 3331   3.917   0.210   4.528
  633TCM    cl3 3332   3.768   0.349   4.653
  634TCM     c1 3333   4.933   0.718   4.821
  634TCM    cl1 3334   4.957   0.544   4.857
  634TCM    cl2 3335   5.040   0.816   4.926
  634TCM     h1 3336   4.955   0.738   4.716
  634TCM    cl3 3337   4.762   0.763   4.855
  635TCM     c1 3338   2.811   0.308   1.253
  635TCM    cl1 3339   2.945   0.337   1.138
  635TCM    cl2 3340   2.759   0.463   1.327
  635TCM     h1 3341   2.727   0.263   1.200
  635TCM    cl3 3342   2.866   0.197   1.383
  636TCM     c1 3343   2.209   1.364   3.578
  636TCM    cl1 3344   2.186   1.421   3.747
  636TCM    cl2 3345   2.053   1.299   3.517
  636TCM     h1 3346   2.241   1.447   3.515
  636TCM    cl3 3347   2.333   1.235   3.574
  637TCM     c1 3348   3.250   1.364   2.206
  637TCM    cl1 3349   3.244   1.502   2.092
  637TCM    cl2 3350   3.400   1.373   2.304
  637TCM     h1 3351   3.164   1.368   2.272
  637TCM    cl3 3352   3.247   1.211   2.112
  638TCM     c1 3353   3.765   1.966   4.300
  638TCM    cl1 3354   3.945   1.971   4.291
  638TCM    cl2 3355   3.713   2.011   4.466
  638TCM     h1 3356   3.723   2.036   4.228
  638TCM    cl3 3357   3.708   1.800   4.264
  639TCM     c1 3358   1.224   2.139   4.156
  639TCM    cl1 3359   1.048   2.141   4.191
  639TCM    cl2 3360   1.250   2.161   3.980
  639TCM     h1 3361   1.273   2.220   4.210
  639TCM    cl3 3362   1.293   1.982   4.210
  640TCM     c1 3363   0.983   0.370   1.929
  640TCM    cl1 3364   0.887   0.416   2.073
  640TCM    cl2 3365   0.890   0.255   1.827
  640TCM     h1 3366   1.007   0.460   1.871
  640TCM    cl3 3367   1.135   0.291   1.982
   5.00000   5.00000   5.00000
