GRoups of Organic Molecules in ACtion for Science
 3367
    1POP     C1    1   2.031   3.259   0.283
    1POP     O2    2   2.132   3.200   0.316
    1POP     C3    3   1.900   3.244   0.353
    1POP     C4    4   1.783   3.303   0.304
    1POP     C5    5   1.658   3.266   0.357
    1POP     C6    6   1.650   3.173   0.461
    1POP     C7    7   1.518   3.129   0.509
    1POP     C8    8   1.477   2.993   0.509
    1POP     C9    9   1.348   2.962   0.560
    1POP    C10   10   1.262   3.061   0.607
    1POP    O11   11   1.141   3.015   0.652
    1POP    C12   12   1.052   3.113   0.705
    1POP    C13   13   1.302   3.194   0.603
    1POP    C14   14   1.428   3.227   0.556
    1POP    C15   15   1.561   2.881   0.459
    1POP    C16   16   1.597   2.773   0.542
    1POP    C17   17   1.683   2.672   0.497
    1POP    C18   18   1.735   2.675   0.367
    1POP    C19   19   1.696   2.780   0.282
    1POP    C20   20   1.610   2.881   0.327
    1POP    C21   21   1.831   2.569   0.318
    1POP    N22   22   1.765   2.439   0.307
    1POP    C23   23   1.965   2.570   0.391
    1POP    C24   24   1.769   3.121   0.515
    1POP    C25   25   1.893   3.155   0.460
    1POP    H26   26   1.786   3.374   0.221
    1POP    H27   27   1.569   3.309   0.313
    1POP    H28   28   1.314   2.858   0.562
    1POP    H29   29   0.961   3.062   0.738
    1POP    H30   30   1.023   3.185   0.627
    1POP    H31   31   1.096   3.164   0.791
    1POP    H32   32   1.238   3.275   0.639
    1POP    H33   33   1.458   3.332   0.556
    1POP    H34   34   1.559   2.769   0.644
    1POP    H35   35   1.710   2.593   0.565
    1POP    H36   36   1.733   2.785   0.180
    1POP    H37   37   1.584   2.962   0.259
    1POP    H38   38   1.855   2.593   0.213
    1POP    H39   39   1.694   2.436   0.236
    1POP    H40   40   2.015   2.666   0.380
    1POP    H41   41   1.954   2.553   0.500
    1POP    H42   42   2.031   2.493   0.352
    1POP    H43   43   1.764   3.050   0.597
    1POP    H44   44   1.982   3.107   0.499
    2POP    C45   45   1.765   2.339   0.401
    2POP    O46   46   1.821   2.346   0.510
    2POP    C47   47   1.688   2.216   0.365
    2POP    C48   48   1.654   2.186   0.232
    2POP    C49   49   1.587   2.068   0.201
    2POP    C50   50   1.553   1.975   0.300
    2POP    C51   51   1.489   1.848   0.262
    2POP    C52   52   1.555   1.722   0.271
    2POP    C53   53   1.486   1.607   0.227
    2POP    C54   54   1.357   1.613   0.175
    2POP    O55   55   1.304   1.493   0.135
    2POP    C56   56   1.173   1.494   0.082
    2POP    C57   57   1.293   1.737   0.166
    2POP    C58   58   1.358   1.852   0.210
    2POP    C59   59   1.693   1.708   0.322
    2POP    C60   60   1.722   1.629   0.435
    2POP    C61   61   1.851   1.622   0.489
    2POP    C62   62   1.956   1.695   0.431
    2POP    C63   63   1.929   1.769   0.315
    2POP    C64   64   1.801   1.775   0.261
    2POP    C65   65   2.094   1.699   0.493
    2POP    N66   66   2.165   1.573   0.480
    2POP    C67   67   2.095   1.762   0.633
    2POP    C68   68   1.587   2.005   0.433
    2POP    C69   69   1.655   2.123   0.465
    2POP    H70   70   1.681   2.251   0.150
    2POP    H71   71   1.564   2.045   0.097
    2POP    H72   72   1.535   1.510   0.232
    2POP    H73   73   1.146   1.392   0.055
    2POP    H74   74   1.168   1.554  -0.010
    2POP    H75   75   1.100   1.530   0.156
    2POP    H76   76   1.192   1.747   0.126
    2POP    H77   77   1.306   1.947   0.202
    2POP    H78   78   1.641   1.574   0.484
    2POP    H79   79   1.869   1.562   0.577
    2POP    H80   80   2.008   1.826   0.267
    2POP    H81   81   1.783   1.835   0.173
    2POP    H82   82   2.155   1.767   0.431
    2POP    H83   83   2.190   1.547   0.386
    2POP    H84   84   2.055   1.863   0.630
    2POP    H85   85   2.033   1.706   0.704
    2POP    H86   86   2.197   1.765   0.672
    2POP    H87   87   1.563   1.935   0.513
    2POP    H88   88   1.683   2.143   0.568
    3POP    C89   89   2.189   1.482   0.581
    3POP    O90   90   2.138   1.485   0.692
    3POP    C91   91   2.286   1.374   0.547
    3POP    C92   92   2.389   1.394   0.453
    3POP    C93   93   2.482   1.294   0.430
    3POP    C94   94   2.477   1.172   0.499
    3POP    C95   95   2.581   1.070   0.476
    3POP    C96   96   2.686   1.046   0.570
    3POP    C97   97   2.786   0.952   0.534
    3POP    C98   98   2.783   0.883   0.412
    3POP    O99   99   2.887   0.797   0.391
    3POP   C100  100   2.890   0.727   0.267
    3POP   C101  101   2.680   0.908   0.322
    3POP   C102  102   2.580   1.000   0.355
    3POP   C103  103   2.695   1.114   0.701
    3POP   C104  104   2.690   1.042   0.821
    3POP   C105  105   2.690   1.107   0.946
    3POP   C106  106   2.693   1.247   0.952
    3POP   C107  107   2.701   1.320   0.833
    3POP   C108  108   2.704   1.254   0.710
    3POP   C109  109   2.681   1.322   1.084
    3POP   N110  110   2.801   1.314   1.165
    3POP   C111  111   2.549   1.292   1.158
    3POP   C112  112   2.374   1.152   0.592
    3POP   C113  113   2.279   1.252   0.616
    3POP   H114  114   2.400   1.489   0.403
    3POP   H115  115   2.564   1.312   0.360
    3POP   H116  116   2.868   0.932   0.603
    3POP   H117  117   2.977   0.660   0.268
    3POP   H118  118   2.901   0.796   0.183
    3POP   H119  119   2.800   0.664   0.256
    3POP   H120  120   2.674   0.858   0.225
    3POP   H121  121   2.500   1.017   0.283
    3POP   H122  122   2.684   0.934   0.819
    3POP   H123  123   2.684   1.048   1.036
    3POP   H124  124   2.704   1.429   0.833
    3POP   H125  125   2.710   1.314   0.619
    3POP   H126  126   2.674   1.429   1.061
    3POP   H127  127   2.881   1.364   1.128
    3POP   H128  128   2.464   1.319   1.097
    3POP   H129  129   2.539   1.184   1.181
    3POP   H130  130   2.544   1.347   1.252
    3POP   H131  131   2.367   1.059   0.648
    3POP   H132  132   2.202   1.237   0.692
    4POP   C133  133   2.819   1.236   1.278
    4POP   O134  134   2.741   1.150   1.316
    4POP   C135  135   2.942   1.265   1.357
    4POP   C136  136   3.005   1.390   1.352
    4POP   C137  137   3.117   1.414   1.431
    4POP   C138  138   3.169   1.316   1.517
    4POP   C139  139   3.283   1.349   1.604
    4POP   C140  140   3.267   1.375   1.742
    4POP   C141  141   3.380   1.416   1.817
    4POP   C142  142   3.506   1.431   1.757
    4POP   O143  143   3.605   1.473   1.842
    4POP   C144  144   3.734   1.490   1.784
    4POP   C145  145   3.520   1.404   1.622
    4POP   C146  146   3.410   1.363   1.546
    4POP   C147  147   3.136   1.365   1.809
    4POP   C148  148   3.114   1.272   1.910
    4POP   C149  149   2.988   1.260   1.970
    4POP   C150  150   2.882   1.342   1.928
    4POP   C151  151   2.904   1.436   1.827
    4POP   C152  152   3.030   1.448   1.770
    4POP   C153  153   2.747   1.339   1.998
    4POP   N154  154   2.762   1.377   2.137
    4POP   C155  155   2.681   1.201   1.983
    4POP   C156  156   3.105   1.191   1.522
    4POP   C157  157   2.993   1.166   1.443
    4POP   H158  158   2.964   1.471   1.293
    4POP   H159  159   3.162   1.513   1.429
    4POP   H160  160   3.369   1.439   1.923
    4POP   H161  161   3.803   1.518   1.866
    4POP   H162  162   3.734   1.572   1.711
    4POP   H163  163   3.772   1.398   1.740
    4POP   H164  164   3.616   1.413   1.571
    4POP   H165  165   3.423   1.346   1.439
    4POP   H166  166   3.195   1.208   1.944
    4POP   H167  167   2.974   1.189   2.050
    4POP   H168  168   2.825   1.503   1.796
    4POP   H169  169   3.045   1.524   1.693
    4POP   H170  170   2.680   1.413   1.952
    4POP   H171  171   2.713   1.327   2.210
    4POP   H172  172   2.668   1.176   1.878
    4POP   H173  173   2.741   1.123   2.030
    4POP   H174  174   2.583   1.201   2.031
    4POP   H175  175   3.140   1.114   1.590
    4POP   H176  176   2.941   1.070   1.450
    5CAP   C177  177   2.100   3.299   0.063
    5CAP   O178  178   2.012   3.330   0.170
    5CAP   H179  179   2.196   3.259   0.095
    5CAP   H180  180   2.116   3.389   0.002
    5CAP   H181  181   2.049   3.224  -0.001
    6CAP   C182  182   2.880   1.598   2.518
    6CAP   C183  183   2.902   1.612   2.367
    6CAP   C184  184   2.851   1.749   2.322
    6CAP   C185  185   3.052   1.594   2.337
    6CAP   O186  186   2.826   1.503   2.308
    6CAP   C187  187   2.818   1.496   2.173
    6CAP   O188  188   2.858   1.580   2.095
    6CAP   H189  189   2.930   1.678   2.573
    6CAP   H190  190   2.772   1.602   2.542
    6CAP   H191  191   2.917   1.502   2.555
    6CAP   H192  192   2.742   1.753   2.326
    6CAP   H193  193   2.880   1.773   2.220
    6CAP   H194  194   2.891   1.829   2.386
    6CAP   H195  195   3.086   1.495   2.369
    6CAP   H196  196   3.072   1.602   2.230
    6CAP   H197  197   3.112   1.670   2.388
    1TCM     c1  198   4.337   0.346   2.671
    1TCM    cl1  199   4.448   0.469   2.607
    1TCM    cl2  200   4.326   0.363   2.848
    1TCM     h1  201   4.236   0.361   2.627
    1TCM    cl3  202   4.397   0.184   2.630
    1TCM     c1  203   1.799   2.521   4.307
    1TCM    cl1  204   1.775   2.399   4.180
    1TCM    cl2  205   1.751   2.454   4.464
    1TCM     h1  206   1.906   2.551   4.310
    1TCM    cl3  207   1.699   2.664   4.271
    1TCM     c1  208   1.789   2.424   0.994
    1TCM    cl1  209   1.769   2.541   0.862
    1TCM    cl2  210   1.723   2.266   0.944
    1TCM     h1  211   1.897   2.413   1.018
    1TCM    cl3  212   1.702   2.482   1.138
    1TCM     c1  213   2.610   0.572   3.789
    1TCM    cl1  214   2.710   0.436   3.733
    1TCM    cl2  215   2.441   0.518   3.803
    1TCM     h1  216   2.646   0.606   3.888
    1TCM    cl3  217   2.620   0.705   3.672
    1TCM     c1  218   2.125   1.857   2.777
    1TCM    cl1  219   2.242   1.807   2.902
    1TCM    cl2  220   2.104   1.726   2.659
    1TCM     h1  221   2.028   1.880   2.825
    1TCM    cl3  222   2.186   2.002   2.694
    1TCM     c1  223   5.039   1.264   0.559
    1TCM    cl1  224   5.018   1.327   0.724
    1TCM    cl2  225   5.212   1.257   0.520
    1TCM     h1  226   4.995   1.162   0.552
    1TCM    cl3  227   4.956   1.372   0.444
    1TCM     c1  228   2.947   0.788   2.578
    1TCM    cl1  229   2.815   0.891   2.517
    1TCM    cl2  230   2.939   0.629   2.499
    1TCM     h1  231   3.044   0.836   2.556
    1TCM    cl3  232   2.928   0.768   2.754
    1TCM     c1  233   3.784   4.040   4.776
    1TCM    cl1  234   3.791   4.186   4.878
    1TCM    cl2  235   3.826   4.083   4.608
    1TCM     h1  236   3.856   3.965   4.814
    1TCM    cl3  237   3.620   3.973   4.780
    1TCM     c1  238   0.776   4.170   3.470
    1TCM    cl1  239   0.601   4.161   3.439
    1TCM    cl2  240   0.856   4.028   3.400
    1TCM     h1  241   0.817   4.262   3.424
    1TCM    cl3  242   0.805   4.174   3.646
    1TCM     c1  243   3.934   1.274   2.595
    1TCM    cl1  244   4.089   1.321   2.670
    1TCM    cl2  245   3.966   1.172   2.453
    1TCM     h1  246   3.873   1.218   2.668
    1TCM    cl3  247   3.846   1.420   2.544
    1TCM     c1  248   4.914   3.105   4.457
    1TCM    cl1  249   4.971   2.966   4.551
    1TCM    cl2  250   5.018   3.246   4.489
    1TCM     h1  251   4.918   3.080   4.348
    1TCM    cl3  252   4.746   3.143   4.503
    1TCM     c1  253   0.596   2.904   1.459
    1TCM    cl1  254   0.646   2.888   1.289
    1TCM    cl2  255   0.498   2.763   1.505
    1TCM     h1  256   0.686   2.909   1.523
    1TCM    cl3  257   0.501   3.052   1.479
    1TCM     c1  258   1.456   1.985   2.394
    1TCM    cl1  259   1.594   2.080   2.337
    1TCM    cl2  260   1.468   1.819   2.331
    1TCM     h1  261   1.455   1.982   2.504
    1TCM    cl3  262   1.305   2.058   2.335
    1TCM     c1  263   4.305   4.428   0.724
    1TCM    cl1  264   4.248   4.540   0.598
    1TCM    cl2  265   4.166   4.347   0.798
    1TCM     h1  266   4.372   4.352   0.678
    1TCM    cl3  267   4.394   4.519   0.848
    1TCM     c1  268   2.599   5.260   3.810
    1TCM    cl1  269   2.436   5.313   3.763
    1TCM    cl2  270   2.645   5.338   3.963
    1TCM     h1  271   2.600   5.150   3.824
    1TCM    cl3  272   2.715   5.305   3.684
    1TCM     c1  273   2.920   1.927   3.134
    1TCM    cl1  274   2.980   2.032   3.002
    1TCM    cl2  275   2.935   1.757   3.085
    1TCM     h1  276   2.980   1.945   3.225
    1TCM    cl3  277   2.749   1.964   3.166
    1TCM     c1  278   0.679   3.118   5.017
    1TCM    cl1  279   0.646   2.944   5.036
    1TCM    cl2  280   0.573   3.185   4.890
    1TCM     h1  281   0.659   3.170   5.113
    1TCM    cl3  282   0.849   3.141   4.970
    1TCM     c1  283   4.598   3.548   2.164
    1TCM    cl1  284   4.681   3.650   2.045
    1TCM    cl2  285   4.627   3.377   2.126
    1TCM     h1  286   4.637   3.571   2.266
    1TCM    cl3  287   4.423   3.581   2.159
    1TCM     c1  288   5.201   3.674   4.889
    1TCM    cl1  289   5.053   3.665   4.790
    1TCM    cl2  290   5.227   3.842   4.941
    1TCM     h1  291   5.189   3.609   4.978
    1TCM    cl3  292   5.340   3.619   4.793
    1TCM     c1  293   2.127   1.111   3.461
    1TCM    cl1  294   2.214   1.078   3.613
    1TCM    cl2  295   2.239   1.183   3.343
    1TCM     h1  296   2.087   1.016   3.420
    1TCM    cl3  297   1.993   1.224   3.492
    1TCM     c1  298   1.321   2.107   2.754
    1TCM    cl1  299   1.354   2.269   2.688
    1TCM    cl2  300   1.270   2.122   2.924
    1TCM     h1  301   1.240   2.059   2.695
    1TCM    cl3  302   1.468   2.008   2.744
    1TCM     c1  303   3.112   4.735   4.839
    1TCM    cl1  304   3.268   4.673   4.898
    1TCM    cl2  305   2.984   4.616   4.872
    1TCM     h1  306   3.089   4.830   4.890
    1TCM    cl3  307   3.123   4.764   4.664
    1TCM     c1  308   2.719   2.484   2.009
    1TCM    cl1  309   2.747   2.313   1.970
    1TCM    cl2  310   2.728   2.507   2.185
    1TCM     h1  311   2.797   2.546   1.959
    1TCM    cl3  312   2.559   2.533   1.950
    1TCM     c1  313   2.755   2.031   5.067
    1TCM    cl1  314   2.632   1.955   4.963
    1TCM    cl2  315   2.744   1.964   5.231
    1TCM     h1  316   2.856   2.012   5.025
    1TCM    cl3  317   2.726   2.207   5.073
    1TCM     c1  318   4.911   0.290   1.336
    1TCM    cl1  319   4.764   0.390   1.326
    1TCM    cl2  320   4.988   0.314   1.494
    1TCM     h1  321   4.884   0.184   1.323
    1TCM    cl3  322   5.024   0.339   1.207
    1TCM     c1  323   3.096   0.833   1.305
    1TCM    cl1  324   3.208   0.721   1.386
    1TCM    cl2  325   3.118   0.822   1.129
    1TCM     h1  326   2.991   0.806   1.331
    1TCM    cl3  327   3.129   0.999   1.359
    1TCM     c1  328   3.954   3.287   1.889
    1TCM    cl1  329   3.831   3.210   1.992
    1TCM    cl2  330   3.947   3.217   1.725
    1TCM     h1  331   3.934   3.396   1.883
    1TCM    cl3  332   4.115   3.259   1.958
    1TCM     c1  333   1.119   0.894   3.672
    1TCM    cl1  334   1.180   0.992   3.808
    1TCM    cl2  335   1.030   0.998   3.559
    1TCM     h1  336   1.205   0.847   3.620
    1TCM    cl3  337   1.011   0.767   3.735
    1TCM     c1  338   0.694   5.197   4.112
    1TCM    cl1  339   0.767   5.067   4.207
    1TCM    cl2  340   0.672   5.142   3.944
    1TCM     h1  341   0.595   5.224   4.155
    1TCM    cl3  342   0.800   5.340   4.114
    1TCM     c1  343   2.788   3.638   3.475
    1TCM    cl1  344   2.873   3.513   3.382
    1TCM    cl2  345   2.841   3.633   3.644
    1TCM     h1  346   2.810   3.737   3.432
    1TCM    cl3  347   2.612   3.608   3.467
    1TCM     c1  348   0.422   0.910   2.438
    1TCM    cl1  349   0.292   0.925   2.559
    1TCM    cl2  350   0.350   0.879   2.278
    1TCM     h1  351   0.480   1.005   2.435
    1TCM    cl3  352   0.530   0.776   2.483
    1TCM     c1  353   4.982   1.988   2.126
    1TCM    cl1  354   5.126   2.022   2.029
    1TCM    cl2  355   4.836   2.012   2.027
    1TCM     h1  356   4.985   1.883   2.162
    1TCM    cl3  357   4.977   2.099   2.265
    1TCM     c1  358   1.270   3.567   2.271
    1TCM    cl1  359   1.176   3.510   2.131
    1TCM    cl2  360   1.402   3.453   2.305
    1TCM     h1  361   1.312   3.667   2.249
    1TCM    cl3  362   1.163   3.578   2.413
    1TCM     c1  363   3.956   1.405   2.059
    1TCM    cl1  364   3.857   1.551   2.081
    1TCM    cl2  365   4.118   1.452   2.001
    1TCM     h1  366   3.965   1.352   2.155
    1TCM    cl3  367   3.879   1.299   1.939
    1TCM     c1  368   0.792   2.255   2.104
    1TCM    cl1  369   0.888   2.370   2.201
    1TCM    cl2  370   0.804   2.093   2.176
    1TCM     h1  371   0.686   2.288   2.103
    1TCM    cl3  372   0.855   2.251   1.938
    1TCM     c1  373   2.168   3.790   1.788
    1TCM    cl1  374   2.242   3.754   1.945
    1TCM    cl2  375   2.230   3.677   1.666
    1TCM     h1  376   2.058   3.780   1.796
    1TCM    cl3  377   2.210   3.957   1.740
    1TCM     c1  378   1.032   4.528   1.126
    1TCM    cl1  379   0.986   4.517   1.298
    1TCM    cl2  380   1.068   4.697   1.086
    1TCM     h1  381   1.122   4.465   1.108
    1TCM    cl3  382   0.897   4.470   1.025
    1TCM     c1  383   0.240   1.302   4.808
    1TCM    cl1  384   0.368   1.231   4.707
    1TCM    cl2  385   0.299   1.320   4.975
    1TCM     h1  386   0.212   1.401   4.768
    1TCM    cl3  387   0.098   1.195   4.807
    1TCM     c1  388   1.333   3.878   4.782
    1TCM    cl1  389   1.430   3.982   4.889
    1TCM    cl2  390   1.402   3.882   4.618
    1TCM     h1  391   1.334   3.774   4.820
    1TCM    cl3  392   1.166   3.938   4.777
    1TCM     c1  393   0.326   0.755   4.835
    1TCM    cl1  394   0.251   0.616   4.754
    1TCM    cl2  395   0.468   0.701   4.928
    1TCM     h1  396   0.357   0.830   4.760
    1TCM    cl3  397   0.208   0.829   4.946
    1TCM     c1  398   1.095   4.291   2.249
    1TCM    cl1  399   0.999   4.327   2.394
    1TCM    cl2  400   1.229   4.407   2.236
    1TCM     h1  401   1.137   4.188   2.257
    1TCM    cl3  402   0.992   4.303   2.105
    1TCM     c1  403   3.688   4.102   0.159
    1TCM    cl1  404   3.805   3.990   0.231
    1TCM    cl2  405   3.774   4.245   0.097
    1TCM     h1  406   3.635   4.052   0.076
    1TCM    cl3  407   3.571   4.154   0.283
    1TCM     c1  408   1.649   1.531   1.473
    1TCM    cl1  409   1.498   1.439   1.462
    1TCM    cl2  410   1.638   1.677   1.371
    1TCM     h1  411   1.666   1.562   1.579
    1TCM    cl3  412   1.785   1.431   1.418
    1TCM     c1  413   3.493   0.671   2.299
    1TCM    cl1  414   3.376   0.711   2.171
    1TCM    cl2  415   3.415   0.567   2.420
    1TCM     h1  416   3.580   0.618   2.254
    1TCM    cl3  417   3.550   0.821   2.377
    1TCM     c1  418   0.161   0.606   1.998
    1TCM    cl1  419   0.267   0.519   1.885
    1TCM    cl2  420   0.076   0.737   1.911
    1TCM     h1  421   0.086   0.536   2.040
    1TCM    cl3  422   0.258   0.676   2.129
    1TCM     c1  423   3.858   2.600   1.129
    1TCM    cl1  424   3.744   2.636   1.261
    1TCM    cl2  425   3.858   2.425   1.097
    1TCM     h1  426   3.826   2.655   1.037
    1TCM    cl3  427   4.021   2.652   1.175
    1TCM     c1  428   4.178   0.099   0.776
    1TCM    cl1  429   4.309   0.025   0.682
    1TCM    cl2  430   4.220   0.095   0.949
    1TCM     h1  431   4.164   0.204   0.744
    1TCM    cl3  432   4.028   0.008   0.750
    1TCM     c1  433   4.943   1.793   3.409
    1TCM    cl1  434   4.977   1.956   3.473
    1TCM    cl2  435   5.011   1.779   3.246
    1TCM     h1  436   4.988   1.717   3.475
    1TCM    cl3  437   4.767   1.769   3.402
    1TCM     c1  438   2.011   3.583   2.390
    1TCM    cl1  439   1.836   3.563   2.416
    1TCM    cl2  440   2.098   3.455   2.477
    1TCM     h1  441   2.033   3.576   2.282
    1TCM    cl3  442   2.062   3.742   2.452
    1TCM     c1  443   0.579   0.263   4.873
    1TCM    cl1  444   0.468   0.177   4.763
    1TCM    cl2  445   0.709   0.153   4.923
    1TCM     h1  446   0.622   0.350   4.820
    1TCM    cl3  447   0.489   0.318   5.016
    1TCM     c1  448   4.600   0.708   4.533
    1TCM    cl1  449   4.622   0.531   4.535
    1TCM    cl2  450   4.705   0.782   4.656
    1TCM     h1  451   4.627   0.747   4.433
    1TCM    cl3  452   4.430   0.747   4.568
    1TCM     c1  453   3.859   4.685   1.598
    1TCM    cl1  454   3.834   4.859   1.567
    1TCM    cl2  455   3.919   4.663   1.764
    1TCM     h1  456   3.763   4.631   1.585
    1TCM    cl3  457   3.979   4.622   1.482
    1TCM     c1  458   4.507   4.565   4.898
    1TCM    cl1  459   4.549   4.579   5.070
    1TCM    cl2  460   4.439   4.719   4.841
    1TCM     h1  461   4.598   4.540   4.840
    1TCM    cl3  462   4.386   4.436   4.877
    1TCM     c1  463   4.030   4.335   1.774
    1TCM    cl1  464   4.142   4.420   1.665
    1TCM    cl2  465   3.873   4.418   1.773
    1TCM     h1  466   4.017   4.230   1.739
    1TCM    cl3  467   4.097   4.334   1.939
    1TCM     c1  468   3.865   4.057   3.384
    1TCM    cl1  469   3.916   3.989   3.541
    1TCM    cl2  470   4.003   4.054   3.271
    1TCM     h1  471   3.782   3.996   3.343
    1TCM    cl3  472   3.811   4.224   3.407
    1TCM     c1  473   0.368   0.903   3.420
    1TCM    cl1  474   0.535   0.843   3.416
    1TCM    cl2  475   0.278   0.835   3.282
    1TCM     h1  476   0.319   0.871   3.514
    1TCM    cl3  477   0.367   1.080   3.409
    1TCM     c1  478   3.054   2.654   2.852
    1TCM    cl1  479   2.946   2.513   2.854
    1TCM    cl2  480   3.059   2.727   3.014
    1TCM     h1  481   3.157   2.621   2.824
    1TCM    cl3  482   2.995   2.773   2.735
    1TCM     c1  483   3.708   2.425   2.432
    1TCM    cl1  484   3.679   2.599   2.409
    1TCM    cl2  485   3.873   2.385   2.378
    1TCM     h1  486   3.698   2.400   2.539
    1TCM    cl3  487   3.591   2.332   2.337
    1TCM     c1  488   5.009   0.680   2.444
    1TCM    cl1  489   4.935   0.565   2.557
    1TCM    cl2  490   4.942   0.654   2.281
    1TCM     h1  491   4.988   0.784   2.477
    1TCM    cl3  492   5.185   0.654   2.439
    1TCM     c1  493   0.431   0.142   3.049
    1TCM    cl1  494   0.287   0.038   3.041
    1TCM    cl2  495   0.399   0.294   2.962
    1TCM     h1  496   0.454   0.164   3.155
    1TCM    cl3  497   0.569   0.058   2.975
    1TCM     c1  498   5.228   3.698   1.400
    1TCM    cl1  499   5.316   3.544   1.413
    1TCM    cl2  500   5.093   3.679   1.285
    1TCM     h1  501   5.188   3.727   1.499
    1TCM    cl3  502   5.338   3.825   1.340
    1TCM     c1  503   1.523   3.279   0.949
    1TCM    cl1  504   1.410   3.297   0.812
    1TCM    cl2  505   1.435   3.214   1.089
    1TCM     h1  506   1.604   3.210   0.920
    1TCM    cl3  507   1.591   3.438   0.991
    1TCM     c1  508   2.697   4.462   4.179
    1TCM    cl1  509   2.520   4.445   4.170
    1TCM    cl2  510   2.764   4.473   4.015
    1TCM     h1  511   2.722   4.555   4.236
    1TCM    cl3  512   2.766   4.321   4.262
    1TCM     c1  513   4.682   1.678   0.378
    1TCM    cl1  514   4.692   1.819   0.271
    1TCM    cl2  515   4.589   1.721   0.524
    1TCM     h1  516   4.632   1.594   0.325
    1TCM    cl3  517   4.846   1.628   0.426
    1TCM     c1  518   2.940   4.704   4.455
    1TCM    cl1  519   2.820   4.730   4.326
    1TCM    cl2  520   2.923   4.831   4.577
    1TCM     h1  521   2.923   4.605   4.502
    1TCM    cl3  522   3.104   4.709   4.385
    1TCM     c1  523   3.800   4.171   2.049
    1TCM    cl1  524   3.721   4.040   2.141
    1TCM    cl2  525   3.740   4.170   1.882
    1TCM     h1  526   3.776   4.268   2.097
    1TCM    cl3  527   3.976   4.145   2.049
    1TCM     c1  528   0.897   0.248   3.537
    1TCM    cl1  529   0.830   0.387   3.626
    1TCM    cl2  530   0.873   0.100   3.633
    1TCM     h1  531   0.845   0.238   3.440
    1TCM    cl3  532   1.071   0.273   3.510
    1TCM     c1  533   0.990   1.410   2.611
    1TCM    cl1  534   0.858   1.334   2.703
    1TCM    cl2  535   0.966   1.380   2.437
    1TCM     h1  536   0.990   1.519   2.630
    1TCM    cl3  537   1.146   1.341   2.662
    1TCM     c1  538   1.178   0.783   2.316
    1TCM    cl1  539   1.228   0.949   2.278
    1TCM    cl2  540   1.211   0.749   2.487
    1TCM     h1  541   1.069   0.772   2.297
    1TCM    cl3  542   1.268   0.669   2.214
    1TCM     c1  543   2.898   1.183   3.869
    1TCM    cl1  544   2.877   1.331   3.772
    1TCM    cl2  545   2.821   1.206   4.028
    1TCM     h1  546   2.850   1.098   3.817
    1TCM    cl3  547   3.071   1.150   3.891
    1TCM     c1  548   4.649   5.129   1.269
    1TCM    cl1  549   4.548   5.087   1.408
    1TCM    cl2  550   4.613   5.295   1.217
    1TCM     h1  551   4.756   5.122   1.297
    1TCM    cl3  552   4.616   5.017   1.135
    1TCM     c1  553   0.517   4.432   0.322
    1TCM    cl1  554   0.660   4.427   0.217
    1TCM    cl2  555   0.568   4.469   0.489
    1TCM     h1  556   0.447   4.511   0.287
    1TCM    cl3  557   0.435   4.275   0.319
    1TCM     c1  558   2.412   3.449   2.226
    1TCM    cl1  559   2.579   3.412   2.274
    1TCM    cl2  560   2.324   3.517   2.365
    1TCM     h1  561   2.413   3.523   2.143
    1TCM    cl3  562   2.331   3.300   2.171
    1TCM     c1  563   0.345   3.187   1.104
    1TCM    cl1  564   0.305   3.105   0.952
    1TCM    cl2  565   0.427   3.073   1.213
    1TCM     h1  566   0.412   3.273   1.084
    1TCM    cl3  567   0.196   3.246   1.181
    1TCM     c1  568   3.366   3.638   1.043
    1TCM    cl1  569   3.438   3.689   0.889
    1TCM    cl2  570   3.468   3.694   1.178
    1TCM     h1  571   3.265   3.681   1.053
    1TCM    cl3  572   3.356   3.460   1.047
    1TCM     c1  573   3.228   2.959   4.954
    1TCM    cl1  574   3.235   3.059   4.807
    1TCM    cl2  575   3.133   3.045   5.078
    1TCM     h1  576   3.179   2.862   4.931
    1TCM    cl3  577   3.392   2.930   5.015
    1TCM     c1  578   1.072   1.270   1.914
    1TCM    cl1  579   1.135   1.410   1.824
    1TCM    cl2  580   1.020   1.323   2.075
    1TCM     h1  581   0.987   1.226   1.859
    1TCM    cl3  582   1.201   1.148   1.931
    1TCM     c1  583   1.958   2.656   4.800
    1TCM    cl1  584   1.910   2.651   4.628
    1TCM    cl2  585   2.044   2.808   4.833
    1TCM     h1  586   1.867   2.650   4.863
    1TCM    cl3  587   2.065   2.519   4.835
    1TCM     c1  588   2.238   4.087   4.212
    1TCM    cl1  589   2.221   4.153   4.376
    1TCM    cl2  590   2.259   4.220   4.096
    1TCM     h1  591   2.326   4.020   4.208
    1TCM    cl3  592   2.092   3.994   4.170
    1TCM     c1  593   0.795   0.328   0.141
    1TCM    cl1  594   0.705   0.248   0.011
    1TCM    cl2  595   0.682   0.382   0.267
    1TCM     h1  596   0.868   0.257   0.185
    1TCM    cl3  597   0.882   0.469   0.076
    1TCM     c1  598   1.154   0.618   2.931
    1TCM    cl1  599   1.136   0.448   2.980
    1TCM    cl2  600   1.178   0.719   3.075
    1TCM     h1  601   1.241   0.629   2.864
    1TCM    cl3  602   1.007   0.671   2.845
    1TCM     c1  603   4.542   3.163   3.226
    1TCM    cl1  604   4.425   3.247   3.331
    1TCM    cl2  605   4.521   3.220   3.058
    1TCM     h1  606   4.645   3.185   3.260
    1TCM    cl3  607   4.513   2.988   3.233
    1TCM     c1  608   3.177   4.758   5.248
    1TCM    cl1  609   3.210   4.584   5.260
    1TCM    cl2  610   3.075   4.790   5.106
    1TCM     h1  611   3.124   4.792   5.340
    1TCM    cl3  612   3.330   4.846   5.232
    1TCM     c1  613   1.864   0.146   3.587
    1TCM    cl1  614   1.913   0.313   3.625
    1TCM    cl2  615   2.008   0.050   3.546
    1TCM     h1  616   1.813   0.102   3.675
    1TCM    cl3  617   1.752   0.148   3.448
    1TCM     c1  618   0.918   0.831   3.999
    1TCM    cl1  619   0.949   0.658   3.975
    1TCM    cl2  620   0.909   0.866   4.173
    1TCM     h1  621   1.000   0.890   3.953
    1TCM    cl3  622   0.764   0.875   3.921
    1TCM     c1  623   2.058   5.155   2.401
    1TCM    cl1  624   1.905   5.245   2.398
    1TCM    cl2  625   2.049   5.019   2.286
    1TCM     h1  626   2.141   5.222   2.372
    1TCM    cl3  627   2.086   5.091   2.565
    1TCM     c1  628   1.259   1.238   2.407
    1TCM    cl1  629   1.342   1.335   2.532
    1TCM    cl2  630   1.156   1.116   2.486
    1TCM     h1  631   1.196   1.304   2.345
    1TCM    cl3  632   1.380   1.156   2.305
    1TCM     c1  633   1.361   1.560   0.495
    1TCM    cl1  634   1.451   1.472   0.620
    1TCM    cl2  635   1.354   1.461   0.347
    1TCM     h1  636   1.258   1.579   0.530
    1TCM    cl3  637   1.442   1.714   0.460
    1TCM     c1  638   4.245   3.103   2.471
    1TCM    cl1  639   4.134   3.166   2.348
    1TCM    cl2  640   4.152   3.020   2.598
    1TCM     h1  641   4.315   3.031   2.424
    1TCM    cl3  642   4.336   3.238   2.543
    1TCM     c1  643   2.910   4.871   1.423
    1TCM    cl1  644   2.740   4.878   1.372
    1TCM    cl2  645   3.013   4.951   1.302
    1TCM     h1  646   2.922   4.922   1.521
    1TCM    cl3  647   2.960   4.701   1.440
    1TCM     c1  648   4.320   2.475   3.330
    1TCM    cl1  649   4.359   2.629   3.410
    1TCM    cl2  650   4.223   2.374   3.440
    1TCM     h1  651   4.263   2.495   3.238
    1TCM    cl3  652   4.471   2.390   3.290
    1TCM     c1  653   4.305   0.780   3.674
    1TCM    cl1  654   4.340   0.661   3.801
    1TCM    cl2  655   4.292   0.697   3.517
    1TCM     h1  656   4.209   0.831   3.697
    1TCM    cl3  657   4.436   0.900   3.667
    1TCM     c1  658   4.215   0.984   3.312
    1TCM    cl1  659   4.361   0.907   3.377
    1TCM    cl2  660   4.195   0.939   3.141
    1TCM     h1  661   4.126   0.950   3.370
    1TCM    cl3  662   4.230   1.161   3.325
    1TCM     c1  663   2.084   0.275   3.353
    1TCM    cl1  664   2.134   0.138   3.251
    1TCM    cl2  665   2.141   0.250   3.519
    1TCM     h1  666   2.128   0.369   3.313
    1TCM    cl3  667   1.907   0.287   3.352
    1TCM     c1  668   0.518   4.485   3.682
    1TCM    cl1  669   0.660   4.590   3.664
    1TCM    cl2  670   0.571   4.317   3.707
    1TCM     h1  671   0.459   4.518   3.770
    1TCM    cl3  672   0.418   4.495   3.536
    1TCM     c1  673   0.288   1.951   4.820
    1TCM    cl1  674   0.213   2.074   4.924
    1TCM    cl2  675   0.322   2.022   4.660
    1TCM     h1  676   0.382   1.916   4.865
    1TCM    cl3  677   0.176   1.814   4.801
    1TCM     c1  678   1.097   5.159   5.170
    1TCM    cl1  679   0.958   5.065   5.230
    1TCM    cl2  680   1.088   5.325   5.234
    1TCM     h1  681   1.191   5.112   5.203
    1TCM    cl3  682   1.092   5.165   4.992
    1TCM     c1  683   0.846   2.238   1.207
    1TCM    cl1  684   1.002   2.267   1.288
    1TCM    cl2  685   0.869   2.247   1.030
    1TCM     h1  686   0.809   2.136   1.234
    1TCM    cl3  687   0.728   2.360   1.258
    1TCM     c1  688   4.818   1.686   2.352
    1TCM    cl1  689   4.783   1.850   2.411
    1TCM    cl2  690   4.840   1.691   2.175
    1TCM     h1  691   4.911   1.648   2.399
    1TCM    cl3  692   4.682   1.578   2.391
    1TCM     c1  693   3.040   1.287   2.652
    1TCM    cl1  694   2.993   1.429   2.748
    1TCM    cl2  695   2.950   1.145   2.709
    1TCM     h1  696   3.016   1.306   2.545
    1TCM    cl3  697   3.214   1.258   2.670
    1TCM     c1  698   3.156   0.552   2.664
    1TCM    cl1  699   3.160   0.431   2.533
    1TCM    cl2  700   3.292   0.525   2.774
    1TCM     h1  701   3.164   0.654   2.620
    1TCM    cl3  702   3.003   0.537   2.753
    1TCM     c1  703   2.371   4.629   1.166
    1TCM    cl1  704   2.364   4.783   1.254
    1TCM    cl2  705   2.456   4.653   1.012
    1TCM     h1  706   2.425   4.554   1.227
    1TCM    cl3  707   2.205   4.572   1.134
    1TCM     c1  708   0.578   3.430   4.106
    1TCM    cl1  709   0.457   3.548   4.161
    1TCM    cl2  710   0.586   3.433   3.928
    1TCM     h1  711   0.677   3.457   4.148
    1TCM    cl3  712   0.532   3.267   4.161
    1TCM     c1  713   2.508   0.085   1.670
    1TCM    cl1  714   2.365   0.006   1.739
    1TCM    cl2  715   2.643   0.073   1.786
    1TCM     h1  716   2.537   0.034   1.575
    1TCM    cl3  717   2.472   0.256   1.638
    1TCM     c1  718   2.630   4.927   3.642
    1TCM    cl1  719   2.595   4.863   3.804
    1TCM    cl2  720   2.725   4.808   3.550
    1TCM     h1  721   2.535   4.948   3.589
    1TCM    cl3  722   2.724   5.078   3.657
    1TCM     c1  723   3.654   3.610   4.891
    1TCM    cl1  724   3.667   3.755   4.790
    1TCM    cl2  725   3.548   3.643   5.030
    1TCM     h1  726   3.611   3.527   4.831
    1TCM    cl3  727   3.815   3.563   4.950
    1TCM     c1  728   1.727   0.254   4.784
    1TCM    cl1  729   1.581   0.153   4.785
    1TCM    cl2  730   1.824   0.217   4.640
    1TCM     h1  731   1.698   0.361   4.783
    1TCM    cl3  732   1.823   0.220   4.930
    1TCM     c1  733   3.424   3.768   1.898
    1TCM    cl1  734   3.417   3.903   2.014
    1TCM    cl2  735   3.515   3.819   1.753
    1TCM     h1  736   3.476   3.681   1.945
    1TCM    cl3  737   3.259   3.720   1.851
    1TCM     c1  738   0.205   2.700   2.144
    1TCM    cl1  739   0.042   2.720   2.076
    1TCM    cl2  740   0.193   2.673   2.319
    1TCM     h1  741   0.254   2.612   2.096
    1TCM    cl3  742   0.301   2.846   2.112
    1TCM     c1  743   1.884   0.923   3.598
    1TCM    cl1  744   1.741   0.819   3.616
    1TCM    cl2  745   1.899   1.029   3.740
    1TCM     h1  746   1.975   0.860   3.589
    1TCM    cl3  747   1.867   1.023   3.451
    1TCM     c1  748   1.437   4.574   3.673
    1TCM    cl1  749   1.403   4.426   3.764
    1TCM    cl2  750   1.508   4.532   3.515
    1TCM     h1  751   1.343   4.631   3.657
    1TCM    cl3  752   1.552   4.675   3.764
    1TCM     c1  753   1.273   3.270   3.574
    1TCM    cl1  754   1.412   3.360   3.638
    1TCM    cl2  755   1.227   3.141   3.688
    1TCM     h1  756   1.187   3.340   3.561
    1TCM    cl3  757   1.316   3.199   3.417
    1TCM     c1  758   4.855   2.346   2.480
    1TCM    cl1  759   5.008   2.413   2.417
    1TCM    cl2  760   4.801   2.443   2.619
    1TCM     h1  761   4.778   2.350   2.400
    1TCM    cl3  762   4.881   2.178   2.530
    1TCM     c1  763   2.391   1.498   1.881
    1TCM    cl1  764   2.395   1.505   2.058
    1TCM    cl2  765   2.389   1.328   1.828
    1TCM     h1  766   2.299   1.549   1.844
    1TCM    cl3  767   2.535   1.579   1.814
    1TCM     c1  768   1.294   0.166   3.674
    1TCM    cl1  769   1.356  -0.000   3.654
    1TCM    cl2  770   1.360   0.269   3.545
    1TCM     h1  771   1.184   0.165   3.668
    1TCM    cl3  772   1.345   0.229   3.832
    1TCM     c1  773   4.330   3.785   2.780
    1TCM    cl1  774   4.222   3.655   2.835
    1TCM    cl2  775   4.346   3.907   2.909
    1TCM     h1  776   4.430   3.743   2.757
    1TCM    cl3  777   4.262   3.861   2.635
    1TCM     c1  778   4.476   1.270   4.028
    1TCM    cl1  779   4.308   1.224   4.066
    1TCM    cl2  780   4.477   1.374   3.883
    1TCM     h1  781   4.519   1.326   4.113
    1TCM    cl3  782   4.572   1.124   3.997
    1TCM     c1  783   3.839   2.029   2.585
    1TCM    cl1  784   3.796   1.892   2.479
    1TCM    cl2  785   3.866   1.969   2.750
    1TCM     h1  786   3.932   2.077   2.547
    1TCM    cl3  787   3.707   2.147   2.585
    1TCM     c1  788   4.976   3.980   3.355
    1TCM    cl1  789   4.962   4.141   3.431
    1TCM    cl2  790   5.106   3.889   3.435
    1TCM     h1  791   4.880   3.926   3.366
    1TCM    cl3  792   5.013   3.999   3.182
    1TCM     c1  793   0.496   1.823   0.611
    1TCM    cl1  794   0.373   1.918   0.697
    1TCM    cl2  795   0.479   1.848   0.436
    1TCM     h1  796   0.597   1.856   0.643
    1TCM    cl3  797   0.475   1.650   0.648
    1TCM     c1  798   3.656   1.756   3.628
    1TCM    cl1  799   3.560   1.677   3.501
    1TCM    cl2  800   3.605   1.695   3.787
    1TCM     h1  801   3.763   1.734   3.612
    1TCM    cl3  802   3.630   1.932   3.622
    1TCM     c1  803   1.415   2.401   2.991
    1TCM    cl1  804   1.479   2.500   3.125
    1TCM    cl2  805   1.369   2.508   2.856
    1TCM     h1  806   1.492   2.330   2.957
    1TCM    cl3  807   1.272   2.312   3.047
    1TCM     c1  808   0.304   3.045   0.162
    1TCM    cl1  809   0.439   3.035   0.277
    1TCM    cl2  810   0.351   2.970   0.008
    1TCM     h1  811   0.216   2.991   0.204
    1TCM    cl3  812   0.261   3.216   0.135
    1TCM     c1  813   0.786   4.622   5.063
    1TCM    cl1  814   0.671   4.653   5.195
    1TCM    cl2  815   0.824   4.775   4.980
    1TCM     h1  816   0.880   4.579   5.105
    1TCM    cl3  817   0.715   4.508   4.947
    1TCM     c1  818   4.744   4.861   0.149
    1TCM    cl1  819   4.898   4.786   0.196
    1TCM    cl2  820   4.669   4.936   0.292
    1TCM     h1  821   4.763   4.939   0.073
    1TCM    cl3  822   4.635   4.737   0.083
    1TCM     c1  823   0.831   1.564   0.622
    1TCM    cl1  824   0.900   1.402   0.596
    1TCM    cl2  825   0.826   1.599   0.797
    1TCM     h1  826   0.893   1.640   0.571
    1TCM    cl3  827   0.666   1.569   0.557
    1TCM     c1  828   2.442   0.412   3.567
    1TCM    cl1  829   2.495   0.312   3.704
    1TCM    cl2  830   2.398   0.307   3.430
    1TCM     h1  831   2.354   0.472   3.597
    1TCM    cl3  832   2.574   0.521   3.518
    1TCM     c1  833   0.523   1.516   3.350
    1TCM    cl1  834   0.525   1.667   3.256
    1TCM    cl2  835   0.484   1.553   3.519
    1TCM     h1  836   0.445   1.448   3.308
    1TCM    cl3  837   0.682   1.438   3.341
    1TCM     c1  838   0.316   4.463   4.958
    1TCM    cl1  839   0.479   4.531   4.939
    1TCM    cl2  840   0.292   4.413   5.128
    1TCM     h1  841   0.241   4.539   4.931
    1TCM    cl3  842   0.299   4.321   4.852
    1TCM     c1  843   4.317   1.425   2.214
    1TCM    cl1  844   4.308   1.344   2.056
    1TCM    cl2  845   4.188   1.364   2.320
    1TCM     h1  846   4.416   1.405   2.260
    1TCM    cl3  847   4.297   1.601   2.192
    1TCM     c1  848   1.501   0.648   1.801
    1TCM    cl1  849   1.370   0.635   1.681
    1TCM    cl2  850   1.435   0.621   1.964
    1TCM     h1  851   1.579   0.572   1.779
    1TCM    cl3  852   1.573   0.811   1.793
    1TCM     c1  853   0.146   5.109   3.539
    1TCM    cl1  854   0.286   5.032   3.461
    1TCM    cl2  855   0.001   5.011   3.508
    1TCM     h1  856   0.164   5.115   3.648
    1TCM    cl3  857   0.123   5.272   3.473
    1TCM     c1  858   2.081   1.875   3.572
    1TCM    cl1  859   2.042   1.911   3.402
    1TCM    cl2  860   2.254   1.836   3.586
    1TCM     h1  861   2.058   1.964   3.635
    1TCM    cl3  862   1.984   1.737   3.627
    1TCM     c1  863   2.657   3.571   3.792
    1TCM    cl1  864   2.742   3.416   3.774
    1TCM    cl2  865   2.766   3.692   3.863
    1TCM     h1  866   2.623   3.606   3.692
    1TCM    cl3  867   2.516   3.549   3.898
    1TCM     c1  868   0.879   1.352   3.729
    1TCM    cl1  869   0.740   1.330   3.837
    1TCM    cl2  870   0.823   1.367   3.561
    1TCM     h1  871   0.934   1.445   3.758
    1TCM    cl3  872   0.988   1.213   3.743
    1TCM     c1  873   0.770   4.436   1.928
    1TCM    cl1  874   0.895   4.441   1.801
    1TCM    cl2  875   0.841   4.488   2.082
    1TCM     h1  876   0.687   4.504   1.900
    1TCM    cl3  877   0.709   4.270   1.944
    1TCM     c1  878   3.726   4.162   2.614
    1TCM    cl1  879   3.900   4.199   2.602
    1TCM    cl2  880   3.633   4.313   2.603
    1TCM     h1  881   3.697   4.095   2.531
    1TCM    cl3  882   3.692   4.083   2.769
    1TCM     c1  883   0.652   2.517   3.603
    1TCM    cl1  884   0.609   2.688   3.578
    1TCM    cl2  885   0.684   2.440   3.447
    1TCM     h1  886   0.744   2.512   3.667
    1TCM    cl3  887   0.519   2.433   3.685
    1TCM     c1  888   1.842   3.933   1.815
    1TCM    cl1  889   1.894   3.825   1.946
    1TCM    cl2  890   1.861   3.850   1.659
    1TCM     h1  891   1.736   3.961   1.829
    1TCM    cl3  892   1.942   4.080   1.816
    1TCM     c1  893   1.708   1.629   2.660
    1TCM    cl1  894   1.548   1.683   2.604
    1TCM    cl2  895   1.832   1.684   2.545
    1TCM     h1  896   1.729   1.673   2.760
    1TCM    cl3  897   1.711   1.452   2.671
    1TCM     c1  898   3.962   0.099   4.045
    1TCM    cl1  899   3.954   0.239   4.154
    1TCM    cl2  900   4.074   0.133   3.912
    1TCM     h1  901   3.998   0.010   4.102
    1TCM    cl3  902   3.800   0.065   3.980
    1TCM     c1  903   0.159   4.553   4.584
    1TCM    cl1  904   0.117   4.638   4.735
    1TCM    cl2  905   0.140   4.378   4.608
    1TCM     h1  906   0.092   4.587   4.503
    1TCM    cl3  907   0.327   4.589   4.541
    1TCM     c1  908   1.129   1.676   0.798
    1TCM    cl1  909   1.053   1.515   0.791
    1TCM    cl2  910   1.221   1.691   0.949
    1TCM     h1  911   1.197   1.688   0.711
    1TCM    cl3  912   1.003   1.801   0.792
    1TCM     c1  913   2.734   2.765   0.363
    1TCM    cl1  914   2.613   2.660   0.439
    1TCM    cl2  915   2.687   2.798   0.194
    1TCM     h1  916   2.740   2.861   0.418
    1TCM    cl3  917   2.893   2.685   0.365
    1TCM     c1  918   3.672   1.404   3.461
    1TCM    cl1  919   3.790   1.537   3.454
    1TCM    cl2  920   3.665   1.339   3.626
    1TCM     h1  921   3.572   1.442   3.432
    1TCM    cl3  922   3.721   1.275   3.349
    1TCM     c1  923   3.519   0.315   1.965
    1TCM    cl1  924   3.640   0.438   1.924
    1TCM    cl2  925   3.594   0.187   2.062
    1TCM     h1  926   3.437   0.362   2.023
    1TCM    cl3  927   3.453   0.245   1.815
    1TCM     c1  928   4.137   2.681   1.531
    1TCM    cl1  929   4.124   2.806   1.657
    1TCM    cl2  930   4.275   2.575   1.568
    1TCM     h1  931   4.044   2.620   1.529
    1TCM    cl3  932   4.162   2.758   1.373
    1TCM     c1  933   3.006   4.266   2.668
    1TCM    cl1  934   3.036   4.247   2.842
    1TCM    cl2  935   2.948   4.111   2.601
    1TCM     h1  936   2.928   4.344   2.652
    1TCM    cl3  937   3.156   4.313   2.586
    1TCM     c1  938   4.462   1.107   2.780
    1TCM    cl1  939   4.386   1.251   2.851
    1TCM    cl2  940   4.542   1.151   2.628
    1TCM     h1  941   4.538   1.066   2.851
    1TCM    cl3  942   4.339   0.983   2.749
    1TCM     c1  943   1.122   2.055   4.931
    1TCM    cl1  944   1.096   1.978   5.089
    1TCM    cl2  945   1.296   2.085   4.907
    1TCM     h1  946   1.085   1.987   4.851
    1TCM    cl3  947   1.033   2.209   4.925
    1TCM     c1  948   2.400   4.584   4.660
    1TCM    cl1  949   2.428   4.555   4.833
    1TCM    cl2  950   2.468   4.742   4.614
    1TCM     h1  951   2.449   4.504   4.601
    1TCM    cl3  952   2.225   4.582   4.628
    1TCM     c1  953   2.306   5.147   5.142
    1TCM    cl1  954   2.223   5.273   5.237
    1TCM    cl2  955   2.315   5.199   4.972
    1TCM     h1  956   2.408   5.133   5.181
    1TCM    cl3  957   2.215   4.995   5.153
    1TCM     c1  958   2.027   1.255   2.996
    1TCM    cl1  959   1.989   1.250   3.170
    1TCM    cl2  960   2.161   1.143   2.962
    1TCM     h1  961   1.937   1.224   2.938
    1TCM    cl3  962   2.074   1.420   2.950
    1TCM     c1  963   1.937   2.231   5.124
    1TCM    cl1  964   2.069   2.308   5.214
    1TCM    cl2  965   1.835   2.356   5.049
    1TCM     h1  966   1.979   2.165   5.045
    1TCM    cl3  967   1.839   2.133   5.235
    1TCM     c1  968   2.260   1.811   1.676
    1TCM    cl1  969   2.290   1.653   1.600
    1TCM    cl2  970   2.316   1.806   1.845
    1TCM     h1  971   2.315   1.890   1.621
    1TCM    cl3  972   2.086   1.846   1.673
    1TCM     c1  973   2.727   2.697   0.895
    1TCM    cl1  974   2.616   2.833   0.868
    1TCM    cl2  975   2.832   2.732   1.034
    1TCM     h1  976   2.668   2.605   0.916
    1TCM    cl3  977   2.827   2.672   0.750
    1TCM     c1  978   3.065   1.885   1.997
    1TCM    cl1  979   3.220   1.798   2.002
    1TCM    cl2  980   3.030   1.953   2.157
    1TCM     h1  981   3.072   1.967   1.922
    1TCM    cl3  982   2.936   1.773   1.950
    1TCM     c1  983   4.646   4.541   2.715
    1TCM    cl1  984   4.663   4.687   2.815
    1TCM    cl2  985   4.672   4.583   2.544
    1TCM     h1  986   4.720   4.465   2.747
    1TCM    cl3  987   4.482   4.476   2.735
    1TCM     c1  988   3.236   0.382   4.874
    1TCM    cl1  989   3.357   0.318   4.988
    1TCM    cl2  990   3.213   0.266   4.741
    1TCM     h1  991   3.139   0.397   4.927
    1TCM    cl3  992   3.292   0.537   4.809
    1TCM     c1  993   3.971   3.994   4.127
    1TCM    cl1  994   3.846   4.112   4.174
    1TCM    cl2  995   3.905   3.830   4.140
    1TCM     h1  996   4.002   4.014   4.022
    1TCM    cl3  997   4.111   4.010   4.234
    1TCM     c1  998   1.999   1.381   2.668
    1TCM    cl1  999   1.976   1.406   2.494
    1TCM    cl2 1000   2.011   1.538   2.750
    1TCM     h1 1001   1.912   1.324   2.709
    1TCM    cl3 1002   2.148   1.288   2.696
    1TCM     c1 1003   2.445   2.923   2.017
    1TCM    cl1 1004   2.328   2.823   1.927
    1TCM    cl2 1005   2.475   2.849   2.176
    1TCM     h1 1006   2.540   2.929   1.960
    1TCM    cl3 1007   2.378   3.086   2.039
    1TCM     c1 1008   1.137   4.905   1.675
    1TCM    cl1 1009   1.164   5.007   1.818
    1TCM    cl2 1010   1.092   5.007   1.536
    1TCM     h1 1011   1.229   4.849   1.651
    1TCM    cl3 1012   1.005   4.790   1.708
    1TCM     c1 1013   4.249   2.318   4.423
    1TCM    cl1 1014   4.340   2.361   4.276
    1TCM    cl2 1015   4.188   2.466   4.501
    1TCM     h1 1016   4.164   2.252   4.396
    1TCM    cl3 1017   4.356   2.232   4.536
    1TCM     c1 1018   1.963   5.067   5.099
    1TCM    cl1 1019   2.007   4.935   5.209
    1TCM    cl2 1020   1.836   5.167   5.173
    1TCM     h1 1021   2.052   5.130   5.079
    1TCM    cl3 1022   1.903   4.999   4.946
    1TCM     c1 1023   3.420   3.880   0.635
    1TCM    cl1 1024   3.481   4.023   0.549
    1TCM    cl2 1025   3.549   3.810   0.734
    1TCM     h1 1026   3.335   3.909   0.700
    1TCM    cl3 1027   3.365   3.760   0.516
    1TCM     c1 1028   4.665   0.984   1.069
    1TCM    cl1 1029   4.638   0.816   1.123
    1TCM    cl2 1030   4.770   1.068   1.185
    1TCM     h1 1031   4.713   0.983   0.969
    1TCM    cl3 1032   4.508   1.068   1.059
    1TCM     c1 1033   4.175   1.867   1.966
    1TCM    cl1 1034   4.035   1.934   2.053
    1TCM    cl2 1035   4.167   1.913   1.795
    1TCM     h1 1036   4.268   1.907   2.011
    1TCM    cl3 1037   4.174   1.690   1.979
    1TCM     c1 1038   4.132   1.736   0.107
    1TCM    cl1 1039   4.188   1.885   0.186
    1TCM    cl2 1040   3.984   1.678   0.188
    1TCM     h1 1041   4.109   1.757   0.000
    1TCM    cl3 1042   4.258   1.611   0.118
    1TCM     c1 1043   3.994   3.234   4.805
    1TCM    cl1 1044   4.084   3.284   4.661
    1TCM    cl2 1045   3.884   3.364   4.855
    1TCM     h1 1046   3.935   3.142   4.782
    1TCM    cl3 1047   4.108   3.198   4.937
    1TCM     c1 1048   1.276   0.523   3.765
    1TCM    cl1 1049   1.206   0.405   3.652
    1TCM    cl2 1050   1.353   0.655   3.673
    1TCM     h1 1051   1.196   0.565   3.829
    1TCM    cl3 1052   1.398   0.443   3.867
    1TCM     c1 1053   3.554   0.259   1.501
    1TCM    cl1 1054   3.694   0.352   1.557
    1TCM    cl2 1055   3.515   0.133   1.620
    1TCM     h1 1056   3.467   0.326   1.488
    1TCM    cl3 1057   3.592   0.182   1.345
    1TCM     c1 1058   1.210   0.428   4.210
    1TCM    cl1 1059   1.120   0.538   4.317
    1TCM    cl2 1060   1.382   0.429   4.254
    1TCM     h1 1061   1.170   0.326   4.220
    1TCM    cl3 1062   1.192   0.483   4.041
    1TCM     c1 1063   3.198   5.263   3.626
    1TCM    cl1 1064   3.343   5.287   3.525
    1TCM    cl2 1065   3.058   5.339   3.547
    1TCM     h1 1066   3.179   5.155   3.638
    1TCM    cl3 1067   3.224   5.338   3.785
    1TCM     c1 1068   2.330   1.154   4.180
    1TCM    cl1 1069   2.191   1.135   4.288
    1TCM    cl2 1070   2.283   1.110   4.014
    1TCM     h1 1071   2.365   1.259   4.181
    1TCM    cl3 1072   2.462   1.047   4.233
    1TCM     c1 1073   3.367   0.802   0.332
    1TCM    cl1 1074   3.453   0.693   0.443
    1TCM    cl2 1075   3.437   0.788   0.169
    1TCM     h1 1076   3.260   0.774   0.328
    1TCM    cl3 1077   3.383   0.970   0.389
    1TCM     c1 1078   1.750   2.171   2.738
    1TCM    cl1 1079   1.870   2.065   2.817
    1TCM    cl2 1080   1.822   2.246   2.594
    1TCM     h1 1081   1.661   2.110   2.708
    1TCM    cl3 1082   1.699   2.298   2.852
    1TCM     c1 1083   4.970   4.014   4.696
    1TCM    cl1 1084   5.074   4.154   4.731
    1TCM    cl2 1085   4.842   4.002   4.820
    1TCM     h1 1086   4.923   4.026   4.596
    1TCM    cl3 1087   5.068   3.865   4.699
    1TCM     c1 1088   0.842   0.948   2.722
    1TCM    cl1 1089   0.753   0.813   2.796
    1TCM    cl2 1090   0.934   0.889   2.582
    1TCM     h1 1091   0.771   1.026   2.689
    1TCM    cl3 1092   0.955   1.017   2.841
    1TCM     c1 1093   4.724   0.996   3.657
    1TCM    cl1 1094   4.638   0.903   3.782
    1TCM    cl2 1095   4.669   0.944   3.497
    1TCM     h1 1096   4.703   1.104   3.670
    1TCM    cl3 1097   4.899   0.968   3.672
    1TCM     c1 1098   5.095   4.820   0.656
    1TCM    cl1 1099   5.158   4.960   0.567
    1TCM    cl2 1100   5.069   4.866   0.826
    1TCM     h1 1101   4.999   4.788   0.611
    1TCM    cl3 1102   5.212   4.687   0.648
    1TCM     c1 1103   0.730   3.402   0.367
    1TCM    cl1 1104   0.776   3.402   0.195
    1TCM    cl2 1105   0.604   3.524   0.395
    1TCM     h1 1106   0.691   3.302   0.394
    1TCM    cl3 1107   0.873   3.439   0.467
    1TCM     c1 1108   1.227   2.451   4.741
    1TCM    cl1 1109   1.245   2.275   4.758
    1TCM    cl2 1110   1.320   2.533   4.868
    1TCM     h1 1111   1.265   2.482   4.641
    1TCM    cl3 1112   1.055   2.495   4.755
    1TCM     c1 1113   0.673   3.229   0.671
    1TCM    cl1 1114   0.781   3.152   0.552
    1TCM    cl2 1115   0.762   3.255   0.823
    1TCM     h1 1116   0.638   3.326   0.631
    1TCM    cl3 1117   0.533   3.124   0.702
    1TCM     c1 1118   4.272   1.669   2.612
    1TCM    cl1 1119   4.138   1.562   2.659
    1TCM    cl2 1120   4.318   1.637   2.444
    1TCM     h1 1121   4.240   1.775   2.622
    1TCM    cl3 1122   4.411   1.640   2.719
    1TCM     c1 1123   2.158   0.606   4.357
    1TCM    cl1 1124   2.326   0.580   4.408
    1TCM    cl2 1125   2.100   0.463   4.268
    1TCM     h1 1126   2.094   0.622   4.447
    1TCM    cl3 1127   2.149   0.749   4.252
    1TCM     c1 1128   0.355   0.185   2.638
    1TCM    cl1 1129   0.326   0.038   2.733
    1TCM    cl2 1130   0.320   0.153   2.467
    1TCM     h1 1131   0.289   0.266   2.675
    1TCM    cl3 1132   0.525   0.234   2.656
    1TCM     c1 1133   1.861   4.581   4.433
    1TCM    cl1 1134   1.913   4.751   4.427
    1TCM    cl2 1135   1.897   4.514   4.594
    1TCM     h1 1136   1.751   4.575   4.415
    1TCM    cl3 1137   1.947   4.488   4.309
    1TCM     c1 1138   4.260   4.609   1.522
    1TCM    cl1 1139   4.181   4.474   1.438
    1TCM    cl2 1140   4.325   4.724   1.403
    1TCM     h1 1141   4.185   4.660   1.587
    1TCM    cl3 1142   4.392   4.547   1.623
    1TCM     c1 1143   1.070   2.546   0.603
    1TCM    cl1 1144   1.030   2.639   0.748
    1TCM    cl2 1145   1.231   2.473   0.622
    1TCM     h1 1146   0.994   2.466   0.588
    1TCM    cl3 1147   1.070   2.654   0.461
    1TCM     c1 1148   1.386   0.871   4.258
    1TCM    cl1 1149   1.343   0.749   4.136
    1TCM    cl2 1150   1.238   0.945   4.324
    1TCM     h1 1151   1.443   0.823   4.340
    1TCM    cl3 1152   1.486   0.997   4.182
    1TCM     c1 1153   1.856   1.534   0.936
    1TCM    cl1 1154   1.939   1.512   0.780
    1TCM    cl2 1155   1.805   1.375   0.998
    1TCM     h1 1156   1.926   1.581   1.008
    1TCM    cl3 1157   1.714   1.638   0.914
    1TCM     c1 1158   1.249   4.635   1.421
    1TCM    cl1 1159   1.384   4.711   1.509
    1TCM    cl2 1160   1.282   4.641   1.246
    1TCM     h1 1161   1.240   4.529   1.453
    1TCM    cl3 1162   1.099   4.722   1.457
    1TCM     c1 1163   5.064   2.754   2.605
    1TCM    cl1 1164   4.939   2.769   2.731
    1TCM    cl2 1165   4.993   2.789   2.446
    1TCM     h1 1166   5.146   2.826   2.626
    1TCM    cl3 1167   5.129   2.588   2.606
    1TCM     c1 1168   0.889   2.469   0.206
    1TCM    cl1 1169   1.028   2.497   0.313
    1TCM    cl2 1170   0.948   2.432   0.042
    1TCM     h1 1171   0.830   2.383   0.244
    1TCM    cl3 1172   0.788   2.615   0.201
    1TCM     c1 1173   3.687   4.745   3.450
    1TCM    cl1 1174   3.762   4.669   3.593
    1TCM    cl2 1175   3.559   4.857   3.502
    1TCM     h1 1176   3.764   4.800   3.393
    1TCM    cl3 1177   3.617   4.618   3.346
    1TCM     c1 1178   2.164   1.059   2.447
    1TCM    cl1 1179   2.006   1.125   2.402
    1TCM    cl2 1180   2.267   1.191   2.509
    1TCM     h1 1181   2.151   0.983   2.527
    1TCM    cl3 1182   2.241   0.985   2.305
    1TCM     c1 1183   0.711   4.579   4.508
    1TCM    cl1 1184   0.746   4.703   4.385
    1TCM    cl2 1185   0.632   4.440   4.431
    1TCM     h1 1186   0.805   4.546   4.556
    1TCM    cl3 1187   0.602   4.648   4.632
    1TCM     c1 1188   2.042   4.850   3.929
    1TCM    cl1 1189   2.161   4.973   3.977
    1TCM    cl2 1190   2.081   4.696   4.009
    1TCM     h1 1191   1.940   4.883   3.960
    1TCM    cl3 1192   2.046   4.828   3.753
    1TCM     c1 1193   1.201   0.298   1.302
    1TCM    cl1 1194   1.112   0.261   1.153
    1TCM    cl2 1195   1.132   0.443   1.378
    1TCM     h1 1196   1.193   0.212   1.372
    1TCM    cl3 1197   1.372   0.327   1.264
    1TCM     c1 1198   2.661   3.051   1.148
    1TCM    cl1 1199   2.655   3.180   1.026
    1TCM    cl2 1200   2.795   3.083   1.261
    1TCM     h1 1201   2.565   3.048   1.204
    1TCM    cl3 1202   2.687   2.895   1.068
    1TCM     c1 1203   1.015   3.635   1.094
    1TCM    cl1 1204   1.132   3.652   1.227
    1TCM    cl2 1205   0.850   3.655   1.158
    1TCM     h1 1206   1.034   3.713   1.017
    1TCM    cl3 1207   1.031   3.474   1.021
    1TCM     c1 1208   3.758   2.376   2.095
    1TCM    cl1 1209   3.781   2.216   2.169
    1TCM    cl2 1210   3.676   2.358   1.938
    1TCM     h1 1211   3.697   2.440   2.161
    1TCM    cl3 1212   3.917   2.453   2.069
    1TCM     c1 1213   2.780   2.469   1.215
    1TCM    cl1 1214   2.639   2.547   1.141
    1TCM    cl2 1215   2.765   2.474   1.392
    1TCM     h1 1216   2.786   2.363   1.181
    1TCM    cl3 1217   2.928   2.555   1.166
    1TCM     c1 1218   2.741   3.505   4.286
    1TCM    cl1 1219   2.819   3.517   4.446
    1TCM    cl2 1220   2.733   3.334   4.237
    1TCM     h1 1221   2.639   3.547   4.292
    1TCM    cl3 1222   2.836   3.596   4.167
    1TCM     c1 1223   1.189   2.819   4.180
    1TCM    cl1 1224   1.238   2.658   4.237
    1TCM    cl2 1225   1.221   2.939   4.307
    1TCM     h1 1226   1.245   2.845   4.089
    1TCM    cl3 1227   1.015   2.818   4.143
    1TCM     c1 1228   1.533   2.929   3.471
    1TCM    cl1 1229   1.602   2.780   3.403
    1TCM    cl2 1230   1.622   3.070   3.409
    1TCM     h1 1231   1.426   2.937   3.442
    1TCM    cl3 1232   1.545   2.924   3.649
    1TCM     c1 1233   3.826   4.790   3.905
    1TCM    cl1 1234   3.784   4.908   3.778
    1TCM    cl2 1235   3.704   4.662   3.910
    1TCM     h1 1236   3.925   4.746   3.882
    1TCM    cl3 1237   3.832   4.873   4.062
    1TCM     c1 1238   0.183   3.219   0.523
    1TCM    cl1 1239   0.060   3.287   0.632
    1TCM    cl2 1240   0.202   3.325   0.382
    1TCM     h1 1241   0.279   3.210   0.576
    1TCM    cl3 1242   0.130   3.057   0.468
    1TCM     c1 1243   1.444   2.317   5.082
    1TCM    cl1 1244   1.440   2.255   4.915
    1TCM    cl2 1245   1.301   2.259   5.170
    1TCM     h1 1246   1.536   2.280   5.133
    1TCM    cl3 1247   1.445   2.495   5.080
    1TCM     c1 1248   0.251   1.916   3.035
    1TCM    cl1 1249   0.409   1.973   2.977
    1TCM    cl2 1250   0.182   2.036   3.147
    1TCM     h1 1251   0.183   1.903   2.948
    1TCM    cl3 1252   0.271   1.761   3.119
    1TCM     c1 1253   3.659   0.273   4.995
    1TCM    cl1 1254   3.532   0.227   5.110
    1TCM    cl2 1255   3.793   0.352   5.082
    1TCM     h1 1256   3.697   0.182   4.943
    1TCM    cl3 1257   3.593   0.385   4.874
    1TCM     c1 1258   1.767   2.803   2.059
    1TCM    cl1 1259   1.719   2.898   2.201
    1TCM    cl2 1260   1.714   2.635   2.080
    1TCM     h1 1261   1.720   2.846   1.969
    1TCM    cl3 1262   1.944   2.808   2.042
    1TCM     c1 1263   4.215   0.638   4.294
    1TCM    cl1 1264   4.188   0.600   4.123
    1TCM    cl2 1265   4.084   0.744   4.353
    1TCM     h1 1266   4.216   0.545   4.354
    1TCM    cl3 1267   4.371   0.722   4.313
    1TCM     c1 1268   0.290   3.798   1.601
    1TCM    cl1 1269   0.301   3.826   1.776
    1TCM    cl2 1270   0.436   3.862   1.522
    1TCM     h1 1271   0.282   3.689   1.581
    1TCM    cl3 1272   0.146   3.880   1.536
    1TCM     c1 1273   0.257   1.644   0.910
    1TCM    cl1 1274   0.240   1.590   0.741
    1TCM    cl2 1275   0.430   1.666   0.947
    1TCM     h1 1276   0.204   1.741   0.923
    1TCM    cl3 1277   0.188   1.522   1.019
    1TCM     c1 1278   3.752   2.594   2.828
    1TCM    cl1 1279   3.623   2.669   2.925
    1TCM    cl2 1280   3.737   2.646   2.659
    1TCM     h1 1281   3.851   2.625   2.868
    1TCM    cl3 1282   3.737   2.417   2.837
    1TCM     c1 1283   0.254   4.843   2.822
    1TCM    cl1 1284   0.301   4.853   2.993
    1TCM    cl2 1285   0.080   4.808   2.810
    1TCM     h1 1286   0.276   4.939   2.772
    1TCM    cl3 1287   0.346   4.712   2.743
    1TCM     c1 1288   0.140   4.648   2.513
    1TCM    cl1 1289   0.013   4.702   2.402
    1TCM    cl2 1290   0.071   4.625   2.676
    1TCM     h1 1291   0.183   4.553   2.477
    1TCM    cl3 1292   0.268   4.771   2.521
    1TCM     c1 1293   0.528   2.550   2.339
    1TCM    cl1 1294   0.635   2.563   2.480
    1TCM    cl2 1295   0.532   2.703   2.248
    1TCM     h1 1296   0.562   2.467   2.274
    1TCM    cl3 1297   0.362   2.519   2.394
    1TCM     c1 1298   0.618   4.027   2.872
    1TCM    cl1 1299   0.515   4.014   2.728
    1TCM    cl2 1300   0.652   3.864   2.935
    1TCM     h1 1301   0.713   4.077   2.845
    1TCM    cl3 1302   0.534   4.121   2.997
    1TCM     c1 1303   2.351   0.713   4.073
    1TCM    cl1 1304   2.382   0.759   4.241
    1TCM    cl2 1305   2.473   0.786   3.967
    1TCM     h1 1306   2.356   0.602   4.063
    1TCM    cl3 1307   2.189   0.769   4.024
    1TCM     c1 1308   1.734   1.882   2.190
    1TCM    cl1 1309   1.874   1.922   2.088
    1TCM    cl2 1310   1.766   1.935   2.357
    1TCM     h1 1311   1.644   1.933   2.151
    1TCM    cl3 1312   1.708   1.706   2.188
    1TCM     c1 1313   0.944   3.252   2.313
    1TCM    cl1 1314   1.072   3.228   2.434
    1TCM    cl2 1315   0.921   3.426   2.286
    1TCM     h1 1316   0.974   3.204   2.218
    1TCM    cl3 1317   0.792   3.180   2.372
    1TCM     c1 1318   4.750   3.791   3.127
    1TCM    cl1 1319   4.686   3.768   3.292
    1TCM    cl2 1320   4.674   3.674   3.017
    1TCM     h1 1321   4.727   3.894   3.093
    1TCM    cl3 1322   4.926   3.766   3.127
    1TCM     c1 1323   4.249   1.018   4.547
    1TCM    cl1 1324   4.163   1.117   4.667
    1TCM    cl2 1325   4.195   1.064   4.384
    1TCM     h1 1326   4.358   1.035   4.556
    1TCM    cl3 1327   4.213   0.846   4.575
    1TCM     c1 1328   0.162   3.104   4.643
    1TCM    cl1 1329   0.174   3.276   4.683
    1TCM    cl2 1330   0.141   3.086   4.467
    1TCM     h1 1331   0.255   3.052   4.675
    1TCM    cl3 1332   0.023   3.033   4.727
    1TCM     c1 1333   1.013   1.841   0.355
    1TCM    cl1 1334   1.092   1.791   0.506
    1TCM    cl2 1335   1.104   1.976   0.282
    1TCM     h1 1336   1.011   1.755   0.284
    1TCM    cl3 1337   0.847   1.893   0.390
    1TCM     c1 1338   1.934   2.145   1.782
    1TCM    cl1 1339   2.001   2.141   1.946
    1TCM    cl2 1340   1.870   1.984   1.740
    1TCM     h1 1341   1.852   2.219   1.777
    1TCM    cl3 1342   2.061   2.189   1.667
    1TCM     c1 1343   2.529   4.462   3.849
    1TCM    cl1 1344   2.440   4.358   3.964
    1TCM    cl2 1345   2.691   4.395   3.823
    1TCM     h1 1346   2.474   4.465   3.753
    1TCM    cl3 1347   2.542   4.626   3.916
    1TCM     c1 1348   3.215   0.565   1.754
    1TCM    cl1 1349   3.284   0.475   1.891
    1TCM    cl2 1350   3.340   0.593   1.631
    1TCM     h1 1351   3.132   0.506   1.710
    1TCM    cl3 1352   3.152   0.721   1.812
    1TCM     c1 1353   2.480   4.810   4.880
    1TCM    cl1 1354   2.597   4.708   4.793
    1TCM    cl2 1355   2.559   4.961   4.931
    1TCM     h1 1356   2.395   4.833   4.812
    1TCM    cl3 1357   2.420   4.723   5.023
    1TCM     c1 1358   2.648   1.902   3.419
    1TCM    cl1 1359   2.795   2.000   3.437
    1TCM    cl2 1360   2.555   1.905   3.571
    1TCM     h1 1361   2.585   1.944   3.337
    1TCM    cl3 1362   2.692   1.734   3.379
    1TCM     c1 1363   0.863   1.813   5.001
    1TCM    cl1 1364   0.860   1.978   5.066
    1TCM    cl2 1365   0.817   1.698   5.128
    1TCM     h1 1366   0.791   1.805   4.916
    1TCM    cl3 1367   1.027   1.775   4.942
    1TCM     c1 1368   3.151   1.146   3.129
    1TCM    cl1 1369   3.262   1.202   3.257
    1TCM    cl2 1370   3.230   1.165   2.971
    1TCM     h1 1371   3.127   1.039   3.146
    1TCM    cl3 1372   3.002   1.242   3.134
    1TCM     c1 1373   3.725   0.768   1.667
    1TCM    cl1 1374   3.614   0.906   1.671
    1TCM    cl2 1375   3.825   0.769   1.814
    1TCM     h1 1376   3.667   0.674   1.663
    1TCM    cl3 1377   3.830   0.780   1.524
    1TCM     c1 1378   0.575   0.436   0.596
    1TCM    cl1 1379   0.598   0.380   0.763
    1TCM    cl2 1380   0.404   0.417   0.550
    1TCM     h1 1381   0.603   0.543   0.589
    1TCM    cl3 1382   0.677   0.341   0.487
    1TCM     c1 1383   0.859   3.840   3.735
    1TCM    cl1 1384   0.900   3.677   3.676
    1TCM    cl2 1385   0.980   3.956   3.675
    1TCM     h1 1386   0.759   3.869   3.698
    1TCM    cl3 1387   0.860   3.841   3.913
    1TCM     c1 1388   5.228   4.241   4.416
    1TCM    cl1 1389   5.269   4.308   4.576
    1TCM    cl2 1390   5.077   4.315   4.358
    1TCM     h1 1391   5.310   4.264   4.344
    1TCM    cl3 1392   5.208   4.065   4.428
    1TCM     c1 1393   3.759   1.794   0.928
    1TCM    cl1 1394   3.780   1.683   1.065
    1TCM    cl2 1395   3.893   1.911   0.926
    1TCM     h1 1396   3.759   1.737   0.833
    1TCM    cl3 1397   3.605   1.881   0.944
    1TCM     c1 1398   3.451   4.485   3.723
    1TCM    cl1 1399   3.437   4.633   3.626
    1TCM    cl2 1400   3.622   4.458   3.766
    1TCM     h1 1401   3.391   4.495   3.816
    1TCM    cl3 1402   3.391   4.346   3.629
    1TCM     c1 1403   1.698   4.730   3.240
    1TCM    cl1 1404   1.815   4.796   3.123
    1TCM    cl2 1405   1.648   4.859   3.353
    1TCM     h1 1406   1.609   4.692   3.186
    1TCM    cl3 1407   1.774   4.598   3.332
    1TCM     c1 1408   2.640   0.531   2.624
    1TCM    cl1 1409   2.637   0.689   2.707
    1TCM    cl2 1410   2.558   0.410   2.725
    1TCM     h1 1411   2.588   0.540   2.527
    1TCM    cl3 1412   2.809   0.482   2.597
    1TCM     c1 1413   3.337   2.139   4.239
    1TCM    cl1 1414   3.335   1.985   4.150
    1TCM    cl2 1415   3.173   2.178   4.294
    1TCM     h1 1416   3.405   2.130   4.326
    1TCM    cl3 1417   3.396   2.268   4.132
    1TCM     c1 1418   2.956   2.403   0.579
    1TCM    cl1 1419   2.815   2.463   0.670
    1TCM    cl2 1420   2.962   2.482   0.420
    1TCM     h1 1421   3.049   2.426   0.635
    1TCM    cl3 1422   2.942   2.227   0.557
    1TCM     c1 1423   1.607   0.592   4.918
    1TCM    cl1 1424   1.464   0.560   4.816
    1TCM    cl2 1425   1.618   0.468   5.045
    1TCM     h1 1426   1.698   0.589   4.855
    1TCM    cl3 1427   1.592   0.753   4.992
    1TCM     c1 1428   0.759   1.635   1.674
    1TCM    cl1 1429   0.636   1.652   1.801
    1TCM    cl2 1430   0.754   1.470   1.609
    1TCM     h1 1431   0.738   1.708   1.593
    1TCM    cl3 1432   0.920   1.668   1.743
    1TCM     c1 1433   5.018   3.205   0.306
    1TCM    cl1 1434   4.866   3.296   0.294
    1TCM    cl2 1435   5.100   3.205   0.148
    1TCM     h1 1436   5.084   3.253   0.382
    1TCM    cl3 1437   4.984   3.037   0.355
    1TCM     c1 1438   0.656   1.691   4.010
    1TCM    cl1 1439   0.708   1.854   3.965
    1TCM    cl2 1440   0.578   1.695   4.170
    1TCM     h1 1441   0.584   1.653   3.935
    1TCM    cl3 1442   0.797   1.583   4.017
    1TCM     c1 1443   0.952   0.778   0.436
    1TCM    cl1 1444   0.775   0.777   0.440
    1TCM    cl2 1445   1.015   0.694   0.580
    1TCM     h1 1446   0.987   0.725   0.345
    1TCM    cl3 1447   1.011   0.945   0.435
    1TCM     c1 1448   3.543   4.924   4.902
    1TCM    cl1 1449   3.643   4.997   5.029
    1TCM    cl2 1450   3.516   4.753   4.938
    1TCM     h1 1451   3.445   4.977   4.897
    1TCM    cl3 1452   3.626   4.939   4.745
    1TCM     c1 1453   3.106   3.931   3.630
    1TCM    cl1 1454   3.205   3.863   3.499
    1TCM    cl2 1455   3.209   3.961   3.773
    1TCM     h1 1456   3.061   4.026   3.597
    1TCM    cl3 1457   2.978   3.815   3.673
    1TCM     c1 1458   2.865   4.368   3.358
    1TCM    cl1 1459   2.774   4.282   3.231
    1TCM    cl2 1460   2.750   4.441   3.472
    1TCM     h1 1461   2.930   4.296   3.411
    1TCM    cl3 1462   2.964   4.495   3.283
    1TCM     c1 1463   3.485   1.377   2.713
    1TCM    cl1 1464   3.576   1.238   2.650
    1TCM    cl2 1465   3.401   1.459   2.579
    1TCM     h1 1466   3.411   1.342   2.788
    1TCM    cl3 1467   3.597   1.491   2.791
    1TCM     c1 1468   4.567   2.085   5.157
    1TCM    cl1 1469   4.683   2.217   5.181
    1TCM    cl2 1470   4.641   1.931   5.206
    1TCM     h1 1471   4.476   2.103   5.218
    1TCM    cl3 1472   4.522   2.077   4.985
    1TCM     c1 1473   3.209   2.198   0.774
    1TCM    cl1 1474   3.076   2.246   0.881
    1TCM    cl2 1475   3.286   2.344   0.707
    1TCM     h1 1476   3.284   2.140   0.832
    1TCM    cl3 1477   3.146   2.099   0.641
    1TCM     c1 1478   4.586   4.815   1.579
    1TCM    cl1 1479   4.556   4.673   1.477
    1TCM    cl2 1480   4.616   4.762   1.747
    1TCM     h1 1481   4.675   4.869   1.542
    1TCM    cl3 1482   4.445   4.922   1.575
    1TCM     c1 1483   4.666   0.741   3.253
    1TCM    cl1 1484   4.599   0.652   3.114
    1TCM    cl2 1485   4.637   0.648   3.401
    1TCM     h1 1486   4.775   0.754   3.238
    1TCM    cl3 1487   4.588   0.900   3.265
    1TCM     c1 1488   3.568   2.198   0.432
    1TCM    cl1 1489   3.403   2.233   0.487
    1TCM    cl2 1490   3.675   2.178   0.573
    1TCM     h1 1491   3.568   2.105   0.372
    1TCM    cl3 1492   3.627   2.333   0.332
    1TCM     c1 1493   1.762   0.145   2.724
    1TCM    cl1 1494   1.685   0.301   2.684
    1TCM    cl2 1495   1.745   0.113   2.898
    1TCM     h1 1496   1.713   0.064   2.666
    1TCM    cl3 1497   1.935   0.153   2.681
    1TCM     c1 1498   1.290   4.625   5.103
    1TCM    cl1 1499   1.350   4.608   4.936
    1TCM    cl2 1500   1.232   4.791   5.127
    1TCM     h1 1501   1.207   4.554   5.119
    1TCM    cl3 1502   1.421   4.591   5.217
    1TCM     c1 1503   5.121   0.296   4.508
    1TCM    cl1 1504   5.275   0.273   4.423
    1TCM    cl2 1505   5.149   0.287   4.684
    1TCM     h1 1506   5.078   0.394   4.482
    1TCM    cl3 1507   5.008   0.167   4.460
    1TCM     c1 1508   4.344   4.856   0.268
    1TCM    cl1 1509   4.280   4.996   0.179
    1TCM    cl2 1510   4.389   4.729   0.153
    1TCM     h1 1511   4.433   4.887   0.326
    1TCM    cl3 1512   4.220   4.795   0.379
    1TCM     c1 1513   0.699   2.625   3.991
    1TCM    cl1 1514   0.865   2.600   3.932
    1TCM    cl2 1515   0.590   2.511   3.910
    1TCM     h1 1516   0.696   2.607   4.101
    1TCM    cl3 1517   0.648   2.792   3.956
    1TCM     c1 1518   4.066   1.362   1.651
    1TCM    cl1 1519   4.059   1.517   1.738
    1TCM    cl2 1520   4.173   1.249   1.739
    1TCM     h1 1521   3.964   1.318   1.645
    1TCM    cl3 1522   4.129   1.388   1.487
    1TCM     c1 1523   1.426   4.873   0.384
    1TCM    cl1 1524   1.478   4.748   0.498
    1TCM    cl2 1525   1.354   4.796   0.240
    1TCM     h1 1526   1.350   4.938   0.432
    1TCM    cl3 1527   1.566   4.972   0.335
    1TCM     c1 1528   3.294   1.056   4.032
    1TCM    cl1 1529   3.374   1.179   3.931
    1TCM    cl2 1530   3.213   1.137   4.168
    1TCM     h1 1531   3.219   1.001   3.971
    1TCM    cl3 1532   3.415   0.942   4.094
    1TCM     c1 1533   4.659   3.545   3.697
    1TCM    cl1 1534   4.535   3.672   3.689
    1TCM    cl2 1535   4.579   3.386   3.715
    1TCM     h1 1536   4.719   3.545   3.604
    1TCM    cl3 1537   4.764   3.574   3.837
    1TCM     c1 1538   1.372   0.876   0.632
    1TCM    cl1 1539   1.484   0.757   0.701
    1TCM    cl2 1540   1.254   0.793   0.527
    1TCM     h1 1541   1.318   0.928   0.714
    1TCM    cl3 1542   1.463   0.995   0.536
    1TCM     c1 1543   1.175   2.021   1.092
    1TCM    cl1 1544   1.197   2.066   1.262
    1TCM    cl2 1545   1.026   1.926   1.074
    1TCM     h1 1546   1.168   2.113   1.030
    1TCM    cl3 1547   1.314   1.924   1.038
    1TCM     c1 1548   3.483   3.082   2.433
    1TCM    cl1 1549   3.516   3.230   2.340
    1TCM    cl2 1550   3.481   3.120   2.606
    1TCM     h1 1551   3.384   3.041   2.403
    1TCM    cl3 1552   3.609   2.961   2.399
    1TCM     c1 1553   3.238   3.567   2.839
    1TCM    cl1 1554   3.402   3.630   2.813
    1TCM    cl2 1555   3.203   3.562   3.013
    1TCM     h1 1556   3.165   3.632   2.788
    1TCM    cl3 1557   3.227   3.402   2.772
    1TCM     c1 1558   1.327   1.173   0.306
    1TCM    cl1 1559   1.289   1.014   0.376
    1TCM    cl2 1560   1.493   1.220   0.349
    1TCM     h1 1561   1.318   1.168   0.195
    1TCM    cl3 1562   1.213   1.294   0.369
    1TCM     c1 1563   3.040   0.211   0.873
    1TCM    cl1 1564   3.191   0.180   0.783
    1TCM    cl2 1565   3.072   0.196   1.048
    1TCM     h1 1566   3.004   0.314   0.851
    1TCM    cl3 1567   2.917   0.093   0.825
    1TCM     c1 1568   1.949   3.383   1.027
    1TCM    cl1 1569   1.952   3.505   0.897
    1TCM    cl2 1570   2.081   3.416   1.141
    1TCM     h1 1571   1.851   3.388   1.080
    1TCM    cl3 1572   1.969   3.221   0.957
    1TCM     c1 1573   2.971   3.803   2.008
    1TCM    cl1 1574   2.798   3.770   1.982
    1TCM    cl2 1575   3.045   3.856   1.855
    1TCM     h1 1576   2.982   3.884   2.084
    1TCM    cl3 1577   3.053   3.656   2.065
    1TCM     c1 1578   4.652   0.463   4.115
    1TCM    cl1 1579   4.545   0.331   4.060
    1TCM    cl2 1580   4.754   0.515   3.980
    1TCM     h1 1581   4.590   0.548   4.150
    1TCM    cl3 1582   4.754   0.405   4.248
    1TCM     c1 1583   4.659   2.996   4.795
    1TCM    cl1 1584   4.634   3.119   4.921
    1TCM    cl2 1585   4.832   2.988   4.754
    1TCM     h1 1586   4.624   2.898   4.832
    1TCM    cl3 1587   4.566   3.041   4.650
    1TCM     c1 1588   1.086   4.670   2.391
    1TCM    cl1 1589   1.216   4.675   2.270
    1TCM    cl2 1590   0.937   4.737   2.320
    1TCM     h1 1591   1.068   4.566   2.422
    1TCM    cl3 1592   1.132   4.768   2.532
    1TCM     c1 1593   5.144   0.239   0.364
    1TCM    cl1 1594   4.974   0.233   0.417
    1TCM    cl2 1595   5.150   0.245   0.187
    1TCM     h1 1596   5.192   0.329   0.406
    1TCM    cl3 1597   5.229   0.093   0.422
    1TCM     c1 1598   4.584   0.456   3.665
    1TCM    cl1 1599   4.485   0.575   3.578
    1TCM    cl2 1600   4.522   0.439   3.831
    1TCM     h1 1601   4.578   0.358   3.614
    1TCM    cl3 1602   4.753   0.511   3.670
    1TCM     c1 1603   3.620   5.113   4.456
    1TCM    cl1 1604   3.723   5.255   4.428
    1TCM    cl2 1605   3.670   4.981   4.348
    1TCM     h1 1606   3.630   5.080   4.562
    1TCM    cl3 1607   3.450   5.156   4.424
    1TCM     c1 1608   1.490   1.892   1.634
    1TCM    cl1 1609   1.390   2.035   1.603
    1TCM    cl2 1610   1.390   1.745   1.618
    1TCM     h1 1611   1.574   1.888   1.561
    1TCM    cl3 1612   1.557   1.900   1.799
    1TCM     c1 1613   5.273   0.197   1.429
    1TCM    cl1 1614   5.340   0.102   1.295
    1TCM    cl2 1615   5.112   0.133   1.472
    1TCM     h1 1616   5.340   0.189   1.517
    1TCM    cl3 1617   5.258   0.367   1.380
    1TCM     c1 1618   3.284   1.788   2.767
    1TCM    cl1 1619   3.404   1.879   2.672
    1TCM    cl2 1620   3.344   1.769   2.934
    1TCM     h1 1621   3.188   1.843   2.768
    1TCM    cl3 1622   3.261   1.628   2.694
    1TCM     c1 1623   3.687   0.331   0.547
    1TCM    cl1 1624   3.859   0.328   0.593
    1TCM    cl2 1625   3.672   0.324   0.370
    1TCM     h1 1626   3.635   0.243   0.592
    1TCM    cl3 1627   3.612   0.480   0.608
    1TCM     c1 1628   0.704   1.398   1.988
    1TCM    cl1 1629   0.816   1.452   2.115
    1TCM    cl2 1630   0.656   1.229   2.019
    1TCM     h1 1631   0.614   1.462   1.988
    1TCM    cl3 1632   0.784   1.409   1.829
    1TCM     c1 1633   2.798   3.845   1.351
    1TCM    cl1 1634   2.827   3.833   1.176
    1TCM    cl2 1635   2.700   3.706   1.404
    1TCM     h1 1636   2.895   3.845   1.405
    1TCM    cl3 1637   2.710   3.996   1.386
    1TCM     c1 1638   2.373   2.555   4.431
    1TCM    cl1 1639   2.475   2.411   4.448
    1TCM    cl2 1640   2.360   2.599   4.259
    1TCM     h1 1641   2.272   2.535   4.471
    1TCM    cl3 1642   2.446   2.690   4.521
    1TCM     c1 1643   0.600   2.297   0.888
    1TCM    cl1 1644   0.444   2.303   0.802
    1TCM    cl2 1645   0.586   2.388   1.041
    1TCM     h1 1646   0.626   2.192   0.910
    1TCM    cl3 1647   0.726   2.370   0.787
    1TCM     c1 1648   2.580   0.501   1.648
    1TCM    cl1 1649   2.436   0.456   1.553
    1TCM    cl2 1650   2.705   0.377   1.626
    1TCM     h1 1651   2.618   0.599   1.613
    1TCM    cl3 1652   2.536   0.512   1.820
    1TCM     c1 1653   2.468   3.652   0.130
    1TCM    cl1 1654   2.582   3.538   0.055
    1TCM    cl2 1655   2.518   3.684   0.298
    1TCM     h1 1656   2.467   3.747   0.073
    1TCM    cl3 1657   2.304   3.581   0.130
    1TCM     c1 1658   0.161   3.455   4.973
    1TCM    cl1 1659   0.036   3.340   5.028
    1TCM    cl2 1660   0.131   3.498   4.803
    1TCM     h1 1661   0.157   3.546   5.036
    1TCM    cl3 1662   0.321   3.380   4.988
    1TCM     c1 1663   3.821   1.879   1.757
    1TCM    cl1 1664   3.716   1.953   1.880
    1TCM    cl2 1665   3.880   1.722   1.816
    1TCM     h1 1666   3.763   1.864   1.663
    1TCM    cl3 1667   3.960   1.986   1.724
    1TCM     c1 1668   2.257   2.836   2.758
    1TCM    cl1 1669   2.396   2.768   2.670
    1TCM    cl2 1670   2.305   2.875   2.924
    1TCM     h1 1671   2.222   2.928   2.706
    1TCM    cl3 1672   2.125   2.717   2.761
    1TCM     c1 1673   4.483   2.874   0.737
    1TCM    cl1 1674   4.381   2.971   0.628
    1TCM    cl2 1675   4.628   2.819   0.649
    1TCM     h1 1676   4.515   2.936   0.823
    1TCM    cl3 1677   4.392   2.733   0.795
    1TCM     c1 1678   5.120   4.272   1.769
    1TCM    cl1 1679   5.238   4.388   1.832
    1TCM    cl2 1680   4.966   4.290   1.857
    1TCM     h1 1681   5.103   4.290   1.661
    1TCM    cl3 1682   5.181   4.106   1.792
    1TCM     c1 1683   3.260   1.695   3.767
    1TCM    cl1 1684   3.345   1.817   3.670
    1TCM    cl2 1685   3.197   1.771   3.915
    1TCM     h1 1686   3.176   1.653   3.709
    1TCM    cl3 1687   3.373   1.565   3.811
    1TCM     c1 1688   0.916   3.798   2.442
    1TCM    cl1 1689   0.917   3.629   2.497
    1TCM    cl2 1690   0.902   3.802   2.264
    1TCM     h1 1691   0.830   3.851   2.487
    1TCM    cl3 1692   1.067   3.878   2.491
    1TCM     c1 1693   2.998   4.107   2.301
    1TCM    cl1 1694   2.847   4.197   2.327
    1TCM    cl2 1695   3.109   4.138   2.436
    1TCM     h1 1696   2.975   3.998   2.296
    1TCM    cl3 1697   3.074   4.159   2.149
    1TCM     c1 1698   1.326   3.005   2.376
    1TCM    cl1 1699   1.350   3.181   2.371
    1TCM    cl2 1700   1.398   2.940   2.525
    1TCM     h1 1701   1.217   2.983   2.375
    1TCM    cl3 1702   1.403   2.930   2.235
    1TCM     c1 1703   4.606   0.163   5.169
    1TCM    cl1 1704   4.768   0.138   5.100
    1TCM    cl2 1705   4.622   0.222   5.336
    1TCM     h1 1706   4.551   0.238   5.108
    1TCM    cl3 1707   4.517   0.010   5.168
    1TCM     c1 1708   4.160   4.921   2.455
    1TCM    cl1 1709   4.227   5.070   2.386
    1TCM    cl2 1710   4.084   4.826   2.325
    1TCM     h1 1711   4.240   4.862   2.502
    1TCM    cl3 1712   4.037   4.962   2.577
    1TCM     c1 1713   1.418   5.049   3.099
    1TCM    cl1 1714   1.511   4.997   2.957
    1TCM    cl2 1715   1.514   5.019   3.246
    1TCM     h1 1716   1.395   5.157   3.091
    1TCM    cl3 1717   1.266   4.956   3.107
    1TCM     c1 1718   3.400   4.944   3.805
    1TCM    cl1 1719   3.503   4.814   3.872
    1TCM    cl2 1720   3.377   4.918   3.631
    1TCM     h1 1721   3.302   4.943   3.857
    1TCM    cl3 1722   3.479   5.101   3.832
    1TCM     c1 1723   3.631   2.193   4.865
    1TCM    cl1 1724   3.718   2.038   4.862
    1TCM    cl2 1725   3.725   2.315   4.776
    1TCM     h1 1726   3.531   2.181   4.817
    1TCM    cl3 1727   3.609   2.246   5.034
    1TCM     c1 1728   4.897   4.250   2.554
    1TCM    cl1 1729   4.992   4.362   2.454
    1TCM    cl2 1730   4.725   4.261   2.509
    1TCM     h1 1731   4.933   4.146   2.537
    1TCM    cl3 1732   4.916   4.293   2.725
    1TCM     c1 1733   5.062   3.151   2.482
    1TCM    cl1 1734   5.210   3.060   2.443
    1TCM    cl2 1735   5.083   3.231   2.639
    1TCM     h1 1736   5.044   3.228   2.404
    1TCM    cl3 1737   4.924   3.040   2.489
    1TCM     c1 1738   1.454   2.302   0.931
    1TCM    cl1 1739   1.563   2.324   0.793
    1TCM    cl2 1740   1.550   2.291   1.081
    1TCM     h1 1741   1.384   2.388   0.938
    1TCM    cl3 1742   1.361   2.152   0.910
    1TCM     c1 1743   1.121   1.984   4.091
    1TCM    cl1 1744   1.240   2.104   4.036
    1TCM    cl2 1745   1.197   1.824   4.098
    1TCM     h1 1746   1.085   2.012   4.193
    1TCM    cl3 1747   0.984   1.980   3.978
    1TCM     c1 1748   4.138   3.546   1.325
    1TCM    cl1 1749   3.978   3.488   1.274
    1TCM    cl2 1750   4.151   3.536   1.502
    1TCM     h1 1751   4.216   3.483   1.278
    1TCM    cl3 1752   4.159   3.715   1.273
    1TCM     c1 1753   0.264   5.157   2.144
    1TCM    cl1 1754   0.166   5.239   2.268
    1TCM    cl2 1755   0.336   5.279   2.036
    1TCM     h1 1756   0.345   5.099   2.193
    1TCM    cl3 1757   0.162   5.048   2.049
    1TCM     c1 1758   1.337   2.534   1.765
    1TCM    cl1 1759   1.246   2.683   1.800
    1TCM    cl2 1760   1.403   2.543   1.600
    1TCM     h1 1761   1.420   2.524   1.838
    1TCM    cl3 1762   1.228   2.394   1.778
    1TCM     c1 1763   0.834   2.293   4.090
    1TCM    cl1 1764   0.699   2.296   3.973
    1TCM    cl2 1765   0.800   2.408   4.222
    1TCM     h1 1766   0.845   2.191   4.131
    1TCM    cl3 1767   0.984   2.340   4.008
    1TCM     c1 1768   1.112   0.891   5.177
    1TCM    cl1 1769   1.018   0.937   5.034
    1TCM    cl2 1770   1.003   0.828   5.303
    1TCM     h1 1771   1.186   0.812   5.150
    1TCM    cl3 1772   1.199   1.033   5.240
    1TCM     c1 1773   3.673   2.979   0.977
    1TCM    cl1 1774   3.743   3.139   0.947
    1TCM    cl2 1775   3.742   2.911   1.126
    1TCM     h1 1776   3.563   2.988   0.988
    1TCM    cl3 1777   3.710   2.872   0.840
    1TCM     c1 1778   3.692   4.988   3.016
    1TCM    cl1 1779   3.706   5.076   3.170
    1TCM    cl2 1780   3.692   5.104   2.882
    1TCM     h1 1781   3.779   4.919   3.005
    1TCM    cl3 1782   3.541   4.894   3.015
    1TCM     c1 1783   4.635   3.207   5.170
    1TCM    cl1 1784   4.612   3.254   5.340
    1TCM    cl2 1785   4.514   3.291   5.069
    1TCM     h1 1786   4.737   3.236   5.137
    1TCM    cl3 1787   4.614   3.032   5.153
    1TCM     c1 1788   4.470   2.825   2.964
    1TCM    cl1 1789   4.462   3.001   2.944
    1TCM    cl2 1790   4.315   2.753   2.914
    1TCM     h1 1791   4.552   2.784   2.902
    1TCM    cl3 1792   4.500   2.786   3.135
    1TCM     c1 1793   2.310   4.561   3.545
    1TCM    cl1 1794   2.157   4.629   3.486
    1TCM    cl2 1795   2.286   4.390   3.590
    1TCM     h1 1796   2.386   4.567   3.464
    1TCM    cl3 1797   2.365   4.652   3.687
    1TCM     c1 1798   3.550   2.259   0.943
    1TCM    cl1 1799   3.431   2.178   1.048
    1TCM    cl2 1800   3.714   2.226   1.003
    1TCM     h1 1801   3.540   2.220   0.839
    1TCM    cl3 1802   3.520   2.434   0.943
    1TCM     c1 1803   2.464   1.970   2.687
    1TCM    cl1 1804   2.397   1.810   2.647
    1TCM    cl2 1805   2.372   2.040   2.822
    1TCM     h1 1806   2.570   1.959   2.716
    1TCM    cl3 1807   2.451   2.076   2.545
    1TCM     c1 1808   2.933   2.906   3.439
    1TCM    cl1 1809   3.053   2.920   3.309
    1TCM    cl2 1810   2.920   3.060   3.526
    1TCM     h1 1811   2.834   2.879   3.396
    1TCM    cl3 1812   2.984   2.778   3.552
    1TCM     c1 1813   5.032   1.897   1.673
    1TCM    cl1 1814   5.135   1.934   1.533
    1TCM    cl2 1815   4.865   1.870   1.618
    1TCM     h1 1816   5.069   1.805   1.723
    1TCM    cl3 1817   5.035   2.033   1.787
    1TCM     c1 1818   1.641   1.368   3.600
    1TCM    cl1 1819   1.732   1.352   3.751
    1TCM    cl2 1820   1.692   1.241   3.486
    1TCM     h1 1821   1.532   1.357   3.621
    1TCM    cl3 1822   1.671   1.528   3.528
    1TCM     c1 1823   3.429   4.200   2.233
    1TCM    cl1 1824   3.577   4.275   2.296
    1TCM    cl2 1825   3.292   4.243   2.337
    1TCM     h1 1826   3.410   4.236   2.129
    1TCM    cl3 1827   3.449   4.023   2.231
    1TCM     c1 1828   2.077   3.595   0.491
    1TCM    cl1 1829   1.954   3.497   0.574
    1TCM    cl2 1830   2.013   3.652   0.335
    1TCM     h1 1831   2.103   3.683   0.554
    1TCM    cl3 1832   2.222   3.497   0.463
    1TCM     c1 1833   4.625   2.136   3.230
    1TCM    cl1 1834   4.734   2.245   3.142
    1TCM    cl2 1835   4.619   2.183   3.401
    1TCM     h1 1836   4.523   2.142   3.186
    1TCM    cl3 1837   4.685   1.969   3.217
    1TCM     c1 1838   2.433   3.885   1.380
    1TCM    cl1 1839   2.467   3.991   1.519
    1TCM    cl2 1840   2.478   3.968   1.229
    1TCM     h1 1841   2.492   3.791   1.389
    1TCM    cl3 1842   2.259   3.846   1.376
    1TCM     c1 1843   1.056   4.940   4.738
    1TCM    cl1 1844   0.957   4.792   4.743
    1TCM    cl2 1845   1.198   4.921   4.843
    1TCM     h1 1846   1.089   4.959   4.633
    1TCM    cl3 1847   0.959   5.078   4.794
    1TCM     c1 1848   3.663   3.197   3.694
    1TCM    cl1 1849   3.496   3.256   3.678
    1TCM    cl2 1850   3.739   3.272   3.837
    1TCM     h1 1851   3.663   3.087   3.705
    1TCM    cl3 1852   3.756   3.242   3.549
    1TCM     c1 1853   3.752   3.867   1.262
    1TCM    cl1 1854   3.926   3.839   1.242
    1TCM    cl2 1855   3.687   3.945   1.116
    1TCM     h1 1856   3.701   3.770   1.278
    1TCM    cl3 1857   3.725   3.973   1.403
    1TCM     c1 1858   2.545   1.290   3.970
    1TCM    cl1 1859   2.442   1.183   3.872
    1TCM    cl2 1860   2.446   1.423   4.036
    1TCM     h1 1861   2.589   1.232   4.054
    1TCM    cl3 1862   2.675   1.356   3.870
    1TCM     c1 1863   2.107   3.645   4.858
    1TCM    cl1 1864   2.083   3.553   5.008
    1TCM    cl2 1865   2.096   3.536   4.718
    1TCM     h1 1866   2.029   3.724   4.850
    1TCM    cl3 1867   2.268   3.722   4.861
    1TCM     c1 1868   4.316   3.857   3.203
    1TCM    cl1 1869   4.467   3.885   3.113
    1TCM    cl2 1870   4.354   3.779   3.359
    1TCM     h1 1871   4.266   3.954   3.221
    1TCM    cl3 1872   4.209   3.751   3.108
    1TCM     c1 1873   2.474   5.225   4.714
    1TCM    cl1 1874   2.599   5.336   4.774
    1TCM    cl2 1875   2.495   5.202   4.539
    1TCM     h1 1876   2.483   5.127   4.765
    1TCM    cl3 1877   2.313   5.294   4.745
    1TCM     c1 1878   3.090   1.595   4.989
    1TCM    cl1 1879   3.054   1.590   5.163
    1TCM    cl2 1880   2.953   1.527   4.898
    1TCM     h1 1881   3.107   1.700   4.957
    1TCM    cl3 1882   3.236   1.499   4.956
    1TCM     c1 1883   0.663   0.592   4.153
    1TCM    cl1 1884   0.834   0.548   4.135
    1TCM    cl2 1885   0.573   0.541   4.008
    1TCM     h1 1886   0.621   0.541   4.242
    1TCM    cl3 1887   0.648   0.768   4.173
    1TCM     c1 1888   3.569   0.893   2.034
    1TCM    cl1 1889   3.545   1.046   2.121
    1TCM    cl2 1890   3.671   0.921   1.891
    1TCM     h1 1891   3.619   0.820   2.101
    1TCM    cl3 1892   3.412   0.828   1.983
    1TCM     c1 1893   2.842   0.132   2.573
    1TCM    cl1 1894   2.962   0.000   2.566
    1TCM    cl2 1895   2.705   0.092   2.467
    1TCM     h1 1896   2.807   0.144   2.677
    1TCM    cl3 1897   2.917   0.283   2.517
    1TCM     c1 1898   2.693   4.530   2.472
    1TCM    cl1 1899   2.625   4.693   2.455
    1TCM    cl2 1900   2.841   4.538   2.571
    1TCM     h1 1901   2.619   4.464   2.521
    1TCM    cl3 1902   2.734   4.466   2.311
    1TCM     c1 1903   0.885   1.052   2.201
    1TCM    cl1 1904   0.898   0.883   2.146
    1TCM    cl2 1905   0.977   1.072   2.352
    1TCM     h1 1906   0.925   1.119   2.124
    1TCM    cl3 1907   0.714   1.091   2.231
    1TCM     c1 1908   2.419   4.315   3.197
    1TCM    cl1 1909   2.430   4.266   3.026
    1TCM    cl2 1910   2.461   4.488   3.211
    1TCM     h1 1911   2.315   4.299   3.233
    1TCM    cl3 1912   2.532   4.219   3.294
    1TCM     c1 1913   4.231   1.855   4.780
    1TCM    cl1 1914   4.197   1.906   4.613
    1TCM    cl2 1915   4.295   1.993   4.872
    1TCM     h1 1916   4.137   1.820   4.827
    1TCM    cl3 1917   4.350   1.724   4.778
    1TCM     c1 1918   0.293   0.555   0.343
    1TCM    cl1 1919   0.468   0.543   0.372
    1TCM    cl2 1920   0.225   0.679   0.451
    1TCM     h1 1921   0.275   0.583   0.238
    1TCM    cl3 1922   0.217   0.398   0.377
    1TCM     c1 1923   3.911   3.877   5.118
    1TCM    cl1 1924   3.762   3.949   5.052
    1TCM    cl2 1925   3.895   3.860   5.294
    1TCM     h1 1926   3.927   3.777   5.072
    1TCM    cl3 1927   4.049   3.982   5.081
    1TCM     c1 1928   1.972   2.400   2.734
    1TCM    cl1 1929   2.025   2.239   2.679
    1TCM    cl2 1930   2.020   2.522   2.613
    1TCM     h1 1931   1.862   2.401   2.745
    1TCM    cl3 1932   2.049   2.438   2.889
    1TCM     c1 1933   2.180   4.195   1.568
    1TCM    cl1 1934   2.195   4.024   1.520
    1TCM    cl2 1935   2.254   4.218   1.728
    1TCM     h1 1936   2.231   4.259   1.494
    1TCM    cl3 1937   2.007   4.239   1.576
    1TCM     c1 1938   4.081   3.616   1.898
    1TCM    cl1 1939   4.151   3.549   2.047
    1TCM    cl2 1940   4.095   3.497   1.767
    1TCM     h1 1941   3.974   3.641   1.915
    1TCM    cl3 1942   4.169   3.764   1.853
    1TCM     c1 1943   2.581   4.675   0.641
    1TCM    cl1 1944   2.516   4.803   0.745
    1TCM    cl2 1945   2.600   4.737   0.475
    1TCM     h1 1946   2.680   4.643   0.680
    1TCM    cl3 1947   2.470   4.536   0.640
    1TCM     c1 1948   2.794   2.388   4.699
    1TCM    cl1 1949   2.943   2.299   4.661
    1TCM    cl2 1950   2.780   2.411   4.874
    1TCM     h1 1951   2.796   2.487   4.648
    1TCM    cl3 1952   2.654   2.295   4.641
    1TCM     c1 1953   1.561   3.352   2.679
    1TCM    cl1 1954   1.512   3.215   2.577
    1TCM    cl2 1955   1.585   3.295   2.846
    1TCM     h1 1956   1.655   3.395   2.641
    1TCM    cl3 1957   1.433   3.476   2.677
    1TCM     c1 1958   0.702   4.163   4.956
    1TCM    cl1 1959   0.773   4.292   5.056
    1TCM    cl2 1960   0.601   4.235   4.828
    1TCM     h1 1961   0.784   4.104   4.909
    1TCM    cl3 1962   0.603   4.056   5.057
    1TCM     c1 1963   0.297   2.386   1.742
    1TCM    cl1 1964   0.331   2.497   1.607
    1TCM    cl2 1965   0.298   2.476   1.895
    1TCM     h1 1966   0.197   2.339   1.727
    1TCM    cl3 1967   0.421   2.259   1.747
    1TCM     c1 1968   4.464   1.014   4.258
    1TCM    cl1 1969   4.536   0.940   4.113
    1TCM    cl2 1970   4.553   1.163   4.298
    1TCM     h1 1971   4.358   1.039   4.237
    1TCM    cl3 1972   4.473   0.900   4.394
    1TCM     c1 1973   3.983   1.135   0.472
    1TCM    cl1 1974   4.022   1.270   0.365
    1TCM    cl2 1975   3.997   0.982   0.382
    1TCM     h1 1976   4.053   1.133   0.558
    1TCM    cl3 1977   3.816   1.153   0.533
    1TCM     c1 1978   1.925   1.747   3.940
    1TCM    cl1 1979   1.858   1.867   4.052
    1TCM    cl2 1980   2.068   1.815   3.859
    1TCM     h1 1981   1.954   1.656   3.996
    1TCM    cl3 1982   1.803   1.705   3.818
    1TCM     c1 1983   0.344   1.844   2.051
    1TCM    cl1 1984   0.171   1.878   2.033
    1TCM    cl2 1985   0.393   1.872   2.220
    1TCM     h1 1986   0.364   1.738   2.024
    1TCM    cl3 1987   0.437   1.950   1.943
    1TCM     c1 1988   1.704   0.590   3.403
    1TCM    cl1 1989   1.573   0.581   3.283
    1TCM    cl2 1990   1.637   0.562   3.565
    1TCM     h1 1991   1.780   0.513   3.380
    1TCM    cl3 1992   1.779   0.752   3.397
    1TCM     c1 1993   2.286   4.165   1.181
    1TCM    cl1 1994   2.428   4.216   1.275
    1TCM    cl2 1995   2.317   4.190   1.008
    1TCM     h1 1996   2.266   4.057   1.199
    1TCM    cl3 1997   2.144   4.260   1.231
    1TCM     c1 1998   3.474   1.756   4.310
    1TCM    cl1 1999   3.576   1.789   4.169
    1TCM    cl2 2000   3.516   1.870   4.441
    1TCM     h1 2001   3.367   1.769   4.282
    1TCM    cl3 2002   3.501   1.589   4.366
    1TCM     c1 2003   2.229   3.770   4.186
    1TCM    cl1 2004   2.267   3.876   4.048
    1TCM    cl2 2005   2.309   3.832   4.332
    1TCM     h1 2006   2.119   3.768   4.202
    1TCM    cl3 2007   2.288   3.606   4.152
    1TCM     c1 2008   3.157   0.980   4.949
    1TCM    cl1 2009   3.216   1.134   4.881
    1TCM    cl2 2010   3.193   0.974   5.123
    1TCM     h1 2011   3.047   0.973   4.934
    1TCM    cl3 2012   3.237   0.845   4.866
    1TCM     c1 2013   3.163   2.839   2.414
    1TCM    cl1 2014   3.213   2.944   2.280
    1TCM    cl2 2015   3.266   2.869   2.555
    1TCM     h1 2016   3.057   2.860   2.440
    1TCM    cl3 2017   3.178   2.668   2.364
    1TCM     c1 2018   4.712   4.226   0.886
    1TCM    cl1 2019   4.745   4.303   0.729
    1TCM    cl2 2020   4.801   4.311   1.014
    1TCM     h1 2021   4.603   4.231   0.906
    1TCM    cl3 2022   4.763   4.056   0.880
    1TCM     c1 2023   2.168   2.884   4.402
    1TCM    cl1 2024   2.151   2.867   4.578
    1TCM    cl2 2025   2.116   2.733   4.323
    1TCM     h1 2026   2.104   2.967   4.367
    1TCM    cl3 2027   2.337   2.917   4.361
    1TCM     c1 2028   2.640   4.165   4.448
    1TCM    cl1 2029   2.492   4.129   4.356
    1TCM    cl2 2030   2.625   4.098   4.612
    1TCM     h1 2031   2.727   4.118   4.397
    1TCM    cl3 2032   2.663   4.341   4.457
    1TCM     c1 2033   4.446   5.187   2.610
    1TCM    cl1 2034   4.444   5.082   2.754
    1TCM    cl2 2035   4.280   5.215   2.554
    1TCM     h1 2036   4.493   5.284   2.636
    1TCM    cl3 2037   4.540   5.108   2.481
    1TCM     c1 2038   1.757   3.632   2.145
    1TCM    cl1 2039   1.635   3.761   2.149
    1TCM    cl2 2040   1.819   3.615   1.980
    1TCM     h1 2041   1.840   3.657   2.214
    1TCM    cl3 2042   1.682   3.479   2.197
    1TCM     c1 2043   3.408   0.856   1.040
    1TCM    cl1 2044   3.482   0.899   0.884
    1TCM    cl2 2045   3.317   0.704   1.022
    1TCM     h1 2046   3.487   0.843   1.116
    1TCM    cl3 2047   3.297   0.986   1.091
    1TCM     c1 2048   0.326   3.735   3.029
    1TCM    cl1 2049   0.302   3.823   2.876
    1TCM    cl2 2050   0.176   3.742   3.125
    1TCM     h1 2051   0.351   3.629   3.007
    1TCM    cl3 2052   0.458   3.811   3.121
    1TCM     c1 2053   2.951   2.721   4.867
    1TCM    cl1 2054   2.938   2.759   5.040
    1TCM    cl2 2055   2.792   2.672   4.805
    1TCM     h1 2056   2.986   2.811   4.812
    1TCM    cl3 2057   3.067   2.589   4.844
    1TCM     c1 2058   2.227   0.680   0.804
    1TCM    cl1 2059   2.259   0.831   0.893
    1TCM    cl2 2060   2.298   0.544   0.894
    1TCM     h1 2061   2.118   0.665   0.794
    1TCM    cl3 2062   2.302   0.689   0.643
    1TCM     c1 2063   2.934   0.263   2.236
    1TCM    cl1 2064   3.101   0.299   2.186
    1TCM    cl2 2065   2.867   0.402   2.325
    1TCM     h1 2066   2.872   0.243   2.147
    1TCM    cl3 2067   2.934   0.120   2.342
    1TCM     c1 2068   1.813   3.562   4.656
    1TCM    cl1 2069   1.783   3.667   4.796
    1TCM    cl2 2070   1.865   3.402   4.711
    1TCM     h1 2071   1.719   3.553   4.596
    1TCM    cl3 2072   1.940   3.635   4.554
    1TCM     c1 2073   0.809   2.869   0.842
    1TCM    cl1 2074   0.952   2.822   0.938
    1TCM    cl2 2075   0.668   2.776   0.896
    1TCM     h1 2076   0.790   2.977   0.855
    1TCM    cl3 2077   0.840   2.836   0.670
    1TCM     c1 2078   2.978   0.287   3.389
    1TCM    cl1 2079   3.154   0.278   3.417
    1TCM    cl2 2080   2.928   0.153   3.285
    1TCM     h1 2081   2.925   0.281   3.487
    1TCM    cl3 2082   2.939   0.442   3.310
    1TCM     c1 2083   2.047   3.062   1.171
    1TCM    cl1 2084   1.983   2.924   1.080
    1TCM    cl2 2085   2.151   3.159   1.064
    1TCM     h1 2086   1.963   3.125   1.207
    1TCM    cl3 2087   2.142   3.004   1.309
    1TCM     c1 2088   3.125   5.183   4.032
    1TCM    cl1 2089   3.074   5.040   3.939
    1TCM    cl2 2090   3.150   5.138   4.202
    1TCM     h1 2091   3.221   5.222   3.990
    1TCM    cl3 2092   3.000   5.309   4.021
    1TCM     c1 2093   0.263   0.391   4.214
    1TCM    cl1 2094   0.090   0.433   4.215
    1TCM    cl2 2095   0.343   0.465   4.355
    1TCM     h1 2096   0.274   0.280   4.220
    1TCM    cl3 2097   0.338   0.450   4.065
    1TCM     c1 2098   2.438   2.615   3.976
    1TCM    cl1 2099   2.288   2.690   4.034
    1TCM    cl2 2100   2.424   2.581   3.802
    1TCM     h1 2101   2.523   2.684   3.994
    1TCM    cl3 2102   2.467   2.463   4.064
    1TCM     c1 2103   0.749   1.491   0.246
    1TCM    cl1 2104   0.890   1.468   0.140
    1TCM    cl2 2105   0.662   1.337   0.265
    1TCM     h1 2106   0.783   1.526   0.346
    1TCM    cl3 2107   0.640   1.612   0.174
    1TCM     c1 2108   4.660   2.981   1.942
    1TCM    cl1 2109   4.609   3.138   2.008
    1TCM    cl2 2110   4.810   2.929   2.023
    1TCM     h1 2111   4.580   2.906   1.960
    1TCM    cl3 2112   4.689   2.996   1.768
    1TCM     c1 2113   3.133   3.242   0.591
    1TCM    cl1 2114   3.072   3.135   0.718
    1TCM    cl2 2115   3.187   3.395   0.663
    1TCM     h1 2116   3.219   3.194   0.539
    1TCM    cl3 2117   3.004   3.274   0.473
    1TCM     c1 2118   2.600   4.883   1.572
    1TCM    cl1 2119   2.553   4.752   1.460
    1TCM    cl2 2120   2.483   4.891   1.705
    1TCM     h1 2121   2.701   4.862   1.612
    1TCM    cl3 2122   2.601   5.038   1.485
    1TCM     c1 2123   2.698   4.028   4.890
    1TCM    cl1 2124   2.753   4.197   4.893
    1TCM    cl2 2125   2.767   3.946   4.748
    1TCM     h1 2126   2.732   3.976   4.982
    1TCM    cl3 2127   2.521   4.023   4.880
    1TCM     c1 2128   3.993   3.979   2.717
    1TCM    cl1 2129   4.058   3.831   2.792
    1TCM    cl2 2130   3.907   3.937   2.568
    1TCM     h1 2131   3.923   4.028   2.788
    1TCM    cl3 2132   4.127   4.089   2.680
    1TCM     c1 2133   2.338   1.584   2.480
    1TCM    cl1 2134   2.181   1.662   2.451
    1TCM    cl2 2135   2.467   1.706   2.465
    1TCM     h1 2136   2.340   1.540   2.581
    1TCM    cl3 2137   2.364   1.456   2.359
    1TCM     c1 2138   4.915   2.361   0.673
    1TCM    cl1 2139   4.779   2.354   0.560
    1TCM    cl2 2140   4.854   2.359   0.840
    1TCM     h1 2141   4.981   2.273   0.657
    1TCM    cl3 2142   5.008   2.510   0.646
    1TCM     c1 2143   4.216   0.594   3.229
    1TCM    cl1 2144   4.320   0.500   3.338
    1TCM    cl2 2145   4.148   0.487   3.104
    1TCM     h1 2146   4.134   0.640   3.287
    1TCM    cl3 2147   4.312   0.722   3.151
    1TCM     c1 2148   4.854   2.336   0.137
    1TCM    cl1 2149   4.898   2.425   0.285
    1TCM    cl2 2150   4.737   2.209   0.177
    1TCM     h1 2151   4.809   2.407   0.064
    1TCM    cl3 2152   5.000   2.263   0.067
    1TCM     c1 2153   3.414   1.228   1.053
    1TCM    cl1 2154   3.277   1.208   1.164
    1TCM    cl2 2155   3.375   1.152   0.897
    1TCM     h1 2156   3.433   1.336   1.038
    1TCM    cl3 2157   3.558   1.151   1.122
    1TCM     c1 2158   2.711   4.385   4.708
    1TCM    cl1 2159   2.709   4.521   4.593
    1TCM    cl2 2160   2.796   4.247   4.635
    1TCM     h1 2161   2.764   4.416   4.800
    1TCM    cl3 2162   2.545   4.338   4.747
    1TCM     c1 2163   1.550   5.270   0.626
    1TCM    cl1 2164   1.641   5.336   0.764
    1TCM    cl2 2165   1.615   5.337   0.475
    1TCM     h1 2166   1.560   5.159   0.624
    1TCM    cl3 2167   1.379   5.314   0.641
    1TCM     c1 2168   1.419   3.307   4.507
    1TCM    cl1 2169   1.559   3.408   4.552
    1TCM    cl2 2170   1.466   3.194   4.378
    1TCM     h1 2171   1.384   3.250   4.596
    1TCM    cl3 2172   1.288   3.412   4.449
    1TCM     c1 2173   1.213   2.262   2.418
    1TCM    cl1 2174   1.382   2.238   2.469
    1TCM    cl2 2175   1.207   2.284   2.242
    1TCM     h1 2176   1.153   2.174   2.447
    1TCM    cl3 2177   1.148   2.407   2.498
    1TCM     c1 2178   1.290   1.312   0.722
    1TCM    cl1 2179   1.168   1.409   0.637
    1TCM    cl2 2180   1.400   1.237   0.604
    1TCM     h1 2181   1.349   1.377   0.790
    1TCM    cl3 2182   1.209   1.185   0.817
    1TCM     c1 2183   0.355   5.212   3.235
    1TCM    cl1 2184   0.226   5.091   3.213
    1TCM    cl2 2185   0.337   5.340   3.112
    1TCM     h1 2186   0.347   5.257   3.336
    1TCM    cl3 2187   0.513   5.134   3.217
    1TCM     c1 2188   2.808   3.987   0.347
    1TCM    cl1 2189   2.897   3.945   0.495
    1TCM    cl2 2190   2.798   3.845   0.241
    1TCM     h1 2191   2.705   4.021   0.373
    1TCM    cl3 2192   2.893   4.118   0.262
    1TCM     c1 2193   5.140   1.812   0.805
    1TCM    cl1 2194   5.182   1.861   0.639
    1TCM    cl2 2195   5.057   1.655   0.802
    1TCM     h1 2196   5.233   1.804   0.865
    1TCM    cl3 2197   5.032   1.934   0.877
    1TCM     c1 2198   3.253   4.785   4.098
    1TCM    cl1 2199   3.375   4.697   4.193
    1TCM    cl2 2200   3.243   4.715   3.935
    1TCM     h1 2201   3.154   4.777   4.148
    1TCM    cl3 2202   3.299   4.957   4.087
    1TCM     c1 2203   0.407   3.246   3.440
    1TCM    cl1 2204   0.380   3.341   3.588
    1TCM    cl2 2205   0.379   3.074   3.474
    1TCM     h1 2206   0.337   3.280   3.361
    1TCM    cl3 2207   0.574   3.269   3.385
    1TCM     c1 2208   2.920   0.536   1.946
    1TCM    cl1 2209   2.816   0.680   1.959
    1TCM    cl2 2210   2.840   0.415   1.843
    1TCM     h1 2211   3.017   0.564   1.902
    1TCM    cl3 2212   2.946   0.467   2.108
    1TCM     c1 2213   4.855   5.009   4.337
    1TCM    cl1 2214   4.878   4.907   4.481
    1TCM    cl2 2215   4.812   5.174   4.386
    1TCM     h1 2216   4.949   5.011   4.278
    1TCM    cl3 2217   4.724   4.941   4.237
    1TCM     c1 2218   4.040   0.993   2.040
    1TCM    cl1 2219   4.178   0.888   1.999
    1TCM    cl2 2220   3.993   0.965   2.209
    1TCM     h1 2221   4.069   1.099   2.027
    1TCM    cl3 2222   3.904   0.955   1.933
    1TCM     c1 2223   2.326   4.771   2.426
    1TCM    cl1 2224   2.372   4.633   2.325
    1TCM    cl2 2225   2.377   4.741   2.594
    1TCM     h1 2226   2.375   4.863   2.388
    1TCM    cl3 2227   2.149   4.792   2.421
    1TCM     c1 2228   2.266   2.609   0.887
    1TCM    cl1 2229   2.434   2.596   0.831
    1TCM    cl2 2230   2.171   2.702   0.769
    1TCM     h1 2231   2.223   2.507   0.897
    1TCM    cl3 2232   2.262   2.691   1.045
    1TCM     c1 2233   2.192   4.744   0.452
    1TCM    cl1 2234   2.353   4.718   0.523
    1TCM    cl2 2235   2.185   4.666   0.292
    1TCM     h1 2236   2.115   4.700   0.518
    1TCM    cl3 2237   2.162   4.918   0.434
    1TCM     c1 2238   3.671   1.128   2.389
    1TCM    cl1 2239   3.734   1.286   2.339
    1TCM    cl2 2240   3.722   1.004   2.272
    1TCM     h1 2241   3.712   1.103   2.490
    1TCM    cl3 2242   3.494   1.133   2.398
    1TCM     c1 2243   3.735   4.037   0.830
    1TCM    cl1 2244   3.910   4.065   0.850
    1TCM    cl2 2245   3.645   4.165   0.914
    1TCM     h1 2246   3.710   4.039   0.722
    1TCM    cl3 2247   3.692   3.879   0.899
    1TCM     c1 2248   1.699   4.334   2.145
    1TCM    cl1 2249   1.640   4.239   2.007
    1TCM    cl2 2250   1.816   4.239   2.238
    1TCM     h1 2251   1.747   4.427   2.108
    1TCM    cl3 2252   1.561   4.378   2.250
    1TCM     c1 2253   4.998   2.782   3.005
    1TCM    cl1 2254   5.104   2.924   3.002
    1TCM    cl2 2255   4.834   2.829   2.955
    1TCM     h1 2256   5.037   2.705   2.935
    1TCM    cl3 2257   4.993   2.715   3.170
    1TCM     c1 2258   1.570   1.320   2.217
    1TCM    cl1 2259   1.586   1.217   2.073
    1TCM    cl2 2260   1.603   1.223   2.362
    1TCM     h1 2261   1.643   1.403   2.211
    1TCM    cl3 2262   1.405   1.385   2.225
    1TCM     c1 2263   1.071   4.350   0.269
    1TCM    cl1 2264   1.214   4.244   0.260
    1TCM    cl2 2265   1.001   4.341   0.432
    1TCM     h1 2266   1.101   4.454   0.247
    1TCM    cl3 2267   0.951   4.296   0.150
    1TCM     c1 2268   3.130   2.629   0.939
    1TCM    cl1 2269   2.962   2.570   0.933
    1TCM    cl2 2270   3.187   2.628   1.107
    1TCM     h1 2271   3.194   2.562   0.878
    1TCM    cl3 2272   3.137   2.794   0.875
    1TCM     c1 2273   0.585   1.989   2.551
    1TCM    cl1 2274   0.554   2.036   2.382
    1TCM    cl2 2275   0.719   2.087   2.616
    1TCM     h1 2276   0.494   2.006   2.612
    1TCM    cl3 2277   0.629   1.817   2.558
    1TCM     c1 2278   2.626   0.765   4.984
    1TCM    cl1 2279   2.721   0.902   4.924
    1TCM    cl2 2280   2.455   0.812   4.997
    1TCM     h1 2281   2.636   0.680   4.913
    1TCM    cl3 2282   2.687   0.716   5.144
    1TCM     c1 2283   0.400   4.344   4.223
    1TCM    cl1 2284   0.428   4.313   4.396
    1TCM    cl2 2285   0.450   4.203   4.128
    1TCM     h1 2286   0.292   4.363   4.207
    1TCM    cl3 2287   0.494   4.486   4.172
    1TCM     c1 2288   5.018   4.041   1.522
    1TCM    cl1 2289   4.992   3.907   1.635
    1TCM    cl2 2290   4.951   3.997   1.363
    1TCM     h1 2291   4.968   4.132   1.560
    1TCM    cl3 2292   5.193   4.072   1.505
    1TCM     c1 2293   2.622   2.336   0.440
    1TCM    cl1 2294   2.560   2.463   0.332
    1TCM    cl2 2295   2.614   2.394   0.608
    1TCM     h1 2296   2.559   2.245   0.430
    1TCM    cl3 2297   2.790   2.299   0.398
    1TCM     c1 2298   3.365   2.471   2.174
    1TCM    cl1 2299   3.477   2.581   2.259
    1TCM    cl2 2300   3.221   2.561   2.122
    1TCM     h1 2301   3.416   2.428   2.086
    1TCM    cl3 2302   3.317   2.340   2.284
    1TCM     c1 2303   4.077   1.272   5.218
    1TCM    cl1 2304   4.087   1.142   5.097
    1TCM    cl2 2305   4.216   1.260   5.329
    1TCM     h1 2306   4.078   1.370   5.167
    1TCM    cl3 2307   3.926   1.255   5.311
    1TCM     c1 2308   1.072   2.085   4.499
    1TCM    cl1 2309   1.107   2.119   4.670
    1TCM    cl2 2310   0.958   1.949   4.488
    1TCM     h1 2311   1.027   2.175   4.452
    1TCM    cl3 2312   1.223   2.043   4.414
    1TCM     c1 2313   0.400   0.345   2.176
    1TCM    cl1 2314   0.437   0.511   2.125
    1TCM    cl2 2315   0.357   0.247   2.034
    1TCM     h1 2316   0.489   0.301   2.226
    1TCM    cl3 2317   0.263   0.346   2.290
    1TCM     c1 2318   3.883   0.422   1.121
    1TCM    cl1 2319   3.780   0.278   1.134
    1TCM    cl2 2320   3.872   0.488   0.956
    1TCM     h1 2321   3.848   0.499   1.194
    1TCM    cl3 2322   4.051   0.378   1.157
    1TCM     c1 2323   3.158   2.290   3.625
    1TCM    cl1 2324   3.297   2.190   3.673
    1TCM    cl2 2325   3.010   2.190   3.626
    1TCM     h1 2326   3.146   2.374   3.697
    1TCM    cl3 2327   3.185   2.355   3.462
    1TCM     c1 2328   3.761   2.865   3.551
    1TCM    cl1 2329   3.767   2.696   3.494
    1TCM    cl2 2330   3.819   2.973   3.423
    1TCM     h1 2331   3.656   2.891   3.577
    1TCM    cl3 2332   3.864   2.882   3.695
    1TCM     c1 2333   3.199   4.471   1.808
    1TCM    cl1 2334   3.231   4.386   1.961
    1TCM    cl2 2335   3.279   4.385   1.674
    1TCM     h1 2336   3.089   4.474   1.790
    1TCM    cl3 2337   3.262   4.637   1.818
    1TCM     c1 2338   0.535   1.327   4.199
    1TCM    cl1 2339   0.361   1.307   4.232
    1TCM    cl2 2340   0.626   1.199   4.282
    1TCM     h1 2341   0.553   1.321   4.090
    1TCM    cl3 2342   0.588   1.486   4.259
    1TCM     c1 2343   0.380   1.845   1.625
    1TCM    cl1 2344   0.354   1.772   1.785
    1TCM    cl2 2345   0.555   1.851   1.591
    1TCM     h1 2346   0.330   1.783   1.548
    1TCM    cl3 2347   0.313   2.010   1.623
    1TCM     c1 2348   0.127   2.895   1.369
    1TCM    cl1 2349   0.142   3.068   1.410
    1TCM    cl2 2350   0.289   2.826   1.345
    1TCM     h1 2351   0.076   2.842   1.452
    1TCM    cl3 2352   0.032   2.877   1.220
    1TCM     c1 2353   0.933   3.638   0.070
    1TCM    cl1 2354   0.767   3.648   0.007
    1TCM    cl2 2355   0.931   3.559   0.229
    1TCM     h1 2356   0.996   3.579   0.000
    1TCM    cl3 2357   1.000   3.802   0.087
    1TCM     c1 2358   3.761   1.325   1.432
    1TCM    cl1 2359   3.690   1.198   1.535
    1TCM    cl2 2360   3.890   1.255   1.332
    1TCM     h1 2361   3.682   1.368   1.367
    1TCM    cl3 2362   3.829   1.453   1.535
    1TCM     c1 2363   3.479   1.720   4.807
    1TCM    cl1 2364   3.426   1.695   4.975
    1TCM    cl2 2365   3.650   1.771   4.806
    1TCM     h1 2366   3.468   1.626   4.750
    1TCM    cl3 2367   3.380   1.847   4.732
    1TCM     c1 2368   0.715   3.971   4.302
    1TCM    cl1 2369   0.551   3.913   4.268
    1TCM    cl2 2370   0.784   3.879   4.438
    1TCM     h1 2371   0.779   3.958   4.213
    1TCM    cl3 2372   0.709   4.144   4.346
    1TCM     c1 2373   3.603   3.221   5.183
    1TCM    cl1 2374   3.614   3.252   5.008
    1TCM    cl2 2375   3.709   3.334   5.270
    1TCM     h1 2376   3.498   3.236   5.216
    1TCM    cl3 2377   3.652   3.054   5.217
    1TCM     c1 2378   0.964   2.676   1.548
    1TCM    cl1 2379   0.786   2.674   1.553
    1TCM    cl2 2380   1.020   2.597   1.398
    1TCM     h1 2381   1.000   2.781   1.549
    1TCM    cl3 2382   1.029   2.589   1.689
    1TCM     c1 2383   4.406   5.090   5.217
    1TCM    cl1 2384   4.311   4.940   5.216
    1TCM    cl2 2385   4.323   5.214   5.121
    1TCM     h1 2386   4.418   5.126   5.322
    1TCM    cl3 2387   4.567   5.059   5.148
    1TCM     c1 2388   4.422   1.125   0.299
    1TCM    cl1 2389   4.315   1.098   0.160
    1TCM    cl2 2390   4.488   0.969   0.354
    1TCM     h1 2391   4.505   1.192   0.269
    1TCM    cl3 2392   4.330   1.200   0.431
    1TCM     c1 2393   3.109   0.846   3.513
    1TCM    cl1 2394   2.975   0.890   3.405
    1TCM    cl2 2395   3.240   0.773   3.418
    1TCM     h1 2396   3.146   0.937   3.565
    1TCM    cl3 2397   3.051   0.728   3.634
    1TCM     c1 2398   4.366   1.373   4.909
    1TCM    cl1 2399   4.389   1.447   5.069
    1TCM    cl2 2400   4.278   1.219   4.928
    1TCM     h1 2401   4.307   1.442   4.845
    1TCM    cl3 2402   4.524   1.342   4.834
    1TCM     c1 2403   4.768   2.158   3.822
    1TCM    cl1 2404   4.865   2.028   3.895
    1TCM    cl2 2405   4.625   2.088   3.744
    1TCM     h1 2406   4.737   2.229   3.900
    1TCM    cl3 2407   4.866   2.243   3.700
    1TCM     c1 2408   0.087   4.882   3.804
    1TCM    cl1 2409   0.215   4.911   3.924
    1TCM    cl2 2410   0.161   4.823   3.653
    1TCM     h1 2411   0.017   4.806   3.842
    1TCM    cl3 2412   0.000   5.034   3.772
    1TCM     c1 2413   3.374   0.751   3.800
    1TCM    cl1 2414   3.399   0.726   3.975
    1TCM    cl2 2415   3.509   0.845   3.734
    1TCM     h1 2416   3.369   0.652   3.750
    1TCM    cl3 2417   3.221   0.839   3.774
    1TCM     c1 2418   3.861   3.761   1.566
    1TCM    cl1 2419   3.713   3.781   1.662
    1TCM    cl2 2420   3.918   3.593   1.578
    1TCM     h1 2421   3.840   3.785   1.460
    1TCM    cl3 2422   3.987   3.871   1.628
    1TCM     c1 2423   0.553   0.173   1.369
    1TCM    cl1 2424   0.415   0.279   1.406
    1TCM    cl2 2425   0.525   0.090   1.214
    1TCM     h1 2426   0.646   0.233   1.363
    1TCM    cl3 2427   0.570   0.052   1.499
    1TCM     c1 2428   2.164   3.967   3.681
    1TCM    cl1 2429   2.143   4.140   3.718
    1TCM    cl2 2430   2.188   3.877   3.832
    1TCM     h1 2431   2.074   3.929   3.628
    1TCM    cl3 2432   2.307   3.947   3.576
    1TCM     c1 2433   4.516   3.954   1.345
    1TCM    cl1 2434   4.650   3.965   1.462
    1TCM    cl2 2435   4.582   3.934   1.181
    1TCM     h1 2436   4.452   3.867   1.370
    1TCM    cl3 2437   4.419   4.102   1.352
    1TCM     c1 2438   3.187   4.388   4.586
    1TCM    cl1 2439   3.035   4.296   4.574
    1TCM    cl2 2440   3.303   4.297   4.685
    1TCM     h1 2441   3.229   4.403   4.484
    1TCM    cl3 2442   3.155   4.546   4.661
    1TCM     c1 2443   2.078   1.918   4.779
    1TCM    cl1 2444   2.168   1.847   4.644
    1TCM    cl2 2445   2.151   1.865   4.933
    1TCM     h1 2446   2.083   2.029   4.773
    1TCM    cl3 2447   1.909   1.865   4.772
    1TCM     c1 2448   1.538   3.533   1.918
    1TCM    cl1 2449   1.646   3.646   1.834
    1TCM    cl2 2450   1.508   3.591   2.083
    1TCM     h1 2451   1.441   3.526   1.863
    1TCM    cl3 2452   1.613   3.372   1.924
    1TCM     c1 2453   1.816   0.130   1.528
    1TCM    cl1 2454   1.841   0.006   1.653
    1TCM    cl2 2455   1.847   0.060   1.368
    1TCM     h1 2456   1.711   0.167   1.533
    1TCM    cl3 2457   1.927   0.266   1.556
    1TCM     c1 2458   4.224   4.408   3.734
    1TCM    cl1 2459   4.228   4.383   3.558
    1TCM    cl2 2460   4.354   4.519   3.781
    1TCM     h1 2461   4.126   4.451   3.763
    1TCM    cl3 2462   4.247   4.252   3.816
    1TCM     c1 2463   0.722   1.038   3.762
    1TCM    cl1 2464   0.790   0.885   3.702
    1TCM    cl2 2465   0.815   1.093   3.903
    1TCM     h1 2466   0.728   1.114   3.682
    1TCM    cl3 2467   0.552   1.013   3.809
    1TCM     c1 2468   1.706   4.452   0.718
    1TCM    cl1 2469   1.700   4.604   0.808
    1TCM    cl2 2470   1.712   4.487   0.543
    1TCM     h1 2471   1.796   4.394   0.747
    1TCM    cl3 2472   1.560   4.356   0.754
    1TCM     c1 2473   3.166   0.401   0.114
    1TCM    cl1 2474   3.222   0.539   0.016
    1TCM    cl2 2475   3.122   0.266   0.006
    1TCM     h1 2476   3.247   0.368   0.182
    1TCM    cl3 2477   3.024   0.450   0.209
    1TCM     c1 2478   3.830   0.908   3.301
    1TCM    cl1 2479   3.659   0.949   3.281
    1TCM    cl2 2480   3.929   1.011   3.194
    1TCM     h1 2481   3.861   0.924   3.406
    1TCM    cl3 2482   3.856   0.737   3.257
    1TCM     c1 2483   0.146   4.606   3.980
    1TCM    cl1 2484   0.058   4.567   3.830
    1TCM    cl2 2485   0.316   4.640   3.942
    1TCM     h1 2486   0.100   4.696   4.027
    1TCM    cl3 2487   0.136   4.469   4.093
    1TCM     c1 2488   4.414   1.729   5.173
    1TCM    cl1 2489   4.450   1.866   5.065
    1TCM    cl2 2490   4.400   1.788   5.340
    1TCM     h1 2491   4.319   1.681   5.142
    1TCM    cl3 2492   4.546   1.610   5.163
    1TCM     c1 2493   0.406   0.682   2.776
    1TCM    cl1 2494   0.424   0.829   2.874
    1TCM    cl2 2495   0.334   0.553   2.876
    1TCM     h1 2496   0.340   0.702   2.690
    1TCM    cl3 2497   0.566   0.629   2.718
    1TCM     c1 2498   0.355   2.210   2.171
    1TCM    cl1 2499   0.282   2.343   2.264
    1TCM    cl2 2500   0.454   2.277   2.040
    1TCM     h1 2501   0.418   2.149   2.238
    1TCM    cl3 2502   0.226   2.109   2.101
    1TCM     c1 2503   3.716   2.168   1.677
    1TCM    cl1 2504   3.796   2.085   1.542
    1TCM    cl2 2505   3.633   2.314   1.617
    1TCM     h1 2506   3.642   2.100   1.724
    1TCM    cl3 2507   3.838   2.215   1.798
    1TCM     c1 2508   2.658   0.887   4.381
    1TCM    cl1 2509   2.677   1.034   4.283
    1TCM    cl2 2510   2.595   0.931   4.542
    1TCM     h1 2511   2.587   0.818   4.331
    1TCM    cl3 2512   2.815   0.807   4.399
    1TCM     c1 2513   4.674   2.543   4.938
    1TCM    cl1 2514   4.530   2.644   4.966
    1TCM    cl2 2515   4.649   2.444   4.792
    1TCM     h1 2516   4.762   2.608   4.924
    1TCM    cl3 2517   4.701   2.436   5.077
    1TCM     c1 2518   3.844   0.775   2.854
    1TCM    cl1 2519   3.759   0.661   2.961
    1TCM    cl2 2520   3.805   0.942   2.903
    1TCM     h1 2521   3.953   0.759   2.862
    1TCM    cl3 2522   3.792   0.749   2.686
    1TCM     c1 2523   3.336   2.094   3.329
    1TCM    cl1 2524   3.397   1.962   3.431
    1TCM    cl2 2525   3.317   2.035   3.162
    1TCM     h1 2526   3.237   2.128   3.367
    1TCM    cl3 2527   3.451   2.230   3.331
    1TCM     c1 2528   3.817   1.690   1.421
    1TCM    cl1 2529   3.917   1.585   1.318
    1TCM    cl2 2530   3.878   1.684   1.588
    1TCM     h1 2531   3.822   1.794   1.384
    1TCM    cl3 2532   3.648   1.634   1.418
    1TCM     c1 2533   0.464   3.453   1.595
    1TCM    cl1 2534   0.299   3.471   1.533
    1TCM    cl2 2535   0.516   3.283   1.576
    1TCM     h1 2536   0.533   3.519   1.537
    1TCM    cl3 2537   0.469   3.497   1.767
    1TCM     c1 2538   2.500   3.783   4.582
    1TCM    cl1 2539   2.344   3.737   4.655
    1TCM    cl2 2540   2.486   3.945   4.510
    1TCM     h1 2541   2.578   3.784   4.661
    1TCM    cl3 2542   2.543   3.666   4.456
    1TCM     c1 2543   1.926   1.618   1.977
    1TCM    cl1 2544   1.763   1.558   2.018
    1TCM    cl2 2545   1.975   1.553   1.819
    1TCM     h1 2546   1.924   1.729   1.973
    1TCM    cl3 2547   2.042   1.565   2.102
    1TCM     c1 2548   4.578   2.535   0.319
    1TCM    cl1 2549   4.570   2.618   0.162
    1TCM    cl2 2550   4.493   2.379   0.307
    1TCM     h1 2551   4.684   2.517   0.347
    1TCM    cl3 2552   4.500   2.635   0.443
    1TCM     c1 2553   3.120   4.614   3.610
    1TCM    cl1 2554   3.240   4.667   3.490
    1TCM    cl2 2555   2.994   4.518   3.529
    1TCM     h1 2556   3.169   4.552   3.687
    1TCM    cl3 2557   3.045   4.756   3.687
    1TCM     c1 2558   4.995   3.892   5.173
    1TCM    cl1 2559   5.059   3.760   5.071
    1TCM    cl2 2560   5.050   3.870   5.340
    1TCM     h1 2561   5.031   3.989   5.134
    1TCM    cl3 2562   4.817   3.888   5.168
    1TCM     c1 2563   1.176   2.659   3.318
    1TCM    cl1 2564   1.349   2.693   3.299
    1TCM    cl2 2565   1.087   2.812   3.335
    1TCM     h1 2566   1.139   2.605   3.228
    1TCM    cl3 2567   1.150   2.559   3.462
    1TCM     c1 2568   2.529   2.766   1.344
    1TCM    cl1 2569   2.390   2.819   1.441
    1TCM    cl2 2570   2.507   2.819   1.176
    1TCM     h1 2571   2.622   2.809   1.385
    1TCM    cl3 2572   2.539   2.588   1.348
    1TCM     c1 2573   2.489   4.812   3.311
    1TCM    cl1 2574   2.556   4.707   3.438
    1TCM    cl2 2575   2.519   4.982   3.354
    1TCM     h1 2576   2.538   4.789   3.214
    1TCM    cl3 2577   2.314   4.785   3.298
    1TCM     c1 2578   5.030   2.705   4.201
    1TCM    cl1 2579   5.047   2.872   4.259
    1TCM    cl2 2580   5.050   2.701   4.024
    1TCM     h1 2581   5.108   2.641   4.248
    1TCM    cl3 2582   4.869   2.643   4.244
    1TCM     c1 2583   2.570   2.260   3.546
    1TCM    cl1 2584   2.512   2.423   3.589
    1TCM    cl2 2585   2.607   2.170   3.695
    1TCM     h1 2586   2.491   2.207   3.489
    1TCM    cl3 2587   2.717   2.274   3.447
    1TCM     c1 2588   1.978   0.992   4.060
    1TCM    cl1 2589   1.958   0.847   3.960
    1TCM    cl2 2590   1.971   0.947   4.232
    1TCM     h1 2591   2.076   1.039   4.038
    1TCM    cl3 2592   1.847   1.107   4.024
    1TCM     c1 2593   0.924   0.375   0.891
    1TCM    cl1 2594   0.809   0.289   0.786
    1TCM    cl2 2595   0.839   0.505   0.978
    1TCM     h1 2596   0.968   0.304   0.964
    1TCM    cl3 2597   1.054   0.445   0.791
    1TCM     c1 2598   4.174   1.431   3.661
    1TCM    cl1 2599   4.242   1.594   3.681
    1TCM    cl2 2600   4.012   1.444   3.588
    1TCM     h1 2601   4.240   1.372   3.594
    1TCM    cl3 2602   4.162   1.351   3.819
    1TCM     c1 2603   3.121   4.936   3.372
    1TCM    cl1 2604   3.053   5.084   3.442
    1TCM    cl2 2605   3.046   4.794   3.448
    1TCM     h1 2606   3.102   4.935   3.263
    1TCM    cl3 2607   3.297   4.933   3.400
    1TCM     c1 2608   2.197   2.525   3.093
    1TCM    cl1 2609   2.130   2.633   2.968
    1TCM    cl2 2610   2.063   2.440   3.175
    1TCM     h1 2611   2.264   2.451   3.046
    1TCM    cl3 2612   2.287   2.621   3.212
    1TCM     c1 2613   1.506   0.613   5.244
    1TCM    cl1 2614   1.669   0.684   5.239
    1TCM    cl2 2615   1.397   0.721   5.333
    1TCM     h1 2616   1.469   0.600   5.140
    1TCM    cl3 2617   1.513   0.455   5.325
    1TCM     c1 2618   2.236   4.398   4.442
    1TCM    cl1 2619   2.089   4.419   4.540
    1TCM    cl2 2620   2.191   4.348   4.278
    1TCM     h1 2621   2.291   4.494   4.437
    1TCM    cl3 2622   2.340   4.274   4.516
    1TCM     c1 2623   0.774   3.783   5.053
    1TCM    cl1 2624   0.938   3.731   5.097
    1TCM    cl2 2625   0.670   3.776   5.196
    1TCM     h1 2626   0.778   3.888   5.015
    1TCM    cl3 2627   0.709   3.676   4.927
    1TCM     c1 2628   5.106   3.074   1.870
    1TCM    cl1 2629   4.978   2.971   1.803
    1TCM    cl2 2630   5.265   3.007   1.826
    1TCM     h1 2631   5.096   3.177   1.829
    1TCM    cl3 2632   5.091   3.079   2.047
    1TCM     c1 2633   3.319   1.195   3.614
    1TCM    cl1 2634   3.405   1.080   3.719
    1TCM    cl2 2635   3.434   1.316   3.552
    1TCM     h1 2636   3.273   1.141   3.529
    1TCM    cl3 2637   3.192   1.277   3.708
    1TCM     c1 2638   1.530   0.093   1.243
    1TCM    cl1 2639   1.418   0.104   1.105
    1TCM    cl2 2640   1.446   0.022   1.382
    1TCM     h1 2641   1.616   0.029   1.215
    1TCM    cl3 2642   1.587   0.256   1.285
    1TCM     c1 2643   2.767   2.967   3.899
    1TCM    cl1 2644   2.632   2.852   3.883
    1TCM    cl2 2645   2.906   2.907   3.806
    1TCM     h1 2646   2.736   3.066   3.860
    1TCM    cl3 2647   2.812   2.981   4.070
    1TCM     c1 2648   5.124   3.360   1.230
    1TCM    cl1 2649   5.024   3.213   1.224
    1TCM    cl2 2650   5.291   3.316   1.276
    1TCM     h1 2651   5.125   3.408   1.130
    1TCM    cl3 2652   5.057   3.472   1.351
    1TCM     c1 2653   1.910   0.273   0.143
    1TCM    cl1 2654   2.059   0.233   0.054
    1TCM    cl2 2655   1.940   0.414   0.248
    1TCM     h1 2656   1.829   0.298   0.071
    1TCM    cl3 2657   1.862   0.134   0.243
    1TCM     c1 2658   1.125   1.878   2.978
    1TCM    cl1 2659   1.074   2.014   2.876
    1TCM    cl2 2660   1.070   1.905   3.145
    1TCM     h1 2661   1.081   1.784   2.939
    1TCM    cl3 2662   1.302   1.865   2.975
    1TCM     c1 2663   2.729   3.885   2.471
    1TCM    cl1 2664   2.680   3.921   2.304
    1TCM    cl2 2665   2.652   3.734   2.524
    1TCM     h1 2666   2.840   3.874   2.475
    1TCM    cl3 2667   2.679   4.018   2.578
    1TCM     c1 2668   1.508   0.650   2.928
    1TCM    cl1 2669   1.391   0.755   3.012
    1TCM    cl2 2670   1.452   0.620   2.762
    1TCM     h1 2671   1.607   0.701   2.925
    1TCM    cl3 2672   1.523   0.496   3.014
    1TCM     c1 2673   5.145   5.001   2.809
    1TCM    cl1 2674   5.107   5.068   2.649
    1TCM    cl2 2675   5.282   4.889   2.796
    1TCM     h1 2676   5.172   5.084   2.878
    1TCM    cl3 2677   5.003   4.915   2.872
    1TCM     c1 2678   2.649   3.862   3.205
    1TCM    cl1 2679   2.534   3.845   3.070
    1TCM    cl2 2680   2.754   3.718   3.211
    1TCM     h1 2681   2.711   3.953   3.190
    1TCM    cl3 2682   2.559   3.876   3.358
    1TCM     c1 2683   5.063   5.010   0.242
    1TCM    cl1 2684   4.984   4.961   0.090
    1TCM    cl2 2685   5.062   4.873   0.355
    1TCM     h1 2686   5.168   5.040   0.221
    1TCM    cl3 2687   4.975   5.146   0.314
    1TCM     c1 2688   1.546   4.053   5.181
    1TCM    cl1 2689   1.486   4.123   5.332
    1TCM    cl2 2690   1.516   4.166   5.047
    1TCM     h1 2691   1.655   4.035   5.189
    1TCM    cl3 2692   1.463   3.899   5.149
    1TCM     c1 2693   0.468   1.946   3.475
    1TCM    cl1 2694   0.297   1.910   3.509
    1TCM    cl2 2695   0.563   1.926   3.624
    1TCM     h1 2696   0.506   1.878   3.397
    1TCM    cl3 2697   0.482   2.115   3.418
    1TCM     c1 2698   4.566   0.458   4.779
    1TCM    cl1 2699   4.556   0.339   4.647
    1TCM    cl2 2700   4.714   0.554   4.761
    1TCM     h1 2701   4.478   0.525   4.774
    1TCM    cl3 2702   4.568   0.373   4.935
    1TCM     c1 2703   4.317   2.436   2.504
    1TCM    cl1 2704   4.311   2.608   2.551
    1TCM    cl2 2705   4.171   2.395   2.412
    1TCM     h1 2706   4.407   2.418   2.441
    1TCM    cl3 2707   4.326   2.335   2.651
    1TCM     c1 2708   3.506   4.652   1.627
    1TCM    cl1 2709   3.629   4.693   1.749
    1TCM    cl2 2710   3.578   4.663   1.464
    1TCM     h1 2711   3.469   4.549   1.645
    1TCM    cl3 2712   3.371   4.767   1.640
    1TCM     c1 2713   5.222   5.218   0.738
    1TCM    cl1 2714   5.090   5.270   0.845
    1TCM    cl2 2715   5.171   5.234   0.569
    1TCM     h1 2716   5.312   5.281   0.756
    1TCM    cl3 2717   5.262   5.048   0.772
    1TCM     c1 2718   3.985   5.164   0.271
    1TCM    cl1 2719   3.941   5.264   0.130
    1TCM    cl2 2720   4.047   5.007   0.215
    1TCM     h1 2721   4.064   5.216   0.329
    1TCM    cl3 2722   3.842   5.139   0.373
    1TCM     c1 2723   0.671   5.079   2.420
    1TCM    cl1 2724   0.558   4.997   2.310
    1TCM    cl2 2725   0.743   4.959   2.531
    1TCM     h1 2726   0.752   5.127   2.361
    1TCM    cl3 2727   0.584   5.202   2.514
    1TCM     c1 2728   2.855   5.165   4.383
    1TCM    cl1 2729   2.952   5.060   4.489
    1TCM    cl2 2730   2.858   5.100   4.218
    1TCM     h1 2731   2.750   5.168   4.420
    1TCM    cl3 2732   2.923   5.329   4.384
    1TCM     c1 2733   4.396   4.207   1.834
    1TCM    cl1 2734   4.408   4.151   2.003
    1TCM    cl2 2735   4.449   4.077   1.725
    1TCM     h1 2736   4.290   4.233   1.812
    1TCM    cl3 2737   4.499   4.350   1.811
    1TCM     c1 2738   3.278   3.669   4.848
    1TCM    cl1 2739   3.309   3.721   4.681
    1TCM    cl2 2740   3.333   3.795   4.961
    1TCM     h1 2741   3.169   3.652   4.862
    1TCM    cl3 2742   3.367   3.518   4.880
    1TCM     c1 2743   2.743   0.531   4.354
    1TCM    cl1 2744   2.915   0.553   4.314
    1TCM    cl2 2745   2.711   0.594   4.517
    1TCM     h1 2746   2.681   0.585   4.280
    1TCM    cl3 2747   2.703   0.358   4.349
    1TCM     c1 2748   3.364   3.336   1.813
    1TCM    cl1 2749   3.454   3.365   1.964
    1TCM    cl2 2750   3.369   3.483   1.713
    1TCM     h1 2751   3.410   3.252   1.758
    1TCM    cl3 2752   3.195   3.297   1.852
    1TCM     c1 2753   0.145   2.999   3.643
    1TCM    cl1 2754   0.002   2.894   3.635
    1TCM    cl2 2755   0.201   3.010   3.812
    1TCM     h1 2756   0.226   2.957   3.580
    1TCM    cl3 2757   0.103   3.161   3.585
    1TCM     c1 2758   1.501   3.862   3.112
    1TCM    cl1 2759   1.439   3.822   2.951
    1TCM    cl2 2760   1.678   3.845   3.113
    1TCM     h1 2761   1.474   3.967   3.137
    1TCM    cl3 2762   1.431   3.752   3.233
    1TCM     c1 2763   2.874   4.247   1.780
    1TCM    cl1 2764   2.920   4.078   1.751
    1TCM    cl2 2765   2.703   4.254   1.829
    1TCM     h1 2766   2.937   4.290   1.861
    1TCM    cl3 2767   2.896   4.342   1.631
    1TCM     c1 2768   5.155   1.669   2.946
    1TCM    cl1 2769   5.290   1.603   2.851
    1TCM    cl2 2770   5.207   1.696   3.113
    1TCM     h1 2771   5.122   1.765   2.901
    1TCM    cl3 2772   5.019   1.554   2.944
    1TCM     c1 2773   4.394   3.527   3.042
    1TCM    cl1 2774   4.395   3.380   3.142
    1TCM    cl2 2775   4.475   3.494   2.887
    1TCM     h1 2776   4.290   3.559   3.024
    1TCM    cl3 2777   4.482   3.657   3.127
    1TCM     c1 2778   2.745   4.923   2.682
    1TCM    cl1 2779   2.771   5.056   2.567
    1TCM    cl2 2780   2.849   4.947   2.825
    1TCM     h1 2781   2.639   4.921   2.713
    1TCM    cl3 2782   2.787   4.769   2.604
    1TCM     c1 2783   2.970   3.181   2.477
    1TCM    cl1 2784   3.048   3.141   2.322
    1TCM    cl2 2785   2.797   3.211   2.451
    1TCM     h1 2786   2.983   3.096   2.547
    1TCM    cl3 2787   3.046   3.327   2.546
    1TCM     c1 2788   1.937   3.506   4.159
    1TCM    cl1 2789   1.945   3.644   4.271
    1TCM    cl2 2790   1.948   3.565   3.991
    1TCM     h1 2791   2.021   3.437   4.180
    1TCM    cl3 2792   1.783   3.420   4.182
    1TCM     c1 2793   4.858   1.919   0.618
    1TCM    cl1 2794   4.972   2.055   0.612
    1TCM    cl2 2795   4.946   1.767   0.593
    1TCM     h1 2796   4.809   1.917   0.718
    1TCM    cl3 2797   4.735   1.938   0.492
    1TCM     c1 2798   2.114   3.053   2.149
    1TCM    cl1 2799   2.136   3.194   2.255
    1TCM    cl2 2800   2.156   3.097   1.982
    1TCM     h1 2801   2.180   2.971   2.184
    1TCM    cl3 2802   1.944   3.001   2.156
    1TCM     c1 2803   1.985   0.953   4.966
    1TCM    cl1 2804   1.976   1.088   4.850
    1TCM    cl2 2805   2.152   0.937   5.025
    1TCM     h1 2806   1.918   0.973   5.052
    1TCM    cl3 2807   1.936   0.802   4.886
    1TCM     c1 2808   0.306   5.110   4.069
    1TCM    cl1 2809   0.135   5.093   4.115
    1TCM    cl2 2810   0.316   5.188   3.909
    1TCM     h1 2811   0.358   5.173   4.144
    1TCM    cl3 2812   0.382   4.950   4.062
    1TCM     c1 2813   1.656   4.487   1.711
    1TCM    cl1 2814   1.740   4.585   1.588
    1TCM    cl2 2815   1.637   4.583   1.859
    1TCM     h1 2816   1.556   4.458   1.673
    1TCM    cl3 2817   1.752   4.342   1.746
    1TCM     c1 2818   4.856   1.015   4.251
    1TCM    cl1 2819   4.999   1.112   4.211
    1TCM    cl2 2820   4.741   1.021   4.115
    1TCM     h1 2821   4.886   0.909   4.268
    1TCM    cl3 2822   4.778   1.079   4.397
    1TCM     c1 2823   2.379   3.238   0.303
    1TCM    cl1 2824   2.304   3.097   0.225
    1TCM    cl2 2825   2.367   3.379   0.196
    1TCM     h1 2826   2.327   3.260   0.399
    1TCM    cl3 2827   2.550   3.204   0.337
    1TCM     c1 2828   2.628   4.272   1.441
    1TCM    cl1 2829   2.651   4.239   1.268
    1TCM    cl2 2830   2.467   4.214   1.491
    1TCM     h1 2831   2.706   4.218   1.500
    1TCM    cl3 2832   2.641   4.446   1.471
    1TCM     c1 2833   1.532   0.879   3.950
    1TCM    cl1 2834   1.558   0.805   3.790
    1TCM    cl2 2835   1.592   1.046   3.948
    1TCM     h1 2836   1.423   0.879   3.973
    1TCM    cl3 2837   1.619   0.786   4.074
    1TCM     c1 2838   1.562   1.140   2.894
    1TCM    cl1 2839   1.553   1.295   2.981
    1TCM    cl2 2840   1.593   1.171   2.722
    1TCM     h1 2841   1.644   1.078   2.936
    1TCM    cl3 2842   1.408   1.053   2.912
    1TCM     c1 2843   1.995   3.196   3.460
    1TCM    cl1 2844   2.168   3.167   3.426
    1TCM    cl2 2845   1.978   3.352   3.545
    1TCM     h1 2846   1.939   3.199   3.365
    1TCM    cl3 2847   1.932   3.065   3.563
    1TCM     c1 2848   3.818   4.295   3.026
    1TCM    cl1 2849   3.954   4.407   3.049
    1TCM    cl2 2850   3.848   4.146   3.120
    1TCM     h1 2851   3.724   4.343   3.062
    1TCM    cl3 2852   3.802   4.254   2.854
    1TCM     c1 2853   2.715   5.118   0.501
    1TCM    cl1 2854   2.841   5.243   0.513
    1TCM    cl2 2855   2.562   5.194   0.449
    1TCM     h1 2856   2.745   5.042   0.427
    1TCM    cl3 2857   2.692   5.042   0.660
    1TCM     c1 2858   1.673   3.795   4.102
    1TCM    cl1 2859   1.731   3.852   4.261
    1TCM    cl2 2860   1.612   3.933   4.009
    1TCM     h1 2861   1.757   3.747   4.048
    1TCM    cl3 2862   1.542   3.677   4.126
    1TCM     c1 2863   2.360   2.236   1.329
    1TCM    cl1 2864   2.418   2.366   1.222
    1TCM    cl2 2865   2.249   2.304   1.450
    1TCM     h1 2866   2.307   2.160   1.269
    1TCM    cl3 2867   2.499   2.161   1.412
    1TCM     c1 2868   3.096   0.075   3.763
    1TCM    cl1 2869   3.081   0.252   3.760
    1TCM    cl2 2870   2.989   0.004   3.640
    1TCM     h1 2871   3.201   0.046   3.742
    1TCM    cl3 2872   3.050   0.015   3.924
    1TCM     c1 2873   2.046   1.309   2.104
    1TCM    cl1 2874   2.201   1.365   2.171
    1TCM    cl2 2875   2.043   1.132   2.101
    1TCM     h1 2876   1.963   1.347   2.167
    1TCM    cl3 2877   2.028   1.372   1.938
    1TCM     c1 2878   2.399   2.855   0.419
    1TCM    cl1 2879   2.249   2.936   0.368
    1TCM    cl2 2880   2.358   2.717   0.524
    1TCM     h1 2881   2.453   2.818   0.329
    1TCM    cl3 2882   2.502   2.969   0.508
    1TCM     c1 2883   3.546   2.542   4.373
    1TCM    cl1 2884   3.667   2.654   4.441
    1TCM    cl2 2885   3.440   2.483   4.503
    1TCM     h1 2886   3.486   2.595   4.297
    1TCM    cl3 2887   3.630   2.404   4.298
    1TCM     c1 2888   0.742   0.415   1.955
    1TCM    cl1 2889   0.761   0.403   2.132
    1TCM    cl2 2890   0.750   0.586   1.907
    1TCM     h1 2891   0.823   0.358   1.905
    1TCM    cl3 2892   0.585   0.347   1.908
    1TCM     c1 2893   4.298   4.873   0.809
    1TCM    cl1 2894   4.149   4.817   0.887
    1TCM    cl2 2895   4.260   5.003   0.694
    1TCM     h1 2896   4.368   4.911   0.886
    1TCM    cl3 2897   4.374   4.737   0.722
    1TCM     c1 2898   0.308   4.368   1.102
    1TCM    cl1 2899   0.373   4.492   0.993
    1TCM    cl2 2900   0.306   4.431   1.269
    1TCM     h1 2901   0.205   4.342   1.071
    1TCM    cl3 2902   0.411   4.223   1.095
    1TCM     c1 2903   2.248   2.356   3.784
    1TCM    cl1 2904   2.181   2.221   3.690
    1TCM    cl2 2905   2.217   2.329   3.957
    1TCM     h1 2906   2.357   2.363   3.767
    1TCM    cl3 2907   2.171   2.508   3.732
    1TCM     c1 2908   0.543   4.033   1.262
    1TCM    cl1 2909   0.602   3.876   1.321
    1TCM    cl2 2910   0.682   4.138   1.224
    1TCM     h1 2911   0.482   4.018   1.171
    1TCM    cl3 2912   0.444   4.110   1.388
    1TCM     c1 2913   1.319   3.890   0.423
    1TCM    cl1 2914   1.277   3.719   0.399
    1TCM    cl2 2915   1.321   3.973   0.266
    1TCM     h1 2916   1.245   3.938   0.489
    1TCM    cl3 2917   1.481   3.901   0.497
    1TCM     c1 2918   3.207   2.123   2.565
    1TCM    cl1 2919   3.341   2.205   2.649
    1TCM    cl2 2920   3.085   2.072   2.684
    1TCM     h1 2921   3.161   2.192   2.492
    1TCM    cl3 2922   3.270   1.980   2.480
    1TCM     c1 2923   1.897   2.774   2.542
    1TCM    cl1 2924   1.801   2.876   2.431
    1TCM    cl2 2925   1.793   2.718   2.675
    1TCM     h1 2926   1.936   2.687   2.486
    1TCM    cl3 2927   2.032   2.869   2.607
    1TCM     c1 2928   3.400   5.125   2.106
    1TCM    cl1 2929   3.547   5.118   2.206
    1TCM    cl2 2930   3.443   5.100   1.935
    1TCM     h1 2931   3.329   5.046   2.138
    1TCM    cl3 2932   3.323   5.284   2.125
    1TCM     c1 2933   0.979   2.561   4.375
    1TCM    cl1 2934   0.914   2.414   4.451
    1TCM    cl2 2935   0.986   2.538   4.199
    1TCM     h1 2936   0.912   2.647   4.399
    1TCM    cl3 2937   1.142   2.593   4.438
    1TCM     c1 2938   4.635   3.894   4.940
    1TCM    cl1 2939   4.800   3.829   4.949
    1TCM    cl2 2940   4.572   3.873   4.774
    1TCM     h1 2941   4.570   3.839   5.011
    1TCM    cl3 2942   4.636   4.066   4.982
    1TCM     c1 2943   4.941   1.897   4.155
    1TCM    cl1 2944   4.780   1.951   4.208
    1TCM    cl2 2945   4.931   1.833   3.990
    1TCM     h1 2946   5.011   1.982   4.158
    1TCM    cl3 2947   4.999   1.769   4.265
    1TCM     c1 2948   4.066   2.280   2.868
    1TCM    cl1 2949   4.044   2.442   2.799
    1TCM    cl2 2950   3.984   2.272   3.026
    1TCM     h1 2951   4.022   2.204   2.800
    1TCM    cl3 2952   4.239   2.247   2.890
    1TCM     c1 2953   1.462   2.816   5.177
    1TCM    cl1 2954   1.307   2.900   5.154
    1TCM    cl2 2955   1.525   2.849   5.340
    1TCM     h1 2956   1.446   2.707   5.165
    1TCM    cl3 2957   1.579   2.872   5.055
    1TCM     c1 2958   3.671   2.139   3.155
    1TCM    cl1 2959   3.613   2.306   3.158
    1TCM    cl2 2960   3.540   2.031   3.104
    1TCM     h1 2961   3.756   2.130   3.084
    1TCM    cl3 2962   3.725   2.092   3.318
    1TCM     c1 2963   2.763   4.884   1.053
    1TCM    cl1 2964   2.776   4.715   1.108
    1TCM    cl2 2965   2.646   4.893   0.919
    1TCM     h1 2966   2.728   4.948   1.136
    1TCM    cl3 2967   2.922   4.940   0.997
    1TCM     c1 2968   1.670   3.855   0.868
    1TCM    cl1 2969   1.602   3.977   0.978
    1TCM    cl2 2970   1.555   3.721   0.851
    1TCM     h1 2971   1.689   3.901   0.769
    1TCM    cl3 2972   1.823   3.794   0.935
    1TCM     c1 2973   5.077   3.203   5.142
    1TCM    cl1 2974   5.220   3.307   5.129
    1TCM    cl2 2975   5.011   3.171   4.980
    1TCM     h1 2976   5.106   3.106   5.190
    1TCM    cl3 2977   4.954   3.283   5.242
    1TCM     c1 2978   2.943   5.053   3.096
    1TCM    cl1 2979   2.884   5.060   3.264
    1TCM    cl2 2980   2.812   5.100   2.985
    1TCM     h1 2981   3.028   5.122   3.084
    1TCM    cl3 2982   2.995   4.887   3.059
    1TCM     c1 2983   4.797   3.857   3.634
    1TCM    cl1 2984   4.870   4.016   3.603
    1TCM    cl2 2985   4.634   3.879   3.702
    1TCM     h1 2986   4.790   3.800   3.539
    1TCM    cl3 2987   4.898   3.767   3.750
    1TCM     c1 2988   1.648   0.906   3.185
    1TCM    cl1 2989   1.530   0.921   3.052
    1TCM    cl2 2990   1.713   0.740   3.187
    1TCM     h1 2991   1.731   0.978   3.169
    1TCM    cl3 2992   1.568   0.940   3.340
    1TCM     c1 2993   3.320   2.742   4.587
    1TCM    cl1 2994   3.223   2.621   4.499
    1TCM    cl2 2995   3.216   2.826   4.705
    1TCM     h1 2996   3.403   2.692   4.640
    1TCM    cl3 2997   3.385   2.860   4.472
    1TCM     c1 2998   2.425   4.259   0.587
    1TCM    cl1 2999   2.494   4.113   0.514
    1TCM    cl2 3000   2.256   4.227   0.634
    1TCM     h1 3001   2.483   4.287   0.677
    1TCM    cl3 3002   2.429   4.392   0.469
    1TCM     c1 3003   3.257   1.640   0.275
    1TCM    cl1 3004   3.381   1.734   0.361
    1TCM    cl2 3005   3.109   1.633   0.373
    1TCM     h1 3006   3.235   1.689   0.178
    1TCM    cl3 3007   3.317   1.475   0.247
    1TCM     c1 3008   2.334   1.757   4.068
    1TCM    cl1 3009   2.461   1.772   4.191
    1TCM    cl2 3010   2.403   1.691   3.919
    1TCM     h1 3011   2.254   1.688   4.106
    1TCM    cl3 3012   2.263   1.917   4.035
    1TCM     c1 3013   1.297   0.984   2.674
    1TCM    cl1 3014   1.366   0.859   2.780
    1TCM    cl2 3015   1.120   0.970   2.674
    1TCM     h1 3016   1.326   1.084   2.710
    1TCM    cl3 3017   1.357   0.960   2.508
    1TCM     c1 3018   2.841   4.327   5.135
    1TCM    cl1 3019   2.671   4.368   5.173
    1TCM    cl2 3020   2.891   4.413   4.988
    1TCM     h1 3021   2.905   4.358   5.220
    1TCM    cl3 3022   2.855   4.152   5.110
    1TCM     c1 3023   2.274   4.533   1.556
    1TCM    cl1 3024   2.148   4.448   1.647
    1TCM    cl2 3025   2.305   4.448   1.403
    1TCM     h1 3026   2.241   4.637   1.535
    1TCM    cl3 3027   2.424   4.537   1.653
    1TCM     c1 3028   0.992   2.511   5.124
    1TCM    cl1 3029   0.961   2.660   5.031
    1TCM    cl2 3030   0.854   2.401   5.106
    1TCM     h1 3031   1.084   2.462   5.085
    1TCM    cl3 3032   1.013   2.552   5.295
    1TCM     c1 3033   1.687   1.197   1.873
    1TCM    cl1 3034   1.519   1.250   1.847
    1TCM    cl2 3035   1.764   1.165   1.716
    1TCM     h1 3036   1.743   1.276   1.926
    1TCM    cl3 3037   1.687   1.048   1.970
    1TCM     c1 3038   0.480   3.619   3.636
    1TCM    cl1 3039   0.550   3.773   3.690
    1TCM    cl2 3040   0.607   3.520   3.561
    1TCM     h1 3041   0.438   3.565   3.724
    1TCM    cl3 3042   0.351   3.650   3.518
    1TCM     c1 3043   0.265   0.166   3.788
    1TCM    cl1 3044   0.310   0.041   3.907
    1TCM    cl2 3045   0.217   0.088   3.635
    1TCM     h1 3046   0.180   0.225   3.828
    1TCM    cl3 3047   0.404   0.273   3.759
    1TCM     c1 3048   4.264   5.205   3.306
    1TCM    cl1 3049   4.385   5.334   3.324
    1TCM    cl2 3050   4.308   5.067   3.409
    1TCM     h1 3051   4.165   5.244   3.336
    1TCM    cl3 3052   4.258   5.152   3.136
    1TCM     c1 3053   3.262   4.008   1.554
    1TCM    cl1 3054   3.151   4.147   1.554
    1TCM    cl2 3055   3.338   3.994   1.714
    1TCM     h1 3056   3.205   3.915   1.531
    1TCM    cl3 3057   3.388   4.033   1.431
    1TCM     c1 3058   4.625   4.284   3.912
    1TCM    cl1 3059   4.558   4.386   3.782
    1TCM    cl2 3060   4.589   4.358   4.070
    1TCM     h1 3061   4.578   4.183   3.907
    1TCM    cl3 3062   4.801   4.270   3.892
    1TCM     c1 3063   0.986   3.767   0.374
    1TCM    cl1 3064   0.981   3.701   0.539
    1TCM    cl2 3065   1.027   3.940   0.380
    1TCM     h1 3066   1.062   3.713   0.315
    1TCM    cl3 3067   0.827   3.747   0.297
    1TCM     c1 3068   5.100   2.344   5.100
    1TCM    cl1 3069   5.186   2.229   5.205
    1TCM    cl2 3070   5.112   2.290   4.931
    1TCM     h1 3071   4.994   2.349   5.130
    1TCM    cl3 3072   5.174   2.505   5.116
    1TCM     c1 3073   1.010   5.190   2.485
    1TCM    cl1 3074   1.168   5.235   2.553
    1TCM    cl2 3075   1.013   5.209   2.308
    1TCM     h1 3076   0.988   5.084   2.510
    1TCM    cl3 3077   0.883   5.294   2.553
    1TCM     c1 3078   1.019   1.249   4.214
    1TCM    cl1 3079   0.881   1.207   4.110
    1TCM    cl2 3080   0.993   1.184   4.377
    1TCM     h1 3081   1.112   1.206   4.171
    1TCM    cl3 3082   1.034   1.426   4.223
    1TCM     c1 3083   3.903   2.713   4.224
    1TCM    cl1 3084   4.066   2.661   4.177
    1TCM    cl2 3085   3.782   2.616   4.137
    1TCM     h1 3086   3.889   2.700   4.333
    1TCM    cl3 3087   3.882   2.885   4.182
    1TCM     c1 3088   2.302   3.495   5.206
    1TCM    cl1 3089   2.326   3.471   5.031
    1TCM    cl2 3090   2.286   3.669   5.240
    1TCM     h1 3091   2.209   3.442   5.238
    1TCM    cl3 3092   2.441   3.429   5.295
    1TCM     c1 3093   1.297   0.592   0.989
    1TCM    cl1 3094   1.334   0.511   0.835
    1TCM    cl2 3095   1.288   0.470   1.119
    1TCM     h1 3096   1.377   0.665   1.013
    1TCM    cl3 3097   1.141   0.676   0.976
    1TCM     c1 3098   0.406   3.658   0.567
    1TCM    cl1 3099   0.504   3.732   0.438
    1TCM    cl2 3100   0.444   3.484   0.578
    1TCM     h1 3101   0.430   3.707   0.664
    1TCM    cl3 3102   0.234   3.679   0.530
    1TCM     c1 3103   3.192   1.703   3.418
    1TCM    cl1 3104   3.035   1.734   3.496
    1TCM    cl2 3105   3.174   1.715   3.241
    1TCM     h1 3106   3.266   1.777   3.453
    1TCM    cl3 3107   3.247   1.539   3.461
    1TCM     c1 3108   2.819   4.718   0.323
    1TCM    cl1 3109   2.899   4.773   0.472
    1TCM    cl2 3110   2.703   4.842   0.269
    1TCM     h1 3111   2.895   4.702   0.244
    1TCM    cl3 3112   2.732   4.566   0.355
    1TCM     c1 3113   3.720   3.508   3.429
    1TCM    cl1 3114   3.640   3.628   3.325
    1TCM    cl2 3115   3.603   3.444   3.547
    1TCM     h1 3116   3.759   3.425   3.367
    1TCM    cl3 3117   3.855   3.585   3.516
    1TCM     c1 3118   2.984   3.955   0.983
    1TCM    cl1 3119   2.837   4.030   0.918
    1TCM    cl2 3120   2.976   3.779   0.961
    1TCM     h1 3121   3.073   3.995   0.930
    1TCM    cl3 3122   2.997   3.992   1.157
    1TCM     c1 3123   4.476   4.339   1.175
    1TCM    cl1 3124   4.442   4.389   1.342
    1TCM    cl2 3125   4.606   4.217   1.175
    1TCM     h1 3126   4.385   4.295   1.130
    1TCM    cl3 3127   4.527   4.480   1.080
    1TCM     c1 3128   4.603   3.059   0.298
    1TCM    cl1 3129   4.491   2.963   0.397
    1TCM    cl2 3130   4.536   3.077   0.134
    1TCM     h1 3131   4.616   3.159   0.343
    1TCM    cl3 3132   4.760   2.976   0.288
    1TCM     c1 3133   2.893   1.083   2.291
    1TCM    cl1 3134   3.000   1.223   2.266
    1TCM    cl2 3135   2.748   1.135   2.379
    1TCM     h1 3136   2.864   1.041   2.193
    1TCM    cl3 3137   2.979   0.959   2.386
    1TCM     c1 3138   3.430   4.616   2.985
    1TCM    cl1 3139   3.529   4.642   3.131
    1TCM    cl2 3140   3.444   4.446   2.934
    1TCM     h1 3141   3.324   4.639   3.008
    1TCM    cl3 3142   3.487   4.722   2.855
    1TCM     c1 3143   3.730   3.516   3.958
    1TCM    cl1 3144   3.870   3.501   4.067
    1TCM    cl2 3145   3.784   3.497   3.790
    1TCM     h1 3146   3.656   3.437   3.983
    1TCM    cl3 3147   3.656   3.676   3.979
    1TCM     c1 3148   4.183   0.308   0.208
    1TCM    cl1 3149   4.268   0.382   0.346
    1TCM    cl2 3150   4.259   0.361   0.056
    1TCM     h1 3151   4.190   0.197   0.216
    1TCM    cl3 3152   4.013   0.357   0.211
    1TCM     c1 3153   3.264   3.173   3.477
    1TCM    cl1 3154   3.177   3.316   3.535
    1TCM    cl2 3155   3.288   3.185   3.301
    1TCM     h1 3156   3.363   3.167   3.527
    1TCM    cl3 3157   3.170   3.027   3.514
    1TCM     c1 3158   0.619   2.593   1.953
    1TCM    cl1 3159   0.629   2.748   2.040
    1TCM    cl2 3160   0.776   2.510   1.961
    1TCM     h1 3161   0.541   2.529   2.000
    1TCM    cl3 3162   0.576   2.623   1.783
    1TCM     c1 3163   2.364   3.528   1.517
    1TCM    cl1 3164   2.479   3.449   1.407
    1TCM    cl2 3165   2.429   3.528   1.682
    1TCM     h1 3166   2.347   3.633   1.484
    1TCM    cl3 3167   2.209   3.440   1.515
    1TCM     c1 3168   5.083   1.386   2.444
    1TCM    cl1 3169   5.166   1.505   2.341
    1TCM    cl2 3170   5.195   1.252   2.480
    1TCM     h1 3171   5.051   1.434   2.538
    1TCM    cl3 3172   4.941   1.322   2.358
    1TCM     c1 3173   4.195   3.120   3.999
    1TCM    cl1 3174   4.038   3.061   4.059
    1TCM    cl2 3175   4.318   2.992   4.019
    1TCM     h1 3176   4.186   3.146   3.891
    1TCM    cl3 3177   4.244   3.264   4.091
    1TCM     c1 3178   1.617   3.555   3.459
    1TCM    cl1 3179   1.717   3.644   3.342
    1TCM    cl2 3180   1.631   3.380   3.428
    1TCM     h1 3181   1.651   3.577   3.562
    1TCM    cl3 3182   1.447   3.604   3.442
    1TCM     c1 3183   2.562   3.246   2.625
    1TCM    cl1 3184   2.455   3.195   2.758
    1TCM    cl2 3185   2.728   3.259   2.685
    1TCM     h1 3186   2.558   3.170   2.544
    1TCM    cl3 3187   2.508   3.403   2.563
    1TCM     c1 3188   1.913   2.966   0.207
    1TCM    cl1 3189   1.817   2.951   0.356
    1TCM    cl2 3190   1.821   3.060   0.087
    1TCM     h1 3191   2.008   3.019   0.230
    1TCM    cl3 3192   1.948   2.805   0.142
    1TCM     c1 3193   4.833   0.835   2.872
    1TCM    cl1 3194   4.839   0.657   2.872
    1TCM    cl2 3195   4.714   0.890   2.751
    1TCM     h1 3196   4.804   0.871   2.972
    1TCM    cl3 3197   4.993   0.900   2.830
    1TCM     c1 3198   4.891   2.048   1.276
    1TCM    cl1 3199   4.765   2.017   1.155
    1TCM    cl2 3200   4.847   2.189   1.374
    1TCM     h1 3201   4.901   1.959   1.342
    1TCM    cl3 3202   5.046   2.078   1.194
    1TCM     c1 3203   3.193   4.048   0.417
    1TCM    cl1 3204   3.292   3.911   0.362
    1TCM    cl2 3205   3.238   4.194   0.326
    1TCM     h1 3206   3.085   4.026   0.399
    1TCM    cl3 3207   3.220   4.076   0.590
    1TCM     c1 3208   2.743   4.043   3.588
    1TCM    cl1 3209   2.761   4.025   3.764
    1TCM    cl2 3210   2.861   3.940   3.505
    1TCM     h1 3211   2.640   4.014   3.558
    1TCM    cl3 3212   2.771   4.213   3.543
    1TCM     c1 3213   2.098   4.520   2.214
    1TCM    cl1 3214   2.219   4.403   2.270
    1TCM    cl2 3215   1.991   4.565   2.349
    1TCM     h1 3216   2.149   4.611   2.176
    1TCM    cl3 3217   2.000   4.448   2.084
    1TCM     c1 3218   1.628   1.832   0.748
    1TCM    cl1 3219   1.510   1.728   0.830
    1TCM    cl2 3220   1.775   1.845   0.847
    1TCM     h1 3221   1.653   1.788   0.649
    1TCM    cl3 3222   1.557   1.994   0.724
    1TCM     c1 3223   0.266   2.830   4.386
    1TCM    cl1 3224   0.366   2.938   4.287
    1TCM    cl2 3225   0.293   2.662   4.337
    1TCM     h1 3226   0.293   2.842   4.493
    1TCM    cl3 3227   0.094   2.871   4.364
    1TCM     c1 3228   0.522   1.579   4.704
    1TCM    cl1 3229   0.572   1.741   4.756
    1TCM    cl2 3230   0.601   1.457   4.806
    1TCM     h1 3231   0.412   1.569   4.714
    1TCM    cl3 3232   0.569   1.554   4.535
    1TCM     c1 3233   4.967   2.934   0.666
    1TCM    cl1 3234   4.935   3.083   0.759
    1TCM    cl2 3235   4.864   2.803   0.727
    1TCM     h1 3236   4.945   2.952   0.559
    1TCM    cl3 3237   5.138   2.889   0.684
    1TCM     c1 3238   2.209   4.279   4.795
    1TCM    cl1 3239   2.358   4.183   4.807
    1TCM    cl2 3240   2.193   4.381   4.940
    1TCM     h1 3241   2.214   4.344   4.705
    1TCM    cl3 3242   2.069   4.170   4.784
    1TCM     c1 3243   3.091   3.468   3.234
    1TCM    cl1 3244   2.933   3.505   3.161
    1TCM    cl2 3245   3.194   3.613   3.229
    1TCM     h1 3246   3.076   3.436   3.339
    1TCM    cl3 3247   3.169   3.336   3.143
    1TCM     c1 3248   2.966   4.366   0.368
    1TCM    cl1 3249   2.959   4.215   0.462
    1TCM    cl2 3250   3.108   4.363   0.262
    1TCM     h1 3251   2.874   4.375   0.307
    1TCM    cl3 3252   2.977   4.504   0.479
    1TCM     c1 3253   3.435   4.482   0.475
    1TCM    cl1 3254   3.507   4.392   0.339
    1TCM    cl2 3255   3.516   4.435   0.626
    1TCM     h1 3256   3.447   4.591   0.458
    1TCM    cl3 3257   3.262   4.443   0.486
    1TCM     c1 3258   2.360   3.754   1.033
    1TCM    cl1 3259   2.489   3.872   0.998
    1TCM    cl2 3260   2.357   3.721   1.208
    1TCM     h1 3261   2.262   3.796   1.001
    1TCM    cl3 3262   2.393   3.604   0.945
    1TCM     c1 3263   4.094   3.939   3.753
    1TCM    cl1 3264   4.187   3.894   3.608
    1TCM    cl2 3265   4.207   3.978   3.885
    1TCM     h1 3266   4.031   4.028   3.731
    1TCM    cl3 3267   3.990   3.803   3.802
    1TCM     c1 3268   5.221   4.782   4.202
    1TCM    cl1 3269   5.067   4.743   4.122
    1TCM    cl2 3270   5.190   4.841   4.366
    1TCM     h1 3271   5.284   4.690   4.207
    1TCM    cl3 3272   5.307   4.907   4.109
    1TCM     c1 3273   4.216   0.346   3.568
    1TCM    cl1 3274   4.239   0.234   3.704
    1TCM    cl2 3275   4.067   0.441   3.595
    1TCM     h1 3276   4.302   0.415   3.562
    1TCM    cl3 3277   4.201   0.254   3.417
    1TCM     c1 3278   2.443   2.668   3.446
    1TCM    cl1 3279   2.390   2.793   3.332
    1TCM    cl2 3280   2.391   2.711   3.610
    1TCM     h1 3281   2.397   2.570   3.417
    1TCM    cl3 3282   2.620   2.654   3.441
    1TCM     c1 3283   4.965   4.671   2.678
    1TCM    cl1 3284   5.065   4.807   2.622
    1TCM    cl2 3285   4.957   4.673   2.856
    1TCM     h1 3286   4.862   4.682   2.637
    1TCM    cl3 3287   5.036   4.518   2.623
    1TCM     c1 3288   2.414   0.777   2.092
    1TCM    cl1 3289   2.332   0.682   1.965
    1TCM    cl2 3290   2.408   0.688   2.245
    1TCM     h1 3291   2.520   0.794   2.062
    1TCM    cl3 3292   2.332   0.934   2.111
    1TCM     c1 3293   0.287   2.386   3.071
    1TCM    cl1 3294   0.187   2.344   2.930
    1TCM    cl2 3295   0.393   2.249   3.112
    1TCM     h1 3296   0.350   2.474   3.047
    1TCM    cl3 3297   0.182   2.423   3.209
    1TCM     c1 3298   1.098   4.056   1.113
    1TCM    cl1 3299   1.101   4.057   0.936
    1TCM    cl2 3300   1.231   3.955   1.174
    1TCM     h1 3301   1.110   4.160   1.151
    1TCM    cl3 3302   0.943   3.991   1.170
    1TCM     c1 3303   2.645   3.067   0.701
    1TCM    cl1 3304   2.741   3.034   0.555
    1TCM    cl2 3305   2.559   3.222   0.681
    1TCM     h1 3306   2.571   2.986   0.716
    1TCM    cl3 3307   2.753   3.077   0.841
    1TCM     c1 3308   0.616   0.651   0.872
    1TCM    cl1 3309   0.767   0.605   0.790
    1TCM    cl2 3310   0.607   0.570   1.030
    1TCM     h1 3311   0.614   0.762   0.887
    1TCM    cl3 3312   0.477   0.603   0.772
    1TCM     c1 3313   5.056   2.133   3.262
    1TCM    cl1 3314   5.024   2.262   3.379
    1TCM    cl2 3315   5.067   2.202   3.099
    1TCM     h1 3316   5.152   2.083   3.287
    1TCM    cl3 3317   4.925   2.014   3.267
    1TCM     c1 3318   2.505   1.015   3.497
    1TCM    cl1 3319   2.646   1.038   3.391
    1TCM    cl2 3320   2.546   1.067   3.662
    1TCM     h1 3321   2.420   1.076   3.459
    1TCM    cl3 3322   2.459   0.843   3.499
    1TCM     c1 3323   5.092   1.031   2.247
    1TCM    cl1 3324   5.183   1.177   2.203
    1TCM    cl2 3325   5.177   0.887   2.184
    1TCM     h1 3326   5.085   1.024   2.358
    1TCM    cl3 3327   4.929   1.038   2.177
    1TCM     c1 3328   3.972   0.500   4.516
    1TCM    cl1 3329   3.832   0.436   4.604
    1TCM    cl2 3330   4.001   0.668   4.563
    1TCM     h1 3331   4.062   0.438   4.539
    1TCM    cl3 3332   3.940   0.492   4.341
    1TCM     c1 3333   5.113   0.884   5.066
    1TCM    cl1 3334   5.208   0.802   4.940
    1TCM    cl2 3335   5.191   0.860   5.224
    1TCM     h1 3336   5.107   0.993   5.043
    1TCM    cl3 3337   4.948   0.816   5.070
    1TCM     c1 3338   2.875   0.544   1.482
    1TCM    cl1 3339   3.025   0.599   1.404
    1TCM    cl2 3340   2.872   0.599   1.651
    1TCM     h1 3341   2.788   0.587   1.428
    1TCM    cl3 3342   2.867   0.367   1.477
    1TCM     c1 3343   2.107   1.345   3.837
    1TCM    cl1 3344   2.125   1.400   4.006
    1TCM    cl2 3345   1.953   1.257   3.820
    1TCM     h1 3346   2.107   1.433   3.770
    1TCM    cl3 3347   2.242   1.237   3.795
    1TCM     c1 3348   3.426   1.418   2.198
    1TCM    cl1 3349   3.385   1.564   2.104
    1TCM    cl2 3350   3.590   1.436   2.265
    1TCM     h1 3351   3.354   1.406   2.281
    1TCM    cl3 3352   3.421   1.276   2.092
    1TCM     c1 3353   3.877   2.148   4.326
    1TCM    cl1 3354   4.000   2.079   4.218
    1TCM    cl2 3355   3.943   2.160   4.491
    1TCM     h1 3356   3.848   2.249   4.290
    1TCM    cl3 3357   3.733   2.043   4.327
    1TCM     c1 3358   1.421   2.350   4.333
    1TCM    cl1 3359   1.275   2.371   4.432
    1TCM    cl2 3360   1.406   2.445   4.184
    1TCM     h1 3361   1.510   2.385   4.390
    1TCM    cl3 3362   1.441   2.178   4.292
    1TCM     c1 3363   1.071   0.451   2.045
    1TCM    cl1 3364   1.003   0.455   2.209
    1TCM    cl2 3365   1.067   0.285   1.982
    1TCM     h1 3366   1.012   0.517   1.979
    1TCM    cl3 3367   1.240   0.508   2.049
   5.54000   5.54000   5.54000
