FOO
 3367
    1POM     C1    1   2.490   0.101   1.246
    1POM     O2    2   2.358   0.159   1.232
    1POM     C3    3   2.292   0.137   1.111
    1POM     C4    4   2.352   0.074   0.999
    1POM     C5    5   2.278   0.052   0.881
    1POM     C6    6   2.143   0.092   0.873
    1POM     C7    7   2.065   0.057   0.751
    1POM     C8    8   1.942  -0.011   0.762
    1POM     C9    9   1.868  -0.044   0.647
    1POM    C10   10   1.916  -0.009   0.520
    1POM    C11   11   2.041   0.057   0.506
    1POM    C12   12   2.091   0.095   0.372
    1POM    O13   13   2.152   0.201   0.360
    1POM    C14   14   2.115   0.090   0.623
    1POM    C15   15   2.083   0.159   0.984
    1POM    C16   16   1.947   0.218   0.975
    1POM    C17   17   1.846   0.180   1.066
    1POM    C18   18   1.716   0.235   1.055
    1POM    C19   19   1.688   0.331   0.954
    1POM    C20   20   1.547   0.390   0.935
    1POM    C21   21   1.473   0.307   0.829
    1POM    N22   22   1.459   0.398   1.053
    1POM    C23   23   1.790   0.370   0.866
    1POM    C24   24   1.919   0.314   0.876
    1POM    C25   25   2.159   0.181   1.101
    1POM    H26   26   2.525   0.120   1.348
    1POM    H27   27   2.486  -0.007   1.230
    1POM    H28   28   2.559   0.148   1.175
    1POM    H29   29   2.455   0.040   1.001
    1POM    H30   30   2.324   0.000   0.798
    1POM    H31   31   1.905  -0.039   0.861
    1POM    H32   32   1.773  -0.096   0.656
    1POM    H33   33   1.857  -0.032   0.431
    1POM    H34   34   2.209   0.143   0.613
    1POM    H35   35   1.867   0.107   1.143
    1POM    H36   36   1.639   0.204   1.124
    1POM    H37   37   1.558   0.492   0.896
    1POM    H38   38   1.376   0.353   0.808
    1POM    H39   39   1.459   0.205   0.866
    1POM    H40   40   1.533   0.304   0.737
    1POM    H41   41   1.359   0.402   1.037
    1POM    H42   42   1.771   0.444   0.788
    1POM    H43   43   1.997   0.344   0.806
    1POM    H44   44   2.115   0.234   1.185
    2POM    C45   45   1.183  -0.102   1.908
    2POM    O46   46   1.178   0.042   1.927
    2POM    C47   47   1.201   0.123   1.816
    2POM    C48   48   1.227   0.073   1.686
    2POM    C49   49   1.249   0.162   1.579
    2POM    C50   50   1.245   0.301   1.599
    2POM    C51   51   1.263   0.392   1.481
    2POM    C52   52   1.170   0.495   1.457
    2POM    C53   53   1.185   0.581   1.346
    2POM    C54   54   1.293   0.563   1.257
    2POM    C55   55   1.385   0.458   1.279
    2POM    C56   56   1.494   0.436   1.182
    2POM    O57   57   1.606   0.480   1.206
    2POM    C58   58   1.371   0.373   1.391
    2POM    C59   59   1.222   0.352   1.730
    2POM    C60   60   1.242   0.496   1.760
    2POM    C61   61   1.133   0.581   1.785
    2POM    C62   62   1.154   0.720   1.802
    2POM    C63   63   1.285   0.774   1.799
    2POM    C64   64   1.313   0.924   1.805
    2POM    C65   65   1.349   0.974   1.663
    2POM    N66   66   1.206   1.013   1.854
    2POM    C67   67   1.394   0.686   1.779
    2POM    C68   68   1.373   0.548   1.759
    2POM    C69   69   1.200   0.262   1.837
    2POM    H70   70   1.166  -0.150   2.004
    2POM    H71   71   1.104  -0.133   1.839
    2POM    H72   72   1.281  -0.132   1.870
    2POM    H73   73   1.231  -0.034   1.665
    2POM    H74   74   1.268   0.122   1.479
    2POM    H75   75   1.085   0.509   1.523
    2POM    H76   76   1.114   0.661   1.330
    2POM    H77   77   1.305   0.630   1.173
    2POM    H78   78   1.443   0.293   1.409
    2POM    H79   79   1.032   0.541   1.787
    2POM    H80   80   1.068   0.786   1.814
    2POM    H81   81   1.401   0.940   1.869
    2POM    H82   82   1.373   1.080   1.667
    2POM    H83   83   1.265   0.957   1.596
    2POM    H84   84   1.436   0.919   1.627
    2POM    H85   85   1.200   1.106   1.814
    2POM    H86   86   1.496   0.725   1.776
    2POM    H87   87   1.457   0.482   1.740
    2POM    H88   88   1.187   0.301   1.937
    3POM    C89   89   0.181   1.130   1.976
    3POM    O90   90   0.257   1.178   2.090
    3POM    C91   91   0.396   1.181   2.079
    3POM    C92   92   0.468   1.134   1.966
    3POM    C93   93   0.609   1.139   1.965
    3POM    C94   94   0.680   1.190   2.076
    3POM    C95   95   0.828   1.206   2.064
    3POM    C96   96   0.886   1.333   2.085
    3POM    C97   97   1.025   1.352   2.067
    3POM    C98   98   1.107   1.243   2.033
    3POM    C99   99   1.050   1.115   2.012
    3POM   C100  100   1.137   1.002   1.973
    3POM   O101  101   1.172   0.921   2.058
    3POM   C102  102   0.910   1.097   2.027
    3POM   C103  103   0.608   1.236   2.190
    3POM   C104  104   0.675   1.278   2.316
    3POM   C105  105   0.632   1.393   2.385
    3POM   C106  106   0.686   1.427   2.510
    3POM   C107  107   0.783   1.344   2.571
    3POM   C108  108   0.839   1.369   2.712
    3POM   C109  109   0.958   1.467   2.704
    3POM   N110  110   0.744   1.411   2.817
    3POM   C111  111   0.831   1.232   2.499
    3POM   C112  112   0.778   1.199   2.373
    3POM   C113  113   0.467   1.232   2.189
    3POM   H114  114   0.075   1.135   2.001
    3POM   H115  115   0.200   1.193   1.889
    3POM   H116  116   0.208   1.026   1.955
    3POM   H117  117   0.418   1.094   1.878
    3POM   H118  118   0.663   1.106   1.877
    3POM   H119  119   0.824   1.418   2.113
    3POM   H120  120   1.068   1.450   2.081
    3POM   H121  121   1.214   1.258   2.022
    3POM   H122  122   0.866   0.999   2.011
    3POM   H123  123   0.555   1.457   2.341
    3POM   H124  124   0.650   1.518   2.557
    3POM   H125  125   0.881   1.275   2.746
    3POM   H126  126   1.002   1.479   2.803
    3POM   H127  127   0.924   1.564   2.667
    3POM   H128  128   1.033   1.426   2.637
    3POM   H129  129   0.788   1.407   2.908
    3POM   H130  130   0.909   1.169   2.541
    3POM   H131  131   0.813   1.110   2.322
    3POM   H132  132   0.410   1.265   2.275
    4POM   C133  133   0.431   2.443   2.679
    4POM   O134  134   0.446   2.394   2.815
    4POM   C135  135   0.510   2.271   2.833
    4POM   C136  136   0.558   2.191   2.726
    4POM   C137  137   0.621   2.068   2.752
    4POM   C138  138   0.636   2.022   2.884
    4POM   C139  139   0.708   1.893   2.907
    4POM   C140  140   0.817   1.888   2.997
    4POM   C141  141   0.876   1.764   3.029
    4POM   C142  142   0.827   1.645   2.971
    4POM   C143  143   0.720   1.650   2.877
    4POM   C144  144   0.669   1.526   2.813
    4POM   O145  145   0.550   1.517   2.784
    4POM   C146  146   0.662   1.775   2.846
    4POM   C147  147   0.586   2.100   2.993
    4POM   C148  148   0.593   2.053   3.135
    4POM   C149  149   0.641   2.138   3.237
    4POM   C150  150   0.658   2.089   3.368
    4POM   C151  151   0.628   1.954   3.399
    4POM   C152  152   0.653   1.897   3.538
    4POM   C153  153   0.801   1.913   3.579
    4POM   N154  154   0.551   1.949   3.631
    4POM   C155  155   0.575   1.871   3.298
    4POM   C156  156   0.556   1.920   3.168
    4POM   C157  157   0.525   2.225   2.965
    4POM   H158  158   0.380   2.539   2.683
    4POM   H159  159   0.529   2.456   2.633
    4POM   H160  160   0.370   2.373   2.621
    4POM   H161  161   0.549   2.222   2.622
    4POM   H162  162   0.659   2.009   2.669
    4POM   H163  163   0.852   1.979   3.045
    4POM   H164  164   0.957   1.760   3.101
    4POM   H165  165   0.874   1.552   2.999
    4POM   H166  166   0.578   1.779   2.777
    4POM   H167  167   0.670   2.240   3.214
    4POM   H168  168   0.698   2.154   3.445
    4POM   H169  169   0.635   1.789   3.532
    4POM   H170  170   0.815   1.868   3.678
    4POM   H171  171   0.830   2.018   3.581
    4POM   H172  172   0.864   1.860   3.506
    4POM   H173  173   0.454   1.923   3.615
    4POM   H174  174   0.549   1.767   3.319
    4POM   H175  175   0.517   1.853   3.092
    4POM   H176  176   0.486   2.285   3.046
    5CAP   C177  177   2.113  -0.128   0.289
    5CAP   O178  178   2.081   0.012   0.264
    5CAP   H179  179   2.208  -0.136   0.343
    5CAP   H180  180   2.122  -0.178   0.192
    5CAP   H181  181   2.033  -0.176   0.346
    6CAP   C182  182   0.353   2.029   4.044
    6CAP   C183  183   0.480   2.075   3.968
    6CAP   C184  184   0.471   2.229   3.954
    6CAP   C185  185   0.602   2.030   4.052
    6CAP   O186  186   0.471   2.003   3.840
    6CAP   C187  187   0.569   2.021   3.747
    6CAP   O188  188   0.660   2.102   3.754
    6CAP   H189  189   0.350   2.077   4.142
    6CAP   H190  190   0.264   2.058   3.987
    6CAP   H191  191   0.355   1.920   4.056
    6CAP   H192  192   0.386   2.254   3.890
    6CAP   H193  193   0.563   2.269   3.911
    6CAP   H194  194   0.457   2.274   4.053
    6CAP   H195  195   0.601   1.921   4.062
    6CAP   H196  196   0.695   2.061   4.003
    6CAP   H197  197   0.597   2.076   4.151
    7TCM     c1  198   4.333   0.496   2.458
    7TCM    cl1  199   4.394   0.380   2.335
    7TCM    cl2  200   4.335   0.416   2.619
    7TCM     h1  201   4.397   0.584   2.460
    7TCM    cl3  202   4.165   0.545   2.418
    8TCM     c1  203   1.703   2.414   4.338
    8TCM    cl1  204   1.629   2.325   4.201
    8TCM    cl2  205   1.755   2.297   4.464
    8TCM     h1  206   1.790   2.471   4.303
    8TCM    cl3  207   1.581   2.527   4.407
    9TCM     c1  208   1.708   2.392   0.700
    9TCM    cl1  209   1.699   2.369   0.522
    9TCM    cl2  210   1.563   2.319   0.777
    9TCM     h1  211   1.798   2.343   0.738
    9TCM    cl3  212   1.716   2.567   0.737
   10TCM     c1  213   2.628   0.635   3.580
   10TCM    cl1  214   2.741   0.505   3.533
   10TCM    cl2  215   2.471   0.609   3.496
   10TCM     h1  216   2.612   0.633   3.688
   10TCM    cl3  217   2.696   0.794   3.532
   11TCM     c1  218   2.265   1.592   2.738
   11TCM    cl1  219   2.390   1.557   2.615
   11TCM    cl2  220   2.200   1.757   2.712
   11TCM     h1  221   2.183   1.519   2.729
   11TCM    cl3  222   2.339   1.579   2.901
   12TCM     c1  223   4.912   1.106   4.961
   12TCM    cl1  224   4.814   1.138   5.108
   12TCM    cl2  225   5.040   1.231   4.946
   12TCM     h1  226   4.959   1.007   4.970
   12TCM    cl3  227   4.808   1.110   4.815
   13TCM     c1  228   3.060   0.828   2.525
   13TCM    cl1  229   2.906   0.915   2.556
   13TCM    cl2  230   3.028   0.688   2.418
   13TCM     h1  231   3.131   0.896   2.478
   13TCM    cl3  232   3.128   0.770   2.681
   14TCM     c1  233   3.494   4.016   4.560
   14TCM    cl1  234   3.407   4.167   4.600
   14TCM    cl2  235   3.517   4.005   4.382
   14TCM     h1  236   3.592   4.016   4.609
   14TCM    cl3  237   3.399   3.875   4.616
   15TCM     c1  238   0.501   3.981   3.341
   15TCM    cl1  239   0.324   3.967   3.367
   15TCM    cl2  240   0.550   3.868   3.211
   15TCM     h1  241   0.525   4.083   3.313
   15TCM    cl3  242   0.587   3.937   3.492
   16TCM     c1  243   3.931   1.039   2.495
   16TCM    cl1  244   4.006   1.185   2.565
   16TCM    cl2  245   4.048   0.957   2.387
   16TCM     h1  246   3.901   0.971   2.575
   16TCM    cl3  247   3.785   1.087   2.401
   17TCM     c1  248   0.101   2.992   4.100
   17TCM    cl1  249   0.081   2.847   4.205
   17TCM    cl2  250   0.141   3.134   4.201
   17TCM     h1  251   0.182   2.974   4.029
   17TCM    cl3  252  -0.051   3.022   4.010
   18TCM     c1  253   0.334   2.903   1.064
   18TCM    cl1  254   0.400   2.840   0.910
   18TCM    cl2  255   0.366   2.786   1.196
   18TCM     h1  256   0.383   2.998   1.088
   18TCM    cl3  257   0.157   2.928   1.049
   19TCM     c1  258   1.539   1.804   2.208
   19TCM    cl1  259   1.679   1.700   2.168
   19TCM    cl2  260   1.421   1.799   2.073
   19TCM     h1  261   1.491   1.768   2.300
   19TCM    cl3  262   1.594   1.973   2.230
   20TCM     c1  263   4.607   4.197   0.359
   20TCM    cl1  264   4.724   4.332   0.372
   20TCM    cl2  265   4.449   4.250   0.427
   20TCM     h1  266   4.595   4.168   0.254
   20TCM    cl3  267   4.668   4.058   0.454
   21TCM     c1  268   2.478   0.177   3.630
   21TCM    cl1  269   2.369   0.299   3.703
   21TCM    cl2  270   2.629   0.168   3.727
   21TCM     h1  271   2.429   0.079   3.631
   21TCM    cl3  272   2.516   0.223   3.461
   22TCM     c1  273   2.756   1.758   2.768
   22TCM    cl1  274   2.593   1.820   2.812
   22TCM    cl2  275   2.821   1.858   2.634
   22TCM     h1  276   2.822   1.764   2.854
   22TCM    cl3  277   2.742   1.588   2.713
   23TCM     c1  278   0.781   3.063   4.759
   23TCM    cl1  279   0.907   2.950   4.817
   23TCM    cl2  280   0.665   3.097   4.891
   23TCM     h1  281   0.828   3.156   4.726
   23TCM    cl3  282   0.692   2.989   4.621
   24TCM     c1  283   4.430   3.339   1.878
   24TCM    cl1  284   4.380   3.225   1.750
   24TCM    cl2  285   4.582   3.281   1.954
   24TCM     h1  286   4.447   3.438   1.835
   24TCM    cl3  287   4.302   3.350   2.003
   25TCM     c1  288   0.329   3.711   4.594
   25TCM    cl1  289   0.324   3.719   4.415
   25TCM    cl2  290   0.245   3.854   4.663
   25TCM     h1  291   0.280   3.620   4.628
   25TCM    cl3  292   0.500   3.710   4.650
   26TCM     c1  293   2.078   0.855   3.264
   26TCM    cl1  294   2.028   0.898   3.431
   26TCM    cl2  295   2.095   1.006   3.168
   26TCM     h1  296   2.174   0.803   3.267
   26TCM    cl3  297   1.953   0.750   3.189
   27TCM     c1  298   1.153   1.931   2.439
   27TCM    cl1  299   1.120   1.874   2.273
   27TCM    cl2  300   1.031   2.054   2.486
   27TCM     h1  301   1.149   1.846   2.508
   27TCM    cl3  302   1.316   2.005   2.445
   28TCM     c1  303   3.098   4.740   4.436
   28TCM    cl1  304   3.131   4.623   4.304
   28TCM    cl2  305   3.111   4.658   4.594
   28TCM     h1  306   3.171   4.822   4.430
   28TCM    cl3  307   2.932   4.805   4.417
   29TCM     c1  308   2.770   2.451   1.844
   29TCM    cl1  309   2.818   2.313   1.949
   29TCM    cl2  310   2.834   2.604   1.912
   29TCM     h1  311   2.810   2.435   1.743
   29TCM    cl3  312   2.591   2.461   1.836
   30TCM     c1  313   2.852   2.070   4.906
   30TCM    cl1  314   3.006   2.089   4.816
   30TCM    cl2  315   2.868   1.934   5.023
   30TCM     h1  316   2.830   2.162   4.960
   30TCM    cl3  317   2.720   2.034   4.791
   31TCM     c1  318   0.107   0.039   1.102
   31TCM    cl1  319  -0.063   0.047   1.046
   31TCM    cl2  320   0.156   0.198   1.169
   31TCM     h1  321   0.117  -0.038   1.180
   31TCM    cl3  322   0.214  -0.003   0.964
   32TCM     c1  323   3.165   0.491   1.030
   32TCM    cl1  324   3.315   0.430   1.106
   32TCM    cl2  325   3.204   0.567   0.872
   32TCM     h1  326   3.095   0.408   1.014
   32TCM    cl3  327   3.089   0.613   1.137
   33TCM     c1  328   3.813   3.330   1.737
   33TCM    cl1  329   3.649   3.396   1.766
   33TCM    cl2  330   3.802   3.153   1.708
   33TCM     h1  331   3.858   3.378   1.650
   33TCM    cl3  332   3.916   3.360   1.881
   34TCM     c1  333   1.075   0.818   3.284
   34TCM    cl1  334   1.163   0.923   3.400
   34TCM    cl2  335   1.009   0.919   3.151
   34TCM     h1  336   1.143   0.743   3.243
   34TCM    cl3  337   0.940   0.735   3.369
   35TCM     c1  338   0.775   0.130   3.917
   35TCM    cl1  339   0.857  -0.018   3.858
   35TCM    cl2  340   0.656   0.184   3.794
   35TCM     h1  341   0.723   0.109   4.011
   35TCM    cl3  342   0.897   0.259   3.944
   36TCM     c1  343   2.807   3.648   3.263
   36TCM    cl1  344   2.934   3.582   3.371
   36TCM    cl2  345   2.712   3.772   3.351
   36TCM     h1  346   2.854   3.694   3.175
   36TCM    cl3  347   2.698   3.516   3.210
   37TCM     c1  348   0.369   0.915   2.319
   37TCM    cl1  349   0.288   0.903   2.479
   37TCM    cl2  350   0.318   0.777   2.216
   37TCM     h1  351   0.340   1.008   2.270
   37TCM    cl3  352   0.547   0.909   2.341
   38TCM     c1  353   0.017   1.987   1.936
   38TCM    cl1  354   0.166   2.083   1.963
   38TCM    cl2  355  -0.120   2.097   1.901
   38TCM     h1  356   0.032   1.919   1.852
   38TCM    cl3  357  -0.019   1.893   2.085
   39TCM     c1  358   1.510   3.558   2.185
   39TCM    cl1  359   1.449   3.617   2.027
   39TCM    cl2  360   1.435   3.654   2.317
   39TCM     h1  361   1.484   3.452   2.197
   39TCM    cl3  362   1.688   3.578   2.191
   40TCM     c1  363   3.842   1.309   2.114
   40TCM    cl1  364   3.740   1.412   2.220
   40TCM    cl2  365   3.962   1.412   2.030
   40TCM     h1  366   3.893   1.234   2.174
   40TCM    cl3  367   3.738   1.229   1.992
   41TCM     c1  368   0.824   2.098   2.026
   41TCM    cl1  369   0.897   2.160   2.178
   41TCM    cl2  370   0.894   1.937   1.989
   41TCM     h1  371   0.715   2.090   2.039
   41TCM    cl3  372   0.861   2.212   1.893
   42TCM     c1  373   2.303   3.818   1.663
   42TCM    cl1  374   2.385   3.852   1.819
   42TCM    cl2  375   2.212   3.664   1.674
   42TCM     h1  376   2.234   3.899   1.640
   42TCM    cl3  377   2.425   3.804   1.532
   43TCM     c1  378   0.829   4.725   1.134
   43TCM    cl1  379   0.986   4.651   1.181
   43TCM    cl2  380   0.861   4.876   1.041
   43TCM     h1  381   0.774   4.655   1.071
   43TCM    cl3  382   0.733   4.764   1.280
   44TCM     c1  383   0.303   1.104   4.648
   44TCM    cl1  384   0.412   1.048   4.517
   44TCM    cl2  385   0.378   1.066   4.806
   44TCM     h1  386   0.287   1.212   4.640
   44TCM    cl3  387   0.145   1.019   4.634
   45TCM     c1  388   1.301   3.602   4.476
   45TCM    cl1  389   1.400   3.712   4.578
   45TCM    cl2  390   1.355   3.613   4.305
   45TCM     h1  391   1.312   3.499   4.512
   45TCM    cl3  392   1.129   3.652   4.486
   46TCM     c1  393   0.521   0.712   4.616
   46TCM    cl1  394   0.347   0.704   4.661
   46TCM    cl2  395   0.578   0.548   4.573
   46TCM     h1  396   0.533   0.779   4.530
   46TCM    cl3  397   0.616   0.775   4.755
   47TCM     c1  398   1.108   4.260   1.934
   47TCM    cl1  399   1.062   4.263   2.107
   47TCM    cl2  400   1.230   4.387   1.902
   47TCM     h1  401   1.150   4.162   1.908
   47TCM    cl3  402   0.962   4.291   1.834
   48TCM     c1  403   3.097   4.100   4.812
   48TCM    cl1  404   3.222   4.006   4.901
   48TCM    cl2  405   3.131   4.275   4.825
   48TCM     h1  406   3.096   4.070   4.707
   48TCM    cl3  407   2.937   4.066   4.886
   49TCM     c1  408   1.554   1.540   1.241
   49TCM    cl1  409   1.457   1.420   1.151
   49TCM    cl2  410   1.576   1.688   1.141
   49TCM     h1  411   1.503   1.567   1.334
   49TCM    cl3  412   1.715   1.471   1.280
   50TCM     c1  413   3.339   0.435   2.050
   50TCM    cl1  414   3.217   0.534   2.137
   50TCM    cl2  415   3.375   0.288   2.146
   50TCM     h1  416   3.300   0.406   1.952
   50TCM    cl3  417   3.489   0.532   2.029
   51TCM     c1  418   0.055   0.660   2.008
   51TCM    cl1  419   0.157   0.736   1.882
   51TCM    cl2  420  -0.008   0.503   1.948
   51TCM     h1  421   0.114   0.643   2.098
   51TCM    cl3  422  -0.082   0.770   2.045
   52TCM     c1  423   3.392   2.521   0.927
   52TCM    cl1  424   3.344   2.350   0.952
   52TCM    cl2  425   3.555   2.525   0.852
   52TCM     h1  426   3.320   2.570   0.862
   52TCM    cl3  427   3.397   2.605   1.086
   53TCM     c1  428   4.176   0.067   0.465
   53TCM    cl1  429   4.313   0.016   0.360
   53TCM    cl2  430   4.231   0.074   0.635
   53TCM     h1  431   4.140   0.165   0.434
   53TCM    cl3  432   4.042  -0.052   0.451
   54TCM     c1  433   4.959   1.573   3.093
   54TCM    cl1  434   5.042   1.590   3.252
   54TCM    cl2  435   4.801   1.657   3.098
   54TCM     h1  436   5.022   1.616   3.014
   54TCM    cl3  437   4.934   1.399   3.059
   55TCM     c1  438   2.107   3.333   2.271
   55TCM    cl1  439   1.989   3.432   2.362
   55TCM    cl2  440   2.093   3.162   2.325
   55TCM     h1  441   2.086   3.340   2.164
   55TCM    cl3  442   2.273   3.392   2.305
   56TCM     c1  443   0.426   0.218   4.655
   56TCM    cl1  444   0.422   0.181   4.479
   56TCM    cl2  445   0.474   0.072   4.746
   56TCM     h1  446   0.496   0.299   4.674
   56TCM    cl3  447   0.261   0.268   4.708
   57TCM     c1  448   4.520   0.232   4.270
   57TCM    cl1  449   4.644   0.146   4.368
   57TCM    cl2  450   4.601   0.351   4.163
   57TCM     h1  451   4.465   0.159   4.209
   57TCM    cl3  452   4.405   0.317   4.379
   58TCM     c1  453   3.877   4.712   1.299
   58TCM    cl1  454   3.954   4.792   1.158
   58TCM    cl2  455   4.000   4.684   1.426
   58TCM     h1  456   3.796   4.775   1.338
   58TCM    cl3  457   3.810   4.554   1.247
   59TCM     c1  458   4.586   4.390   4.853
   59TCM    cl1  459   4.582   4.373   5.031
   59TCM    cl2  460   4.463   4.512   4.803
   59TCM     h1  461   4.685   4.423   4.820
   59TCM    cl3  462   4.546   4.232   4.778
   60TCM     c1  463   3.954   4.240   1.520
   60TCM    cl1  464   4.121   4.300   1.497
   60TCM    cl2  465   3.885   4.191   1.362
   60TCM     h1  466   3.955   4.153   1.587
   60TCM    cl3  467   3.853   4.370   1.592
   61TCM     c1  468   3.747   3.992   3.276
   61TCM    cl1  469   3.803   3.867   3.392
   61TCM    cl2  470   3.888   4.087   3.219
   61TCM     h1  471   3.700   3.943   3.190
   61TCM    cl3  472   3.629   4.101   3.355
   62TCM     c1  473   0.483   0.851   3.158
   62TCM    cl1  474   0.632   0.949   3.177
   62TCM    cl2  475   0.427   0.859   2.988
   62TCM     h1  476   0.503   0.748   3.186
   62TCM    cl3  477   0.354   0.918   3.265
   63TCM     c1  478   3.133   2.688   2.681
   63TCM    cl1  479   2.999   2.576   2.720
   63TCM    cl2  480   3.214   2.740   2.833
   63TCM     h1  481   3.205   2.639   2.616
   63TCM    cl3  482   3.065   2.832   2.598
   64TCM     c1  483   3.507   2.321   2.208
   64TCM    cl1  484   3.472   2.447   2.330
   64TCM    cl2  485   3.637   2.213   2.268
   64TCM     h1  486   3.416   2.263   2.189
   64TCM    cl3  487   3.561   2.401   2.057
   65TCM     c1  488   4.897   0.471   2.375
   65TCM    cl1  489   4.958   0.312   2.320
   65TCM    cl2  490   4.756   0.516   2.273
   65TCM     h1  491   4.866   0.464   2.480
   65TCM    cl3  492   5.026   0.594   2.358
   66TCM     c1  493   0.496   0.031   2.970
   66TCM    cl1  494   0.325   0.010   2.920
   66TCM    cl2  495   0.538   0.205   2.976
   66TCM     h1  496   0.511  -0.013   3.069
   66TCM    cl3  497   0.602  -0.051   2.851
   67TCM     c1  498   0.171   3.739   0.968
   67TCM    cl1  499   0.025   3.832   1.016
   67TCM    cl2  500   0.191   3.749   0.791
   67TCM     h1  501   0.259   3.781   1.017
   67TCM    cl3  502   0.151   3.568   1.018
   68TCM     c1  503   1.330   3.603   0.517
   68TCM    cl1  504   1.226   3.566   0.659
   68TCM    cl2  505   1.479   3.503   0.524
   68TCM     h1  506   1.275   3.581   0.425
   68TCM    cl3  507   1.375   3.777   0.521
   69TCM     c1  508   2.938   4.276   3.881
   69TCM    cl1  509   2.893   4.138   3.986
   69TCM    cl2  510   3.022   4.215   3.735
   69TCM     h1  511   2.847   4.330   3.851
   69TCM    cl3  512   3.046   4.387   3.973
   70TCM     c1  513   4.795   1.502   0.130
   70TCM    cl1  514   4.849   1.560  -0.032
   70TCM    cl2  515   4.679   1.621   0.198
   70TCM     h1  516   4.746   1.405   0.120
   70TCM    cl3  517   4.936   1.486   0.240
   71TCM     c1  518   2.805   4.734   3.845
   71TCM    cl1  519   2.901   4.879   3.803
   71TCM    cl2  520   2.833   4.688   4.017
   71TCM     h1  521   2.699   4.755   3.829
   71TCM    cl3  522   2.856   4.598   3.740
   72TCM     c1  523   3.687   4.081   1.850
   72TCM    cl1  524   3.623   3.938   1.937
   72TCM    cl2  525   3.638   4.074   1.678
   72TCM     h1  526   3.647   4.173   1.896
   72TCM    cl3  527   3.866   4.082   1.859
   73TCM     c1  528   0.656   0.370   3.297
   73TCM    cl1  529   0.637   0.539   3.355
   73TCM    cl2  530   0.642   0.256   3.434
   73TCM     h1  531   0.579   0.348   3.223
   73TCM    cl3  532   0.818   0.351   3.221
   74TCM     c1  533   1.212   1.495   2.396
   74TCM    cl1  534   1.279   1.610   2.516
   74TCM    cl2  535   1.306   1.509   2.244
   74TCM     h1  536   1.219   1.393   2.434
   74TCM    cl3  537   1.040   1.538   2.364
   75TCM     c1  538   1.035   0.699   2.235
   75TCM    cl1  539   0.909   0.822   2.269
   75TCM    cl2  540   0.959   0.536   2.232
   75TCM     h1  541   1.081   0.719   2.138
   75TCM    cl3  542   1.160   0.703   2.364
   76TCM     c1  543   3.009   0.990   3.610
   76TCM    cl1  544   2.928   1.079   3.477
   76TCM    cl2  545   2.922   1.018   3.764
   76TCM     h1  546   3.009   0.883   3.587
   76TCM    cl3  547   3.178   1.048   3.627
   77TCM     c1  548   4.667   4.953   0.783
   77TCM    cl1  549   4.505   4.876   0.789
   77TCM    cl2  550   4.683   5.049   0.632
   77TCM     h1  551   4.679   5.019   0.869
   77TCM    cl3  552   4.794   4.825   0.787
   78TCM     c1  553   0.428   4.261   0.259
   78TCM    cl1  554   0.510   4.277   0.100
   78TCM    cl2  555   0.551   4.251   0.389
   78TCM     h1  556   0.365   4.349   0.275
   78TCM    cl3  557   0.328   4.113   0.261
   79TCM     c1  558   2.435   3.305   1.947
   79TCM    cl1  559   2.568   3.312   2.068
   79TCM    cl2  560   2.345   3.460   1.950
   79TCM     h1  561   2.477   3.288   1.847
   79TCM    cl3  562   2.324   3.171   1.991
   80TCM     c1  563   0.299   3.279   0.850
   80TCM    cl1  564   0.352   3.414   0.745
   80TCM    cl2  565   0.434   3.234   0.959
   80TCM     h1  566   0.212   3.309   0.908
   80TCM    cl3  567   0.256   3.139   0.746
   81TCM     c1  568   3.190   3.550   0.845
   81TCM    cl1  569   3.175   3.648   0.696
   81TCM    cl2  570   3.150   3.653   0.986
   81TCM     h1  571   3.122   3.465   0.840
   81TCM    cl3  572   3.359   3.491   0.860
   82TCM     c1  573   3.050   3.108   4.869
   82TCM    cl1  574   2.952   3.035   4.738
   82TCM    cl2  575   3.005   3.033   5.026
   82TCM     h1  576   3.156   3.090   4.850
   82TCM    cl3  577   3.019   3.284   4.876
   83TCM     c1  578   1.102   1.298   1.567
   83TCM    cl1  579   1.213   1.296   1.426
   83TCM    cl2  580   1.197   1.335   1.714
   83TCM     h1  581   1.026   1.374   1.552
   83TCM    cl3  582   1.024   1.137   1.584
   84TCM     c1  583   2.002   2.550   4.715
   84TCM    cl1  584   1.894   2.618   4.589
   84TCM    cl2  585   2.152   2.649   4.722
   84TCM     h1  586   1.952   2.552   4.812
   84TCM    cl3  587   2.045   2.381   4.673
   85TCM     c1  588   2.234   4.099   3.773
   85TCM    cl1  589   2.058   4.088   3.808
   85TCM    cl2  590   2.324   4.124   3.925
   85TCM     h1  591   2.267   4.006   3.725
   85TCM    cl3  592   2.265   4.238   3.664
   86TCM     c1  593   0.748   0.219   0.015
   86TCM    cl1  594   0.585   0.178   0.077
   86TCM    cl2  595   0.833   0.321   0.136
   86TCM     h1  596   0.805   0.128  -0.002
   86TCM    cl3  597   0.732   0.309  -0.140
   87TCM     c1  598   0.900   0.548   2.930
   87TCM    cl1  599   0.777   0.659   2.999
   87TCM    cl2  600   1.057   0.576   3.013
   87TCM     h1  601   0.869   0.445   2.945
   87TCM    cl3  602   0.919   0.581   2.755
   88TCM     c1  603   4.574   3.038   3.155
   88TCM    cl1  604   4.649   3.200   3.167
   88TCM    cl2  605   4.479   3.029   3.003
   88TCM     h1  606   4.652   2.961   3.155
   88TCM    cl3  607   4.466   3.013   3.295
   89TCM     c1  608   3.371   4.654   0.007
   89TCM    cl1  609   3.531   4.662   0.089
   89TCM    cl2  610   3.379   4.537  -0.129
   89TCM     h1  611   3.295   4.622   0.079
   89TCM    cl3  612   3.330   4.816  -0.057
   90TCM     c1  613   1.722   0.079   3.497
   90TCM    cl1  614   1.807   0.230   3.544
   90TCM    cl2  615   1.840  -0.056   3.490
   90TCM     h1  616   1.645   0.056   3.570
   90TCM    cl3  617   1.648   0.101   3.335
   91TCM     c1  618   0.916   0.875   3.892
   91TCM    cl1  619   0.971   0.830   3.727
   91TCM    cl2  620   0.924   0.733   4.001
   91TCM     h1  621   0.979   0.955   3.931
   91TCM    cl3  622   0.746   0.932   3.883
   92TCM     c1  623   2.281   4.981   2.160
   92TCM    cl1  624   2.335   4.915   2.318
   92TCM    cl2  625   2.157   4.871   2.090
   92TCM     h1  626   2.238   5.080   2.175
   92TCM    cl3  627   2.422   4.992   2.048
   93TCM     c1  628   1.305   1.037   2.339
   93TCM    cl1  629   1.422   1.151   2.265
   93TCM    cl2  630   1.153   1.126   2.374
   93TCM     h1  631   1.284   0.954   2.271
   93TCM    cl3  632   1.372   0.974   2.494
   94TCM     c1  633   1.461   1.769   0.026
   94TCM    cl1  634   1.461   1.594   0.067
   94TCM    cl2  635   1.361   1.797  -0.120
   94TCM     h1  636   1.419   1.825   0.110
   94TCM    cl3  637   1.629   1.824  -0.004
   95TCM     c1  638   4.364   3.096   2.267
   95TCM    cl1  639   4.216   3.162   2.343
   95TCM    cl2  640   4.393   2.929   2.326
   95TCM     h1  641   4.353   3.095   2.158
   95TCM    cl3  642   4.504   3.199   2.313
   96TCM     c1  643   3.109   4.702   1.245
   96TCM    cl1  644   3.053   4.856   1.318
   96TCM    cl2  645   3.106   4.716   1.066
   96TCM     h1  646   3.210   4.680   1.278
   96TCM    cl3  647   2.999   4.569   1.296
   97TCM     c1  648   4.371   2.439   3.021
   97TCM    cl1  649   4.423   2.522   3.171
   97TCM    cl2  650   4.304   2.277   3.061
   97TCM     h1  651   4.295   2.499   2.970
   97TCM    cl3  652   4.513   2.417   2.913
   98TCM     c1  653   4.256   0.743   3.452
   98TCM    cl1  654   4.353   0.893   3.430
   98TCM    cl2  655   4.367   0.605   3.481
   98TCM     h1  656   4.189   0.755   3.537
   98TCM    cl3  657   4.160   0.711   3.304
   99TCM     c1  658   4.112   0.884   2.984
   99TCM    cl1  659   4.290   0.860   2.988
   99TCM    cl2  660   4.064   0.934   2.819
   99TCM     h1  661   4.061   0.791   3.011
   99TCM    cl3  662   4.065   1.013   3.099
  100TCM     c1  663   2.080   0.283   3.248
  100TCM    cl1  664   2.039   0.109   3.229
  100TCM    cl2  665   2.154   0.311   3.409
  100TCM     h1  666   2.150   0.313   3.169
  100TCM    cl3  667   1.930   0.381   3.234
  101TCM     c1  668   0.337   4.279   3.610
  101TCM    cl1  669   0.504   4.291   3.548
  101TCM    cl2  670   0.314   4.123   3.694
  101TCM     h1  671   0.318   4.361   3.679
  101TCM    cl3  672   0.223   4.291   3.471
  102TCM     c1  673   0.222   1.946   4.759
  102TCM    cl1  674   0.338   1.937   4.896
  102TCM    cl2  675   0.170   2.116   4.736
  102TCM     h1  676   0.271   1.911   4.668
  102TCM    cl3  677   0.078   1.844   4.793
  103TCM     c1  678   1.176   0.112   4.926
  103TCM    cl1  679   1.067   0.041   5.049
  103TCM    cl2  680   1.102   0.264   4.864
  103TCM     h1  681   1.272   0.135   4.972
  103TCM    cl3  682   1.199  -0.004   4.792
  104TCM     c1  683   0.859   2.278   0.999
  104TCM    cl1  684   0.980   2.206   1.111
  104TCM    cl2  685   0.750   2.149   0.938
  104TCM     h1  686   0.800   2.353   1.052
  104TCM    cl3  687   0.942   2.353   0.860
  105TCM     c1  688   4.782   1.628   2.268
  105TCM    cl1  689   4.681   1.777   2.263
  105TCM    cl2  690   4.768   1.542   2.111
  105TCM     h1  691   4.886   1.655   2.286
  105TCM    cl3  692   4.723   1.522   2.400
  106TCM     c1  693   2.950   1.309   2.354
  106TCM    cl1  694   3.026   1.467   2.318
  106TCM    cl2  695   2.879   1.311   2.519
  106TCM     h1  696   2.871   1.289   2.281
  106TCM    cl3  697   3.074   1.179   2.345
  107TCM     c1  698   3.186   0.374   2.534
  107TCM    cl1  699   3.193   0.200   2.490
  107TCM    cl2  700   3.341   0.453   2.492
  107TCM     h1  701   3.104   0.422   2.479
  107TCM    cl3  702   3.158   0.389   2.710
  108TCM     c1  703   2.293   4.627   0.945
  108TCM    cl1  704   2.368   4.738   1.064
  108TCM    cl2  705   2.418   4.571   0.829
  108TCM     h1  706   2.249   4.542   0.997
  108TCM    cl3  707   2.163   4.713   0.855
  109TCM     c1  708   0.448   3.251   3.863
  109TCM    cl1  709   0.315   3.365   3.901
  109TCM    cl2  710   0.506   3.279   3.696
  109TCM     h1  711   0.530   3.266   3.933
  109TCM    cl3  712   0.386   3.083   3.876
  110TCM     c1  713   2.279   4.981   1.587
  110TCM    cl1  714   2.198   4.927   1.738
  110TCM    cl2  715   2.446   5.034   1.627
  110TCM     h1  716   2.283   4.898   1.516
  110TCM    cl3  717   2.187   5.117   1.516
  111TCM     c1  718   2.684   4.797   3.404
  111TCM    cl1  719   2.596   4.843   3.554
  111TCM    cl2  720   2.633   4.632   3.357
  111TCM     h1  721   2.660   4.867   3.324
  111TCM    cl3  722   2.860   4.799   3.435
  112TCM     c1  723   3.411   3.585   4.834
  112TCM    cl1  724   3.577   3.582   4.766
  112TCM    cl2  725   3.418   3.564   5.012
  112TCM     h1  726   3.363   3.681   4.811
  112TCM    cl3  727   3.314   3.452   4.762
  113TCM     c1  728   1.881   0.031   4.568
  113TCM    cl1  729   2.018   0.071   4.459
  113TCM    cl2  730   1.914  -0.125   4.651
  113TCM     h1  731   1.869   0.110   4.642
  113TCM    cl3  732   1.731   0.015   4.472
  114TCM     c1  733   3.392   3.658   1.809
  114TCM    cl1  734   3.292   3.770   1.907
  114TCM    cl2  735   3.438   3.737   1.655
  114TCM     h1  736   3.482   3.631   1.864
  114TCM    cl3  737   3.297   3.509   1.773
  115TCM     c1  738   0.127   2.612   2.038
  115TCM    cl1  739   0.222   2.733   1.946
  115TCM    cl2  740   0.087   2.678   2.200
  115TCM     h1  741   0.034   2.589   1.984
  115TCM    cl3  742   0.224   2.462   2.057
  116TCM     c1  743   1.748   0.583   3.545
  116TCM    cl1  744   1.697   0.751   3.507
  116TCM    cl2  745   1.673   0.534   3.700
  116TCM     h1  746   1.717   0.515   3.466
  116TCM    cl3  747   1.927   0.578   3.561
  117TCM     c1  748   1.524   4.718   3.400
  117TCM    cl1  749   1.472   4.829   3.531
  117TCM    cl2  750   1.390   4.605   3.362
  117TCM     h1  751   1.549   4.776   3.310
  117TCM    cl3  752   1.668   4.625   3.454
  118TCM     c1  753   1.277   3.075   3.370
  118TCM    cl1  754   1.420   3.089   3.478
  118TCM    cl2  755   1.146   2.987   3.455
  118TCM     h1  756   1.243   3.175   3.341
  118TCM    cl3  757   1.324   2.984   3.222
  119TCM     c1  758   4.817   2.284   2.204
  119TCM    cl1  759   4.986   2.238   2.247
  119TCM    cl2  760   4.820   2.424   2.093
  119TCM     h1  761   4.768   2.199   2.155
  119TCM    cl3  762   4.728   2.328   2.353
  120TCM     c1  763   2.536   1.093   1.919
  120TCM    cl1  764   2.475   1.260   1.895
  120TCM    cl2  765   2.695   1.074   1.838
  120TCM     h1  766   2.547   1.073   2.026
  120TCM    cl3  767   2.419   0.977   1.847
  121TCM     c1  768   1.081   0.124   3.598
  121TCM    cl1  769   1.203   0.148   3.728
  121TCM    cl2  770   1.166   0.091   3.444
  121TCM     h1  771   1.016   0.039   3.624
  121TCM    cl3  772   0.982   0.273   3.581
  122TCM     c1  773   4.276   3.989   2.623
  122TCM    cl1  774   4.380   4.092   2.726
  122TCM    cl2  775   4.373   3.855   2.553
  122TCM     h1  776   4.195   3.946   2.684
  122TCM    cl3  777   4.205   4.088   2.491
  123TCM     c1  778   4.241   1.148   3.945
  123TCM    cl1  779   4.401   1.131   4.025
  123TCM    cl2  780   4.264   1.156   3.767
  123TCM     h1  781   4.178   1.063   3.970
  123TCM    cl3  782   4.163   1.300   4.001
  124TCM     c1  783   3.641   1.871   2.470
  124TCM    cl1  784   3.719   1.815   2.621
  124TCM    cl2  785   3.509   1.985   2.512
  124TCM     h1  786   3.715   1.921   2.406
  124TCM    cl3  787   3.571   1.731   2.382
  125TCM     c1  788   4.871   3.974   3.434
  125TCM    cl1  789   4.889   4.152   3.449
  125TCM    cl2  790   5.006   3.892   3.521
  125TCM     h1  791   4.776   3.943   3.478
  125TCM    cl3  792   4.875   3.927   3.261
  126TCM     c1  793   0.530   1.793   0.276
  126TCM    cl1  794   0.423   1.936   0.258
  126TCM    cl2  795   0.446   1.647   0.216
  126TCM     h1  796   0.622   1.809   0.219
  126TCM    cl3  797   0.571   1.772   0.449
  127TCM     c1  798   3.517   1.584   3.461
  127TCM    cl1  799   3.671   1.643   3.389
  127TCM    cl2  800   3.535   1.411   3.506
  127TCM     h1  801   3.493   1.643   3.550
  127TCM    cl3  802   3.385   1.602   3.340
  128TCM     c1  803   1.125   2.365   2.825
  128TCM    cl1  804   1.210   2.352   2.983
  128TCM    cl2  805   1.041   2.523   2.816
  128TCM     h1  806   1.198   2.358   2.744
  128TCM    cl3  807   1.005   2.232   2.811
  129TCM     c1  808   0.350   2.834   0.032
  129TCM    cl1  809   0.398   2.675   0.098
  129TCM    cl2  810   0.409   2.850  -0.136
  129TCM     h1  811   0.241   2.842   0.033
  129TCM    cl3  812   0.419   2.965   0.134
  130TCM     c1  813   0.676   4.540   4.877
  130TCM    cl1  814   0.790   4.565   5.014
  130TCM    cl2  815   0.769   4.494   4.731
  130TCM     h1  816   0.606   4.460   4.903
  130TCM    cl3  817   0.587   4.692   4.846
  131TCM     c1  818   4.889   4.635   0.012
  131TCM    cl1  819   4.932   4.475  -0.055
  131TCM    cl2  820   4.822   4.614   0.177
  131TCM     h1  821   4.978   4.699   0.016
  131TCM    cl3  822   4.764   4.710  -0.093
  132TCM     c1  823   0.899   1.383   0.259
  132TCM    cl1  824   1.050   1.478   0.248
  132TCM    cl2  825   0.782   1.469   0.365
  132TCM     h1  826   0.855   1.372   0.159
  132TCM    cl3  827   0.935   1.221   0.327
  133TCM     c1  828   2.456   0.488   3.134
  133TCM    cl1  829   2.428   0.312   3.123
  133TCM    cl2  830   2.302   0.570   3.176
  133TCM     h1  831   2.531   0.510   3.210
  133TCM    cl3  832   2.513   0.546   2.974
  134TCM     c1  833   0.531   1.341   3.160
  134TCM    cl1  834   0.442   1.245   3.038
  134TCM    cl2  835   0.496   1.516   3.138
  134TCM     h1  836   0.500   1.310   3.260
  134TCM    cl3  837   0.707   1.313   3.141
  135TCM     c1  838   0.252   4.424   4.799
  135TCM    cl1  839   0.280   4.531   4.940
  135TCM    cl2  840   0.235   4.255   4.857
  135TCM     h1  841   0.161   4.455   4.747
  135TCM    cl3  842   0.392   4.437   4.687
  136TCM     c1  843   4.348   1.363   2.231
  136TCM    cl1  844   4.365   1.328   2.056
  136TCM    cl2  845   4.183   1.316   2.284
  136TCM     h1  846   4.422   1.306   2.288
  136TCM    cl3  847   4.371   1.538   2.259
  137TCM     c1  848   1.819   0.416   1.431
  137TCM    cl1  849   1.713   0.485   1.559
  137TCM    cl2  850   1.794   0.238   1.423
  137TCM     h1  851   1.795   0.461   1.335
  137TCM    cl3  852   1.991   0.449   1.471
  138TCM     c1  853   2.079   1.823   3.138
  138TCM    cl1  854   2.235   1.875   3.066
  138TCM    cl2  855   2.031   1.664   3.070
  138TCM     h1  856   2.091   1.814   3.247
  138TCM    cl3  857   1.952   1.944   3.101
  139TCM     c1  858   2.472   3.620   3.615
  139TCM    cl1  859   2.397   3.612   3.452
  139TCM    cl2  860   2.508   3.792   3.655
  139TCM     h1  861   2.404   3.579   3.689
  139TCM    cl3  862   2.625   3.527   3.615
  140TCM     c1  863   0.873   1.429   3.427
  140TCM    cl1  864   0.715   1.504   3.466
  140TCM    cl2  865   0.969   1.410   3.577
  140TCM     h1  866   0.857   1.331   3.381
  140TCM    cl3  867   0.962   1.535   3.312
  141TCM     c1  868   0.708   4.451   1.593
  141TCM    cl1  869   0.568   4.554   1.549
  141TCM    cl2  870   0.830   4.456   1.461
  141TCM     h1  871   0.753   4.488   1.685
  141TCM    cl3  872   0.652   4.282   1.615
  142TCM     c1  873   3.424   4.138   2.323
  142TCM    cl1  874   3.481   4.257   2.203
  142TCM    cl2  875   3.557   4.103   2.439
  142TCM     h1  876   3.338   4.178   2.377
  142TCM    cl3  877   3.377   3.986   2.239
  143TCM     c1  878   0.469   2.350   3.537
  143TCM    cl1  879   0.630   2.403   3.596
  143TCM    cl2  880   0.444   2.415   3.371
  143TCM     h1  881   0.465   2.241   3.535
  143TCM    cl3  882   0.342   2.414   3.645
  144TCM     c1  883   1.844   3.941   1.697
  144TCM    cl1  884   1.997   3.962   1.789
  144TCM    cl2  885   1.847   3.782   1.615
  144TCM     h1  886   1.759   3.946   1.766
  144TCM    cl3  887   1.830   4.071   1.574
  145TCM     c1  888   1.636   1.791   2.732
  145TCM    cl1  889   1.540   1.655   2.801
  145TCM    cl2  890   1.617   1.791   2.554
  145TCM     h1  891   1.601   1.886   2.773
  145TCM    cl3  892   1.810   1.768   2.773
  146TCM     c1  893   3.816   0.125   3.872
  146TCM    cl1  894   3.749  -0.041   3.886
  146TCM    cl2  895   3.938   0.130   3.741
  146TCM     h1  896   3.735   0.195   3.849
  146TCM    cl3  897   3.891   0.173   4.028
  147TCM     c1  898   4.968   4.459   4.441
  147TCM    cl1  899   4.863   4.513   4.576
  147TCM    cl2  900   5.131   4.533   4.459
  147TCM     h1  901   4.977   4.350   4.443
  147TCM    cl3  902   4.898   4.510   4.284
  148TCM     c1  903   0.851   1.670   0.677
  148TCM    cl1  904   0.807   1.841   0.713
  148TCM    cl2  905   0.863   1.580   0.832
  148TCM     h1  906   0.775   1.625   0.613
  148TCM    cl3  907   1.010   1.668   0.593
  149TCM     c1  908   2.480   2.897   0.062
  149TCM    cl1  909   2.322   2.877  -0.020
  149TCM    cl2  910   2.555   2.736   0.088
  149TCM     h1  911   2.546   2.959   0.001
  149TCM    cl3  912   2.454   2.975   0.222
  150TCM     c1  913   3.715   1.353   3.148
  150TCM    cl1  914   3.736   1.203   3.244
  150TCM    cl2  915   3.541   1.371   3.107
  150TCM     h1  916   3.748   1.439   3.207
  150TCM    cl3  917   3.810   1.341   2.997
  151TCM     c1  918   3.402   0.175   1.594
  151TCM    cl1  919   3.494   0.276   1.478
  151TCM    cl2  920   3.464   0.203   1.761
  151TCM     h1  921   3.296   0.201   1.590
  151TCM    cl3  922   3.423   0.002   1.551
  152TCM     c1  923   3.694   2.681   1.796
  152TCM    cl1  924   3.747   2.783   1.658
  152TCM    cl2  925   3.782   2.525   1.793
  152TCM     h1  926   3.715   2.734   1.890
  152TCM    cl3  927   3.518   2.651   1.783
  153TCM     c1  928   2.924   4.237   2.417
  153TCM    cl1  929   2.861   4.238   2.585
  153TCM    cl2  930   3.056   4.117   2.405
  153TCM     h1  931   2.844   4.211   2.348
  153TCM    cl3  932   2.989   4.399   2.375
  154TCM     c1  933   4.352   1.007   2.605
  154TCM    cl1  934   4.482   1.053   2.719
  154TCM    cl2  935   4.335   0.828   2.604
  154TCM     h1  936   4.258   1.053   2.636
  154TCM    cl3  937   4.395   1.063   2.440
  155TCM     c1  938   0.954   2.065   4.813
  155TCM    cl1  939   0.802   2.025   4.725
  155TCM    cl2  940   1.081   2.110   4.694
  155TCM     h1  941   0.936   2.148   4.881
  155TCM    cl3  942   1.008   1.921   4.904
  156TCM     c1  943   2.299   4.633   4.517
  156TCM    cl1  944   2.152   4.535   4.489
  156TCM    cl2  945   2.403   4.550   4.638
  156TCM     h1  946   2.354   4.646   4.423
  156TCM    cl3  947   2.252   4.794   4.581
  157TCM     c1  948   2.308   0.142   0.069
  157TCM    cl1  949   2.411   0.021   0.155
  157TCM    cl2  950   2.220   0.063  -0.066
  157TCM     h1  951   2.236   0.184   0.139
  157TCM    cl3  952   2.414   0.271   0.005
  158TCM     c1  953   1.937   1.268   2.949
  158TCM    cl1  954   2.113   1.303   2.947
  158TCM    cl2  955   1.905   1.120   2.853
  158TCM     h1  956   1.903   1.254   3.052
  158TCM    cl3  957   1.849   1.407   2.876
  159TCM     c1  958   1.809   2.168   0.024
  159TCM    cl1  959   1.752   2.176   0.194
  159TCM    cl2  960   1.980   2.114   0.021
  159TCM     h1  961   1.747   2.097  -0.032
  159TCM    cl3  962   1.797   2.330  -0.051
  160TCM     c1  963   1.927   1.998   1.541
  160TCM    cl1  964   2.053   2.018   1.668
  160TCM    cl2  965   1.783   2.095   1.585
  160TCM     h1  966   1.967   2.032   1.445
  160TCM    cl3  967   1.882   1.825   1.530
  161TCM     c1  968   2.621   2.735   0.456
  161TCM    cl1  969   2.742   2.856   0.401
  161TCM    cl2  970   2.619   2.731   0.635
  161TCM     h1  971   2.522   2.762   0.418
  161TCM    cl3  972   2.666   2.572   0.394
  162TCM     c1  973   3.030   1.871   2.158
  162TCM    cl1  974   2.948   1.935   2.305
  162TCM    cl2  975   3.182   1.787   2.206
  162TCM     h1  976   2.964   1.801   2.107
  162TCM    cl3  977   3.069   2.008   2.049
  163TCM     c1  978   4.564   4.503   2.704
  163TCM    cl1  979   4.635   4.371   2.803
  163TCM    cl2  980   4.590   4.660   2.788
  163TCM     h1  981   4.612   4.505   2.606
  163TCM    cl3  982   4.388   4.474   2.683
  164TCM     c1  983   3.186   0.277   4.415
  164TCM    cl1  984   3.093   0.125   4.440
  164TCM    cl2  985   3.196   0.311   4.239
  164TCM     h1  986   3.135   0.359   4.465
  164TCM    cl3  987   3.351   0.259   4.483
  165TCM     c1  988   4.060   3.893   3.869
  165TCM    cl1  989   4.162   4.030   3.814
  165TCM    cl2  990   4.159   3.744   3.878
  165TCM     h1  991   4.018   3.916   3.968
  165TCM    cl3  992   3.926   3.868   3.752
  166TCM     c1  993   2.005   1.458   2.379
  166TCM    cl1  994   2.165   1.529   2.342
  166TCM    cl2  995   1.955   1.506   2.545
  166TCM     h1  996   1.931   1.493   2.307
  166TCM    cl3  997   2.017   1.279   2.372
  167TCM     c1  998   2.639   0.310   4.724
  167TCM    cl1  999   2.495   0.309   4.616
  167TCM    cl2 1000   2.675   0.478   4.775
  167TCM     h1 1001   2.618   0.249   4.813
  167TCM    cl3 1002   2.779   0.241   4.637
  168TCM     c1 1003   2.538   2.805   1.986
  168TCM    cl1 1004   2.458   2.853   1.833
  168TCM    cl2 1005   2.413   2.783   2.113
  168TCM     h1 1006   2.592   2.712   1.971
  168TCM    cl3 1007   2.651   2.935   2.036
  169TCM     c1 1008   0.929   0.039   1.483
  169TCM    cl1 1009   0.801  -0.028   1.589
  169TCM    cl2 1010   0.855   0.109   1.335
  169TCM     h1 1011   0.984   0.117   1.537
  169TCM    cl3 1012   1.040  -0.093   1.436
  170TCM     c1 1013   4.193   2.247   4.342
  170TCM    cl1 1014   4.218   2.366   4.210
  170TCM    cl2 1015   4.107   2.326   4.478
  170TCM     h1 1016   4.134   2.163   4.305
  170TCM    cl3 1017   4.353   2.187   4.398
  171TCM     c1 1018   1.750   4.778   4.972
  171TCM    cl1 1019   1.746   4.606   4.921
  171TCM    cl2 1020   1.785   4.788   5.148
  171TCM     h1 1021   1.828   4.831   4.916
  171TCM    cl3 1022   1.591   4.854   4.939
  172TCM     c1 1023   3.454   3.575   0.466
  172TCM    cl1 1024   3.597   3.636   0.376
  172TCM    cl2 1025   3.481   3.404   0.513
  172TCM     h1 1026   3.438   3.635   0.555
  172TCM    cl3 1027   3.310   3.585   0.359
  173TCM     c1 1028   4.408   0.813   0.306
  173TCM    cl1 1029   4.443   0.653   0.231
  173TCM    cl2 1030   4.559   0.910   0.313
  173TCM     h1 1031   4.333   0.866   0.247
  173TCM    cl3 1032   4.345   0.787   0.473
  174TCM     c1 1033   4.284   1.760   1.923
  174TCM    cl1 1034   4.196   1.802   2.074
  174TCM    cl2 1035   4.217   1.607   1.857
  174TCM     h1 1036   4.271   1.840   1.850
  174TCM    cl3 1037   4.458   1.739   1.959
  175TCM     c1 1038   3.908   1.728   4.969
  175TCM    cl1 1039   4.061   1.798   5.032
  175TCM    cl2 1040   3.783   1.737   5.097
  175TCM     h1 1041   3.876   1.784   4.882
  175TCM    cl3 1042   3.935   1.556   4.923
  176TCM     c1 1043   4.360   3.007   4.664
  176TCM    cl1 1044   4.472   3.109   4.568
  176TCM    cl2 1045   4.330   3.084   4.823
  176TCM     h1 1046   4.266   2.996   4.610
  176TCM    cl3 1047   4.434   2.845   4.689
  177TCM     c1 1048   1.290   0.458   3.482
  177TCM    cl1 1049   1.190   0.454   3.333
  177TCM    cl2 1050   1.340   0.626   3.515
  177TCM     h1 1051   1.232   0.419   3.566
  177TCM    cl3 1052   1.436   0.357   3.459
  178TCM     c1 1053   3.502   0.123   1.146
  178TCM    cl1 1054   3.618   0.004   1.215
  178TCM    cl2 1055   3.334   0.071   1.185
  178TCM     h1 1056   3.520   0.222   1.189
  178TCM    cl3 1057   3.522   0.130   0.968
  179TCM     c1 1058   1.223   0.431   3.949
  179TCM    cl1 1059   1.213   0.536   4.094
  179TCM    cl2 1060   1.396   0.401   3.910
  179TCM     h1 1061   1.173   0.336   3.969
  179TCM    cl3 1062   1.144   0.513   3.811
  180TCM     c1 1063   2.092   0.888   4.083
  180TCM    cl1 1064   2.006   1.042   4.116
  180TCM    cl2 1065   2.057   0.770   4.214
  180TCM     h1 1066   2.058   0.847   3.988
  180TCM    cl3 1067   2.269   0.919   4.075
  181TCM     c1 1068   3.379   0.646   0.304
  181TCM    cl1 1069   3.387   0.773   0.431
  181TCM    cl2 1070   3.340   0.722   0.146
  181TCM     h1 1071   3.476   0.596   0.297
  181TCM    cl3 1072   3.252   0.528   0.347
  182TCM     c1 1073   1.610   2.330   2.577
  182TCM    cl1 1074   1.634   2.156   2.542
  182TCM    cl2 1075   1.760   2.397   2.647
  182TCM     h1 1076   1.585   2.383   2.485
  182TCM    cl3 1077   1.475   2.347   2.695
  183TCM     c1 1078   4.805   4.067   4.598
  183TCM    cl1 1079   4.906   4.168   4.707
  183TCM    cl2 1080   4.904   3.932   4.534
  183TCM     h1 1081   4.720   4.027   4.653
  183TCM    cl3 1082   4.747   4.169   4.461
  184TCM     c1 1083   0.669   0.995   2.690
  184TCM    cl1 1084   0.744   1.037   2.848
  184TCM    cl2 1085   0.520   1.092   2.669
  184TCM     h1 1086   0.739   1.017   2.609
  184TCM    cl3 1087   0.629   0.820   2.688
  185TCM     c1 1088   4.801   0.796   3.541
  185TCM    cl1 1089   4.715   0.641   3.566
  185TCM    cl2 1090   4.902   0.784   3.393
  185TCM     h1 1091   4.728   0.877   3.530
  185TCM    cl3 1092   4.905   0.828   3.684
  186TCM     c1 1093   0.125   4.504   0.374
  186TCM    cl1 1094   0.238   4.445   0.500
  186TCM    cl2 1095   0.080   4.368   0.266
  186TCM     h1 1096   0.035   4.545   0.421
  186TCM    cl3 1097   0.207   4.630   0.276
  187TCM     c1 1098   0.597   3.395   0.125
  187TCM    cl1 1099   0.645   3.461  -0.034
  187TCM    cl2 1100   0.577   3.532   0.239
  187TCM     h1 1101   0.503   3.340   0.116
  187TCM    cl3 1102   0.725   3.287   0.188
  188TCM     c1 1103   1.008   2.509   4.532
  188TCM    cl1 1104   0.877   2.392   4.566
  188TCM    cl2 1105   1.149   2.472   4.637
  188TCM     h1 1106   1.038   2.501   4.427
  188TCM    cl3 1107   0.951   2.676   4.565
  189TCM     c1 1108   0.649   3.223   0.532
  189TCM    cl1 1109   0.650   3.138   0.689
  189TCM    cl2 1110   0.672   3.399   0.558
  189TCM     h1 1111   0.729   3.185   0.469
  189TCM    cl3 1112   0.490   3.196   0.452
  190TCM     c1 1113   4.107   1.703   2.445
  190TCM    cl1 1114   4.116   1.565   2.559
  190TCM    cl2 1115   4.079   1.855   2.537
  190TCM     h1 1116   4.201   1.711   2.389
  190TCM    cl3 1117   3.970   1.677   2.331
  191TCM     c1 1118   1.886   0.390   4.128
  191TCM    cl1 1119   1.792   0.292   4.245
  191TCM    cl2 1120   1.856   0.329   3.962
  191TCM     h1 1121   1.855   0.495   4.135
  191TCM    cl3 1122   2.061   0.376   4.168
  192TCM     c1 1123   0.261   0.145   2.582
  192TCM    cl1 1124   0.426   0.204   2.621
  192TCM    cl2 1125   0.252   0.112   2.406
  192TCM     h1 1126   0.241   0.053   2.637
  192TCM    cl3 1127   0.140   0.269   2.626
  193TCM     c1 1128   2.061   4.837   4.165
  193TCM    cl1 1129   1.952   4.747   4.275
  193TCM    cl2 1130   2.019   4.797   3.995
  193TCM     h1 1131   2.050   4.945   4.181
  193TCM    cl3 1132   2.231   4.788   4.197
  194TCM     c1 1133   4.249   4.551   1.169
  194TCM    cl1 1134   4.379   4.523   1.290
  194TCM    cl2 1135   4.149   4.403   1.151
  194TCM     h1 1136   4.185   4.633   1.203
  194TCM    cl3 1137   4.322   4.594   1.011
  195TCM     c1 1138   0.929   2.549   0.338
  195TCM    cl1 1139   1.032   2.430   0.253
  195TCM    cl2 1140   1.014   2.707   0.341
  195TCM     h1 1141   0.833   2.559   0.286
  195TCM    cl3 1142   0.900   2.491   0.505
  196TCM     c1 1143   1.493   0.734   4.255
  196TCM    cl1 1144   1.366   0.737   4.382
  196TCM    cl2 1145   1.552   0.566   4.234
  196TCM     h1 1146   1.452   0.771   4.161
  196TCM    cl3 1147   1.630   0.838   4.305
  197TCM     c1 1148   1.591   1.480   0.748
  197TCM    cl1 1149   1.675   1.541   0.602
  197TCM    cl2 1150   1.460   1.593   0.794
  197TCM     h1 1151   1.549   1.381   0.728
  197TCM    cl3 1152   1.710   1.468   0.882
  198TCM     c1 1153   1.344   4.723   1.324
  198TCM    cl1 1154   1.412   4.864   1.412
  198TCM    cl2 1155   1.283   4.604   1.444
  198TCM     h1 1156   1.262   4.756   1.260
  198TCM    cl3 1157   1.472   4.646   1.225
  199TCM     c1 1158   4.996   2.614   2.557
  199TCM    cl1 1159   5.095   2.702   2.678
  199TCM    cl2 1160   4.833   2.583   2.625
  199TCM     h1 1161   4.987   2.674   2.466
  199TCM    cl3 1162   5.076   2.458   2.518
  200TCM     c1 1163   0.555   2.217   0.051
  200TCM    cl1 1164   0.694   2.105   0.075
  200TCM    cl2 1165   0.540   2.254  -0.124
  200TCM     h1 1166   0.463   2.170   0.087
  200TCM    cl3 1167   0.585   2.368   0.143
  201TCM     c1 1168   3.644   4.458   3.215
  201TCM    cl1 1169   3.618   4.635   3.230
  201TCM    cl2 1170   3.790   4.428   3.116
  201TCM     h1 1171   3.658   4.415   3.315
  201TCM    cl3 1172   3.502   4.382   3.137
  202TCM     c1 1173   2.304   1.052   2.374
  202TCM    cl1 1174   2.335   1.105   2.206
  202TCM    cl2 1175   2.365   1.176   2.488
  202TCM     h1 1176   2.196   1.039   2.389
  202TCM    cl3 1177   2.388   0.896   2.403
  203TCM     c1 1178   0.460   4.726   4.393
  203TCM    cl1 1179   0.386   4.796   4.541
  203TCM    cl2 1180   0.608   4.635   4.438
  203TCM     h1 1181   0.388   4.659   4.345
  203TCM    cl3 1182   0.504   4.858   4.280
  204TCM     c1 1183   2.154   4.941   3.692
  204TCM    cl1 1184   2.206   4.962   3.522
  204TCM    cl2 1185   2.074   5.091   3.749
  204TCM     h1 1186   2.084   4.857   3.699
  204TCM    cl3 1187   2.298   4.908   3.793
  205TCM     c1 1188   1.082   0.190   1.055
  205TCM    cl1 1189   1.065   0.369   1.056
  205TCM    cl2 1190   1.190   0.140   1.189
  205TCM     h1 1191   0.984   0.144   1.067
  205TCM    cl3 1192   1.155   0.140   0.899
  206TCM     c1 1193   2.199   3.290   0.917
  206TCM    cl1 1194   2.207   3.202   0.762
  206TCM    cl2 1195   2.366   3.333   0.968
  206TCM     h1 1196   2.139   3.381   0.905
  206TCM    cl3 1197   2.125   3.184   1.042
  207TCM     c1 1198   0.707   3.765   0.713
  207TCM    cl1 1199   0.658   3.782   0.541
  207TCM    cl2 1200   0.848   3.654   0.724
  207TCM     h1 1201   0.735   3.863   0.752
  207TCM    cl3 1202   0.570   3.698   0.807
  208TCM     c1 1203   3.957   2.172   2.104
  208TCM    cl1 1204   3.976   2.345   2.151
  208TCM    cl2 1205   4.000   2.068   2.243
  208TCM     h1 1206   3.853   2.154   2.075
  208TCM    cl3 1207   4.066   2.135   1.967
  209TCM     c1 1208   2.511   2.547   1.014
  209TCM    cl1 1209   2.508   2.461   1.171
  209TCM    cl2 1210   2.357   2.514   0.927
  209TCM     h1 1211   2.520   2.655   1.031
  209TCM    cl3 1212   2.649   2.490   0.915
  210TCM     c1 1213   2.523   3.371   3.973
  210TCM    cl1 1214   2.402   3.329   3.847
  210TCM    cl2 1215   2.461   3.322   4.134
  210TCM     h1 1216   2.617   3.320   3.952
  210TCM    cl3 1217   2.549   3.549   3.972
  211TCM     c1 1218   1.147   2.867   3.823
  211TCM    cl1 1219   1.031   2.925   3.948
  211TCM    cl2 1220   1.204   2.702   3.867
  211TCM     h1 1221   1.098   2.864   3.726
  211TCM    cl3 1222   1.287   2.979   3.817
  212TCM     c1 1223   1.505   2.729   3.409
  212TCM    cl1 1224   1.431   2.631   3.279
  212TCM    cl2 1225   1.666   2.661   3.451
  212TCM     h1 1226   1.517   2.832   3.375
  212TCM    cl3 1227   1.400   2.725   3.554
  213TCM     c1 1228   3.789   4.625   3.702
  213TCM    cl1 1229   3.704   4.501   3.800
  213TCM    cl2 1230   3.813   4.564   3.535
  213TCM     h1 1231   3.729   4.716   3.700
  213TCM    cl3 1232   3.948   4.661   3.776
  214TCM     c1 1233   0.154   3.337   0.386
  214TCM    cl1 1234   0.257   3.362   0.241
  214TCM    cl2 1235   0.088   3.170   0.381
  214TCM     h1 1236   0.213   3.351   0.476
  214TCM    cl3 1237   0.018   3.454   0.383
  215TCM     c1 1238   1.327   2.281   0.103
  215TCM    cl1 1239   1.218   2.318  -0.035
  215TCM    cl2 1240   1.463   2.398   0.104
  215TCM     h1 1241   1.271   2.288   0.197
  215TCM    cl3 1242   1.391   2.115   0.082
  216TCM     c1 1243   0.310   1.724   2.586
  216TCM    cl1 1244   0.416   1.703   2.443
  216TCM    cl2 1245   0.138   1.706   2.535
  216TCM     h1 1246   0.334   1.648   2.661
  216TCM    cl3 1247   0.334   1.887   2.655
  217TCM     c1 1248   3.655   0.187   4.721
  217TCM    cl1 1249   3.742   0.320   4.804
  217TCM    cl2 1250   3.553   0.100   4.841
  217TCM     h1 1251   3.592   0.227   4.642
  217TCM    cl3 1252   3.775   0.074   4.650
  218TCM     c1 1253   1.813   2.586   2.190
  218TCM    cl1 1254   1.742   2.431   2.246
  218TCM    cl2 1255   1.793   2.711   2.317
  218TCM     h1 1256   1.920   2.571   2.169
  218TCM    cl3 1257   1.730   2.638   2.040
  219TCM     c1 1258   4.256   0.424   3.958
  219TCM    cl1 1259   4.101   0.497   4.013
  219TCM    cl2 1260   4.262   0.423   3.779
  219TCM     h1 1261   4.340   0.482   3.997
  219TCM    cl3 1262   4.266   0.255   4.020
  220TCM     c1 1263   0.390   3.934   1.233
  220TCM    cl1 1264   0.513   3.837   1.146
  220TCM    cl2 1265   0.268   3.823   1.304
  220TCM     h1 1266   0.438   3.992   1.312
  220TCM    cl3 1267   0.310   4.044   1.116
  221TCM     c1 1268   0.487   1.593   0.842
  221TCM    cl1 1269   0.341   1.524   0.921
  221TCM    cl2 1270   0.463   1.769   0.818
  221TCM     h1 1271   0.574   1.576   0.906
  221TCM    cl3 1272   0.513   1.512   0.684
  222TCM     c1 1273   3.723   2.461   2.645
  222TCM    cl1 1274   3.582   2.564   2.686
  222TCM    cl2 1275   3.794   2.514   2.489
  222TCM     h1 1276   3.799   2.469   2.724
  222TCM    cl3 1277   3.669   2.290   2.632
  223TCM     c1 1278   0.444   4.685   2.663
  223TCM    cl1 1279   0.307   4.780   2.597
  223TCM    cl2 1280   0.492   4.558   2.545
  223TCM     h1 1281   0.529   4.751   2.681
  223TCM    cl3 1282   0.394   4.609   2.817
  224TCM     c1 1283   0.193   4.508   2.358
  224TCM    cl1 1284   0.157   4.397   2.494
  224TCM    cl2 1285   0.040   4.565   2.284
  224TCM     h1 1286   0.250   4.594   2.395
  224TCM    cl3 1287   0.290   4.421   2.234
  225TCM     c1 1288   0.612   2.442   2.297
  225TCM    cl1 1289   0.678   2.452   2.131
  225TCM    cl2 1290   0.743   2.396   2.411
  225TCM     h1 1291   0.572   2.540   2.326
  225TCM    cl3 1292   0.482   2.319   2.304
  226TCM     c1 1293   0.357   4.119   2.906
  226TCM    cl1 1294   0.473   3.988   2.864
  226TCM    cl2 1295   0.352   4.239   2.773
  226TCM     h1 1296   0.258   4.076   2.920
  226TCM    cl3 1297   0.409   4.199   3.057
  227TCM     c1 1298   2.230   0.626   3.776
  227TCM    cl1 1299   2.228   0.794   3.714
  227TCM    cl2 1300   2.085   0.598   3.877
  227TCM     h1 1301   2.231   0.555   3.693
  227TCM    cl3 1302   2.376   0.604   3.878
  228TCM     c1 1303   1.500   1.724   1.737
  228TCM    cl1 1304   1.327   1.675   1.747
  228TCM    cl2 1305   1.510   1.903   1.734
  228TCM     h1 1306   1.554   1.685   1.824
  228TCM    cl3 1307   1.571   1.659   1.586
  229TCM     c1 1308   1.199   3.252   2.296
  229TCM    cl1 1309   1.214   3.343   2.143
  229TCM    cl2 1310   1.252   3.356   2.432
  229TCM     h1 1311   1.095   3.223   2.311
  229TCM    cl3 1312   1.303   3.106   2.289
  230TCM     c1 1313   4.626   3.793   2.894
  230TCM    cl1 1314   4.658   3.967   2.922
  230TCM    cl2 1315   4.686   3.746   2.731
  230TCM     h1 1316   4.678   3.734   2.970
  230TCM    cl3 1317   4.450   3.761   2.903
  231TCM     c1 1318   4.462   0.733   4.360
  231TCM    cl1 1319   4.596   0.629   4.418
  231TCM    cl2 1320   4.376   0.651   4.226
  231TCM     h1 1321   4.392   0.753   4.442
  231TCM    cl3 1322   4.528   0.889   4.300
  232TCM     c1 1323   0.391   3.247   4.549
  232TCM    cl1 1324   0.511   3.333   4.652
  232TCM    cl2 1325   0.456   3.235   4.382
  232TCM     h1 1326   0.374   3.147   4.589
  232TCM    cl3 1327   0.238   3.339   4.547
  233TCM     c1 1328   1.046   1.917   0.305
  233TCM    cl1 1329   1.042   2.077   0.223
  233TCM    cl2 1330   1.178   1.819   0.233
  233TCM     h1 1331   1.064   1.931   0.412
  233TCM    cl3 1332   0.890   1.833   0.279
  234TCM     c1 1333   1.765   2.167   1.992
  234TCM    cl1 1334   1.798   1.998   1.940
  234TCM    cl2 1335   1.608   2.221   1.923
  234TCM     h1 1336   1.760   2.171   2.101
  234TCM    cl3 1337   1.896   2.275   1.934
  235TCM     c1 1338   2.473   4.475   3.875
  235TCM    cl1 1339   2.464   4.637   3.952
  235TCM    cl2 1340   2.596   4.376   3.960
  235TCM     h1 1341   2.376   4.426   3.880
  235TCM    cl3 1342   2.522   4.495   3.703
  236TCM     c1 1343   3.159   0.504   1.520
  236TCM    cl1 1344   3.141   0.354   1.423
  236TCM    cl2 1345   3.286   0.607   1.447
  236TCM     h1 1346   3.064   0.559   1.521
  236TCM    cl3 1347   3.206   0.462   1.688
  237TCM     c1 1348   2.662   4.892   4.671
  237TCM    cl1 1349   2.531   4.975   4.761
  237TCM    cl2 1350   2.598   4.839   4.512
  237TCM     h1 1351   2.746   4.960   4.657
  237TCM    cl3 1352   2.715   4.748   4.764
  238TCM     c1 1353   2.636   1.669   3.176
  238TCM    cl1 1354   2.649   1.526   3.069
  238TCM    cl2 1355   2.751   1.795   3.122
  238TCM     h1 1356   2.534   1.708   3.174
  238TCM    cl3 1357   2.679   1.621   3.343
  239TCM     c1 1358   0.754   1.649   4.845
  239TCM    cl1 1359   0.874   1.550   4.935
  239TCM    cl2 1360   0.677   1.765   4.957
  239TCM     h1 1361   0.805   1.704   4.765
  239TCM    cl3 1362   0.628   1.542   4.775
  240TCM     c1 1363   3.088   1.207   2.844
  240TCM    cl1 1364   3.213   1.253   2.965
  240TCM    cl2 1365   2.988   1.074   2.911
  240TCM     h1 1366   3.025   1.293   2.822
  240TCM    cl3 1367   3.170   1.151   2.694
  241TCM     c1 1368   3.642   0.685   1.408
  241TCM    cl1 1369   3.729   0.574   1.518
  241TCM    cl2 1370   3.618   0.605   1.249
  241TCM     h1 1371   3.544   0.710   1.451
  241TCM    cl3 1372   3.737   0.835   1.386
  242TCM     c1 1373   0.338   0.261   0.452
  242TCM    cl1 1374   0.183   0.347   0.478
  242TCM    cl2 1375   0.411   0.221   0.612
  242TCM     h1 1376   0.320   0.169   0.396
  242TCM    cl3 1377   0.449   0.367   0.359
  243TCM     c1 1378   0.672   3.690   3.736
  243TCM    cl1 1379   0.613   3.589   3.872
  243TCM    cl2 1380   0.689   3.588   3.589
  243TCM     h1 1381   0.601   3.771   3.716
  243TCM    cl3 1382   0.832   3.760   3.779
  244TCM     c1 1383   0.186   4.072   4.362
  244TCM    cl1 1384   0.337   4.055   4.268
  244TCM    cl2 1385   0.059   4.142   4.257
  244TCM     h1 1386   0.154   3.975   4.399
  244TCM    cl3 1387   0.214   4.184   4.500
  245TCM     c1 1388   3.577   1.867   0.395
  245TCM    cl1 1389   3.675   2.014   0.426
  245TCM    cl2 1390   3.402   1.909   0.403
  245TCM     h1 1391   3.600   1.828   0.296
  245TCM    cl3 1392   3.614   1.743   0.519
  246TCM     c1 1393   3.320   4.382   3.615
  246TCM    cl1 1394   3.376   4.324   3.775
  246TCM    cl2 1395   3.460   4.442   3.521
  246TCM     h1 1396   3.271   4.300   3.561
  246TCM    cl3 1397   3.204   4.517   3.638
  247TCM     c1 1398   1.932   4.767   3.154
  247TCM    cl1 1399   1.762   4.822   3.138
  247TCM    cl2 1400   2.022   4.810   3.005
  247TCM     h1 1401   1.979   4.815   3.241
  247TCM    cl3 1402   1.935   4.589   3.176
  248TCM     c1 1403   2.675   0.427   2.442
  248TCM    cl1 1404   2.652   0.604   2.421
  248TCM    cl2 1405   2.532   0.358   2.525
  248TCM     h1 1406   2.687   0.380   2.344
  248TCM    cl3 1407   2.821   0.399   2.542
  249TCM     c1 1408   3.221   2.010   3.968
  249TCM    cl1 1409   3.277   1.962   4.131
  249TCM    cl2 1410   3.088   1.902   3.915
  249TCM     h1 1411   3.185   2.113   3.971
  249TCM    cl3 1412   3.357   1.997   3.851
  250TCM     c1 1413   2.995   2.517   0.160
  250TCM    cl1 1414   3.037   2.452  -0.002
  250TCM    cl2 1415   2.966   2.693   0.149
  250TCM     h1 1416   2.904   2.468   0.197
  250TCM    cl3 1417   3.131   2.486   0.272
  251TCM     c1 1418   1.506   0.484   4.617
  251TCM    cl1 1419   1.590   0.326   4.636
  251TCM    cl2 1420   1.578   0.603   4.731
  251TCM     h1 1421   1.518   0.520   4.514
  251TCM    cl3 1422   1.331   0.464   4.654
  252TCM     c1 1423   0.881   1.693   1.460
  252TCM    cl1 1424   0.708   1.681   1.504
  252TCM    cl2 1425   0.925   1.553   1.357
  252TCM     h1 1426   0.898   1.786   1.405
  252TCM    cl3 1427   0.981   1.692   1.609
  253TCM     c1 1428   4.882   2.904   0.181
  253TCM    cl1 1429   4.792   2.936   0.332
  253TCM    cl2 1430   4.792   2.785   0.081
  253TCM     h1 1431   4.894   2.997   0.125
  253TCM    cl3 1432   5.043   2.836   0.220
  254TCM     c1 1433   0.514   1.671   3.874
  254TCM    cl1 1434   0.461   1.559   4.004
  254TCM    cl2 1435   0.462   1.607   3.715
  254TCM     h1 1436   0.469   1.770   3.891
  254TCM    cl3 1437   0.692   1.684   3.877
  255TCM     c1 1438   0.917   0.753   0.254
  255TCM    cl1 1439   1.021   0.870   0.168
  255TCM    cl2 1440   0.842   0.832   0.397
  255TCM     h1 1441   0.838   0.718   0.187
  255TCM    cl3 1442   1.016   0.614   0.309
  256TCM     c1 1443   3.456   4.750   4.593
  256TCM    cl1 1444   3.378   4.912   4.594
  256TCM    cl2 1445   3.610   4.757   4.684
  256TCM     h1 1446   3.390   4.677   4.639
  256TCM    cl3 1447   3.488   4.702   4.423
  257TCM     c1 1448   3.134   4.066   3.221
  257TCM    cl1 1449   3.285   4.045   3.127
  257TCM    cl2 1450   3.172   4.057   3.397
  257TCM     h1 1451   3.090   4.163   3.198
  257TCM    cl3 1452   3.017   3.937   3.178
  258TCM     c1 1453   2.772   4.287   2.951
  258TCM    cl1 1454   2.772   4.453   2.883
  258TCM    cl2 1455   2.713   4.292   3.120
  258TCM     h1 1456   2.708   4.222   2.891
  258TCM    cl3 1457   2.939   4.222   2.951
  259TCM     c1 1458   3.557   1.331   2.582
  259TCM    cl1 1459   3.433   1.394   2.469
  259TCM    cl2 1460   3.491   1.331   2.748
  259TCM     h1 1461   3.584   1.229   2.553
  259TCM    cl3 1462   3.703   1.435   2.577
  260TCM     c1 1463   4.588   1.844   4.899
  260TCM    cl1 1464   4.727   1.917   4.986
  260TCM    cl2 1465   4.607   1.872   4.723
  260TCM     h1 1466   4.584   1.737   4.920
  260TCM    cl3 1467   4.435   1.921   4.954
  261TCM     c1 1468   3.043   2.143   0.323
  261TCM    cl1 1469   3.026   1.987   0.409
  261TCM    cl2 1470   2.881   2.202   0.274
  261TCM     h1 1471   3.091   2.216   0.389
  261TCM    cl3 1472   3.144   2.120   0.176
  262TCM     c1 1473   4.741   4.610   1.124
  262TCM    cl1 1474   4.644   4.761   1.122
  262TCM    cl2 1475   4.915   4.651   1.146
  262TCM     h1 1476   4.708   4.546   1.206
  262TCM    cl3 1477   4.720   4.523   0.968
  263TCM     c1 1478   4.666   0.682   3.039
  263TCM    cl1 1479   4.555   0.582   2.940
  263TCM    cl2 1480   4.587   0.721   3.195
  263TCM     h1 1481   4.759   0.627   3.057
  263TCM    cl3 1482   4.703   0.834   2.950
  264TCM     c1 1483   3.479   2.179   4.955
  264TCM    cl1 1484   3.360   2.100   4.846
  264TCM    cl2 1485   3.526   2.064   5.083
  264TCM     h1 1486   3.567   2.209   4.897
  264TCM    cl3 1487   3.404   2.325   5.028
  265TCM     c1 1488   1.763   0.289   2.850
  265TCM    cl1 1489   1.630   0.273   2.731
  265TCM    cl2 1490   1.721   0.196   2.998
  265TCM     h1 1491   1.855   0.249   2.807
  265TCM    cl3 1492   1.786   0.462   2.892
  266TCM     c1 1493   1.161   4.610   4.856
  266TCM    cl1 1494   1.331   4.620   4.797
  266TCM    cl2 1495   1.150   4.684   5.018
  266TCM     h1 1496   1.096   4.663   4.786
  266TCM    cl3 1497   1.112   4.437   4.865
  267TCM     c1 1498   4.947   0.387   4.349
  267TCM    cl1 1499   4.979   0.374   4.174
  267TCM    cl2 1500   5.017   0.541   4.411
  267TCM     h1 1501   4.839   0.386   4.368
  267TCM    cl3 1502   5.024   0.248   4.432
  268TCM     c1 1503   4.276   4.633   0.101
  268TCM    cl1 1504   4.432   4.720   0.112
  268TCM    cl2 1505   4.145   4.736   0.169
  268TCM     h1 1506   4.254   4.610  -0.004
  268TCM    cl3 1507   4.285   4.481   0.195
  269TCM     c1 1508   0.541   2.752   3.861
  269TCM    cl1 1509   0.522   2.736   3.683
  269TCM    cl2 1510   0.685   2.852   3.896
  269TCM     h1 1511   0.452   2.800   3.903
  269TCM    cl3 1512   0.561   2.589   3.934
  270TCM     c1 1513   3.966   1.206   1.704
  270TCM    cl1 1514   4.134   1.228   1.765
  270TCM    cl2 1515   3.971   1.107   1.554
  270TCM     h1 1516   3.906   1.155   1.779
  270TCM    cl3 1517   3.895   1.367   1.668
  271TCM     c1 1518   1.446   4.882   0.285
  271TCM    cl1 1519   1.299   4.812   0.359
  271TCM    cl2 1520   1.562   4.929   0.413
  271TCM     h1 1521   1.493   4.809   0.219
  271TCM    cl3 1522   1.402   5.028   0.189
  272TCM     c1 1523   3.058   0.709   3.900
  272TCM    cl1 1524   3.078   0.571   4.013
  272TCM    cl2 1525   3.029   0.647   3.735
  272TCM     h1 1526   2.974   0.772   3.932
  272TCM    cl3 1527   3.209   0.807   3.902
  273TCM     c1 1528   4.298   3.345   3.193
  273TCM    cl1 1529   4.254   3.506   3.128
  273TCM    cl2 1530   4.151   3.241   3.198
  273TCM     h1 1531   4.373   3.299   3.129
  273TCM    cl3 1532   4.362   3.364   3.359
  274TCM     c1 1533   1.339   0.822   0.349
  274TCM    cl1 1534   1.241   0.933   0.449
  274TCM    cl2 1535   1.348   0.661   0.429
  274TCM     h1 1536   1.293   0.811   0.250
  274TCM    cl3 1537   1.504   0.889   0.330
  275TCM     c1 1538   1.203   1.906   1.000
  275TCM    cl1 1539   1.188   1.727   1.014
  275TCM    cl2 1540   1.102   1.964   0.864
  275TCM     h1 1541   1.170   1.952   1.093
  275TCM    cl3 1542   1.374   1.950   0.969
  276TCM     c1 1543   3.341   2.804   2.269
  276TCM    cl1 1544   3.270   2.967   2.243
  276TCM    cl2 1545   3.389   2.787   2.441
  276TCM     h1 1546   3.267   2.728   2.244
  276TCM    cl3 1547   3.485   2.784   2.165
  277TCM     c1 1548   3.083   3.790   2.639
  277TCM    cl1 1549   3.039   3.929   2.744
  277TCM    cl2 1550   3.239   3.823   2.557
  277TCM     h1 1551   3.092   3.700   2.700
  277TCM    cl3 1552   2.955   3.766   2.516
  278TCM     c1 1553   1.251   1.080   4.985
  278TCM    cl1 1554   1.326   1.189   4.864
  278TCM    cl2 1555   1.256   1.158   5.146
  278TCM     h1 1556   1.147   1.060   4.957
  278TCM    cl3 1557   1.341   0.925   4.991
  279TCM     c1 1558   3.039   0.207   0.719
  279TCM    cl1 1559   2.940   0.063   0.677
  279TCM    cl2 1560   3.139   0.170   0.864
  279TCM     h1 1561   3.103   0.233   0.635
  279TCM    cl3 1562   2.930   0.345   0.757
  280TCM     c1 1563   1.821   3.360   0.672
  280TCM    cl1 1564   1.976   3.446   0.643
  280TCM    cl2 1565   1.828   3.282   0.833
  280TCM     h1 1566   1.738   3.431   0.668
  280TCM    cl3 1567   1.798   3.234   0.546
  281TCM     c1 1568   2.833   3.556   1.887
  281TCM    cl1 1569   2.673   3.636   1.882
  281TCM    cl2 1570   2.955   3.659   1.804
  281TCM     h1 1571   2.864   3.540   1.990
  281TCM    cl3 1572   2.822   3.397   1.803
  282TCM     c1 1573   4.822   0.325   3.847
  282TCM    cl1 1574   4.658   0.336   3.775
  282TCM    cl2 1575   4.905   0.484   3.837
  282TCM     h1 1576   4.814   0.294   3.951
  282TCM    cl3 1577   4.917   0.203   3.756
  283TCM     c1 1578   4.885   2.910   4.503
  283TCM    cl1 1579   4.796   2.882   4.657
  283TCM    cl2 1580   4.771   2.976   4.381
  283TCM     h1 1581   4.927   2.816   4.467
  283TCM    cl3 1582   5.016   3.029   4.531
  284TCM     c1 1583   0.808   4.536   2.077
  284TCM    cl1 1584   0.762   4.600   2.238
  284TCM    cl2 1585   0.958   4.617   2.021
  284TCM     h1 1586   0.825   4.428   2.084
  284TCM    cl3 1587   0.676   4.569   1.959
  285TCM     c1 1588   0.062   0.340   0.090
  285TCM    cl1 1589   0.214   0.245   0.091
  285TCM    cl2 1590   0.098   0.510   0.136
  285TCM     h1 1591   0.017   0.337  -0.010
  285TCM    cl3 1592  -0.052   0.271   0.210
  286TCM     c1 1593   4.635   0.368   3.352
  286TCM    cl1 1594   4.659   0.209   3.431
  286TCM    cl2 1595   4.507   0.354   3.228
  286TCM     h1 1596   4.606   0.442   3.427
  286TCM    cl3 1597   4.788   0.420   3.273
  287TCM     c1 1598   3.517   0.024   4.175
  287TCM    cl1 1599   3.511   0.172   4.075
  287TCM    cl2 1600   3.350  -0.023   4.222
  287TCM     h1 1601   3.563  -0.057   4.119
  287TCM    cl3 1602   3.613   0.056   4.323
  288TCM     c1 1603   1.272   1.852   1.431
  288TCM    cl1 1604   1.423   1.926   1.369
  288TCM    cl2 1605   1.264   1.680   1.379
  288TCM     h1 1606   1.271   1.858   1.540
  288TCM    cl3 1607   1.131   1.940   1.363
  289TCM     c1 1608   3.247   1.674   2.592
  289TCM    cl1 1609   3.180   1.839   2.572
  289TCM    cl2 1610   3.120   1.565   2.657
  289TCM     h1 1611   3.282   1.636   2.496
  289TCM    cl3 1612   3.383   1.681   2.709
  290TCM     c1 1613   3.566   0.323   0.136
  290TCM    cl1 1614   3.427   0.374   0.035
  290TCM    cl2 1615   3.507   0.271   0.297
  290TCM     h1 1616   3.619   0.240   0.088
  290TCM    cl3 1617   3.679   0.461   0.157
  291TCM     c1 1618   0.665   1.456   1.829
  291TCM    cl1 1619   0.512   1.490   1.742
  291TCM    cl2 1620   0.741   1.611   1.878
  291TCM     h1 1621   0.643   1.396   1.918
  291TCM    cl3 1622   0.777   1.367   1.721
  292TCM     c1 1623   2.849   3.714   1.364
  292TCM    cl1 1624   2.760   3.629   1.494
  292TCM    cl2 1625   2.793   3.884   1.356
  292TCM     h1 1626   2.956   3.711   1.385
  292TCM    cl3 1627   2.816   3.633   1.207
  293TCM     c1 1628   2.282   2.535   4.399
  293TCM    cl1 1629   2.363   2.404   4.491
  293TCM    cl2 1630   2.132   2.472   4.324
  293TCM     h1 1631   2.257   2.618   4.467
  293TCM    cl3 1632   2.393   2.595   4.272
  294TCM     c1 1633   0.659   2.208   0.585
  294TCM    cl1 1634   0.726   2.170   0.423
  294TCM    cl2 1635   0.545   2.078   0.633
  294TCM     h1 1636   0.741   2.215   0.658
  294TCM    cl3 1637   0.569   2.363   0.580
  295TCM     c1 1638   2.389   0.479   1.460
  295TCM    cl1 1639   2.506   0.366   1.534
  295TCM    cl2 1640   2.427   0.496   1.285
  295TCM     h1 1641   2.287   0.440   1.472
  295TCM    cl3 1642   2.403   0.639   1.539
  296TCM     c1 1643   2.467   3.655   4.926
  296TCM    cl1 1644   2.529   3.537   4.805
  296TCM    cl2 1645   2.421   3.568   5.075
  296TCM     h1 1646   2.544   3.729   4.948
  296TCM    cl3 1647   2.322   3.737   4.859
  297TCM     c1 1648   0.111   3.621   4.901
  297TCM    cl1 1649   0.015   3.582   5.048
  297TCM    cl2 1650   0.028   3.553   4.757
  297TCM     h1 1651   0.120   3.729   4.891
  297TCM    cl3 1652   0.275   3.548   4.914
  298TCM     c1 1653   3.821   1.736   1.990
  298TCM    cl1 1654   3.756   1.864   2.097
  298TCM    cl2 1655   3.900   1.812   1.848
  298TCM     h1 1656   3.893   1.675   2.044
  298TCM    cl3 1657   3.685   1.633   1.933
  299TCM     c1 1658   2.246   2.816   2.503
  299TCM    cl1 1659   2.152   2.749   2.641
  299TCM    cl2 1660   2.149   2.799   2.353
  299TCM     h1 1661   2.268   2.922   2.521
  299TCM    cl3 1662   2.399   2.725   2.486
  300TCM     c1 1663   4.699   2.569   0.401
  300TCM    cl1 1664   4.571   2.672   0.474
  300TCM    cl2 1665   4.652   2.397   0.415
  300TCM     h1 1666   4.711   2.596   0.295
  300TCM    cl3 1667   4.854   2.596   0.486
  301TCM     c1 1668   0.243   4.394   1.368
  301TCM    cl1 1669   0.194   4.378   1.196
  301TCM    cl2 1670   0.328   4.245   1.420
  301TCM     h1 1671   0.310   4.480   1.380
  301TCM    cl3 1672   0.097   4.418   1.469
  302TCM     c1 1673   3.126   1.489   3.745
  302TCM    cl1 1674   3.240   1.618   3.693
  302TCM    cl2 1675   3.215   1.366   3.841
  302TCM     h1 1676   3.046   1.533   3.806
  302TCM    cl3 1677   3.054   1.411   3.600
  303TCM     c1 1678   1.125   3.838   2.263
  303TCM    cl1 1679   1.068   3.670   2.237
  303TCM    cl2 1680   0.986   3.942   2.308
  303TCM     h1 1681   1.199   3.839   2.344
  303TCM    cl3 1682   1.199   3.900   2.112
  304TCM     c1 1683   2.771   3.936   2.133
  304TCM    cl1 1684   2.762   4.094   2.048
  304TCM    cl2 1685   2.724   3.961   2.304
  304TCM     h1 1686   2.703   3.865   2.086
  304TCM    cl3 1687   2.939   3.873   2.125
  305TCM     c1 1688   1.369   2.755   2.365
  305TCM    cl1 1689   1.194   2.745   2.403
  305TCM    cl2 1690   1.397   2.707   2.194
  305TCM     h1 1691   1.404   2.858   2.380
  305TCM    cl3 1692   1.460   2.644   2.473
  306TCM     c1 1693   4.604   0.040   0.124
  306TCM    cl1 1694   4.587   0.213   0.169
  306TCM    cl2 1695   4.758  -0.025   0.189
  306TCM     h1 1696   4.520  -0.017   0.165
  306TCM    cl3 1697   4.605   0.026  -0.055
  307TCM     c1 1698   4.237   4.872   2.538
  307TCM    cl1 1699   4.253   4.815   2.707
  307TCM    cl2 1700   4.375   4.809   2.441
  307TCM     h1 1701   4.143   4.835   2.496
  307TCM    cl3 1702   4.239   5.052   2.535
  308TCM     c1 1703   1.351   0.091   3.073
  308TCM    cl1 1704   1.186   0.162   3.086
  308TCM    cl2 1705   1.385   0.053   2.901
  308TCM     h1 1706   1.425   0.162   3.110
  308TCM    cl3 1707   1.359  -0.060   3.169
  309TCM     c1 1708   3.496   0.019   3.528
  309TCM    cl1 1709   3.633  -0.096   3.515
  309TCM    cl2 1710   3.471   0.098   3.368
  309TCM     h1 1711   3.406  -0.034   3.557
  309TCM    cl3 1712   3.534   0.143   3.652
  310TCM     c1 1713   3.815   2.170   4.722
  310TCM    cl1 1714   3.846   2.062   4.861
  310TCM    cl2 1715   3.801   2.339   4.780
  310TCM     h1 1716   3.896   2.163   4.649
  310TCM    cl3 1717   3.660   2.123   4.645
  311TCM     c1 1718   4.854   4.196   2.508
  311TCM    cl1 1719   4.725   4.092   2.576
  311TCM    cl2 1720   4.781   4.350   2.450
  311TCM     h1 1721   4.929   4.218   2.585
  311TCM    cl3 1722   4.932   4.111   2.371
  312TCM     c1 1723   4.770   2.948   2.371
  312TCM    cl1 1724   4.746   2.776   2.323
  312TCM    cl2 1725   4.836   3.038   2.230
  312TCM     h1 1726   4.675   2.991   2.402
  312TCM    cl3 1727   4.888   2.956   2.506
  313TCM     c1 1728   1.243   2.237   0.595
  313TCM    cl1 1729   1.341   2.208   0.447
  313TCM    cl2 1730   1.078   2.173   0.570
  313TCM     h1 1731   1.290   2.188   0.680
  313TCM    cl3 1732   1.236   2.414   0.624
  314TCM     c1 1733   1.082   1.781   3.897
  314TCM    cl1 1734   1.045   1.645   4.008
  314TCM    cl2 1735   0.963   1.913   3.924
  314TCM     h1 1736   1.182   1.818   3.917
  314TCM    cl3 1737   1.071   1.723   3.728
  315TCM     c1 1738   3.962   3.779   1.140
  315TCM    cl1 1739   4.042   3.783   0.979
  315TCM    cl2 1740   4.050   3.665   1.247
  315TCM     h1 1741   3.964   3.879   1.184
  315TCM    cl3 1742   3.793   3.724   1.120
  316TCM     c1 1743   0.100   0.079   2.079
  316TCM    cl1 1744   0.231   0.098   1.958
  316TCM    cl2 1745   0.092  -0.093   2.131
  316TCM     h1 1746   0.120   0.142   2.166
  316TCM    cl3 1747  -0.056   0.126   2.005
  317TCM     c1 1748   1.261   2.145   1.844
  317TCM    cl1 1749   1.165   2.036   1.739
  317TCM    cl2 1750   1.235   2.101   2.016
  317TCM     h1 1751   1.367   2.136   1.819
  317TCM    cl3 1752   1.209   2.315   1.818
  318TCM     c1 1753   0.880   2.326   3.850
  318TCM    cl1 1754   0.885   2.281   4.024
  318TCM    cl2 1755   1.016   2.246   3.764
  318TCM     h1 1756   0.786   2.294   3.806
  318TCM    cl3 1757   0.897   2.504   3.834
  319TCM     c1 1758   1.021   0.654   4.790
  319TCM    cl1 1759   1.039   0.832   4.785
  319TCM    cl2 1760   0.942   0.597   4.639
  319TCM     h1 1761   1.119   0.606   4.800
  319TCM    cl3 1762   0.918   0.610   4.930
  320TCM     c1 1763   3.253   2.968   0.630
  320TCM    cl1 1764   3.339   3.109   0.701
  320TCM    cl2 1765   3.076   2.996   0.639
  320TCM     h1 1766   3.283   2.954   0.526
  320TCM    cl3 1767   3.294   2.821   0.725
  321TCM     c1 1768   3.481   4.650   2.746
  321TCM    cl1 1769   3.352   4.775   2.732
  321TCM    cl2 1770   3.603   4.704   2.866
  321TCM     h1 1771   3.437   4.556   2.779
  321TCM    cl3 1772   3.559   4.628   2.586
  322TCM     c1 1773   4.664   3.265   4.831
  322TCM    cl1 1774   4.790   3.265   4.704
  322TCM    cl2 1775   4.685   3.410   4.935
  322TCM     h1 1776   4.565   3.268   4.785
  322TCM    cl3 1777   4.679   3.116   4.931
  323TCM     c1 1778   4.493   2.698   2.699
  323TCM    cl1 1779   4.355   2.731   2.809
  323TCM    cl2 1780   4.572   2.853   2.657
  323TCM     h1 1781   4.565   2.633   2.748
  323TCM    cl3 1782   4.432   2.619   2.550
  324TCM     c1 1783   2.284   4.545   3.416
  324TCM    cl1 1784   2.194   4.586   3.566
  324TCM    cl2 1785   2.268   4.680   3.300
  324TCM     h1 1786   2.389   4.529   3.440
  324TCM    cl3 1787   2.216   4.396   3.343
  325TCM     c1 1788   3.382   2.306   0.562
  325TCM    cl1 1789   3.317   2.472   0.581
  325TCM    cl2 1790   3.415   2.275   0.389
  325TCM     h1 1791   3.475   2.296   0.620
  325TCM    cl3 1792   3.261   2.188   0.622
  326TCM     c1 1793   2.488   1.947   2.486
  326TCM    cl1 1794   2.363   1.863   2.389
  326TCM    cl2 1795   2.407   2.055   2.605
  326TCM     h1 1796   2.549   1.873   2.539
  326TCM    cl3 1797   2.592   2.045   2.378
  327TCM     c1 1798   2.811   2.940   3.089
  327TCM    cl1 1799   2.887   2.933   3.252
  327TCM    cl2 1800   2.939   2.961   2.965
  327TCM     h1 1801   2.756   2.847   3.070
  327TCM    cl3 1802   2.698   3.079   3.083
  328TCM     c1 1803   0.277   1.841   1.366
  328TCM    cl1 1804   0.354   1.694   1.435
  328TCM    cl2 1805   0.110   1.856   1.432
  328TCM     h1 1806   0.335   1.929   1.394
  328TCM    cl3 1807   0.271   1.827   1.187
  329TCM     c1 1808   1.643   1.092   3.374
  329TCM    cl1 1809   1.742   1.065   3.227
  329TCM    cl2 1810   1.536   1.233   3.351
  329TCM     h1 1811   1.583   1.003   3.395
  329TCM    cl3 1812   1.752   1.124   3.514
  330TCM     c1 1813   3.176   4.108   1.963
  330TCM    cl1 1814   3.331   4.150   1.883
  330TCM    cl2 1815   3.051   4.082   1.838
  330TCM     h1 1816   3.188   4.017   2.022
  330TCM    cl3 1817   3.125   4.243   2.070
  331TCM     c1 1818   2.041   3.615   0.288
  331TCM    cl1 1819   2.198   3.565   0.360
  331TCM    cl2 1820   1.931   3.473   0.283
  331TCM     h1 1821   1.997   3.694   0.349
  331TCM    cl3 1822   2.067   3.674   0.120
  332TCM     c1 1823   4.675   2.160   3.108
  332TCM    cl1 1824   4.779   2.127   2.965
  332TCM    cl2 1825   4.735   2.306   3.194
  332TCM     h1 1826   4.572   2.177   3.074
  332TCM    cl3 1827   4.678   2.019   3.218
  333TCM     c1 1828   2.540   3.870   1.108
  333TCM    cl1 1829   2.484   4.005   1.213
  333TCM    cl2 1830   2.516   3.913   0.936
  333TCM     h1 1831   2.646   3.851   1.127
  333TCM    cl3 1832   2.445   3.722   1.146
  334TCM     c1 1833   0.802   4.881   4.626
  334TCM    cl1 1834   0.769   5.013   4.509
  334TCM    cl2 1835   0.830   4.950   4.789
  334TCM     h1 1836   0.716   4.813   4.629
  334TCM    cl3 1837   0.948   4.790   4.575
  335TCM     c1 1838   3.645   3.212   3.148
  335TCM    cl1 1839   3.806   3.147   3.103
  335TCM    cl2 1840   3.520   3.085   3.123
  335TCM     h1 1841   3.645   3.242   3.253
  335TCM    cl3 1842   3.607   3.354   3.044
  336TCM     c1 1843   3.483   3.895   1.206
  336TCM    cl1 1844   3.600   3.934   1.337
  336TCM    cl2 1845   3.417   4.048   1.139
  336TCM     h1 1846   3.533   3.839   1.127
  336TCM    cl3 1847   3.350   3.796   1.274
  337TCM     c1 1848   2.544   1.293   3.626
  337TCM    cl1 1849   2.518   1.318   3.450
  337TCM    cl2 1850   2.675   1.402   3.682
  337TCM     h1 1851   2.452   1.316   3.680
  337TCM    cl3 1852   2.590   1.122   3.656
  338TCM     c1 1853   1.974   3.699   4.744
  338TCM    cl1 1854   1.968   3.864   4.814
  338TCM    cl2 1855   1.947   3.709   4.566
  338TCM     h1 1856   2.071   3.654   4.763
  338TCM    cl3 1857   1.844   3.599   4.818
  339TCM     c1 1858   4.047   3.769   2.952
  339TCM    cl1 1859   3.868   3.777   2.967
  339TCM    cl2 1860   4.114   3.936   2.955
  339TCM     h1 1861   4.088   3.712   3.035
  339TCM    cl3 1862   4.090   3.691   2.797
  340TCM     c1 1863   3.228   1.889   4.563
  340TCM    cl1 1864   3.087   1.923   4.459
  340TCM    cl2 1865   3.376   1.961   4.489
  340TCM     h1 1866   3.212   1.933   4.662
  340TCM    cl3 1867   3.250   1.712   4.579
  341TCM     c1 1868   2.333   3.999   0.100
  341TCM    cl1 1869   2.503   4.011   0.042
  341TCM    cl2 1870   2.274   4.161   0.150
  341TCM     h1 1871   2.270   3.960   0.020
  341TCM    cl3 1872   2.327   3.888   0.241
  342TCM     c1 1873   0.586   0.531   3.824
  342TCM    cl1 1874   0.628   0.505   3.997
  342TCM    cl2 1875   0.735   0.557   3.728
  342TCM     h1 1876   0.532   0.444   3.786
  342TCM    cl3 1877   0.481   0.676   3.813
  343TCM     c1 1878   3.372   0.861   1.811
  343TCM    cl1 1879   3.468   0.932   1.945
  343TCM    cl2 1880   3.223   0.785   1.876
  343TCM     h1 1881   3.345   0.940   1.740
  343TCM    cl3 1882   3.471   0.737   1.728
  344TCM     c1 1883   2.774   4.892   2.321
  344TCM    cl1 1884   2.917   4.924   2.216
  344TCM    cl2 1885   2.663   4.781   2.234
  344TCM     h1 1886   2.806   4.846   2.414
  344TCM    cl3 1887   2.690   5.047   2.357
  345TCM     c1 1888   2.514   4.361   2.272
  345TCM    cl1 1889   2.434   4.251   2.154
  345TCM    cl2 1890   2.672   4.413   2.204
  345TCM     h1 1891   2.451   4.448   2.291
  345TCM    cl3 1892   2.543   4.272   2.425
  346TCM     c1 1893   0.677   0.743   1.812
  346TCM    cl1 1894   0.744   0.879   1.715
  346TCM    cl2 1895   0.532   0.797   1.902
  346TCM     h1 1896   0.649   0.661   1.745
  346TCM    cl3 1897   0.801   0.687   1.928
  347TCM     c1 1898   2.327   4.396   2.889
  347TCM    cl1 1899   2.219   4.514   2.809
  347TCM    cl2 1900   2.410   4.474   3.027
  347TCM     h1 1901   2.268   4.311   2.925
  347TCM    cl3 1902   2.450   4.338   2.771
  348TCM     c1 1903   4.251   1.873   4.623
  348TCM    cl1 1904   4.324   1.827   4.466
  348TCM    cl2 1905   4.201   1.724   4.709
  348TCM     h1 1906   4.324   1.927   4.683
  348TCM    cl3 1907   4.108   1.976   4.595
  349TCM     c1 1908   0.434   0.596   0.080
  349TCM    cl1 1909   0.604   0.609   0.135
  349TCM    cl2 1910   0.427   0.493  -0.066
  349TCM     h1 1911   0.373   0.552   0.159
  349TCM    cl3 1912   0.373   0.760   0.040
  350TCM     c1 1913   3.562   3.933   0.073
  350TCM    cl1 1914   3.576   4.054  -0.059
  350TCM    cl2 1915   3.595   4.012   0.231
  350TCM     h1 1916   3.462   3.890   0.073
  350TCM    cl3 1917   3.683   3.804   0.046
  351TCM     c1 1918   2.020   2.006   2.416
  351TCM    cl1 1919   1.983   2.066   2.581
  351TCM    cl2 1920   1.940   2.111   2.296
  351TCM     h1 1921   2.128   2.007   2.400
  351TCM    cl3 1922   1.957   1.839   2.399
  352TCM     c1 1923   2.153   4.079   1.347
  352TCM    cl1 1924   2.110   3.905   1.345
  352TCM    cl2 1925   2.183   4.131   1.515
  352TCM     h1 1926   2.242   4.095   1.287
  352TCM    cl3 1927   2.018   4.176   1.278
  353TCM     c1 1928   4.219   3.631   1.612
  353TCM    cl1 1929   4.389   3.580   1.588
  353TCM    cl2 1930   4.198   3.686   1.781
  353TCM     h1 1931   4.194   3.712   1.543
  353TCM    cl3 1932   4.111   3.490   1.581
  354TCM     c1 1933   2.594   4.672   0.512
  354TCM    cl1 1934   2.736   4.780   0.492
  354TCM    cl2 1935   2.651   4.504   0.537
  354TCM     h1 1936   2.535   4.704   0.598
  354TCM    cl3 1937   2.493   4.680   0.364
  355TCM     c1 1938   2.731   2.330   4.543
  355TCM    cl1 1939   2.817   2.371   4.696
  355TCM    cl2 1940   2.820   2.199   4.459
  355TCM     h1 1941   2.630   2.296   4.566
  355TCM    cl3 1942   2.726   2.475   4.439
  356TCM     c1 1943   1.703   3.140   2.468
  356TCM    cl1 1944   1.586   3.017   2.528
  356TCM    cl2 1945   1.806   3.195   2.605
  356TCM     h1 1946   1.766   3.096   2.390
  356TCM    cl3 1947   1.613   3.280   2.402
  357TCM     c1 1948   0.650   4.134   4.544
  357TCM    cl1 1949   0.658   3.984   4.445
  357TCM    cl2 1950   0.534   4.110   4.678
  357TCM     h1 1951   0.748   4.157   4.584
  357TCM    cl3 1952   0.594   4.269   4.440
  358TCM     c1 1953   0.155   2.346   1.674
  358TCM    cl1 1954   0.116   2.182   1.613
  358TCM    cl2 1955   0.012   2.413   1.760
  358TCM     h1 1956   0.239   2.341   1.743
  358TCM    cl3 1957   0.196   2.452   1.535
  359TCM     c1 1958   4.474   0.810   3.896
  359TCM    cl1 1959   4.296   0.792   3.883
  359TCM    cl2 1960   4.534   0.902   3.755
  359TCM     h1 1961   4.499   0.863   3.988
  359TCM    cl3 1962   4.549   0.647   3.898
  360TCM     c1 1963   3.959   0.781   0.223
  360TCM    cl1 1964   4.056   0.925   0.268
  360TCM    cl2 1965   3.794   0.795   0.293
  360TCM     h1 1966   3.951   0.775   0.114
  360TCM    cl3 1967   4.038   0.634   0.287
  361TCM     c1 1968   1.850   1.492   3.401
  361TCM    cl1 1969   1.932   1.376   3.292
  361TCM    cl2 1970   1.710   1.564   3.315
  361TCM     h1 1971   1.816   1.440   3.491
  361TCM    cl3 1972   1.965   1.622   3.446
  362TCM     c1 1973   0.277   1.660   2.080
  362TCM    cl1 1974   0.221   1.677   1.910
  362TCM    cl2 1975   0.426   1.560   2.084
  362TCM     h1 1976   0.298   1.759   2.122
  362TCM    cl3 1977   0.149   1.580   2.177
  363TCM     c1 1978   1.508   0.593   3.085
  363TCM    cl1 1979   1.384   0.709   3.141
  363TCM    cl2 1980   1.432   0.434   3.054
  363TCM     h1 1981   1.555   0.630   2.993
  363TCM    cl3 1982   1.632   0.573   3.213
  364TCM     c1 1983   2.276   4.198   0.933
  364TCM    cl1 1984   2.313   4.288   1.084
  364TCM    cl2 1985   2.170   4.299   0.830
  364TCM     h1 1986   2.369   4.176   0.880
  364TCM    cl3 1987   2.191   4.045   0.973
  365TCM     c1 1988   3.367   1.579   4.132
  365TCM    cl1 1989   3.449   1.656   3.991
  365TCM    cl2 1990   3.190   1.611   4.124
  365TCM     h1 1991   3.384   1.471   4.129
  365TCM    cl3 1992   3.434   1.647   4.284
  366TCM     c1 1993   2.253   3.732   4.046
  366TCM    cl1 1994   2.158   3.857   4.134
  366TCM    cl2 1995   2.238   3.757   3.870
  366TCM     h1 1996   2.358   3.738   4.075
  366TCM    cl3 1997   2.189   3.569   4.086
  367TCM     c1 1998   2.973   0.652   4.409
  367TCM    cl1 1999   3.145   0.662   4.357
  367TCM    cl2 2000   2.914   0.815   4.455
  367TCM     h1 2001   2.912   0.612   4.327
  367TCM    cl3 2002   2.962   0.542   4.550
  368TCM     c1 2003   2.934   2.615   2.340
  368TCM    cl1 2004   2.947   2.759   2.234
  368TCM    cl2 2005   3.095   2.536   2.353
  368TCM     h1 2006   2.900   2.645   2.440
  368TCM    cl3 2007   2.816   2.499   2.270
  369TCM     c1 2008   4.915   4.233   0.686
  369TCM    cl1 2009   4.922   4.412   0.673
  369TCM    cl2 2010   4.978   4.182   0.846
  369TCM     h1 2011   4.812   4.200   0.675
  369TCM    cl3 2012   5.014   4.159   0.555
  370TCM     c1 2013   2.010   2.846   4.221
  370TCM    cl1 2014   2.126   2.797   4.093
  370TCM    cl2 2015   2.094   2.850   4.379
  370TCM     h1 2016   1.971   2.945   4.198
  370TCM    cl3 2017   1.875   2.728   4.227
  371TCM     c1 2018   2.604   4.024   4.167
  371TCM    cl1 2019   2.451   4.049   4.256
  371TCM    cl2 2020   2.578   3.907   4.033
  371TCM     h1 2021   2.639   4.119   4.126
  371TCM    cl3 2022   2.728   3.958   4.279
  372TCM     c1 2023   4.589   0.136   2.527
  372TCM    cl1 2024   4.693   0.271   2.584
  372TCM    cl2 2025   4.591   0.006   2.651
  372TCM     h1 2026   4.487   0.173   2.513
  372TCM    cl3 2027   4.652   0.073   2.372
  373TCM     c1 2028   1.941   3.495   1.835
  373TCM    cl1 2029   1.996   3.578   1.985
  373TCM    cl2 2030   1.762   3.481   1.838
  373TCM     h1 2031   1.971   3.553   1.748
  373TCM    cl3 2032   2.014   3.331   1.828
  374TCM     c1 2033   3.503   0.504   0.680
  374TCM    cl1 2034   3.590   0.479   0.835
  374TCM    cl2 2035   3.407   0.357   0.643
  374TCM     h1 2036   3.437   0.590   0.688
  374TCM    cl3 2037   3.623   0.532   0.549
  375TCM     c1 2038   0.131   3.707   2.979
  375TCM    cl1 2039   0.184   3.853   3.068
  375TCM    cl2 2040   0.184   3.719   2.808
  375TCM     h1 2041   0.174   3.618   3.025
  375TCM    cl3 2042  -0.048   3.697   2.984
  376TCM     c1 2043   2.667   2.729   4.708
  376TCM    cl1 2044   2.535   2.612   4.741
  376TCM    cl2 2045   2.798   2.709   4.829
  376TCM     h1 2046   2.707   2.712   4.608
  376TCM    cl3 2047   2.600   2.895   4.719
  377TCM     c1 2048   1.933   0.442   0.443
  377TCM    cl1 2049   1.842   0.554   0.337
  377TCM    cl2 2050   1.817   0.325   0.516
  377TCM     h1 2051   2.007   0.388   0.383
  377TCM    cl3 2052   2.014   0.534   0.573
  378TCM     c1 2053   2.861   0.356   2.088
  378TCM    cl1 2054   2.954   0.282   2.222
  378TCM    cl2 2055   2.852   0.533   2.115
  378TCM     h1 2056   2.910   0.336   1.992
  378TCM    cl3 2057   2.695   0.288   2.086
  379TCM     c1 2058   1.705   3.549   4.268
  379TCM    cl1 2059   1.718   3.727   4.288
  379TCM    cl2 2060   1.679   3.473   4.429
  379TCM     h1 2061   1.621   3.526   4.202
  379TCM    cl3 2062   1.857   3.486   4.196
  380TCM     c1 2063   0.642   2.833   0.467
  380TCM    cl1 2064   0.725   2.929   0.341
  380TCM    cl2 2065   0.754   2.803   0.604
  380TCM     h1 2066   0.555   2.888   0.504
  380TCM    cl3 2067   0.590   2.676   0.398
  381TCM     c1 2068   2.851   0.256   3.058
  381TCM    cl1 2069   2.793   0.371   3.182
  381TCM    cl2 2070   2.797   0.091   3.103
  381TCM     h1 2071   2.811   0.283   2.960
  381TCM    cl3 2072   3.031   0.260   3.053
  382TCM     c1 2073   1.924   2.898   0.903
  382TCM    cl1 2074   1.997   2.741   0.948
  382TCM    cl2 2075   1.746   2.891   0.926
  382TCM     h1 2076   1.965   2.978   0.966
  382TCM    cl3 2077   1.960   2.933   0.731
  383TCM     c1 2078   3.154   0.255   3.871
  383TCM    cl1 2079   3.219   0.088   3.875
  383TCM    cl2 2080   2.986   0.252   3.807
  383TCM     h1 2081   3.153   0.296   3.972
  383TCM    cl3 2082   3.257   0.357   3.766
  384TCM     c1 2083   2.664   3.287   0.091
  384TCM    cl1 2084   2.663   3.204  -0.068
  384TCM    cl2 2085   2.760   3.438   0.081
  384TCM     h1 2086   2.561   3.311   0.120
  384TCM    cl3 2087   2.738   3.180   0.214
  385TCM     c1 2088   0.335   0.649   4.179
  385TCM    cl1 2089   0.346   0.488   4.258
  385TCM    cl2 2090   0.310   0.774   4.305
  385TCM     h1 2091   0.428   0.670   4.124
  385TCM    cl3 2092   0.196   0.651   4.065
  386TCM     c1 2093   2.523   2.678   3.411
  386TCM    cl1 2094   2.400   2.727   3.533
  386TCM    cl2 2095   2.683   2.662   3.489
  386TCM     h1 2096   2.494   2.582   3.367
  386TCM    cl3 2097   2.532   2.803   3.283
  387TCM     c1 2098   0.707   1.125   4.970
  387TCM    cl1 2099   0.625   1.268   5.041
  387TCM    cl2 2100   0.683   0.983   5.078
  387TCM     h1 2101   0.665   1.103   4.872
  387TCM    cl3 2102   0.883   1.159   4.954
  388TCM     c1 2103   4.720   2.928   1.910
  388TCM    cl1 2104   4.694   2.950   1.734
  388TCM    cl2 2105   4.814   2.778   1.939
  388TCM     h1 2106   4.777   3.014   1.949
  388TCM    cl3 2107   4.562   2.918   1.993
  389TCM     c1 2108   2.991   3.361   0.400
  389TCM    cl1 2109   2.927   3.528   0.409
  389TCM    cl2 2110   3.107   3.336   0.535
  389TCM     h1 2111   2.909   3.289   0.409
  389TCM    cl3 2112   3.076   3.338   0.244
  390TCM     c1 2113   2.698   4.719   1.435
  390TCM    cl1 2114   2.698   4.564   1.526
  390TCM    cl2 2115   2.768   4.848   1.539
  390TCM     h1 2116   2.758   4.708   1.344
  390TCM    cl3 2117   2.530   4.763   1.392
  391TCM     c1 2118   2.640   4.125   4.667
  391TCM    cl1 2119   2.798   4.132   4.582
  391TCM    cl2 2120   2.590   3.953   4.683
  391TCM     h1 2121   2.650   4.170   4.766
  391TCM    cl3 2122   2.518   4.215   4.571
  392TCM     c1 2123   3.802   3.814   2.589
  392TCM    cl1 2124   3.876   3.966   2.649
  392TCM    cl2 2125   3.788   3.820   2.410
  392TCM     h1 2126   3.864   3.729   2.618
  392TCM    cl3 2127   3.638   3.795   2.662
  393TCM     c1 2128   2.533   1.562   2.276
  393TCM    cl1 2129   2.580   1.389   2.263
  393TCM    cl2 2130   2.492   1.625   2.113
  393TCM     h1 2131   2.447   1.572   2.342
  393TCM    cl3 2132   2.672   1.655   2.343
  394TCM     c1 2133   0.169   2.352   0.414
  394TCM    cl1 2134   0.015   2.260   0.415
  394TCM    cl2 2135   0.151   2.497   0.309
  394TCM     h1 2136   0.194   2.383   0.516
  394TCM    cl3 2137   0.299   2.248   0.349
  395TCM     c1 2138   4.063   0.472   2.942
  395TCM    cl1 2139   4.061   0.576   2.796
  395TCM    cl2 2140   3.938   0.529   3.058
  395TCM     h1 2141   4.042   0.368   2.914
  395TCM    cl3 2142   4.223   0.483   3.021
  396TCM     c1 2143   4.783   2.264   0.048
  396TCM    cl1 2144   4.849   2.419   0.109
  396TCM    cl2 2145   4.831   2.244  -0.124
  396TCM     h1 2146   4.823   2.181   0.107
  396TCM    cl3 2147   4.604   2.266   0.061
  397TCM     c1 2148   3.618   1.274   1.201
  397TCM    cl1 2149   3.468   1.361   1.248
  397TCM    cl2 2150   3.578   1.106   1.154
  397TCM     h1 2151   3.666   1.326   1.117
  397TCM    cl3 2152   3.730   1.271   1.341
  398TCM     c1 2153   2.762   4.493   4.341
  398TCM    cl1 2154   2.610   4.572   4.287
  398TCM    cl2 2155   2.768   4.327   4.275
  398TCM     h1 2156   2.848   4.550   4.305
  398TCM    cl3 2157   2.766   4.487   4.520
  399TCM     c1 2158   1.310   0.293   0.466
  399TCM    cl1 2159   1.479   0.303   0.408
  399TCM    cl2 2160   1.286   0.140   0.555
  399TCM     h1 2161   1.291   0.378   0.533
  399TCM    cl3 2162   1.198   0.300   0.326
  400TCM     c1 2163   1.468   3.258   4.022
  400TCM    cl1 2164   1.463   3.261   4.202
  400TCM    cl2 2165   1.635   3.294   3.968
  400TCM     h1 2166   1.438   3.160   3.986
  400TCM    cl3 2167   1.356   3.383   3.958
  401TCM     c1 2168   1.216   2.324   2.295
  401TCM    cl1 2169   1.183   2.379   2.463
  401TCM    cl2 2170   1.393   2.323   2.267
  401TCM     h1 2171   1.175   2.223   2.281
  401TCM    cl3 2172   1.137   2.437   2.179
  402TCM     c1 2173   1.302   1.353   0.467
  402TCM    cl1 2174   1.196   1.348   0.612
  402TCM    cl2 2175   1.447   1.251   0.496
  402TCM     h1 2176   1.248   1.315   0.380
  402TCM    cl3 2177   1.354   1.522   0.437
  403TCM     c1 2178   0.218   0.371   3.186
  403TCM    cl1 2179   0.177   0.329   3.017
  403TCM    cl2 2180   0.312   0.524   3.189
  403TCM     h1 2181   0.126   0.382   3.244
  403TCM    cl3 2182   0.318   0.239   3.256
  404TCM     c1 2183   2.659   3.848   0.440
  404TCM    cl1 2184   2.521   3.827   0.553
  404TCM    cl2 2185   2.657   4.014   0.373
  404TCM     h1 2186   2.753   3.831   0.493
  404TCM    cl3 2187   2.645   3.729   0.306
  405TCM     c1 2188   0.112   1.775   0.581
  405TCM    cl1 2189   0.093   1.748   0.758
  405TCM    cl2 2190   0.210   1.642   0.511
  405TCM     h1 2191   0.014   1.777   0.534
  405TCM    cl3 2192   0.196   1.931   0.555
  406TCM     c1 2193   3.360   4.673   3.919
  406TCM    cl1 2194   3.426   4.771   3.784
  406TCM    cl2 2195   3.202   4.741   3.971
  406TCM     h1 2196   3.345   4.570   3.886
  406TCM    cl3 2197   3.476   4.676   4.056
  407TCM     c1 2198   0.273   3.125   3.393
  407TCM    cl1 2199   0.345   3.003   3.503
  407TCM    cl2 2200   0.196   3.041   3.255
  407TCM     h1 2201   0.198   3.183   3.447
  407TCM    cl3 2202   0.402   3.235   3.332
  408TCM     c1 2203   2.768   0.544   1.706
  408TCM    cl1 2204   2.637   0.555   1.828
  408TCM    cl2 2205   2.851   0.386   1.721
  408TCM     h1 2206   2.725   0.554   1.606
  408TCM    cl3 2207   2.886   0.676   1.733
  409TCM     c1 2208   4.731   4.933   4.029
  409TCM    cl1 2209   4.588   5.028   3.976
  409TCM    cl2 2210   4.684   4.822   4.161
  409TCM     h1 2211   4.770   4.876   3.944
  409TCM    cl3 2212   4.857   5.046   4.089
  410TCM     c1 2213   3.910   0.860   1.999
  410TCM    cl1 2214   3.782   0.858   2.125
  410TCM    cl2 2215   4.019   1.000   2.027
  410TCM     h1 2216   3.967   0.767   2.003
  410TCM    cl3 2217   3.834   0.876   1.837
  411TCM     c1 2218   2.544   4.594   1.923
  411TCM    cl1 2219   2.534   4.438   1.834
  411TCM    cl2 2220   2.406   4.605   2.037
  411TCM     h1 2221   2.638   4.600   1.978
  411TCM    cl3 2222   2.535   4.730   1.806
  412TCM     c1 2223   2.118   2.590   0.635
  412TCM    cl1 2224   2.285   2.575   0.570
  412TCM    cl2 2225   2.071   2.435   0.712
  412TCM     h1 2226   2.115   2.670   0.709
  412TCM    cl3 2227   2.003   2.626   0.503
  413TCM     c1 2228   2.250   4.612   4.972
  413TCM    cl1 2229   2.397   4.714   4.977
  413TCM    cl2 2230   2.109   4.712   4.922
  413TCM     h1 2231   2.264   4.531   4.899
  413TCM    cl3 2232   2.220   4.543   5.134
  414TCM     c1 2233   3.433   0.902   2.302
  414TCM    cl1 2234   3.267   0.889   2.235
  414TCM    cl2 2235   3.499   0.738   2.329
  414TCM     h1 2236   3.497   0.956   2.231
  414TCM    cl3 2237   3.427   0.992   2.457
  415TCM     c1 2238   3.406   3.969   0.735
  415TCM    cl1 2239   3.408   3.909   0.566
  415TCM    cl2 2240   3.473   3.842   0.843
  415TCM     h1 2241   3.467   4.059   0.743
  415TCM    cl3 2242   3.237   4.006   0.784
  416TCM     c1 2243   1.680   4.358   1.808
  416TCM    cl1 2244   1.790   4.253   1.904
  416TCM    cl2 2245   1.604   4.480   1.916
  416TCM     h1 2246   1.737   4.409   1.731
  416TCM    cl3 2247   1.552   4.257   1.733
  417TCM     c1 2248   4.866   2.782   2.958
  417TCM    cl1 2249   4.709   2.716   3.017
  417TCM    cl2 2250   4.991   2.760   3.084
  417TCM     h1 2251   4.895   2.728   2.868
  417TCM    cl3 2252   4.847   2.956   2.922
  418TCM     c1 2253   1.653   1.310   1.956
  418TCM    cl1 2254   1.743   1.340   2.109
  418TCM    cl2 2255   1.508   1.415   1.951
  418TCM     h1 2256   1.717   1.332   1.871
  418TCM    cl3 2257   1.602   1.138   1.949
  419TCM     c1 2258   0.946   4.185   0.081
  419TCM    cl1 2259   0.827   4.183  -0.054
  419TCM    cl2 2260   0.994   4.016   0.121
  419TCM     h1 2261   1.034   4.241   0.050
  419TCM    cl3 2262   0.873   4.262   0.225
  420TCM     c1 2263   2.934   2.529   0.676
  420TCM    cl1 2264   2.995   2.653   0.561
  420TCM    cl2 2265   3.036   2.530   0.824
  420TCM     h1 2266   2.831   2.552   0.702
  420TCM    cl3 2267   2.942   2.368   0.598
  421TCM     c1 2268   0.762   1.852   2.345
  421TCM    cl1 2269   0.720   1.719   2.232
  421TCM    cl2 2270   0.787   1.785   2.510
  421TCM     h1 2271   0.854   1.900   2.311
  421TCM    cl3 2272   0.631   1.974   2.348
  422TCM     c1 2273   2.467   0.657   4.397
  422TCM    cl1 2274   2.384   0.611   4.245
  422TCM    cl2 2275   2.497   0.834   4.397
  422TCM     h1 2276   2.405   0.631   4.483
  422TCM    cl3 2277   2.624   0.571   4.407
  423TCM     c1 2278   0.361   4.331   4.040
  423TCM    cl1 2279   0.476   4.404   3.923
  423TCM    cl2 2280   0.195   4.340   3.973
  423TCM     h1 2281   0.388   4.227   4.058
  423TCM    cl3 2282   0.367   4.422   4.195
  424TCM     c1 2283   4.882   4.109   1.214
  424TCM    cl1 2284   4.739   4.000   1.211
  424TCM    cl2 2285   4.990   4.063   1.350
  424TCM     h1 2286   4.937   4.100   1.120
  424TCM    cl3 2287   4.827   4.278   1.237
  425TCM     c1 2288   2.504   2.371   0.030
  425TCM    cl1 2289   2.463   2.272   0.174
  425TCM    cl2 2290   2.459   2.282  -0.119
  425TCM     h1 2291   2.451   2.466   0.034
  425TCM    cl3 2292   2.681   2.401   0.029
  426TCM     c1 2293   0.098   4.995   3.489
  426TCM    cl1 2294   0.010   5.115   3.389
  426TCM    cl2 2295   0.221   5.078   3.590
  426TCM     h1 2296   0.027   4.943   3.554
  426TCM    cl3 2297   0.179   4.876   3.381
  427TCM     c1 2298   3.228   2.485   1.916
  427TCM    cl1 2299   3.197   2.651   1.977
  427TCM    cl2 2300   3.131   2.457   1.768
  427TCM     h1 2301   3.334   2.474   1.892
  427TCM    cl3 2302   3.182   2.367   2.042
  428TCM     c1 2303   4.036   1.103   4.826
  428TCM    cl1 2304   4.100   1.001   4.693
  428TCM    cl2 2305   4.172   1.163   4.927
  428TCM     h1 2306   3.981   1.188   4.784
  428TCM    cl3 2307   3.926   1.004   4.928
  429TCM     c1 2308   0.910   1.952   4.280
  429TCM    cl1 2309   1.052   1.910   4.381
  429TCM    cl2 2310   0.813   2.078   4.363
  429TCM     h1 2311   0.943   1.990   4.183
  429TCM    cl3 2312   0.809   1.805   4.256
  430TCM     c1 2313   0.429   0.386   2.060
  430TCM    cl1 2314   0.572   0.468   2.131
  430TCM    cl2 2315   0.395   0.457   1.899
  430TCM     h1 2316   0.450   0.279   2.049
  430TCM    cl3 2317   0.287   0.408   2.167
  431TCM     c1 2318   3.759   0.201   0.607
  431TCM    cl1 2319   3.678   0.044   0.574
  431TCM    cl2 2320   3.845   0.257   0.460
  431TCM     h1 2321   3.684   0.275   0.637
  431TCM    cl3 2322   3.877   0.181   0.741
  432TCM     c1 2323   2.917   1.901   3.590
  432TCM    cl1 2324   3.085   1.907   3.529
  432TCM    cl2 2325   2.873   1.732   3.633
  432TCM     h1 2326   2.908   1.964   3.679
  432TCM    cl3 2327   2.804   1.961   3.464
  433TCM     c1 2328   4.059   2.877   3.037
  433TCM    cl1 2329   3.992   2.738   2.946
  433TCM    cl2 2330   4.114   3.003   2.922
  433TCM     h1 2331   3.982   2.918   3.102
  433TCM    cl3 2332   4.198   2.822   3.136
  434TCM     c1 2333   3.010   4.506   1.682
  434TCM    cl1 2334   2.916   4.470   1.831
  434TCM    cl2 2335   3.150   4.395   1.670
  434TCM     h1 2336   2.946   4.493   1.595
  434TCM    cl3 2337   3.069   4.676   1.688
  435TCM     c1 2338   0.503   1.083   4.086
  435TCM    cl1 2339   0.389   0.969   4.006
  435TCM    cl2 2340   0.600   0.996   4.209
  435TCM     h1 2341   0.569   1.126   4.011
  435TCM    cl3 2342   0.409   1.214   4.166
  436TCM     c1 2343   0.674   1.857   1.133
  436TCM    cl1 2344   0.616   1.957   1.270
  436TCM    cl2 2345   0.615   1.689   1.153
  436TCM     h1 2346   0.637   1.898   1.038
  436TCM    cl3 2347   0.853   1.856   1.132
  437TCM     c1 2348   1.018   3.446   4.844
  437TCM    cl1 2349   1.188   3.446   4.787
  437TCM    cl2 2350   0.992   3.307   4.953
  437TCM     h1 2351   0.997   3.540   4.897
  437TCM    cl3 2352   0.908   3.431   4.702
  438TCM     c1 2353   3.467   1.146   1.557
  438TCM    cl1 2354   3.415   0.998   1.469
  438TCM    cl2 2355   3.609   1.109   1.659
  438TCM     h1 2356   3.492   1.225   1.485
  438TCM    cl3 2357   3.332   1.203   1.661
  439TCM     c1 2358   3.634   1.736   4.627
  439TCM    cl1 2359   3.612   1.558   4.621
  439TCM    cl2 2360   3.810   1.774   4.615
  439TCM     h1 2361   3.581   1.783   4.543
  439TCM    cl3 2362   3.571   1.799   4.782
  440TCM     c1 2363   0.656   4.018   3.970
  440TCM    cl1 2364   0.660   4.139   4.102
  440TCM    cl2 2365   0.688   4.100   3.814
  440TCM     h1 2366   0.732   3.942   3.988
  440TCM    cl3 2367   0.494   3.942   3.963
  441TCM     c1 2368   3.414   3.242   0.188
  441TCM    cl1 2369   3.371   3.113   0.306
  441TCM    cl2 2370   3.358   3.193   0.024
  441TCM     h1 2371   3.366   3.335   0.216
  441TCM    cl3 2372   3.592   3.265   0.185
  442TCM     c1 2373   0.952   2.273   1.548
  442TCM    cl1 2374   0.855   2.145   1.468
  442TCM    cl2 2375   0.855   2.424   1.558
  442TCM     h1 2376   0.979   2.240   1.649
  442TCM    cl3 2377   1.101   2.303   1.454
  443TCM     c1 2378   4.247   4.998   4.826
  443TCM    cl1 2379   4.128   5.102   4.742
  443TCM    cl2 2380   4.201   4.826   4.807
  443TCM     h1 2381   4.347   5.014   4.784
  443TCM    cl3 2382   4.249   5.041   5.001
  444TCM     c1 2383   4.424   0.798   4.903
  444TCM    cl1 2384   4.427   0.780   4.724
  444TCM    cl2 2385   4.254   0.800   4.961
  444TCM     h1 2386   4.477   0.714   4.949
  444TCM    cl3 2387   4.504   0.952   4.948
  445TCM     c1 2388   2.924   0.767   3.194
  445TCM    cl1 2389   2.750   0.721   3.188
  445TCM    cl2 2390   3.010   0.688   3.058
  445TCM     h1 2391   2.933   0.875   3.187
  445TCM    cl3 2392   2.994   0.710   3.349
  446TCM     c1 2393   4.326   1.270   4.511
  446TCM    cl1 2394   4.256   1.163   4.386
  446TCM    cl2 2395   4.422   1.172   4.627
  446TCM     h1 2396   4.391   1.345   4.464
  446TCM    cl3 2397   4.194   1.353   4.599
  447TCM     c1 2398   4.915   2.314   3.519
  447TCM    cl1 2399   5.050   2.359   3.410
  447TCM    cl2 2400   4.965   2.340   3.689
  447TCM     h1 2401   4.827   2.375   3.497
  447TCM    cl3 2402   4.875   2.140   3.496
  448TCM     c1 2403   3.338   0.599   3.458
  448TCM    cl1 2404   3.379   0.722   3.582
  448TCM    cl2 2405   3.449   0.459   3.473
  448TCM     h1 2406   3.235   0.566   3.472
  448TCM    cl3 2407   3.357   0.670   3.294
  449TCM     c1 2408   3.793   3.761   1.591
  449TCM    cl1 2409   3.831   3.707   1.757
  449TCM    cl2 2410   3.770   3.618   1.485
  449TCM     h1 2411   3.701   3.821   1.591
  449TCM    cl3 2412   3.929   3.861   1.529
  450TCM     c1 2413   0.546   0.193   0.987
  450TCM    cl1 2414   0.526   0.087   1.130
  450TCM    cl2 2415   0.721   0.213   0.953
  450TCM     h1 2416   0.496   0.148   0.900
  450TCM    cl3 2417   0.473   0.354   1.020
  451TCM     c1 2418   2.140   3.927   3.401
  451TCM    cl1 2419   2.037   4.074   3.411
  451TCM    cl2 2420   2.102   3.820   3.540
  451TCM     h1 2421   2.119   3.875   3.307
  451TCM    cl3 2422   2.313   3.975   3.408
  452TCM     c1 2423   4.370   3.951   1.184
  452TCM    cl1 2424   4.212   4.029   1.215
  452TCM    cl2 2425   4.384   3.909   1.010
  452TCM     h1 2426   4.451   4.019   1.211
  452TCM    cl3 2427   4.382   3.801   1.281
  453TCM     c1 2428   3.095   4.160   4.333
  453TCM    cl1 2429   3.094   4.295   4.451
  453TCM    cl2 2430   3.110   4.004   4.421
  453TCM     h1 2431   3.002   4.161   4.276
  453TCM    cl3 2432   3.234   4.180   4.221
  454TCM     c1 2433   1.436   2.225   4.694
  454TCM    cl1 2434   1.559   2.106   4.746
  454TCM    cl2 2435   1.409   2.210   4.517
  454TCM     h1 2436   1.342   2.205   4.746
  454TCM    cl3 2437   1.493   2.390   4.733
  455TCM     c1 2438   1.677   3.131   2.033
  455TCM    cl1 2439   1.534   3.235   2.005
  455TCM    cl2 2440   1.633   2.998   2.145
  455TCM     h1 2441   1.712   3.090   1.938
  455TCM    cl3 2442   1.807   3.230   2.107
  456TCM     c1 2443   1.933   4.904   1.341
  456TCM    cl1 2444   2.028   4.858   1.195
  456TCM    cl2 2445   1.978   4.797   1.477
  456TCM     h1 2446   1.953   5.008   1.367
  456TCM    cl3 2447   1.758   4.883   1.305
  457TCM     c1 2448   4.051   4.276   3.518
  457TCM    cl1 2449   4.151   4.141   3.457
  457TCM    cl2 2450   4.141   4.362   3.647
  457TCM     h1 2451   4.029   4.345   3.436
  457TCM    cl3 2452   3.898   4.211   3.586
  458TCM     c1 2453   0.663   1.044   3.556
  458TCM    cl1 2454   0.614   0.874   3.529
  458TCM    cl2 2455   0.545   1.155   3.478
  458TCM     h1 2456   0.665   1.064   3.663
  458TCM    cl3 2457   0.825   1.073   3.486
  459TCM     c1 2458   1.414   4.371   0.159
  459TCM    cl1 2459   1.461   4.544   0.151
  459TCM    cl2 2460   1.437   4.295  -0.002
  459TCM     h1 2461   1.475   4.320   0.233
  459TCM    cl3 2462   1.241   4.358   0.206
  460TCM     c1 2463   3.150   0.105   4.842
  460TCM    cl1 2464   3.032  -0.010   4.772
  460TCM    cl2 2465   3.130   0.109   5.021
  460TCM     h1 2466   3.252   0.074   4.818
  460TCM    cl3 2467   3.120   0.270   4.777
  461TCM     c1 2468   3.690   0.999   2.939
  461TCM    cl1 2469   3.515   1.009   2.975
  461TCM    cl2 2470   3.718   1.046   2.769
  461TCM     h1 2471   3.745   1.066   3.005
  461TCM    cl3 2472   3.747   0.831   2.965
  462TCM     c1 2473   0.010   4.548   3.598
  462TCM    cl1 2474  -0.103   4.688   3.591
  462TCM    cl2 2475  -0.050   4.429   3.718
  462TCM     h1 2476   0.016   4.501   3.500
  462TCM    cl3 2477   0.172   4.607   3.648
  463TCM     c1 2478   4.418   1.434   4.887
  463TCM    cl1 2479   4.528   1.321   4.971
  463TCM    cl2 2480   4.507   1.515   4.754
  463TCM     h1 2481   4.333   1.379   4.846
  463TCM    cl3 2482   4.360   1.557   5.003
  464TCM     c1 2483   0.331   0.618   2.712
  464TCM    cl1 2484   0.158   0.602   2.760
  464TCM    cl2 2485   0.353   0.556   2.545
  464TCM     h1 2486   0.359   0.724   2.715
  464TCM    cl3 2487   0.433   0.524   2.825
  465TCM     c1 2488   0.527   1.874   1.774
  465TCM    cl1 2489   0.378   1.942   1.700
  465TCM    cl2 2490   0.519   1.893   1.952
  465TCM     h1 2491   0.536   1.768   1.748
  465TCM    cl3 2492   0.669   1.964   1.711
  466TCM     c1 2493   3.499   2.067   1.850
  466TCM    cl1 2494   3.403   2.203   1.783
  466TCM    cl2 2495   3.441   2.028   2.015
  466TCM     h1 2496   3.488   1.979   1.786
  466TCM    cl3 2497   3.672   2.115   1.857
  467TCM     c1 2498   2.626   0.859   4.061
  467TCM    cl1 2499   2.625   0.844   3.882
  467TCM    cl2 2500   2.641   1.032   4.105
  467TCM     h1 2501   2.534   0.817   4.102
  467TCM    cl3 2502   2.767   0.769   4.125
  468TCM     c1 2503   4.695   2.483   4.651
  468TCM    cl1 2504   4.594   2.556   4.521
  468TCM    cl2 2505   4.656   2.561   4.808
  468TCM     h1 2506   4.674   2.376   4.657
  468TCM    cl3 2507   4.868   2.509   4.613
  469TCM     c1 2508   3.637   0.626   2.635
  469TCM    cl1 2509   3.779   0.725   2.587
  469TCM    cl2 2510   3.509   0.733   2.701
  469TCM     h1 2511   3.599   0.572   2.548
  469TCM    cl3 2512   3.687   0.508   2.761
  470TCM     c1 2513   3.028   2.042   2.986
  470TCM    cl1 2514   2.864   2.088   2.929
  470TCM    cl2 2515   3.073   1.883   2.915
  470TCM     h1 2516   3.101   2.117   2.954
  470TCM    cl3 2517   3.028   2.030   3.165
  471TCM     c1 2518   3.670   1.634   1.567
  471TCM    cl1 2519   3.549   1.505   1.601
  471TCM    cl2 2520   3.602   1.794   1.612
  471TCM     h1 2521   3.761   1.615   1.625
  471TCM    cl3 2522   3.710   1.633   1.392
  472TCM     c1 2523   0.322   3.294   1.327
  472TCM    cl1 2524   0.436   3.156   1.320
  472TCM    cl2 2525   0.184   3.262   1.217
  472TCM     h1 2526   0.285   3.307   1.429
  472TCM    cl3 2527   0.405   3.445   1.274
  473TCM     c1 2528   2.293   3.689   4.424
  473TCM    cl1 2529   2.450   3.680   4.338
  473TCM    cl2 2530   2.284   3.844   4.515
  473TCM     h1 2531   2.211   3.685   4.353
  473TCM    cl3 2532   2.279   3.551   4.538
  474TCM     c1 2533   1.981   1.703   1.866
  474TCM    cl1 2534   1.835   1.601   1.846
  474TCM    cl2 2535   2.118   1.628   1.776
  474TCM     h1 2536   1.962   1.803   1.827
  474TCM    cl3 2537   2.023   1.714   2.041
  475TCM     c1 2538   4.326   2.324   4.835
  475TCM    cl1 2539   4.443   2.225   4.741
  475TCM    cl2 2540   4.170   2.237   4.845
  475TCM     h1 2541   4.364   2.342   4.935
  475TCM    cl3 2542   4.301   2.481   4.751
  476TCM     c1 2543   3.033   4.517   3.319
  476TCM    cl1 2544   2.917   4.423   3.419
  476TCM    cl2 2545   2.955   4.569   3.167
  476TCM     h1 2546   3.067   4.604   3.376
  476TCM    cl3 2547   3.173   4.412   3.280
  477TCM     c1 2548   4.971   4.024   0.147
  477TCM    cl1 2549   5.083   3.968   0.019
  477TCM    cl2 2550   4.874   3.886   0.207
  477TCM     h1 2551   5.028   4.067   0.230
  477TCM    cl3 2552   4.860   4.148   0.079
  478TCM     c1 2553   1.068   2.567   3.254
  478TCM    cl1 2554   1.068   2.715   3.151
  478TCM    cl2 2555   0.928   2.464   3.210
  478TCM     h1 2556   1.161   2.512   3.237
  478TCM    cl3 2557   1.057   2.614   3.427
  479TCM     c1 2558   2.392   2.938   0.963
  479TCM    cl1 2559   2.570   2.920   0.958
  479TCM    cl2 2560   2.327   2.854   1.108
  479TCM     h1 2561   2.366   3.044   0.967
  479TCM    cl3 2562   2.321   2.864   0.815
  480TCM     c1 2563   4.943   3.402   3.244
  480TCM    cl1 2564   5.084   3.371   3.137
  480TCM    cl2 2565   4.960   3.565   3.318
  480TCM     h1 2566   4.851   3.399   3.186
  480TCM    cl3 2567   4.938   3.278   3.373
  481TCM     c1 2568   2.506   4.901   3.008
  481TCM    cl1 2569   2.451   4.956   3.169
  481TCM    cl2 2570   2.367   4.836   2.915
  481TCM     h1 2571   2.551   4.984   2.953
  481TCM    cl3 2572   2.629   4.771   3.028
  482TCM     c1 2573   0.114   2.613   3.863
  482TCM    cl1 2574   0.208   2.527   3.989
  482TCM    cl2 2575   0.190   2.772   3.830
  482TCM     h1 2576   0.112   2.554   3.771
  482TCM    cl3 2577  -0.054   2.639   3.921
  483TCM     c1 2578   2.592   2.118   3.185
  483TCM    cl1 2579   2.616   2.267   3.283
  483TCM    cl2 2580   2.510   2.161   3.031
  483TCM     h1 2581   2.689   2.074   3.163
  483TCM    cl3 2582   2.492   2.001   3.277
  484TCM     c1 2583   1.736   0.862   3.863
  484TCM    cl1 2584   1.669   1.005   3.948
  484TCM    cl2 2585   1.770   0.732   3.982
  484TCM     h1 2586   1.665   0.826   3.789
  484TCM    cl3 2587   1.889   0.908   3.781
  485TCM     c1 2588   0.872   0.143   0.455
  485TCM    cl1 2589   0.975   0.009   0.395
  485TCM    cl2 2590   0.898   0.163   0.632
  485TCM     h1 2591   0.899   0.236   0.404
  485TCM    cl3 2592   0.700   0.103   0.424
  486TCM     c1 2593   4.062   1.280   3.463
  486TCM    cl1 2594   4.041   1.102   3.461
  486TCM    cl2 2595   3.920   1.357   3.541
  486TCM     h1 2596   4.153   1.306   3.519
  486TCM    cl3 2597   4.077   1.341   3.295
  487TCM     c1 2598   3.286   4.831   3.200
  487TCM    cl1 2599   3.134   4.924   3.184
  487TCM    cl2 2600   3.286   4.698   3.080
  487TCM     h1 2601   3.372   4.896   3.183
  487TCM    cl3 2602   3.296   4.762   3.366
  488TCM     c1 2603   2.140   2.334   2.777
  488TCM    cl1 2604   2.292   2.392   2.700
  488TCM    cl2 2605   2.083   2.458   2.894
  488TCM     h1 2606   2.064   2.317   2.701
  488TCM    cl3 2607   2.173   2.181   2.864
  489TCM     c1 2608   1.422   0.474   0.094
  489TCM    cl1 2609   1.463   0.334  -0.011
  489TCM    cl2 2610   1.279   0.561   0.028
  489TCM     h1 2611   1.399   0.438   0.194
  489TCM    cl3 2612   1.562   0.585   0.101
  490TCM     c1 2613   2.128   4.396   4.143
  490TCM    cl1 2614   2.117   4.439   3.969
  490TCM    cl2 2615   2.300   4.403   4.194
  490TCM     h1 2616   2.069   4.465   4.202
  490TCM    cl3 2617   2.068   4.229   4.167
  491TCM     c1 2618   0.590   3.836   0.034
  491TCM    cl1 2619   0.644   3.909   0.189
  491TCM    cl2 2620   0.727   3.834  -0.083
  491TCM     h1 2621   0.557   3.734   0.052
  491TCM    cl3 2622   0.455   3.932  -0.033
  492TCM     c1 2623   0.156   2.823   1.510
  492TCM    cl1 2624   0.320   2.808   1.583
  492TCM    cl2 2625   0.130   2.993   1.460
  492TCM     h1 2626   0.149   2.757   1.423
  492TCM    cl3 2627   0.032   2.778   1.631
  493TCM     c1 2628   3.328   1.107   3.266
  493TCM    cl1 2629   3.193   0.994   3.230
  493TCM    cl2 2630   3.445   1.028   3.377
  493TCM     h1 2631   3.379   1.134   3.173
  493TCM    cl3 2632   3.262   1.255   3.342
  494TCM     c1 2633   1.591   4.937   0.920
  494TCM    cl1 2634   1.495   4.909   0.772
  494TCM    cl2 2635   1.690   4.792   0.956
  494TCM     h1 2636   1.656   5.023   0.906
  494TCM    cl3 2637   1.479   4.968   1.057
  495TCM     c1 2638   2.629   3.128   3.451
  495TCM    cl1 2639   2.480   3.228   3.437
  495TCM    cl2 2640   2.624   3.034   3.604
  495TCM     h1 2641   2.635   3.059   3.366
  495TCM    cl3 2642   2.773   3.235   3.451
  496TCM     c1 2643   4.874   3.283   0.794
  496TCM    cl1 2644   4.868   3.151   0.672
  496TCM    cl2 2645   4.980   3.415   0.735
  496TCM     h1 2646   4.773   3.321   0.811
  496TCM    cl3 2647   4.940   3.218   0.948
  497TCM     c1 2648   1.820   0.250   0.046
  497TCM    cl1 2649   1.757   0.170   0.194
  497TCM    cl2 2650   1.837   0.128  -0.084
  497TCM     h1 2651   1.751   0.329   0.014
  497TCM    cl3 2652   1.980   0.323   0.081
  498TCM     c1 2653   1.184   1.921   2.884
  498TCM    cl1 2654   1.317   2.007   2.799
  498TCM    cl2 2655   1.255   1.816   3.012
  498TCM     h1 2656   1.116   1.993   2.929
  498TCM    cl3 2657   1.095   1.818   2.767
  499TCM     c1 2658   2.596   3.579   2.316
  499TCM    cl1 2659   2.499   3.684   2.207
  499TCM    cl2 2660   2.603   3.652   2.479
  499TCM     h1 2661   2.550   3.480   2.322
  499TCM    cl3 2662   2.762   3.564   2.249
  500TCM     c1 2663   1.307   0.504   2.643
  500TCM    cl1 2664   1.364   0.422   2.494
  500TCM    cl2 2665   1.445   0.589   2.721
  500TCM     h1 2666   1.229   0.576   2.617
  500TCM    cl3 2667   1.240   0.381   2.756
  501TCM     c1 2668   4.801   0.161   2.912
  501TCM    cl1 2669   4.779   0.108   3.082
  501TCM    cl2 2670   4.933   0.066   2.836
  501TCM     h1 2671   4.708   0.144   2.857
  501TCM    cl3 2672   4.840   0.337   2.909
  502TCM     c1 2673   2.528   3.950   3.110
  502TCM    cl1 2674   2.677   3.935   3.011
  502TCM    cl2 2675   2.440   3.794   3.108
  502TCM     h1 2676   2.555   3.975   3.213
  502TCM    cl3 2677   2.423   4.079   3.043
  503TCM     c1 2678   0.127   4.936   4.831
  503TCM    cl1 2679  -0.014   5.045   4.853
  503TCM    cl2 2680   0.077   4.791   4.739
  503TCM     h1 2681   0.206   4.989   4.777
  503TCM    cl3 2682   0.187   4.885   4.992
  504TCM     c1 2683   1.119   3.940   4.723
  504TCM    cl1 2684   0.960   3.990   4.656
  504TCM    cl2 2685   1.096   3.801   4.834
  504TCM     h1 2686   1.186   3.911   4.641
  504TCM    cl3 2687   1.192   4.077   4.813
  505TCM     c1 2688   0.202   1.991   3.470
  505TCM    cl1 2689   0.270   1.825   3.477
  505TCM    cl2 2690   0.292   2.087   3.348
  505TCM     h1 2691   0.096   1.986   3.443
  505TCM    cl3 2692   0.221   2.070   3.630
  506TCM     c1 2693   4.572   0.416   4.723
  506TCM    cl1 2694   4.458   0.278   4.743
  506TCM    cl2 2695   4.720   0.357   4.641
  506TCM     h1 2696   4.525   0.494   4.663
  506TCM    cl3 2697   4.614   0.482   4.884
  507TCM     c1 2698   4.365   2.097   2.220
  507TCM    cl1 2699   4.382   1.989   2.362
  507TCM    cl2 2700   4.513   2.089   2.119
  507TCM     h1 2701   4.279   2.065   2.161
  507TCM    cl3 2702   4.339   2.266   2.276
  508TCM     c1 2703   3.482   4.461   1.378
  508TCM    cl1 2704   3.476   4.640   1.366
  508TCM    cl2 2705   3.332   4.393   1.308
  508TCM     h1 2706   3.569   4.423   1.324
  508TCM    cl3 2707   3.494   4.414   1.551
  509TCM     c1 2708   0.001   4.971   0.467
  509TCM    cl1 2709  -0.054   4.800   0.474
  509TCM    cl2 2710   0.127   4.985   0.341
  509TCM     h1 2711  -0.083   5.036   0.443
  509TCM    cl3 2712   0.071   5.018   0.625
  510TCM     c1 2713   3.880   0.000   0.120
  510TCM    cl1 2714   3.922   0.173   0.095
  510TCM    cl2 2715   3.871  -0.082  -0.039
  510TCM     h1 2716   3.956  -0.048   0.182
  510TCM    cl3 2717   3.720  -0.010   0.200
  511TCM     c1 2718   0.560   4.894   2.255
  511TCM    cl1 2719   0.516   5.051   2.180
  511TCM    cl2 2720   0.421   4.781   2.244
  511TCM     h1 2721   0.646   4.851   2.202
  511TCM    cl3 2722   0.603   4.919   2.427
  512TCM     c1 2723   2.749   4.993   4.183
  512TCM    cl1 2724   2.630   4.989   4.049
  512TCM    cl2 2725   2.692   5.104   4.311
  512TCM     h1 2726   2.760   4.892   4.224
  512TCM    cl3 2727   2.908   5.050   4.121
  513TCM     c1 2728   4.461   4.058   1.582
  513TCM    cl1 2729   4.578   3.924   1.563
  513TCM    cl2 2730   4.294   3.992   1.582
  513TCM     h1 2731   4.480   4.110   1.677
  513TCM    cl3 2732   4.481   4.174   1.446
  514TCM     c1 2733   2.966   3.646   4.859
  514TCM    cl1 2734   3.072   3.640   5.003
  514TCM    cl2 2735   3.053   3.727   4.724
  514TCM     h1 2736   2.938   3.545   4.829
  514TCM    cl3 2737   2.817   3.739   4.898
  515TCM     c1 2738   2.713   0.359   4.018
  515TCM    cl1 2739   2.725   0.492   3.898
  515TCM    cl2 2740   2.542   0.340   4.068
  515TCM     h1 2741   2.748   0.266   3.972
  515TCM    cl3 2742   2.814   0.399   4.160
  516TCM     c1 2743   3.397   3.176   1.905
  516TCM    cl1 2744   3.496   3.027   1.897
  516TCM    cl2 2745   3.433   3.266   2.056
  516TCM     h1 2746   3.419   3.239   1.818
  516TCM    cl3 2747   3.223   3.132   1.904
  517TCM     c1 2748   4.973   2.858   3.474
  517TCM    cl1 2749   4.994   2.979   3.605
  517TCM    cl2 2750   4.835   2.909   3.370
  517TCM     h1 2751   5.064   2.853   3.414
  517TCM    cl3 2752   4.938   2.697   3.545
  518TCM     c1 2753   1.525   3.416   2.732
  518TCM    cl1 2754   1.411   3.281   2.764
  518TCM    cl2 2755   1.618   3.452   2.881
  518TCM     h1 2756   1.594   3.387   2.652
  518TCM    cl3 2757   1.433   3.561   2.682
  519TCM     c1 2758   2.698   4.127   1.686
  519TCM    cl1 2759   2.537   4.135   1.607
  519TCM    cl2 2760   2.819   4.209   1.582
  519TCM     h1 2761   2.693   4.176   1.783
  519TCM    cl3 2762   2.744   3.955   1.707
  520TCM     c1 2763   0.285   1.338   2.736
  520TCM    cl1 2764   0.191   1.187   2.760
  520TCM    cl2 2765   0.197   1.473   2.815
  520TCM     h1 2766   0.384   1.328   2.781
  520TCM    cl3 2767   0.300   1.369   2.560
  521TCM     c1 2768   4.639   3.372   2.781
  521TCM    cl1 2769   4.645   3.211   2.702
  521TCM    cl2 2770   4.782   3.391   2.888
  521TCM     h1 2771   4.639   3.451   2.705
  521TCM    cl3 2772   4.489   3.384   2.880
  522TCM     c1 2773   2.597   4.664   2.637
  522TCM    cl1 2774   2.626   4.840   2.659
  522TCM    cl2 2775   2.735   4.594   2.546
  522TCM     h1 2776   2.589   4.616   2.735
  522TCM    cl3 2777   2.447   4.639   2.543
  523TCM     c1 2778   3.067   3.295   2.194
  523TCM    cl1 2779   2.921   3.216   2.126
  523TCM    cl2 2780   3.039   3.331   2.367
  523TCM     h1 2781   3.153   3.228   2.184
  523TCM    cl3 2782   3.100   3.448   2.105
  524TCM     c1 2783   1.989   3.435   3.789
  524TCM    cl1 2784   2.120   3.469   3.671
  524TCM    cl2 2785   1.997   3.262   3.837
  524TCM     h1 2786   2.000   3.498   3.877
  524TCM    cl3 2787   1.831   3.467   3.710
  525TCM     c1 2788   0.068   1.939   0.222
  525TCM    cl1 2789  -0.092   1.929   0.303
  525TCM    cl2 2790   0.064   2.065   0.095
  525TCM     h1 2791   0.145   1.965   0.295
  525TCM    cl3 2792   0.108   1.781   0.148
  526TCM     c1 2793   2.102   2.874   1.927
  526TCM    cl1 2794   2.065   2.962   1.775
  526TCM    cl2 2795   2.085   2.698   1.900
  526TCM     h1 2796   2.205   2.896   1.958
  526TCM    cl3 2797   1.988   2.926   2.055
  527TCM     c1 2798   1.992   0.458   4.522
  527TCM    cl1 2799   2.144   0.552   4.536
  527TCM    cl2 2800   1.858   0.568   4.474
  527TCM     h1 2801   2.004   0.380   4.446
  527TCM    cl3 2802   1.954   0.383   4.680
  528TCM     c1 2803   0.281   0.214   4.040
  528TCM    cl1 2804   0.284   0.343   3.915
  528TCM    cl2 2805   0.449   0.173   4.087
  528TCM     h1 2806   0.226   0.248   4.128
  528TCM    cl3 2807   0.201   0.069   3.971
  529TCM     c1 2808   1.753   4.501   1.430
  529TCM    cl1 2809   1.661   4.603   1.546
  529TCM    cl2 2810   1.649   4.365   1.377
  529TCM     h1 2811   1.782   4.561   1.344
  529TCM    cl3 2812   1.898   4.435   1.512
  530TCM     c1 2813   4.898   0.848   4.087
  530TCM    cl1 2814   4.776   0.964   4.025
  530TCM    cl2 2815   4.817   0.695   4.132
  530TCM     h1 2816   4.973   0.829   4.010
  530TCM    cl3 2817   4.978   0.918   4.232
  531TCM     c1 2818   2.124   3.013   0.346
  531TCM    cl1 2819   2.132   3.187   0.388
  531TCM    cl2 2820   1.953   2.960   0.342
  531TCM     h1 2821   2.169   2.998   0.247
  531TCM    cl3 2822   2.214   2.919   0.469
  532TCM     c1 2823   2.737   4.362   1.088
  532TCM    cl1 2824   2.628   4.491   1.148
  532TCM    cl2 2825   2.655   4.271   0.956
  532TCM     h1 2826   2.829   4.407   1.050
  532TCM    cl3 2827   2.775   4.250   1.222
  533TCM     c1 2828   1.324   0.890   3.761
  533TCM    cl1 2829   1.402   0.763   3.861
  533TCM    cl2 2830   1.446   0.965   3.654
  533TCM     h1 2831   1.244   0.846   3.701
  533TCM    cl3 2832   1.256   1.015   3.870
  534TCM     c1 2833   1.599   1.349   2.593
  534TCM    cl1 2834   1.690   1.196   2.571
  534TCM    cl2 2835   1.427   1.310   2.629
  534TCM     h1 2836   1.642   1.406   2.676
  534TCM    cl3 2837   1.608   1.446   2.442
  535TCM     c1 2838   1.956   3.197   3.455
  535TCM    cl1 2839   1.923   3.348   3.365
  535TCM    cl2 2840   2.025   3.076   3.342
  535TCM     h1 2841   2.027   3.216   3.536
  535TCM    cl3 2842   1.803   3.134   3.524
  536TCM     c1 2843   3.566   4.123   2.793
  536TCM    cl1 2844   3.624   4.065   2.952
  536TCM    cl2 2845   3.589   4.300   2.782
  536TCM     h1 2846   3.624   4.074   2.713
  536TCM    cl3 2847   3.393   4.082   2.774
  537TCM     c1 2848   2.747   0.174   0.166
  537TCM    cl1 2849   2.800   0.344   0.145
  537TCM    cl2 2850   2.852   0.093   0.286
  537TCM     h1 2851   2.643   0.172   0.201
  537TCM    cl3 2852   2.759   0.089   0.008
  538TCM     c1 2853   1.715   3.806   3.895
  538TCM    cl1 2854   1.883   3.752   3.929
  538TCM    cl2 2855   1.679   3.952   3.993
  538TCM     h1 2856   1.705   3.829   3.789
  538TCM    cl3 2857   1.601   3.674   3.939
  539TCM     c1 2858   2.074   2.359   1.139
  539TCM    cl1 2859   2.126   2.512   1.219
  539TCM    cl2 2860   1.924   2.388   1.044
  539TCM     h1 2861   2.153   2.325   1.072
  539TCM    cl3 2862   2.042   2.235   1.264
  540TCM     c1 2863   3.033   0.180   3.421
  540TCM    cl1 2864   3.072   0.352   3.453
  540TCM    cl2 2865   2.862   0.149   3.465
  540TCM     h1 2866   3.048   0.158   3.315
  540TCM    cl3 2867   3.139   0.074   3.519
  541TCM     c1 2868   2.089   1.209   1.930
  541TCM    cl1 2869   2.118   1.356   2.028
  541TCM    cl2 2870   1.981   1.251   1.793
  541TCM     h1 2871   2.184   1.172   1.891
  541TCM    cl3 2872   2.011   1.084   2.031
  542TCM     c1 2873   2.118   2.496   0.184
  542TCM    cl1 2874   2.246   2.615   0.227
  542TCM    cl2 2875   2.126   2.355   0.295
  542TCM     h1 2876   2.020   2.543   0.192
  542TCM    cl3 2877   2.146   2.441   0.016
  543TCM     c1 2878   3.508   2.308   4.181
  543TCM    cl1 2879   3.583   2.170   4.094
  543TCM    cl2 2880   3.514   2.277   4.358
  543TCM     h1 2881   3.563   2.400   4.159
  543TCM    cl3 2882   3.337   2.325   4.129
  544TCM     c1 2883   0.582   0.443   1.368
  544TCM    cl1 2884   0.578   0.571   1.494
  544TCM    cl2 2885   0.552   0.284   1.444
  544TCM     h1 2886   0.505   0.462   1.292
  544TCM    cl3 2887   0.744   0.444   1.289
  545TCM     c1 2888   4.488   4.620   0.481
  545TCM    cl1 2889   4.557   4.544   0.628
  545TCM    cl2 2890   4.588   4.761   0.434
  545TCM     h1 2891   4.487   4.548   0.399
  545TCM    cl3 2892   4.320   4.674   0.515
  546TCM     c1 2893   0.458   4.166   0.731
  546TCM    cl1 2894   0.566   4.070   0.838
  546TCM    cl2 2895   0.356   4.275   0.830
  546TCM     h1 2896   0.519   4.226   0.662
  546TCM    cl3 2897   0.354   4.054   0.637
  547TCM     c1 2898   2.164   2.197   3.399
  547TCM    cl1 2899   2.188   2.219   3.223
  547TCM    cl2 2900   2.303   2.269   3.487
  547TCM     h1 2901   2.072   2.246   3.429
  547TCM    cl3 2902   2.154   2.021   3.436
  548TCM     c1 2903   0.605   4.300   1.116
  548TCM    cl1 2904   0.739   4.339   1.004
  548TCM    cl2 2905   0.551   4.451   1.196
  548TCM     h1 2906   0.521   4.256   1.061
  548TCM    cl3 2907   0.662   4.184   1.241
  549TCM     c1 2908   1.335   3.882   0.092
  549TCM    cl1 2909   1.290   3.724   0.165
  549TCM    cl2 2910   1.457   3.855  -0.037
  549TCM     h1 2911   1.246   3.929   0.049
  549TCM    cl3 2912   1.405   3.989   0.218
  550TCM     c1 2913   3.202   2.194   2.550
  550TCM    cl1 2914   3.219   2.182   2.371
  550TCM    cl2 2915   3.028   2.193   2.594
  550TCM     h1 2916   3.251   2.109   2.596
  550TCM    cl3 2917   3.277   2.346   2.609
  551TCM     c1 2918   2.216   2.424   2.340
  551TCM    cl1 2919   2.272   2.254   2.337
  551TCM    cl2 2920   2.061   2.435   2.430
  551TCM     h1 2921   2.291   2.486   2.390
  551TCM    cl3 2922   2.191   2.481   2.172
  552TCM     c1 2923   3.034   0.037   1.818
  552TCM    cl1 2924   3.057   0.059   1.642
  552TCM    cl2 2925   2.858   0.039   1.856
  552TCM     h1 2926   3.077  -0.058   1.850
  552TCM    cl3 2927   3.115   0.172   1.904
  553TCM     c1 2928   0.837   2.658   4.171
  553TCM    cl1 2929   1.013   2.621   4.182
  553TCM    cl2 2930   0.805   2.816   4.249
  553TCM     h1 2931   0.808   2.662   4.065
  553TCM    cl3 2932   0.744   2.530   4.255
  554TCM     c1 2933   4.616   3.808   4.893
  554TCM    cl1 2934   4.792   3.818   4.861
  554TCM    cl2 2935   4.527   3.830   4.739
  554TCM     h1 2936   4.592   3.710   4.936
  554TCM    cl3 2937   4.568   3.938   5.007
  555TCM     c1 2938   4.990   1.826   3.826
  555TCM    cl1 2939   5.162   1.779   3.847
  555TCM    cl2 2940   4.945   1.809   3.653
  555TCM     h1 2941   4.927   1.762   3.886
  555TCM    cl3 2942   4.968   1.997   3.876
  556TCM     c1 2943   4.172   2.350   2.595
  556TCM    cl1 2944   4.119   2.460   2.727
  556TCM    cl2 2945   4.036   2.242   2.552
  556TCM     h1 2946   4.203   2.408   2.508
  556TCM    cl3 2947   4.310   2.251   2.654
  557TCM     c1 2948   1.319   2.685   4.925
  557TCM    cl1 2949   1.357   2.778   4.776
  557TCM    cl2 2950   1.141   2.681   4.948
  557TCM     h1 2951   1.356   2.583   4.915
  557TCM    cl3 2952   1.395   2.764   5.067
  558TCM     c1 2953   3.500   1.962   2.903
  558TCM    cl1 2954   3.373   2.075   2.847
  558TCM    cl2 2955   3.439   1.870   3.045
  558TCM     h1 2956   3.525   1.892   2.823
  558TCM    cl3 2957   3.646   2.054   2.950
  559TCM     c1 2958   2.768   4.824   0.906
  559TCM    cl1 2959   2.623   4.884   0.819
  559TCM    cl2 2960   2.791   4.650   0.868
  559TCM     h1 2961   2.856   4.880   0.874
  559TCM    cl3 2962   2.743   4.845   1.083
  560TCM     c1 2963   1.707   3.824   0.369
  560TCM    cl1 2964   1.766   3.736   0.515
  560TCM    cl2 2965   1.659   3.705   0.244
  560TCM     h1 2966   1.621   3.886   0.395
  560TCM    cl3 2967   1.840   3.928   0.306
  561TCM     c1 2968   0.089   3.158   4.879
  561TCM    cl1 2969   0.007   3.229   5.022
  561TCM    cl2 2970   0.061   2.981   4.879
  561TCM     h1 2971   0.050   3.202   4.788
  561TCM    cl3 2972   0.265   3.190   4.891
  562TCM     c1 2973   3.012   4.955   2.747
  562TCM    cl1 2974   3.015   4.875   2.586
  562TCM    cl2 2975   2.953   4.839   2.870
  562TCM     h1 2976   3.112   4.989   2.773
  562TCM    cl3 2977   2.900   5.095   2.740
  563TCM     c1 2978   4.542   3.681   3.311
  563TCM    cl1 2979   4.645   3.685   3.458
  563TCM    cl2 2980   4.618   3.575   3.188
  563TCM     h1 2981   4.443   3.642   3.337
  563TCM    cl3 2982   4.526   3.847   3.245
  564TCM     c1 2983   1.460   1.073   2.935
  564TCM    cl1 2984   1.553   1.226   2.953
  564TCM    cl2 2985   1.353   1.054   3.077
  564TCM     h1 2986   1.401   1.077   2.843
  564TCM    cl3 2987   1.574   0.935   2.926
  565TCM     c1 2988   3.222   2.395   4.676
  565TCM    cl1 2989   3.399   2.425   4.676
  565TCM    cl2 2990   3.180   2.282   4.543
  565TCM     h1 2991   3.192   2.352   4.772
  565TCM    cl3 2992   3.136   2.551   4.650
  566TCM     c1 2993   2.380   4.209   0.500
  566TCM    cl1 2994   2.246   4.092   0.525
  566TCM    cl2 2995   2.493   4.197   0.639
  566TCM     h1 2996   2.432   4.186   0.407
  566TCM    cl3 2997   2.312   4.375   0.492
  567TCM     c1 2998   3.263   1.789   0.089
  567TCM    cl1 2999   3.416   1.696   0.098
  567TCM    cl2 3000   3.143   1.715   0.199
  567TCM     h1 3001   3.282   1.893   0.119
  567TCM    cl3 3002   3.200   1.786  -0.079
  568TCM     c1 3003   2.394   1.649   3.534
  568TCM    cl1 3004   2.422   1.815   3.597
  568TCM    cl2 3005   2.320   1.659   3.370
  568TCM     h1 3006   2.490   1.597   3.527
  568TCM    cl3 3007   2.285   1.559   3.644
  569TCM     c1 3008   1.071   0.940   2.783
  569TCM    cl1 3009   1.005   0.900   2.622
  569TCM    cl2 3010   1.119   1.113   2.786
  569TCM     h1 3011   0.995   0.921   2.860
  569TCM    cl3 3012   1.214   0.837   2.816
  570TCM     c1 3013   2.607   4.420   0.031
  570TCM    cl1 3014   2.580   4.355   0.197
  570TCM    cl2 3015   2.481   4.355  -0.079
  570TCM     h1 3016   2.602   4.529   0.033
  570TCM    cl3 3017   2.767   4.367  -0.029
  571TCM     c1 3018   2.247   4.479   1.454
  571TCM    cl1 3019   2.403   4.400   1.416
  571TCM    cl2 3020   2.176   4.545   1.303
  571TCM     h1 3021   2.178   4.406   1.498
  571TCM    cl3 3022   2.273   4.612   1.571
  572TCM     c1 3023   0.800   2.602   4.890
  572TCM    cl1 3024   0.651   2.590   4.792
  572TCM    cl2 3025   0.864   2.438   4.924
  572TCM     h1 3026   0.875   2.660   4.835
  572TCM    cl3 3027   0.763   2.685   5.045
  573TCM     c1 3028   1.656   1.183   1.501
  573TCM    cl1 3029   1.569   1.305   1.600
  573TCM    cl2 3030   1.543   1.112   1.381
  573TCM     h1 3031   1.739   1.230   1.449
  573TCM    cl3 3032   1.718   1.053   1.608
  574TCM     c1 3033   0.332   3.552   3.521
  574TCM    cl1 3034   0.326   3.698   3.626
  574TCM    cl2 3035   0.318   3.601   3.349
  574TCM     h1 3036   0.426   3.500   3.536
  574TCM    cl3 3037   0.196   3.443   3.563
  575TCM     c1 3038   0.201   0.527   3.600
  575TCM    cl1 3039   0.232   0.695   3.544
  575TCM    cl2 3040   0.347   0.428   3.568
  575TCM     h1 3041   0.180   0.528   3.708
  575TCM    cl3 3042   0.061   0.459   3.511
  576TCM     c1 3043   4.352   0.126   2.987
  576TCM    cl1 3044   4.457   0.236   2.893
  576TCM    cl2 3045   4.428  -0.037   2.993
  576TCM     h1 3046   4.339   0.164   3.089
  576TCM    cl3 3047   4.192   0.116   2.906
  577TCM     c1 3048   3.142   4.053   1.496
  577TCM    cl1 3049   3.317   4.086   1.516
  577TCM    cl2 3050   3.110   3.882   1.542
  577TCM     h1 3051   3.085   4.120   1.561
  577TCM    cl3 3052   3.095   4.080   1.325
  578TCM     c1 3053   4.505   4.150   3.621
  578TCM    cl1 3054   4.567   4.307   3.682
  578TCM    cl2 3055   4.605   4.017   3.688
  578TCM     h1 3056   4.401   4.137   3.652
  578TCM    cl3 3057   4.515   4.148   3.442
  579TCM     c1 3058   0.923   3.606   0.330
  579TCM    cl1 3059   0.917   3.631   0.153
  579TCM    cl2 3060   1.005   3.747   0.405
  579TCM     h1 3061   0.821   3.598   0.370
  579TCM    cl3 3062   1.015   3.457   0.367
  580TCM     c1 3063   0.148   2.465   4.851
  580TCM    cl1 3064   0.217   2.372   4.988
  580TCM    cl2 3065   0.276   2.503   4.732
  580TCM     h1 3066   0.070   2.405   4.803
  580TCM    cl3 3067   0.077   2.618   4.911
  581TCM     c1 3068   0.948   0.040   2.165
  581TCM    cl1 3069   0.852   0.156   2.263
  581TCM    cl2 3070   0.844  -0.032   2.037
  581TCM     h1 3071   1.032   0.092   2.119
  581TCM    cl3 3072   1.007  -0.092   2.271
  582TCM     c1 3073   0.820   1.352   3.914
  582TCM    cl1 3074   0.767   1.350   4.085
  582TCM    cl2 3075   0.682   1.304   3.810
  582TCM     h1 3076   0.855   1.452   3.886
  582TCM    cl3 3077   0.954   1.234   3.893
  583TCM     c1 3078   3.894   2.423   4.046
  583TCM    cl1 3079   3.755   2.472   3.943
  583TCM    cl2 3080   3.933   2.250   4.014
  583TCM     h1 3081   3.980   2.485   4.023
  583TCM    cl3 3082   3.849   2.443   4.218
  584TCM     c1 3083   2.140   3.313   0.017
  584TCM    cl1 3084   2.298   3.236   0.053
  584TCM    cl2 3085   2.011   3.188   0.022
  584TCM     h1 3086   2.119   3.390   0.091
  584TCM    cl3 3087   2.147   3.387  -0.146
  585TCM     c1 3088   1.099   0.611   0.793
  585TCM    cl1 3089   1.096   0.465   0.689
  585TCM    cl2 3090   1.044   0.752   0.698
  585TCM     h1 3091   1.032   0.596   0.878
  585TCM    cl3 3092   1.266   0.638   0.852
  586TCM     c1 3093   0.294   3.778   0.390
  586TCM    cl1 3094   0.291   3.740   0.215
  586TCM    cl2 3095   0.337   3.630   0.481
  586TCM     h1 3096   0.368   3.856   0.410
  586TCM    cl3 3097   0.132   3.835   0.440
  587TCM     c1 3098   3.047   1.491   3.179
  587TCM    cl1 3099   3.009   1.544   3.011
  587TCM    cl2 3100   2.934   1.361   3.226
  587TCM     h1 3101   3.150   1.454   3.183
  587TCM    cl3 3102   3.030   1.631   3.290
  588TCM     c1 3103   2.950   4.774   0.069
  588TCM    cl1 3104   2.781   4.742   0.121
  588TCM    cl2 3105   3.010   4.637  -0.030
  588TCM     h1 3106   2.952   4.866   0.009
  588TCM    cl3 3107   3.056   4.794   0.212
  589TCM     c1 3108   3.388   3.656   3.069
  589TCM    cl1 3109   3.542   3.735   3.115
  589TCM    cl2 3110   3.328   3.731   2.917
  589TCM     h1 3111   3.404   3.549   3.054
  589TCM    cl3 3112   3.268   3.680   3.200
  590TCM     c1 3113   2.893   3.883   0.813
  590TCM    cl1 3114   2.806   4.009   0.720
  590TCM    cl2 3115   2.814   3.724   0.786
  590TCM     h1 3116   2.997   3.878   0.780
  590TCM    cl3 3117   2.888   3.925   0.988
  591TCM     c1 3118   4.463   4.283   0.891
  591TCM    cl1 3119   4.576   4.180   0.798
  591TCM    cl2 3120   4.494   4.261   1.067
  591TCM     h1 3121   4.478   4.388   0.864
  591TCM    cl3 3122   4.294   4.236   0.854
  592TCM     c1 3123   4.428   2.756   0.044
  592TCM    cl1 3124   4.256   2.755  -0.005
  592TCM    cl2 3125   4.469   2.598   0.118
  592TCM     h1 3126   4.492   2.773  -0.044
  592TCM    cl3 3127   4.456   2.887   0.163
  593TCM     c1 3128   2.761   0.888   2.215
  593TCM    cl1 3129   2.631   0.816   2.115
  593TCM    cl2 3130   2.709   1.051   2.269
  593TCM     h1 3131   2.781   0.825   2.302
  593TCM    cl3 3132   2.910   0.905   2.116
  594TCM     c1 3133   3.164   4.386   2.720
  594TCM    cl1 3134   3.070   4.537   2.698
  594TCM    cl2 3135   3.245   4.392   2.880
  594TCM     h1 3136   3.098   4.300   2.716
  594TCM    cl3 3137   3.287   4.374   2.589
  595TCM     c1 3138   3.812   3.491   3.392
  595TCM    cl1 3139   3.854   3.323   3.437
  595TCM    cl2 3140   3.634   3.507   3.378
  595TCM     h1 3141   3.849   3.560   3.468
  595TCM    cl3 3142   3.888   3.530   3.234
  596TCM     c1 3143   4.102   0.443   4.881
  596TCM    cl1 3144   4.226   0.425   5.009
  596TCM    cl2 3145   4.180   0.503   4.731
  596TCM     h1 3146   4.055   0.346   4.861
  596TCM    cl3 3147   3.977   0.560   4.934
  597TCM     c1 3148   3.180   3.254   3.124
  597TCM    cl1 3149   3.276   3.326   3.258
  597TCM    cl2 3150   3.233   3.325   2.968
  597TCM     h1 3151   3.194   3.146   3.122
  597TCM    cl3 3152   3.006   3.291   3.149
  598TCM     c1 3153   0.553   2.355   1.765
  598TCM    cl1 3154   0.515   2.280   1.606
  598TCM    cl2 3155   0.492   2.248   1.896
  598TCM     h1 3156   0.661   2.368   1.775
  598TCM    cl3 3157   0.471   2.514   1.777
  599TCM     c1 3158   4.950   4.200   2.920
  599TCM    cl1 3159   4.996   4.349   2.832
  599TCM    cl2 3160   5.036   4.196   3.077
  599TCM     h1 3161   4.842   4.198   2.936
  599TCM    cl3 3162   4.999   4.058   2.822
  600TCM     c1 3163   2.452   3.464   1.417
  600TCM    cl1 3164   2.545   3.356   1.308
  600TCM    cl2 3165   2.468   3.405   1.586
  600TCM     h1 3166   2.490   3.566   1.410
  600TCM    cl3 3167   2.278   3.462   1.369
  601TCM     c1 3168   0.004   1.140   2.435
  601TCM    cl1 3169   0.019   1.294   2.345
  601TCM    cl2 3170  -0.009   1.005   2.317
  601TCM     h1 3171   0.092   1.126   2.498
  601TCM    cl3 3172  -0.143   1.146   2.538
  602TCM     c1 3173   4.134   2.993   3.451
  602TCM    cl1 3174   3.966   2.969   3.393
  602TCM    cl2 3175   4.195   2.839   3.521
  602TCM     h1 3176   4.197   3.023   3.368
  602TCM    cl3 3177   4.136   3.121   3.577
  603TCM     c1 3178   1.707   3.123   3.120
  603TCM    cl1 3179   1.667   3.092   2.948
  603TCM    cl2 3180   1.696   2.969   3.211
  603TCM     h1 3181   1.808   3.163   3.128
  603TCM    cl3 3182   1.590   3.242   3.189
  604TCM     c1 3183   2.640   3.104   2.357
  604TCM    cl1 3184   2.464   3.073   2.344
  604TCM    cl2 3185   2.719   2.963   2.436
  604TCM     h1 3186   2.683   3.119   2.257
  604TCM    cl3 3187   2.667   3.251   2.456
  605TCM     c1 3188   1.778   2.745   0.054
  605TCM    cl1 3189   1.762   2.627   0.188
  605TCM    cl2 3190   1.705   2.676  -0.095
  605TCM     h1 3191   1.727   2.838   0.081
  605TCM    cl3 3192   1.952   2.777   0.024
  606TCM     c1 3193   4.707   0.791   2.580
  606TCM    cl1 3194   4.645   0.625   2.603
  606TCM    cl2 3195   4.679   0.841   2.410
  606TCM     h1 3196   4.655   0.860   2.648
  606TCM    cl3 3197   4.883   0.794   2.616
  607TCM     c1 3198   0.261   2.092   0.868
  607TCM    cl1 3199   0.245   2.237   0.763
  607TCM    cl2 3200   0.108   2.068   0.958
  607TCM     h1 3201   0.282   2.004   0.807
  607TCM    cl3 3202   0.395   2.117   0.984
  608TCM     c1 3203   3.075   3.843   0.296
  608TCM    cl1 3204   3.228   3.922   0.247
  608TCM    cl2 3205   2.940   3.908   0.198
  608TCM     h1 3206   3.083   3.735   0.280
  608TCM    cl3 3207   3.042   3.877   0.469
  609TCM     c1 3208   2.638   4.110   3.517
  609TCM    cl1 3209   2.643   4.140   3.694
  609TCM    cl2 3210   2.805   4.094   3.454
  609TCM     h1 3211   2.583   4.017   3.498
  609TCM    cl3 3212   2.555   4.247   3.436
  610TCM     c1 3213   2.085   4.543   1.894
  610TCM    cl1 3214   2.129   4.392   1.808
  610TCM    cl2 3215   2.040   4.504   2.064
  610TCM     h1 3216   2.169   4.612   1.893
  610TCM    cl3 3217   1.944   4.620   1.812
  611TCM     c1 3218   1.481   1.856   0.543
  611TCM    cl1 3219   1.306   1.873   0.576
  611TCM    cl2 3220   1.571   1.978   0.640
  611TCM     h1 3221   1.514   1.756   0.571
  611TCM    cl3 3222   1.513   1.884   0.369
  612TCM     c1 3223   0.454   2.815   4.343
  612TCM    cl1 3224   0.451   2.915   4.194
  612TCM    cl2 3225   0.396   2.650   4.303
  612TCM     h1 3226   0.557   2.809   4.381
  612TCM    cl3 3227   0.348   2.888   4.468
  613TCM     c1 3228   0.703   1.317   4.457
  613TCM    cl1 3229   0.541   1.394   4.450
  613TCM    cl2 3230   0.717   1.219   4.607
  613TCM     h1 3231   0.717   1.253   4.369
  613TCM    cl3 3232   0.830   1.445   4.458
  614TCM     c1 3233   0.180   2.766   0.548
  614TCM    cl1 3234   0.074   2.838   0.673
  614TCM    cl2 3235   0.277   2.634   0.621
  614TCM     h1 3236   0.119   2.725   0.467
  614TCM    cl3 3237   0.290   2.891   0.483
  615TCM     c1 3238   2.163   4.230   4.685
  615TCM    cl1 3239   2.247   4.101   4.777
  615TCM    cl2 3240   2.086   4.343   4.801
  615TCM     h1 3241   2.235   4.284   4.624
  615TCM    cl3 3242   2.038   4.157   4.579
  616TCM     c1 3243   2.874   3.502   2.872
  616TCM    cl1 3244   2.726   3.596   2.835
  616TCM    cl2 3245   2.991   3.609   2.956
  616TCM     h1 3246   2.849   3.417   2.936
  616TCM    cl3 3247   2.947   3.442   2.720
  617TCM     c1 3248   2.926   4.291   0.302
  617TCM    cl1 3249   2.966   4.228   0.465
  617TCM    cl2 3250   3.054   4.244   0.186
  617TCM     h1 3251   2.830   4.250   0.270
  617TCM    cl3 3252   2.917   4.469   0.308
  618TCM     c1 3253   3.396   4.367   0.320
  618TCM    cl1 3254   3.399   4.305   0.151
  618TCM    cl2 3255   3.341   4.237   0.431
  618TCM     h1 3256   3.496   4.399   0.348
  618TCM    cl3 3257   3.283   4.506   0.330
  619TCM     c1 3258   2.224   3.721   0.784
  619TCM    cl1 3259   2.318   3.584   0.717
  619TCM    cl2 3260   2.131   3.664   0.926
  619TCM     h1 3261   2.292   3.801   0.814
  619TCM    cl3 3262   2.110   3.782   0.659
  620TCM     c1 3263   4.157   3.784   3.480
  620TCM    cl1 3264   4.161   3.804   3.302
  620TCM    cl2 3265   4.317   3.828   3.549
  620TCM     h1 3266   4.080   3.849   3.523
  620TCM    cl3 3267   4.122   3.613   3.519
  621TCM     c1 3268   0.145   4.694   4.072
  621TCM    cl1 3269   0.013   4.730   3.956
  621TCM    cl2 3270   0.131   4.801   4.215
  621TCM     h1 3271   0.138   4.590   4.103
  621TCM    cl3 3272   0.303   4.722   3.992
  622TCM     c1 3273   4.157   0.330   3.365
  622TCM    cl1 3274   4.266   0.229   3.465
  622TCM    cl2 3275   4.031   0.403   3.470
  622TCM     h1 3276   4.214   0.409   3.317
  622TCM    cl3 3277   4.079   0.227   3.240
  623TCM     c1 3278   2.474   2.531   2.983
  623TCM    cl1 3279   2.431   2.680   2.892
  623TCM    cl2 3280   2.368   2.517   3.127
  623TCM     h1 3281   2.460   2.443   2.919
  623TCM    cl3 3282   2.645   2.542   3.036
  624TCM     c1 3283   4.860   4.791   2.576
  624TCM    cl1 3284   4.967   4.910   2.495
  624TCM    cl2 3285   4.959   4.661   2.650
  624TCM     h1 3286   4.803   4.841   2.654
  624TCM    cl3 3287   4.747   4.719   2.456
  625TCM     c1 3288   2.342   0.632   2.008
  625TCM    cl1 3289   2.254   0.541   1.880
  625TCM    cl2 3290   2.399   0.518   2.135
  625TCM     h1 3291   2.428   0.683   1.964
  625TCM    cl3 3292   2.232   0.753   2.082
  626TCM     c1 3293   0.136   2.343   2.905
  626TCM    cl1 3294  -0.021   2.429   2.914
  626TCM    cl2 3295   0.125   2.210   2.784
  626TCM     h1 3296   0.215   2.412   2.875
  626TCM    cl3 3297   0.175   2.274   3.066
  627TCM     c1 3298   1.030   4.092   0.609
  627TCM    cl1 3299   1.130   4.088   0.459
  627TCM    cl2 3300   1.071   3.951   0.712
  627TCM     h1 3301   1.051   4.184   0.663
  627TCM    cl3 3302   0.856   4.086   0.565
  628TCM     c1 3303   2.495   3.300   0.552
  628TCM    cl1 3304   2.465   3.334   0.379
  628TCM    cl2 3305   2.639   3.392   0.606
  628TCM     h1 3306   2.408   3.330   0.611
  628TCM    cl3 3307   2.525   3.124   0.574
  629TCM     c1 3308   0.680   0.593   0.654
  629TCM    cl1 3309   0.749   0.551   0.815
  629TCM    cl2 3310   0.502   0.572   0.659
  629TCM     h1 3311   0.705   0.696   0.629
  629TCM    cl3 3312   0.750   0.484   0.530
  630TCM     c1 3313   0.139   1.912   2.995
  630TCM    cl1 3314   0.045   1.939   3.146
  630TCM    cl2 3315   0.027   1.865   2.863
  630TCM     h1 3316   0.194   2.003   2.968
  630TCM    cl3 3317   0.256   1.778   3.021
  631TCM     c1 3318   2.471   1.031   3.212
  631TCM    cl1 3319   2.647   1.062   3.224
  631TCM    cl2 3320   2.411   0.962   3.367
  631TCM     h1 3321   2.418   1.124   3.191
  631TCM    cl3 3322   2.440   0.913   3.080
  632TCM     c1 3323   4.693   1.059   2.119
  632TCM    cl1 3324   4.670   1.197   2.231
  632TCM    cl2 3325   4.771   1.118   1.968
  632TCM     h1 3326   4.757   0.983   2.166
  632TCM    cl3 3327   4.533   0.987   2.080
  633TCM     c1 3328   3.959   0.356   4.340
  633TCM    cl1 3329   4.039   0.203   4.386
  633TCM    cl2 3330   4.066   0.494   4.381
  633TCM     h1 3331   3.939   0.357   4.232
  633TCM    cl3 3332   3.803   0.373   4.428
  634TCM     c1 3333   4.996   0.683   4.740
  634TCM    cl1 3334   5.005   0.508   4.777
  634TCM    cl2 3335   5.044   0.775   4.886
  634TCM     h1 3336   5.064   0.707   4.657
  634TCM    cl3 3337   4.828   0.727   4.694
  635TCM     c1 3338   2.767   0.336   1.283
  635TCM    cl1 3339   2.854   0.305   1.129
  635TCM    cl2 3340   2.817   0.494   1.350
  635TCM     h1 3341   2.660   0.337   1.264
  635TCM    cl3 3342   2.807   0.205   1.399
  636TCM     c1 3343   2.102   1.184   3.648
  636TCM    cl1 3344   2.180   1.224   3.492
  636TCM    cl2 3345   1.995   1.319   3.698
  636TCM     h1 3346   2.043   1.093   3.637
  636TCM    cl3 3347   2.228   1.158   3.773
  637TCM     c1 3348   3.296   1.309   2.081
  637TCM    cl1 3349   3.367   1.424   1.963
  637TCM    cl2 3350   3.427   1.219   2.163
  637TCM     h1 3351   3.237   1.364   2.155
  637TCM    cl3 3352   3.189   1.192   1.995
  638TCM     c1 3353   3.854   1.971   4.231
  638TCM    cl1 3354   4.017   1.894   4.232
  638TCM    cl2 3355   3.852   2.104   4.351
  638TCM     h1 3356   3.833   2.010   4.131
  638TCM    cl3 3357   3.730   1.849   4.275
  639TCM     c1 3358   1.257   2.242   4.176
  639TCM    cl1 3359   1.257   2.374   4.054
  639TCM    cl2 3360   1.228   2.085   4.094
  639TCM     h1 3361   1.353   2.239   4.227
  639TCM    cl3 3362   1.126   2.271   4.295
  640TCM     c1 3363   0.749   0.338   1.823
  640TCM    cl1 3364   0.641   0.194   1.826
  640TCM    cl2 3365   0.830   0.351   1.663
  640TCM     h1 3366   0.690   0.427   1.841
  640TCM    cl3 3367   0.875   0.322   1.949
   5.00000   5.00000   5.00000
