FOO
 3367
    1POM     C1    1   1.886   1.404   0.934
    1POM     O2    2   1.765   1.340   0.982
    1POM     C3    3   1.660   1.323   0.892
    1POM     C4    4   1.665   1.361   0.756
    1POM     C5    5   1.554   1.341   0.672
    1POM     C6    6   1.435   1.282   0.722
    1POM     C7    7   1.319   1.263   0.629
    1POM     C8    8   1.251   1.139   0.624
    1POM     C9    9   1.142   1.120   0.538
    1POM    C10   10   1.101   1.224   0.452
    1POM    C11   11   1.170   1.348   0.452
    1POM    C12   12   1.127   1.457   0.361
    1POM    O13   13   1.142   1.573   0.396
    1POM    C14   14   1.278   1.367   0.542
    1POM    C15   15   1.430   1.243   0.859
    1POM    C16   16   1.304   1.197   0.922
    1POM    C17   17   1.286   1.061   0.958
    1POM    C18   18   1.160   1.015   1.002
    1POM    C19   19   1.052   1.106   1.014
    1POM    C20   20   0.909   1.058   1.040
    1POM    C21   21   0.843   1.026   0.904
    1POM    N22   22   0.885   0.940   1.126
    1POM    C23   23   1.073   1.243   0.985
    1POM    C24   24   1.198   1.288   0.940
    1POM    C25   25   1.542   1.264   0.942
    1POM    H26   26   1.957   1.410   1.017
    1POM    H27   27   1.930   1.343   0.854
    1POM    H28   28   1.864   1.505   0.898
    1POM    H29   29   1.754   1.407   0.713
    1POM    H30   30   1.560   1.371   0.568
    1POM    H31   31   1.283   1.057   0.687
    1POM    H32   32   1.088   1.026   0.537
    1POM    H33   33   1.015   1.209   0.387
    1POM    H34   34   1.329   1.463   0.546
    1POM    H35   35   1.368   0.991   0.946
    1POM    H36   36   1.145   0.910   1.023
    1POM    H37   37   0.852   1.141   1.084
    1POM    H38   38   0.739   1.000   0.919
    1POM    H39   39   0.897   0.943   0.857
    1POM    H40   40   0.849   1.115   0.840
    1POM    H41   41   0.794   0.897   1.119
    1POM    H42   42   0.991   1.314   0.993
    1POM    H43   43   1.212   1.392   0.914
    1POM    H44   44   1.538   1.239   1.047
    2POM    C45   45   1.230   0.041   1.548
    2POM    O46   46   1.142   0.115   1.638
    2POM    C47   47   1.081   0.230   1.588
    2POM    C48   48   1.086   0.270   1.452
    2POM    C49   49   1.022   0.389   1.411
    2POM    C50   50   0.954   0.471   1.504
    2POM    C51   51   0.884   0.593   1.455
    2POM    C52   52   0.750   0.618   1.494
    2POM    C53   53   0.685   0.737   1.454
    2POM    C54   54   0.752   0.830   1.373
    2POM    C55   55   0.884   0.804   1.329
    2POM    C56   56   0.952   0.902   1.241
    2POM    O57   57   1.044   0.969   1.286
    2POM    C58   58   0.950   0.685   1.369
    2POM    C59   59   0.952   0.432   1.641
    2POM    C60   60   0.899   0.523   1.744
    2POM    C61   61   0.779   0.494   1.811
    2POM    C62   62   0.722   0.587   1.900
    2POM    C63   63   0.787   0.711   1.924
    2POM    C64   64   0.722   0.819   2.009
    2POM    C65   65   0.610   0.886   1.926
    2POM    N66   66   0.661   0.781   2.139
    2POM    C67   67   0.908   0.739   1.858
    2POM    C68   68   0.964   0.646   1.769
    2POM    C69   69   1.014   0.312   1.681
    2POM    H70   70   1.272  -0.043   1.603
    2POM    H71   71   1.173   0.003   1.463
    2POM    H72   72   1.311   0.106   1.514
    2POM    H73   73   1.135   0.210   1.377
    2POM    H74   74   1.023   0.417   1.306
    2POM    H75   75   0.697   0.547   1.555
    2POM    H76   76   0.584   0.756   1.487
    2POM    H77   77   0.702   0.923   1.345
    2POM    H78   78   1.051   0.666   1.336
    2POM    H79   79   0.728   0.400   1.790
    2POM    H80   80   0.628   0.566   1.949
    2POM    H81   81   0.797   0.896   2.030
    2POM    H82   82   0.570   0.971   1.982
    2POM    H83   83   0.531   0.814   1.907
    2POM    H84   84   0.652   0.921   1.832
    2POM    H85   85   0.606   0.853   2.184
    2POM    H86   86   0.958   0.835   1.872
    2POM    H87   87   1.057   0.670   1.717
    2POM    H88   88   1.014   0.284   1.786
    3POM    C89   89  -0.130   0.295   2.525
    3POM    O90   90  -0.029   0.312   2.627
    3POM    C91   91   0.086   0.384   2.594
    3POM    C92   92   0.106   0.446   2.468
    3POM    C93   93   0.225   0.518   2.442
    3POM    C94   94   0.326   0.528   2.539
    3POM    C95   95   0.447   0.610   2.509
    3POM    C96   96   0.496   0.704   2.604
    3POM    C97   97   0.610   0.781   2.577
    3POM    C98   98   0.675   0.769   2.453
    3POM    C99   99   0.627   0.678   2.356
    3POM   C100  100   0.690   0.675   2.223
    3POM   O101  101   0.782   0.597   2.201
    3POM   C102  102   0.513   0.599   2.384
    3POM   C103  103   0.307   0.464   2.665
    3POM   C104  104   0.415   0.461   2.767
    3POM   C105  105   0.396   0.523   2.893
    3POM   C106  106   0.504   0.537   2.982
    3POM   C107  107   0.633   0.488   2.948
    3POM   C108  108   0.756   0.518   3.034
    3POM   C109  109   0.813   0.653   2.987
    3POM   N110  110   0.736   0.532   3.180
    3POM   C111  111   0.650   0.422   2.824
    3POM   C112  112   0.542   0.408   2.735
    3POM   C113  113   0.187   0.394   2.691
    3POM   H114  114  -0.213   0.239   2.568
    3POM   H115  115  -0.166   0.393   2.491
    3POM   H116  116  -0.088   0.238   2.441
    3POM   H117  117   0.031   0.443   2.389
    3POM   H118  118   0.236   0.568   2.346
    3POM   H119  119   0.446   0.717   2.699
    3POM   H120  120   0.647   0.850   2.651
    3POM   H121  121   0.763   0.830   2.432
    3POM   H122  122   0.477   0.529   2.310
    3POM   H123  123   0.299   0.565   2.918
    3POM   H124  124   0.490   0.591   3.075
    3POM   H125  125   0.832   0.441   3.017
    3POM   H126  126   0.906   0.674   3.040
    3POM   H127  127   0.741   0.732   3.006
    3POM   H128  128   0.833   0.647   2.879
    3POM   H129  129   0.800   0.594   3.230
    3POM   H130  130   0.748   0.387   2.794
    3POM   H131  131   0.558   0.361   2.638
    3POM   H132  132   0.172   0.344   2.787
    4POM   C133  133  -0.095   0.676   3.802
    4POM   O134  134   0.007   0.592   3.862
    4POM   C135  135   0.131   0.587   3.799
    4POM   C136  136   0.163   0.659   3.681
    4POM   C137  137   0.289   0.644   3.620
    4POM   C138  138   0.387   0.559   3.677
    4POM   C139  139   0.518   0.545   3.608
    4POM   C140  140   0.639   0.572   3.677
    4POM   C141  141   0.763   0.557   3.612
    4POM   C142  142   0.768   0.517   3.477
    4POM   C143  143   0.648   0.494   3.406
    4POM   C144  144   0.652   0.459   3.262
    4POM   O145  145   0.607   0.352   3.224
    4POM   C146  146   0.523   0.507   3.472
    4POM   C147  147   0.357   0.491   3.799
    4POM   C148  148   0.454   0.400   3.862
    4POM   C149  149   0.534   0.446   3.969
    4POM   C150  150   0.636   0.364   4.023
    4POM   C151  151   0.654   0.232   3.974
    4POM   C152  152   0.770   0.144   4.022
    4POM   C153  153   0.891   0.172   3.930
    4POM   N154  154   0.817   0.164   4.161
    4POM   C155  155   0.570   0.185   3.871
    4POM   C156  156   0.471   0.268   3.815
    4POM   C157  157   0.229   0.504   3.857
    4POM   H158  158  -0.186   0.666   3.862
    4POM   H159  159  -0.062   0.780   3.803
    4POM   H160  160  -0.115   0.642   3.700
    4POM   H161  161   0.092   0.726   3.634
    4POM   H162  162   0.313   0.699   3.530
    4POM   H163  163   0.637   0.605   3.780
    4POM   H164  164   0.855   0.576   3.667
    4POM   H165  165   0.864   0.503   3.430
    4POM   H166  166   0.431   0.488   3.417
    4POM   H167  167   0.521   0.547   4.006
    4POM   H168  168   0.701   0.404   4.100
    4POM   H169  169   0.742   0.039   4.011
    4POM   H170  170   0.974   0.107   3.960
    4POM   H171  171   0.920   0.277   3.939
    4POM   H172  172   0.863   0.150   3.827
    4POM   H173  173   0.911   0.136   4.186
    4POM   H174  174   0.584   0.085   3.831
    4POM   H175  175   0.410   0.233   3.732
    4POM   H176  176   0.205   0.450   3.947
    5CAP   C177  177   1.150   1.351   0.150
    5CAP   O178  178   1.070   1.431   0.240
    5CAP   H179  179   1.248   1.397   0.136
    5CAP   H180  180   1.099   1.347   0.053
    5CAP   H181  181   1.162   1.249   0.188
    6CAP   C182  182   0.849   0.351   4.579
    6CAP   C183  183   0.737   0.285   4.495
    6CAP   C184  184   0.667   0.179   4.583
    6CAP   C185  185   0.638   0.398   4.454
    6CAP   O186  186   0.809   0.224   4.384
    6CAP   C187  187   0.739   0.191   4.271
    6CAP   O188  188   0.622   0.159   4.270
    6CAP   H189  189   0.806   0.401   4.666
    6CAP   H190  190   0.919   0.274   4.612
    6CAP   H191  191   0.902   0.424   4.517
    6CAP   H192  192   0.741   0.107   4.619
    6CAP   H193  193   0.591   0.128   4.524
    6CAP   H194  194   0.619   0.229   4.667
    6CAP   H195  195   0.685   0.463   4.381
    6CAP   H196  196   0.547   0.354   4.412
    6CAP   H197  197   0.610   0.456   4.543
    7TCM     c1  198   4.489   0.481   2.475
    7TCM    cl1  199   4.597   0.514   2.615
    7TCM    cl2  200   4.328   0.431   2.535
    7TCM     h1  201   4.479   0.571   2.414
    7TCM    cl3  202   4.558   0.348   2.376
    8TCM     c1  203   1.515   2.592   4.125
    8TCM    cl1  204   1.450   2.479   4.002
    8TCM    cl2  205   1.623   2.501   4.237
    8TCM     h1  206   1.572   2.671   4.076
    8TCM    cl3  207   1.379   2.663   4.218
    9TCM     c1  208   1.868   2.320   0.501
    9TCM    cl1  209   1.722   2.388   0.421
    9TCM    cl2  210   1.909   2.161   0.428
    9TCM     h1  211   1.952   2.389   0.487
    9TCM    cl3  212   1.836   2.298   0.676
   10TCM     c1  213   2.657   0.595   3.593
   10TCM    cl1  214   2.789   0.536   3.487
   10TCM    cl2  215   2.502   0.588   3.503
   10TCM     h1  216   2.651   0.532   3.682
   10TCM    cl3  217   2.691   0.765   3.641
   11TCM     c1  218   2.243   1.767   2.687
   11TCM    cl1  219   2.367   1.854   2.784
   11TCM    cl2  220   2.315   1.618   2.619
   11TCM     h1  221   2.158   1.742   2.751
   11TCM    cl3  222   2.186   1.871   2.552
   12TCM     c1  223   0.165   1.363   4.996
   12TCM    cl1  224  -0.001   1.303   5.031
   12TCM    cl2  225   0.234   1.437   5.143
   12TCM     h1  226   0.227   1.280   4.963
   12TCM    cl3  227   0.156   1.487   4.866
   13TCM     c1  228   3.162   0.843   2.470
   13TCM    cl1  229   3.031   0.964   2.456
   13TCM    cl2  230   3.130   0.707   2.358
   13TCM     h1  231   3.258   0.890   2.444
   13TCM    cl3  232   3.168   0.783   2.639
   14TCM     c1  233   3.679   3.985   4.514
   14TCM    cl1  234   3.630   4.055   4.356
   14TCM    cl2  235   3.836   3.901   4.496
   14TCM     h1  236   3.688   4.065   4.588
   14TCM    cl3  237   3.554   3.868   4.568
   15TCM     c1  238   0.611   3.955   3.419
   15TCM    cl1  239   0.432   3.948   3.415
   15TCM    cl2  240   0.677   3.801   3.356
   15TCM     h1  241   0.645   4.039   3.358
   15TCM    cl3  242   0.666   3.976   3.589
   16TCM     c1  243   3.909   1.331   2.531
   16TCM    cl1  244   3.993   1.430   2.655
   16TCM    cl2  245   4.030   1.264   2.416
   16TCM     h1  246   3.856   1.249   2.579
   16TCM    cl3  247   3.792   1.433   2.441
   17TCM     c1  248   4.951   3.104   4.423
   17TCM    cl1  249   4.958   2.955   4.523
   17TCM    cl2  250   4.908   3.244   4.527
   17TCM     h1  251   5.048   3.122   4.375
   17TCM    cl3  252   4.824   3.084   4.298
   18TCM     c1  253   0.525   2.560   1.132
   18TCM    cl1  254   0.561   2.590   0.959
   18TCM    cl2  255   0.467   2.391   1.152
   18TCM     h1  256   0.615   2.574   1.192
   18TCM    cl3  257   0.398   2.674   1.187
   19TCM     c1  258   1.178   1.739   2.231
   19TCM    cl1  259   1.330   1.823   2.187
   19TCM    cl2  260   1.096   1.680   2.082
   19TCM     h1  261   1.201   1.654   2.295
   19TCM    cl3  262   1.071   1.853   2.318
   20TCM     c1  263   4.050   4.638   0.496
   20TCM    cl1  264   4.100   4.755   0.370
   20TCM    cl2  265   3.983   4.726   0.637
   20TCM     h1  266   3.973   4.571   0.455
   20TCM    cl3  267   4.192   4.541   0.547
   21TCM     c1  268   2.584   0.163   3.673
   21TCM    cl1  269   2.427   0.165   3.759
   21TCM    cl2  270   2.703   0.264   3.762
   21TCM     h1  271   2.622   0.061   3.667
   21TCM    cl3  272   2.561   0.230   3.509
   22TCM     c1  273   2.872   1.759   2.734
   22TCM    cl1  274   2.702   1.703   2.731
   22TCM    cl2  275   2.893   1.892   2.615
   22TCM     h1  276   2.897   1.796   2.834
   22TCM    cl3  277   2.981   1.623   2.691
   23TCM     c1  278   0.822   3.025   4.851
   23TCM    cl1  279   0.815   2.916   4.708
   23TCM    cl2  280   0.670   3.119   4.861
   23TCM     h1  281   0.836   2.966   4.942
   23TCM    cl3  282   0.959   3.139   4.832
   24TCM     c1  283   4.618   3.109   1.859
   24TCM    cl1  284   4.523   3.096   1.707
   24TCM    cl2  285   4.793   3.111   1.821
   24TCM     h1  286   4.591   3.202   1.911
   24TCM    cl3  287   4.582   2.969   1.965
   25TCM     c1  288   0.357   3.754   4.572
   25TCM    cl1  289   0.264   3.674   4.440
   25TCM    cl2  290   0.356   3.931   4.548
   25TCM     h1  291   0.311   3.730   4.668
   25TCM    cl3  292   0.526   3.694   4.568
   26TCM     c1  293   2.030   1.047   3.191
   26TCM    cl1  294   2.182   1.136   3.156
   26TCM    cl2  295   2.027   0.894   3.097
   26TCM     h1  296   2.025   1.024   3.298
   26TCM    cl3  297   1.891   1.149   3.145
   27TCM     c1  298   1.323   2.052   2.479
   27TCM    cl1  299   1.484   2.129   2.468
   27TCM    cl2  300   1.202   2.171   2.537
   27TCM     h1  301   1.293   2.016   2.380
   27TCM    cl3  302   1.329   1.913   2.592
   28TCM     c1  303   2.964   4.773   4.709
   28TCM    cl1  304   2.979   4.594   4.709
   28TCM    cl2  305   2.822   4.821   4.807
   28TCM     h1  306   3.055   4.818   4.750
   28TCM    cl3  307   2.940   4.828   4.540
   29TCM     c1  308   2.581   2.573   1.537
   29TCM    cl1  309   2.421   2.539   1.463
   29TCM    cl2  310   2.561   2.592   1.715
   29TCM     h1  311   2.649   2.491   1.516
   29TCM    cl3  312   2.647   2.725   1.469
   30TCM     c1  313   2.907   2.138   4.915
   30TCM    cl1  314   2.832   2.123   4.752
   30TCM    cl2  315   2.861   1.997   5.015
   30TCM     h1  316   3.016   2.142   4.904
   30TCM    cl3  317   2.850   2.289   4.992
   31TCM     c1  318   0.040   0.101   1.268
   31TCM    cl1  319  -0.085   0.003   1.184
   31TCM    cl2  320  -0.038   0.213   1.384
   31TCM     h1  321   0.108   0.034   1.321
   31TCM    cl3  322   0.133   0.195   1.146
   32TCM     c1  323   3.014   0.652   1.026
   32TCM    cl1  324   3.086   0.615   1.186
   32TCM    cl2  325   3.039   0.513   0.915
   32TCM     h1  326   2.907   0.672   1.037
   32TCM    cl3  327   3.096   0.797   0.958
   33TCM     c1  328   3.733   3.113   1.440
   33TCM    cl1  329   3.765   3.272   1.517
   33TCM    cl2  330   3.558   3.076   1.448
   33TCM     h1  331   3.766   3.116   1.335
   33TCM    cl3  332   3.825   2.985   1.527
   34TCM     c1  333   1.162   0.822   3.318
   34TCM    cl1  334   1.132   0.918   3.466
   34TCM    cl2  335   1.131   0.923   3.173
   34TCM     h1  336   1.265   0.786   3.317
   34TCM    cl3  337   1.050   0.682   3.317
   35TCM     c1  338   0.612   4.762   3.743
   35TCM    cl1  339   0.582   4.671   3.895
   35TCM    cl2  340   0.616   4.646   3.606
   35TCM     h1  341   0.533   4.834   3.727
   35TCM    cl3  342   0.770   4.847   3.755
   36TCM     c1  343   2.814   3.671   3.436
   36TCM    cl1  344   2.782   3.577   3.287
   36TCM    cl2  345   2.899   3.569   3.556
   36TCM     h1  346   2.876   3.758   3.412
   36TCM    cl3  347   2.658   3.726   3.506
   37TCM     c1  348   0.374   0.951   2.345
   37TCM    cl1  349   0.237   1.064   2.369
   37TCM    cl2  350   0.523   1.046   2.312
   37TCM     h1  351   0.388   0.891   2.436
   37TCM    cl3  352   0.340   0.844   2.205
   38TCM     c1  353   0.087   2.014   2.027
   38TCM    cl1  354   0.239   2.103   2.063
   38TCM    cl2  355   0.092   1.954   1.858
   38TCM     h1  356   0.077   1.929   2.096
   38TCM    cl3  357  -0.052   2.125   2.047
   39TCM     c1  358   1.263   3.558   2.082
   39TCM    cl1  359   1.213   3.641   1.931
   39TCM    cl2  360   1.221   3.384   2.070
   39TCM     h1  361   1.371   3.569   2.095
   39TCM    cl3  362   1.178   3.630   2.222
   40TCM     c1  363   3.723   1.405   1.984
   40TCM    cl1  364   3.652   1.514   2.107
   40TCM    cl2  365   3.603   1.377   1.854
   40TCM     h1  366   3.813   1.450   1.942
   40TCM    cl3  367   3.764   1.247   2.060
   41TCM     c1  368   0.854   2.146   2.070
   41TCM    cl1  369   0.973   2.020   2.024
   41TCM    cl2  370   0.732   2.159   1.939
   41TCM     h1  371   0.804   2.119   2.163
   41TCM    cl3  372   0.938   2.303   2.090
   42TCM     c1  373   2.203   3.796   1.468
   42TCM    cl1  374   2.239   3.883   1.621
   42TCM    cl2  375   2.025   3.783   1.448
   42TCM     h1  376   2.246   3.851   1.384
   42TCM    cl3  377   2.274   3.631   1.474
   43TCM     c1  378   0.916   4.474   0.753
   43TCM    cl1  379   1.090   4.443   0.722
   43TCM    cl2  380   0.891   4.490   0.931
   43TCM     h1  381   0.886   4.567   0.704
   43TCM    cl3  382   0.819   4.338   0.689
   44TCM     c1  383   0.255   1.222   4.528
   44TCM    cl1  384   0.386   1.127   4.450
   44TCM    cl2  385   0.305   1.394   4.537
   44TCM     h1  386   0.163   1.213   4.470
   44TCM    cl3  387   0.226   1.161   4.695
   45TCM     c1  388   1.310   3.749   4.603
   45TCM    cl1  389   1.398   3.597   4.641
   45TCM    cl2  390   1.200   3.721   4.464
   45TCM     h1  391   1.251   3.780   4.690
   45TCM    cl3  392   1.428   3.877   4.562
   46TCM     c1  393   0.288   0.658   4.530
   46TCM    cl1  394   0.130   0.637   4.447
   46TCM    cl2  395   0.312   0.525   4.649
   46TCM     h1  396   0.369   0.658   4.457
   46TCM    cl3  397   0.286   0.815   4.617
   47TCM     c1  398   1.004   4.276   1.856
   47TCM    cl1  399   0.850   4.263   1.948
   47TCM    cl2  400   1.131   4.343   1.964
   47TCM     h1  401   1.034   4.178   1.821
   47TCM    cl3  402   0.980   4.387   1.716
   48TCM     c1  403   3.346   4.041   4.807
   48TCM    cl1  404   3.404   3.916   4.921
   48TCM    cl2  405   3.476   4.162   4.779
   48TCM     h1  406   3.319   3.994   4.712
   48TCM    cl3  407   3.203   4.123   4.877
   49TCM     c1  408   1.681   1.641   1.290
   49TCM    cl1  409   1.584   1.503   1.230
   49TCM    cl2  410   1.626   1.791   1.207
   49TCM     h1  411   1.668   1.652   1.398
   49TCM    cl3  412   1.855   1.613   1.254
   50TCM     c1  413   3.512   0.467   2.081
   50TCM    cl1  414   3.335   0.449   2.107
   50TCM    cl2  415   3.592   0.505   2.237
   50TCM     h1  416   3.553   0.374   2.041
   50TCM    cl3  417   3.541   0.601   1.965
   51TCM     c1  418   0.108   0.620   1.807
   51TCM    cl1  419   0.132   0.539   1.648
   51TCM    cl2  420  -0.039   0.722   1.799
   51TCM     h1  421   0.097   0.544   1.885
   51TCM    cl3  422   0.250   0.724   1.843
   52TCM     c1  423   3.375   2.566   0.992
   52TCM    cl1  424   3.414   2.468   1.137
   52TCM    cl2  425   3.417   2.473   0.844
   52TCM     h1  426   3.268   2.590   0.991
   52TCM    cl3  427   3.469   2.719   0.995
   53TCM     c1  428   4.065   0.168   0.461
   53TCM    cl1  429   4.210   0.102   0.378
   53TCM    cl2  430   4.086   0.153   0.638
   53TCM     h1  431   4.052   0.273   0.434
   53TCM    cl3  432   3.921   0.075   0.410
   54TCM     c1  433   0.022   1.566   3.016
   54TCM    cl1  434   0.166   1.648   3.086
   54TCM    cl2  435   0.039   1.388   3.038
   54TCM     h1  436  -0.068   1.600   3.066
   54TCM    cl3  437   0.013   1.603   2.840
   55TCM     c1  438   2.096   3.472   2.156
   55TCM    cl1  439   1.965   3.544   2.256
   55TCM    cl2  440   2.132   3.307   2.216
   55TCM     h1  441   2.064   3.468   2.052
   55TCM    cl3  442   2.243   3.574   2.170
   56TCM     c1  443   0.363   4.994   4.802
   56TCM    cl1  444   0.254   4.894   4.699
   56TCM    cl2  445   0.345   4.942   4.973
   56TCM     h1  446   0.466   4.980   4.770
   56TCM    cl3  447   0.318   5.167   4.785
   57TCM     c1  448   4.794   0.580   4.269
   57TCM    cl1  449   4.694   0.435   4.237
   57TCM    cl2  450   4.762   0.639   4.435
   57TCM     h1  451   4.900   0.555   4.258
   57TCM    cl3  452   4.750   0.708   4.151
   58TCM     c1  453   3.855   4.675   1.435
   58TCM    cl1  454   3.790   4.698   1.601
   58TCM    cl2  455   4.018   4.750   1.423
   58TCM     h1  456   3.863   4.568   1.413
   58TCM    cl3  457   3.744   4.753   1.317
   59TCM     c1  458   4.417   4.380   4.758
   59TCM    cl1  459   4.537   4.288   4.855
   59TCM    cl2  460   4.479   4.546   4.729
   59TCM     h1  461   4.401   4.330   4.663
   59TCM    cl3  462   4.263   4.389   4.848
   60TCM     c1  463   3.743   4.234   1.358
   60TCM    cl1  464   3.880   4.164   1.267
   60TCM    cl2  465   3.681   4.377   1.270
   60TCM     h1  466   3.663   4.160   1.368
   60TCM    cl3  467   3.800   4.286   1.520
   61TCM     c1  468   3.709   4.026   3.200
   61TCM    cl1  469   3.697   3.950   3.362
   61TCM    cl2  470   3.882   4.039   3.153
   61TCM     h1  471   3.656   3.964   3.127
   61TCM    cl3  472   3.636   4.189   3.204
   62TCM     c1  473   0.197   0.796   3.247
   62TCM    cl1  474   0.374   0.768   3.262
   62TCM    cl2  475   0.131   0.682   3.126
   62TCM     h1  476   0.149   0.779   3.344
   62TCM    cl3  477   0.168   0.964   3.193
   63TCM     c1  478   3.038   2.310   2.614
   63TCM    cl1  479   3.144   2.170   2.576
   63TCM    cl2  480   3.078   2.372   2.778
   63TCM     h1  481   3.054   2.389   2.540
   63TCM    cl3  482   2.866   2.258   2.611
   64TCM     c1  483   3.912   2.338   2.229
   64TCM    cl1  484   3.771   2.416   2.149
   64TCM    cl2  485   4.034   2.464   2.270
   64TCM     h1  486   3.879   2.288   2.320
   64TCM    cl3  487   3.985   2.219   2.117
   65TCM     c1  488   4.856   0.642   2.140
   65TCM    cl1  489   4.774   0.635   2.299
   65TCM    cl2  490   4.838   0.484   2.058
   65TCM     h1  491   4.811   0.721   2.078
   65TCM    cl3  492   5.030   0.676   2.164
   66TCM     c1  493   0.726   0.125   3.014
   66TCM    cl1  494   0.643  -0.028   3.056
   66TCM    cl2  495   0.796   0.109   2.850
   66TCM     h1  496   0.655   0.208   3.017
   66TCM    cl3  497   0.860   0.155   3.129
   67TCM     c1  498   0.218   3.740   0.842
   67TCM    cl1  499   0.212   3.633   0.986
   67TCM    cl2  500   0.101   3.681   0.718
   67TCM     h1  501   0.192   3.842   0.871
   67TCM    cl3  502   0.383   3.736   0.772
   68TCM     c1  503   1.413   3.556   0.817
   68TCM    cl1  504   1.415   3.630   0.653
   68TCM    cl2  505   1.357   3.678   0.936
   68TCM     h1  506   1.345   3.471   0.817
   68TCM    cl3  507   1.579   3.502   0.860
   69TCM     c1  508   3.020   4.174   3.901
   69TCM    cl1  509   3.064   4.181   4.075
   69TCM    cl2  510   3.167   4.198   3.801
   69TCM     h1  511   2.976   4.077   3.878
   69TCM    cl3  512   2.901   4.303   3.865
   70TCM     c1  513   4.753   1.587   0.087
   70TCM    cl1  514   4.828   1.633  -0.069
   70TCM    cl2  515   4.621   1.702   0.125
   70TCM     h1  516   4.713   1.485   0.080
   70TCM    cl3  517   4.876   1.594   0.218
   71TCM     c1  518   2.933   4.653   4.230
   71TCM    cl1  519   2.813   4.626   4.100
   71TCM    cl2  520   3.038   4.792   4.187
   71TCM     h1  521   2.880   4.675   4.323
   71TCM    cl3  522   3.033   4.505   4.251
   72TCM     c1  523   3.538   4.091   1.795
   72TCM    cl1  524   3.405   4.019   1.891
   72TCM    cl2  525   3.477   4.139   1.634
   72TCM     h1  526   3.578   4.178   1.847
   72TCM    cl3  527   3.670   3.970   1.775
   73TCM     c1  528   0.646   0.081   3.441
   73TCM    cl1  529   0.498   0.036   3.533
   73TCM    cl2  530   0.732  -0.069   3.393
   73TCM     h1  531   0.618   0.138   3.352
   73TCM    cl3  532   0.755   0.177   3.545
   74TCM     c1  533   0.922   1.590   2.549
   74TCM    cl1  534   0.860   1.459   2.655
   74TCM    cl2  535   0.853   1.572   2.385
   74TCM     h1  536   0.894   1.687   2.591
   74TCM    cl3  537   1.101   1.577   2.540
   75TCM     c1  538   1.082   0.752   2.213
   75TCM    cl1  539   0.981   0.894   2.254
   75TCM    cl2  540   1.197   0.722   2.348
   75TCM     h1  541   1.019   0.664   2.197
   75TCM    cl3  542   1.177   0.786   2.065
   76TCM     c1  543   2.922   1.179   3.469
   76TCM    cl1  544   2.842   1.225   3.316
   76TCM    cl2  545   2.801   1.101   3.576
   76TCM     h1  546   3.004   1.109   3.449
   76TCM    cl3  547   2.987   1.326   3.549
   77TCM     c1  548   4.630   4.937   0.939
   77TCM    cl1  549   4.517   4.802   0.967
   77TCM    cl2  550   4.542   5.074   0.862
   77TCM     h1  551   4.673   4.970   1.034
   77TCM    cl3  552   4.762   4.883   0.829
   78TCM     c1  553   0.532   4.364   0.109
   78TCM    cl1  554   0.674   4.430   0.022
   78TCM    cl2  555   0.500   4.464   0.255
   78TCM     h1  556   0.444   4.366   0.044
   78TCM    cl3  557   0.566   4.195   0.159
   79TCM     c1  558   2.416   3.480   1.780
   79TCM    cl1  559   2.590   3.456   1.744
   79TCM    cl2  560   2.391   3.645   1.846
   79TCM     h1  561   2.357   3.467   1.688
   79TCM    cl3  562   2.363   3.359   1.902
   80TCM     c1  563   0.397   3.034   0.837
   80TCM    cl1  564   0.427   3.005   0.663
   80TCM    cl2  565   0.541   2.983   0.931
   80TCM     h1  566   0.379   3.141   0.853
   80TCM    cl3  567   0.255   2.940   0.890
   81TCM     c1  568   3.262   3.585   0.800
   81TCM    cl1  569   3.251   3.746   0.723
   81TCM    cl2  570   3.115   3.555   0.899
   81TCM     h1  571   3.271   3.508   0.723
   81TCM    cl3  572   3.407   3.581   0.906
   82TCM     c1  573   3.179   3.079   4.703
   82TCM    cl1  574   3.059   3.080   4.571
   82TCM    cl2  575   3.103   3.020   4.854
   82TCM     h1  576   3.262   3.013   4.677
   82TCM    cl3  577   3.241   3.246   4.728
   83TCM     c1  578   1.255   1.212   1.322
   83TCM    cl1  579   1.415   1.147   1.276
   83TCM    cl2  580   1.254   1.389   1.293
   83TCM     h1  581   1.177   1.163   1.263
   83TCM    cl3  582   1.229   1.181   1.497
   84TCM     c1  583   1.719   2.579   4.682
   84TCM    cl1  584   1.641   2.680   4.556
   84TCM    cl2  585   1.893   2.622   4.691
   84TCM     h1  586   1.672   2.597   4.779
   84TCM    cl3  587   1.704   2.406   4.638
   85TCM     c1  588   2.340   3.984   3.879
   85TCM    cl1  589   2.421   3.840   3.810
   85TCM    cl2  590   2.435   4.130   3.837
   85TCM     h1  591   2.239   3.993   3.839
   85TCM    cl3  592   2.333   3.966   4.058
   86TCM     c1  593   0.636   0.357   0.018
   86TCM    cl1  594   0.663   0.195  -0.054
   86TCM    cl2  595   0.459   0.388   0.030
   86TCM     h1  596   0.680   0.361   0.118
   86TCM    cl3  597   0.710   0.482  -0.086
   87TCM     c1  598   1.092   0.592   2.702
   87TCM    cl1  599   1.033   0.433   2.761
   87TCM    cl2  600   1.143   0.691   2.842
   87TCM     h1  601   1.176   0.576   2.634
   87TCM    cl3  602   0.960   0.676   2.615
   88TCM     c1  603   4.606   3.009   3.027
   88TCM    cl1  604   4.696   3.162   3.051
   88TCM    cl2  605   4.472   3.001   3.146
   88TCM     h1  606   4.565   3.006   2.926
   88TCM    cl3  607   4.716   2.869   3.052
   89TCM     c1  608   3.188   4.789   0.169
   89TCM    cl1  609   3.162   4.658   0.289
   89TCM    cl2  610   3.175   4.721   0.003
   89TCM     h1  611   3.112   4.867   0.183
   89TCM    cl3  612   3.352   4.858   0.191
   90TCM     c1  613   1.661   0.145   3.415
   90TCM    cl1  614   1.707   0.318   3.429
   90TCM    cl2  615   1.795   0.054   3.339
   90TCM     h1  616   1.642   0.105   3.515
   90TCM    cl3  617   1.514   0.129   3.315
   91TCM     c1  618   1.038   0.881   3.822
   91TCM    cl1  619   1.070   0.708   3.860
   91TCM    cl2  620   1.021   0.973   3.975
   91TCM     h1  621   1.122   0.921   3.764
   91TCM    cl3  622   0.886   0.894   3.728
   92TCM     c1  623   2.128   0.115   2.104
   92TCM    cl1  624   2.167   0.281   2.049
   92TCM    cl2  625   2.049   0.026   1.970
   92TCM     h1  626   2.220   0.064   2.133
   92TCM    cl3  627   2.017   0.123   2.244
   93TCM     c1  628   1.103   1.301   2.146
   93TCM    cl1  629   1.234   1.380   2.239
   93TCM    cl2  630   0.968   1.258   2.257
   93TCM     h1  631   1.066   1.369   2.069
   93TCM    cl3  632   1.166   1.152   2.069
   94TCM     c1  633   1.381   1.729   0.050
   94TCM    cl1  634   1.386   1.721   0.229
   94TCM    cl2  635   1.443   1.575  -0.018
   94TCM     h1  636   1.278   1.745   0.016
   94TCM    cl3  637   1.484   1.866  -0.006
   95TCM     c1  638   4.576   2.664   2.186
   95TCM    cl1  639   4.401   2.624   2.185
   95TCM    cl2  640   4.668   2.523   2.250
   95TCM     h1  641   4.609   2.686   2.084
   95TCM    cl3  642   4.605   2.805   2.292
   96TCM     c1  643   3.112   4.737   1.177
   96TCM    cl1  644   3.063   4.891   1.255
   96TCM    cl2  645   3.107   4.755   0.999
   96TCM     h1  646   3.213   4.712   1.208
   96TCM    cl3  647   3.000   4.607   1.229
   97TCM     c1  648   4.487   2.580   3.054
   97TCM    cl1  649   4.470   2.632   3.225
   97TCM    cl2  650   4.364   2.664   2.954
   97TCM     h1  651   4.587   2.607   3.018
   97TCM    cl3  652   4.464   2.403   3.042
   98TCM     c1  653   4.361   0.813   3.403
   98TCM    cl1  654   4.369   0.723   3.558
   98TCM    cl2  655   4.257   0.725   3.287
   98TCM     h1  656   4.320   0.913   3.421
   98TCM    cl3  657   4.526   0.829   3.335
   99TCM     c1  658   4.336   0.992   3.001
   99TCM    cl1  659   4.511   1.026   3.021
   99TCM    cl2  660   4.274   1.077   2.856
   99TCM     h1  661   4.321   0.885   2.991
   99TCM    cl3  662   4.247   1.052   3.145
  100TCM     c1  663   1.809   0.421   3.057
  100TCM    cl1  664   1.945   0.340   3.141
  100TCM    cl2  665   1.757   0.565   3.150
  100TCM     h1  666   1.840   0.452   2.957
  100TCM    cl3  667   1.671   0.307   3.044
  101TCM     c1  668   0.397   4.358   3.568
  101TCM    cl1  669   0.549   4.306   3.487
  101TCM    cl2  670   0.316   4.215   3.640
  101TCM     h1  671   0.421   4.431   3.647
  101TCM    cl3  672   0.290   4.434   3.447
  102TCM     c1  673   0.430   1.765   4.784
  102TCM    cl1  674   0.459   1.730   4.958
  102TCM    cl2  675   0.554   1.882   4.728
  102TCM     h1  676   0.438   1.673   4.727
  102TCM    cl3  677   0.267   1.837   4.762
  103TCM     c1  678   1.040   0.261   0.095
  103TCM    cl1  679   0.961   0.108   0.146
  103TCM    cl2  680   0.960   0.397   0.180
  103TCM     h1  681   1.146   0.258   0.123
  103TCM    cl3  682   1.024   0.283  -0.082
  104TCM     c1  683   0.654   2.217   0.879
  104TCM    cl1  684   0.730   2.156   1.030
  104TCM    cl2  685   0.626   2.079   0.769
  104TCM     h1  686   0.559   2.265   0.903
  104TCM    cl3  687   0.764   2.335   0.801
  105TCM     c1  688   4.696   1.720   2.275
  105TCM    cl1  689   4.556   1.824   2.232
  105TCM    cl2  690   4.839   1.768   2.177
  105TCM     h1  691   4.720   1.732   2.381
  105TCM    cl3  692   4.655   1.549   2.241
  106TCM     c1  693   2.819   1.482   2.355
  106TCM    cl1  694   2.838   1.660   2.346
  106TCM    cl2  695   2.701   1.440   2.483
  106TCM     h1  696   2.783   1.445   2.258
  106TCM    cl3  697   2.978   1.408   2.392
  107TCM     c1  698   3.230   0.374   2.450
  107TCM    cl1  699   3.293   0.212   2.406
  107TCM    cl2  700   3.361   0.471   2.525
  107TCM     h1  701   3.193   0.425   2.361
  107TCM    cl3  702   3.095   0.356   2.568
  108TCM     c1  703   2.340   4.404   0.906
  108TCM    cl1  704   2.399   4.572   0.930
  108TCM    cl2  705   2.474   4.302   0.843
  108TCM     h1  706   2.305   4.363   1.002
  108TCM    cl3  707   2.205   4.405   0.788
  109TCM     c1  708   0.343   3.547   4.077
  109TCM    cl1  709   0.253   3.659   3.969
  109TCM    cl2  710   0.513   3.535   4.022
  109TCM     h1  711   0.340   3.585   4.179
  109TCM    cl3  712   0.266   3.385   4.070
  110TCM     c1  713   2.333   5.004   1.499
  110TCM    cl1  714   2.215   5.070   1.616
  110TCM    cl2  715   2.471   4.933   1.589
  110TCM     h1  716   2.286   4.927   1.437
  110TCM    cl3  717   2.393   5.137   1.394
  111TCM     c1  718   2.488   4.829   3.337
  111TCM    cl1  719   2.476   4.861   3.513
  111TCM    cl2  720   2.591   4.685   3.311
  111TCM     h1  721   2.388   4.812   3.296
  111TCM    cl3  722   2.563   4.970   3.257
  112TCM     c1  723   3.647   3.544   4.721
  112TCM    cl1  724   3.822   3.580   4.699
  112TCM    cl2  725   3.595   3.599   4.884
  112TCM     h1  726   3.590   3.596   4.644
  112TCM    cl3  727   3.620   3.367   4.708
  113TCM     c1  728   1.639   0.054   4.568
  113TCM    cl1  729   1.556   0.021   4.724
  113TCM    cl2  730   1.744   0.199   4.587
  113TCM     h1  731   1.701  -0.033   4.541
  113TCM    cl3  732   1.518   0.084   4.440
  114TCM     c1  733   3.215   3.768   1.618
  114TCM    cl1  734   3.160   3.939   1.628
  114TCM    cl2  735   3.392   3.761   1.640
  114TCM     h1  736   3.166   3.709   1.696
  114TCM    cl3  737   3.173   3.702   1.457
  115TCM     c1  738   0.176   2.509   1.758
  115TCM    cl1  739   0.021   2.578   1.701
  115TCM    cl2  740   0.152   2.429   1.916
  115TCM     h1  741   0.212   2.436   1.685
  115TCM    cl3  742   0.298   2.640   1.774
  116TCM     c1  743   1.641   0.787   3.412
  116TCM    cl1  744   1.494   0.887   3.437
  116TCM    cl2  745   1.651   0.665   3.543
  116TCM     h1  746   1.635   0.738   3.315
  116TCM    cl3  747   1.787   0.892   3.417
  117TCM     c1  748   1.501   4.794   3.494
  117TCM    cl1  749   1.390   4.655   3.519
  117TCM    cl2  750   1.671   4.742   3.514
  117TCM     h1  751   1.486   4.834   3.393
  117TCM    cl3  752   1.463   4.922   3.614
  118TCM     c1  753   1.045   3.132   3.600
  118TCM    cl1  754   1.097   3.288   3.528
  118TCM    cl2  755   1.096   3.125   3.772
  118TCM     h1  756   0.936   3.124   3.595
  118TCM    cl3  757   1.120   2.996   3.510
  119TCM     c1  758   4.890   2.203   2.396
  119TCM    cl1  759   5.060   2.147   2.412
  119TCM    cl2  760   4.852   2.318   2.529
  119TCM     h1  761   4.876   2.253   2.300
  119TCM    cl3  762   4.780   2.061   2.406
  120TCM     c1  763   2.542   1.340   1.888
  120TCM    cl1  764   2.494   1.506   1.840
  120TCM    cl2  765   2.612   1.343   2.053
  120TCM     h1  766   2.454   1.275   1.887
  120TCM    cl3  767   2.665   1.277   1.773
  121TCM     c1  768   1.097   0.033   3.378
  121TCM    cl1  769   1.214  -0.078   3.299
  121TCM    cl2  770   1.146   0.202   3.345
  121TCM     h1  771   0.997   0.015   3.339
  121TCM    cl3  772   1.099   0.004   3.556
  122TCM     c1  773   4.417   3.955   2.698
  122TCM    cl1  774   4.439   4.120   2.767
  122TCM    cl2  775   4.512   3.837   2.795
  122TCM     h1  776   4.311   3.928   2.701
  122TCM    cl3  777   4.475   3.953   2.529
  123TCM     c1  778   4.529   1.236   3.702
  123TCM    cl1  779   4.705   1.260   3.723
  123TCM    cl2  780   4.500   1.129   3.561
  123TCM     h1  781   4.487   1.189   3.792
  123TCM    cl3  782   4.449   1.394   3.675
  124TCM     c1  783   3.624   1.929   2.340
  124TCM    cl1  784   3.777   2.021   2.352
  124TCM    cl2  785   3.495   2.016   2.429
  124TCM     h1  786   3.596   1.918   2.235
  124TCM    cl3  787   3.645   1.767   2.413
  125TCM     c1  788   4.931   4.093   3.360
  125TCM    cl1  789   4.879   3.998   3.502
  125TCM    cl2  790   5.109   4.113   3.365
  125TCM     h1  791   4.903   4.041   3.268
  125TCM    cl3  792   4.854   4.255   3.363
  126TCM     c1  793   0.494   1.816   0.310
  126TCM    cl1  794   0.437   1.970   0.238
  126TCM    cl2  795   0.352   1.721   0.364
  126TCM     h1  796   0.551   1.760   0.236
  126TCM    cl3  797   0.598   1.853   0.452
  127TCM     c1  798   3.449   1.758   3.226
  127TCM    cl1  799   3.420   1.647   3.088
  127TCM    cl2  800   3.592   1.701   3.317
  127TCM     h1  801   3.467   1.859   3.189
  127TCM    cl3  802   3.306   1.757   3.333
  128TCM     c1  803   1.456   2.403   2.916
  128TCM    cl1  804   1.573   2.536   2.947
  128TCM    cl2  805   1.433   2.383   2.739
  128TCM     h1  806   1.494   2.310   2.958
  128TCM    cl3  807   1.298   2.444   2.993
  129TCM     c1  808   0.545   2.735   0.137
  129TCM    cl1  809   0.636   2.603   0.219
  129TCM    cl2  810   0.517   2.690  -0.034
  129TCM     h1  811   0.449   2.750   0.187
  129TCM    cl3  812   0.643   2.885   0.144
  130TCM     c1  813   0.853   4.789   4.917
  130TCM    cl1  814   0.686   4.813   4.979
  130TCM    cl2  815   0.905   4.936   4.828
  130TCM     h1  816   0.921   4.770   5.000
  130TCM    cl3  817   0.855   4.649   4.804
  131TCM     c1  818   4.858   4.498   4.970
  131TCM    cl1  819   4.873   4.333   5.038
  131TCM    cl2  820   4.702   4.570   5.024
  131TCM     h1  821   4.941   4.560   5.005
  131TCM    cl3  822   4.860   4.489   4.791
  132TCM     c1  823   0.756   1.424   0.271
  132TCM    cl1  824   0.768   1.251   0.225
  132TCM    cl2  825   0.773   1.443   0.449
  132TCM     h1  826   0.835   1.481   0.220
  132TCM    cl3  827   0.596   1.487   0.219
  133TCM     c1  828   2.507   0.424   3.178
  133TCM    cl1  829   2.505   0.287   3.062
  133TCM    cl2  830   2.346   0.505   3.175
  133TCM     h1  831   2.527   0.386   3.279
  133TCM    cl3  832   2.634   0.541   3.131
  134TCM     c1  833   0.740   1.440   3.087
  134TCM    cl1  834   0.832   1.581   3.025
  134TCM    cl2  835   0.636   1.491   3.224
  134TCM     h1  836   0.678   1.399   3.007
  134TCM    cl3  837   0.855   1.315   3.144
  135TCM     c1  838   0.255   4.557   4.837
  135TCM    cl1  839   0.231   4.576   5.013
  135TCM    cl2  840   0.209   4.391   4.789
  135TCM     h1  841   0.193   4.630   4.783
  135TCM    cl3  842   0.428   4.584   4.796
  136TCM     c1  843   4.164   1.453   2.118
  136TCM    cl1  844   4.122   1.329   1.995
  136TCM    cl2  845   4.014   1.535   2.172
  136TCM     h1  846   4.212   1.405   2.204
  136TCM    cl3  847   4.275   1.574   2.045
  137TCM     c1  848   1.307   0.827   1.441
  137TCM    cl1  849   1.266   0.671   1.518
  137TCM    cl2  850   1.343   0.798   1.267
  137TCM     h1  851   1.223   0.897   1.450
  137TCM    cl3  852   1.452   0.894   1.522
  138TCM     c1  853   2.216   1.558   3.194
  138TCM    cl1  854   2.264   1.557   3.021
  138TCM    cl2  855   2.319   1.444   3.286
  138TCM     h1  856   2.227   1.659   3.236
  138TCM    cl3  857   2.045   1.506   3.207
  139TCM     c1  858   2.497   3.501   3.750
  139TCM    cl1  859   2.392   3.456   3.611
  139TCM    cl2  860   2.635   3.388   3.759
  139TCM     h1  861   2.534   3.603   3.737
  139TCM    cl3  862   2.402   3.491   3.902
  140TCM     c1  863   0.827   1.357   3.532
  140TCM    cl1  864   0.685   1.313   3.633
  140TCM    cl2  865   0.944   1.221   3.532
  140TCM     h1  866   0.794   1.377   3.429
  140TCM    cl3  867   0.906   1.503   3.599
  141TCM     c1  868   0.763   4.503   1.420
  141TCM    cl1  869   0.586   4.517   1.448
  141TCM    cl2  870   0.812   4.615   1.289
  141TCM     h1  871   0.816   4.527   1.512
  141TCM    cl3  872   0.802   4.335   1.370
  142TCM     c1  873   3.510   4.075   2.294
  142TCM    cl1  874   3.605   4.160   2.167
  142TCM    cl2  875   3.601   4.080   2.449
  142TCM     h1  876   3.413   4.125   2.306
  142TCM    cl3  877   3.483   3.905   2.246
  143TCM     c1  878   0.554   2.305   3.455
  143TCM    cl1  879   0.378   2.338   3.466
  143TCM    cl2  880   0.645   2.456   3.490
  143TCM     h1  881   0.581   2.228   3.528
  143TCM    cl3  882   0.594   2.249   3.290
  144TCM     c1  883   1.623   3.919   1.614
  144TCM    cl1  884   1.734   3.974   1.744
  144TCM    cl2  885   1.617   3.740   1.615
  144TCM     h1  886   1.523   3.960   1.632
  144TCM    cl3  887   1.684   3.975   1.455
  145TCM     c1  888   1.615   1.654   2.493
  145TCM    cl1  889   1.638   1.808   2.404
  145TCM    cl2  890   1.450   1.590   2.461
  145TCM     h1  891   1.690   1.581   2.459
  145TCM    cl3  892   1.634   1.682   2.669
  146TCM     c1  893   4.139   0.176   3.732
  146TCM    cl1  894   3.963   0.166   3.761
  146TCM    cl2  895   4.200   0.018   3.670
  146TCM     h1  896   4.160   0.254   3.658
  146TCM    cl3  897   4.223   0.214   3.886
  147TCM     c1  898   0.116   4.463   4.454
  147TCM    cl1  899   0.071   4.622   4.522
  147TCM    cl2  900   0.293   4.457   4.428
  147TCM     h1  901   0.087   4.384   4.523
  147TCM    cl3  902   0.032   4.439   4.297
  148TCM     c1  903   1.004   1.688   0.651
  148TCM    cl1  904   0.871   1.787   0.719
  148TCM    cl2  905   1.021   1.537   0.747
  148TCM     h1  906   0.982   1.663   0.547
  148TCM    cl3  907   1.157   1.782   0.660
  149TCM     c1  908   2.723   2.713   0.041
  149TCM    cl1  909   2.597   2.705  -0.086
  149TCM    cl2  910   2.644   2.711   0.201
  149TCM     h1  911   2.791   2.628   0.032
  149TCM    cl3  912   2.816   2.866   0.024
  150TCM     c1  913   3.635   1.357   3.112
  150TCM    cl1  914   3.697   1.253   3.244
  150TCM    cl2  915   3.493   1.277   3.036
  150TCM     h1  916   3.606   1.454   3.152
  150TCM    cl3  917   3.763   1.380   2.988
  151TCM     c1  918   3.524   0.106   1.684
  151TCM    cl1  919   3.664   0.085   1.574
  151TCM    cl2  920   3.577   0.185   1.836
  151TCM     h1  921   3.448   0.168   1.635
  151TCM    cl3  922   3.454  -0.055   1.722
  152TCM     c1  923   3.761   2.710   1.287
  152TCM    cl1  924   3.766   2.856   1.184
  152TCM    cl2  925   3.779   2.564   1.184
  152TCM     h1  926   3.843   2.713   1.360
  152TCM    cl3  927   3.604   2.703   1.374
  153TCM     c1  928   3.164   4.121   2.558
  153TCM    cl1  929   3.090   4.162   2.716
  153TCM    cl2  930   3.263   3.972   2.575
  153TCM     h1  931   3.085   4.105   2.484
  153TCM    cl3  932   3.271   4.255   2.506
  154TCM     c1  933   4.457   1.006   2.546
  154TCM    cl1  934   4.589   1.082   2.641
  154TCM    cl2  935   4.518   0.853   2.473
  154TCM     h1  936   4.373   0.984   2.612
  154TCM    cl3  937   4.405   1.117   2.416
  155TCM     c1  938   1.220   2.118   4.767
  155TCM    cl1  939   1.396   2.146   4.748
  155TCM    cl2  940   1.188   1.943   4.786
  155TCM     h1  941   1.183   2.172   4.855
  155TCM    cl3  942   1.134   2.177   4.620
  156TCM     c1  943   2.545   4.525   4.356
  156TCM    cl1  944   2.607   4.391   4.256
  156TCM    cl2  945   2.673   4.579   4.470
  156TCM     h1  946   2.516   4.609   4.292
  156TCM    cl3  947   2.403   4.468   4.450
  157TCM     c1  948   2.274   4.988   0.049
  157TCM    cl1  949   2.437   4.922   0.013
  157TCM    cl2  950   2.229   5.107  -0.076
  157TCM     h1  951   2.202   4.906   0.050
  157TCM    cl3  952   2.276   5.067   0.210
  158TCM     c1  953   1.924   1.388   2.874
  158TCM    cl1  954   1.971   1.524   2.766
  158TCM    cl2  955   1.958   1.232   2.792
  158TCM     h1  956   1.981   1.394   2.967
  158TCM    cl3  957   1.749   1.398   2.910
  159TCM     c1  958   1.968   2.507   0.017
  159TCM    cl1  959   1.981   2.405   0.163
  159TCM    cl2  960   2.130   2.569  -0.029
  159TCM     h1  961   1.927   2.448  -0.066
  159TCM    cl3  962   1.859   2.646   0.051
  160TCM     c1  963   2.095   2.058   1.413
  160TCM    cl1  964   2.034   1.896   1.460
  160TCM    cl2  965   2.122   2.157   1.560
  160TCM     h1  966   2.190   2.047   1.359
  160TCM    cl3  967   1.976   2.138   1.306
  161TCM     c1  968   2.590   2.612   0.584
  161TCM    cl1  969   2.754   2.683   0.561
  161TCM    cl2  970   2.586   2.448   0.513
  161TCM     h1  971   2.568   2.606   0.690
  161TCM    cl3  972   2.469   2.716   0.502
  162TCM     c1  973   2.947   1.662   1.920
  162TCM    cl1  974   2.859   1.796   2.001
  162TCM    cl2  975   2.933   1.513   2.018
  162TCM     h1  976   2.904   1.645   1.821
  162TCM    cl3  977   3.120   1.708   1.904
  163TCM     c1  978   4.792   4.536   2.874
  163TCM    cl1  979   4.957   4.503   2.813
  163TCM    cl2  980   4.788   4.521   3.053
  163TCM     h1  981   4.761   4.637   2.846
  163TCM    cl3  982   4.678   4.417   2.803
  164TCM     c1  983   3.048   0.226   4.627
  164TCM    cl1  984   2.887   0.168   4.679
  164TCM    cl2  985   3.036   0.294   4.462
  164TCM     h1  986   3.083   0.304   4.695
  164TCM    cl3  987   3.165   0.090   4.626
  165TCM     c1  988   3.845   4.137   3.917
  165TCM    cl1  989   3.931   4.268   3.829
  165TCM    cl2  990   3.959   4.056   4.029
  165TCM     h1  991   3.761   4.179   3.973
  165TCM    cl3  992   3.783   4.016   3.800
  166TCM     c1  993   2.035   1.452   2.317
  166TCM    cl1  994   1.966   1.599   2.393
  166TCM    cl2  995   1.909   1.370   2.219
  166TCM     h1  996   2.119   1.480   2.252
  166TCM    cl3  997   2.093   1.340   2.445
  167TCM     c1  998   2.649   0.292   4.924
  167TCM    cl1  999   2.545   0.233   4.790
  167TCM    cl2 1000   2.554   0.299   5.076
  167TCM     h1 1001   2.734   0.223   4.937
  167TCM    cl3 1002   2.710   0.456   4.884
  168TCM     c1 1003   2.443   2.947   1.714
  168TCM    cl1 1004   2.343   2.898   1.574
  168TCM    cl2 1005   2.339   2.970   1.859
  168TCM     h1 1006   2.518   2.869   1.735
  168TCM    cl3 1007   2.527   3.101   1.676
  169TCM     c1 1008   0.919   4.860   1.595
  169TCM    cl1 1009   0.775   4.780   1.666
  169TCM    cl2 1010   0.871   4.947   1.446
  169TCM     h1 1011   0.962   4.930   1.667
  169TCM    cl3 1012   1.041   4.734   1.554
  170TCM     c1 1013   4.159   2.250   4.566
  170TCM    cl1 1014   4.166   2.424   4.524
  170TCM    cl2 1015   4.129   2.232   4.742
  170TCM     h1 1016   4.077   2.203   4.511
  170TCM    cl3 1017   4.314   2.170   4.523
  171TCM     c1 1018   1.819   4.887   4.972
  171TCM    cl1 1019   1.920   4.907   5.119
  171TCM    cl2 1020   1.790   4.713   4.942
  171TCM     h1 1021   1.723   4.938   4.986
  171TCM    cl3 1022   1.904   4.959   4.831
  172TCM     c1 1023   3.337   3.683   0.381
  172TCM    cl1 1024   3.424   3.718   0.228
  172TCM    cl2 1025   3.423   3.555   0.472
  172TCM     h1 1026   3.332   3.774   0.442
  172TCM    cl3 1027   3.170   3.628   0.345
  173TCM     c1 1028   4.755   0.365   1.028
  173TCM    cl1 1029   4.845   0.257   0.917
  173TCM    cl2 1030   4.871   0.473   1.112
  173TCM     h1 1031   4.684   0.426   0.970
  173TCM    cl3 1032   4.665   0.267   1.148
  174TCM     c1 1033   3.988   1.811   1.943
  174TCM    cl1 1034   3.845   1.832   2.049
  174TCM    cl2 1035   4.017   1.962   1.851
  174TCM     h1 1036   4.075   1.787   2.003
  174TCM    cl3 1037   3.955   1.676   1.829
  175TCM     c1 1038   3.891   1.907   4.994
  175TCM    cl1 1039   4.047   1.989   5.028
  175TCM    cl2 1040   3.755   2.007   5.055
  175TCM     h1 1041   3.880   1.893   4.886
  175TCM    cl3 1042   3.888   1.747   5.075
  176TCM     c1 1043   3.920   3.016   4.566
  176TCM    cl1 1044   4.040   2.946   4.454
  176TCM    cl2 1045   3.922   3.195   4.551
  176TCM     h1 1046   3.820   2.979   4.542
  176TCM    cl3 1047   3.962   2.971   4.735
  177TCM     c1 1048   1.250   0.447   3.690
  177TCM    cl1 1049   1.086   0.383   3.655
  177TCM    cl2 1050   1.277   0.597   3.596
  177TCM     h1 1051   1.258   0.468   3.797
  177TCM    cl3 1052   1.372   0.324   3.644
  178TCM     c1 1053   3.417   0.067   1.205
  178TCM    cl1 1054   3.576   0.150   1.205
  178TCM    cl2 1055   3.346   0.077   1.369
  178TCM     h1 1056   3.350   0.115   1.133
  178TCM    cl3 1057   3.440  -0.105   1.159
  179TCM     c1 1058   1.258   0.350   4.205
  179TCM    cl1 1059   1.162   0.417   4.341
  179TCM    cl2 1060   1.426   0.413   4.213
  179TCM     h1 1061   1.260   0.241   4.213
  179TCM    cl3 1062   1.182   0.398   4.050
  180TCM     c1 1063   3.135   0.317   3.444
  180TCM    cl1 1064   3.166   0.178   3.333
  180TCM    cl2 1065   3.289   0.369   3.517
  180TCM     h1 1066   3.091   0.400   3.387
  180TCM    cl3 1067   3.021   0.265   3.572
  181TCM     c1 1068   2.408   1.169   3.900
  181TCM    cl1 1069   2.289   1.058   3.975
  181TCM    cl2 1070   2.487   1.086   3.761
  181TCM     h1 1071   2.357   1.258   3.865
  181TCM    cl3 1072   2.532   1.215   4.021
  182TCM     c1 1073   3.407   0.538   4.807
  182TCM    cl1 1074   3.346   0.378   4.753
  182TCM    cl2 1075   3.582   0.524   4.844
  182TCM     h1 1076   3.391   0.612   4.728
  182TCM    cl3 1077   3.319   0.588   4.955
  183TCM     c1 1078   1.741   2.110   2.737
  183TCM    cl1 1079   1.860   1.976   2.728
  183TCM    cl2 1080   1.812   2.248   2.827
  183TCM     h1 1081   1.714   2.142   2.635
  183TCM    cl3 1082   1.594   2.053   2.823
  184TCM     c1 1083   4.924   4.004   4.640
  184TCM    cl1 1084   5.036   4.128   4.577
  184TCM    cl2 1085   4.861   4.056   4.800
  184TCM     h1 1086   4.840   3.991   4.570
  184TCM    cl3 1087   5.010   3.847   4.658
  185TCM     c1 1088   0.862   1.119   2.774
  185TCM    cl1 1089   0.912   0.974   2.867
  185TCM    cl2 1090   0.706   1.178   2.838
  185TCM     h1 1091   0.938   1.196   2.784
  185TCM    cl3 1092   0.842   1.075   2.601
  186TCM     c1 1093   4.853   1.022   3.475
  186TCM    cl1 1094   4.869   0.843   3.464
  186TCM    cl2 1095   4.816   1.089   3.313
  186TCM     h1 1096   4.773   1.047   3.544
  186TCM    cl3 1097   5.008   1.090   3.535
  187TCM     c1 1098   0.074   4.701   0.387
  187TCM    cl1 1099   0.149   4.819   0.275
  187TCM    cl2 1100   0.203   4.605   0.466
  187TCM     h1 1101   0.016   4.754   0.463
  187TCM    cl3 1102  -0.034   4.591   0.294
  188TCM     c1 1103   0.667   3.443   0.156
  188TCM    cl1 1104   0.540   3.421   0.032
  188TCM    cl2 1105   0.722   3.614   0.154
  188TCM     h1 1106   0.626   3.418   0.254
  188TCM    cl3 1107   0.806   3.336   0.118
  189TCM     c1 1108   1.318   2.555   4.566
  189TCM    cl1 1109   1.376   2.408   4.483
  189TCM    cl2 1110   1.352   2.540   4.742
  189TCM     h1 1111   1.370   2.642   4.526
  189TCM    cl3 1112   1.142   2.572   4.538
  190TCM     c1 1113   0.769   3.260   0.553
  190TCM    cl1 1114   0.696   3.157   0.424
  190TCM    cl2 1115   0.642   3.308   0.669
  190TCM     h1 1116   0.847   3.203   0.605
  190TCM    cl3 1117   0.841   3.406   0.478
  191TCM     c1 1118   4.178   1.794   2.420
  191TCM    cl1 1119   4.012   1.759   2.478
  191TCM    cl2 1120   4.170   1.858   2.253
  191TCM     h1 1121   4.225   1.867   2.486
  191TCM    cl3 1122   4.275   1.642   2.421
  192TCM     c1 1123   1.888   0.635   4.221
  192TCM    cl1 1124   2.035   0.645   4.325
  192TCM    cl2 1125   1.759   0.548   4.310
  192TCM     h1 1126   1.854   0.736   4.196
  192TCM    cl3 1127   1.926   0.545   4.071
  193TCM     c1 1128   0.332   0.130   2.465
  193TCM    cl1 1129   0.279  -0.006   2.362
  193TCM    cl2 1130   0.430   0.244   2.365
  193TCM     h1 1131   0.246   0.182   2.506
  193TCM    cl3 1132   0.434   0.068   2.599
  194TCM     c1 1133   1.902   4.479   4.592
  194TCM    cl1 1134   1.855   4.653   4.597
  194TCM    cl2 1135   1.940   4.420   4.757
  194TCM     h1 1136   1.819   4.420   4.550
  194TCM    cl3 1137   2.047   4.461   4.488
  195TCM     c1 1138   4.118   4.646   1.074
  195TCM    cl1 1139   4.045   4.806   1.039
  195TCM    cl2 1140   4.208   4.588   0.930
  195TCM     h1 1141   4.187   4.654   1.159
  195TCM    cl3 1142   3.988   4.529   1.114
  196TCM     c1 1143   0.979   2.423   0.300
  196TCM    cl1 1144   1.031   2.375   0.465
  196TCM    cl2 1145   0.990   2.282   0.191
  196TCM     h1 1146   0.876   2.459   0.302
  196TCM    cl3 1147   1.087   2.553   0.239
  197TCM     c1 1148   1.319   0.884   4.270
  197TCM    cl1 1149   1.270   0.749   4.163
  197TCM    cl2 1150   1.202   0.898   4.405
  197TCM     h1 1151   1.419   0.865   4.310
  197TCM    cl3 1152   1.322   1.037   4.176
  198TCM     c1 1153   1.510   1.734   0.784
  198TCM    cl1 1154   1.506   1.692   0.610
  198TCM    cl2 1155   1.680   1.731   0.842
  198TCM     h1 1156   1.468   1.833   0.799
  198TCM    cl3 1157   1.414   1.613   0.877
  199TCM     c1 1158   1.161   4.652   1.167
  199TCM    cl1 1159   1.260   4.586   1.301
  199TCM    cl2 1160   1.251   4.637   1.012
  199TCM     h1 1161   1.067   4.597   1.160
  199TCM    cl3 1162   1.126   4.825   1.199
  200TCM     c1 1163   0.086   2.610   2.369
  200TCM    cl1 1164  -0.058   2.703   2.421
  200TCM    cl2 1165   0.036   2.485   2.250
  200TCM     h1 1166   0.159   2.677   2.322
  200TCM    cl3 1167   0.160   2.530   2.511
  201TCM     c1 1168   0.704   2.139   4.955
  201TCM    cl1 1169   0.742   2.034   5.095
  201TCM    cl2 1170   0.843   2.140   4.842
  201TCM     h1 1171   0.616   2.100   4.904
  201TCM    cl3 1172   0.671   2.305   5.014
  202TCM     c1 1173   3.721   4.627   3.164
  202TCM    cl1 1174   3.820   4.506   3.250
  202TCM    cl2 1175   3.662   4.750   3.281
  202TCM     h1 1176   3.782   4.676   3.088
  202TCM    cl3 1177   3.580   4.547   3.087
  203TCM     c1 1178   2.063   0.921   2.134
  203TCM    cl1 1179   1.904   1.004   2.125
  203TCM    cl2 1180   2.186   1.037   2.196
  203TCM     h1 1181   2.057   0.835   2.200
  203TCM    cl3 1182   2.111   0.868   1.969
  204TCM     c1 1183   0.715   4.740   4.487
  204TCM    cl1 1184   0.742   4.837   4.338
  204TCM    cl2 1185   0.628   4.589   4.443
  204TCM     h1 1186   0.811   4.714   4.532
  204TCM    cl3 1187   0.617   4.833   4.603
  205TCM     c1 1188   2.105   4.695   3.661
  205TCM    cl1 1189   2.119   4.802   3.518
  205TCM    cl2 1190   2.265   4.682   3.742
  205TCM     h1 1191   2.032   4.737   3.732
  205TCM    cl3 1192   2.051   4.532   3.609
  206TCM     c1 1193   1.142   0.441   1.047
  206TCM    cl1 1194   1.212   0.379   0.895
  206TCM    cl2 1195   1.058   0.597   1.017
  206TCM     h1 1196   1.070   0.368   1.086
  206TCM    cl3 1197   1.274   0.466   1.166
  207TCM     c1 1198   2.590   3.325   0.860
  207TCM    cl1 1199   2.756   3.356   0.799
  207TCM    cl2 1200   2.590   3.176   0.959
  207TCM     h1 1201   2.558   3.410   0.920
  207TCM    cl3 1202   2.478   3.305   0.721
  208TCM     c1 1203   0.966   3.689   0.796
  208TCM    cl1 1204   0.952   3.750   0.964
  208TCM    cl2 1205   0.803   3.679   0.722
  208TCM     h1 1206   1.029   3.757   0.738
  208TCM    cl3 1207   1.041   3.525   0.798
  209TCM     c1 1208   3.684   2.168   1.864
  209TCM    cl1 1209   3.618   2.099   2.016
  209TCM    cl2 1210   3.582   2.307   1.814
  209TCM     h1 1211   3.787   2.201   1.881
  209TCM    cl3 1212   3.681   2.043   1.736
  210TCM     c1 1213   2.684   2.373   0.941
  210TCM    cl1 1214   2.517   2.391   0.878
  210TCM    cl2 1215   2.683   2.391   1.119
  210TCM     h1 1216   2.722   2.274   0.914
  210TCM    cl3 1217   2.788   2.499   0.869
  211TCM     c1 1218   2.885   3.700   3.977
  211TCM    cl1 1219   3.023   3.814   3.977
  211TCM    cl2 1220   2.943   3.536   3.934
  211TCM     h1 1221   2.839   3.697   4.076
  211TCM    cl3 1222   2.764   3.754   3.856
  212TCM     c1 1223   1.165   2.724   3.746
  212TCM    cl1 1224   1.187   2.546   3.748
  212TCM    cl2 1225   1.267   2.798   3.875
  212TCM     h1 1226   1.195   2.764   3.649
  212TCM    cl3 1227   0.993   2.764   3.776
  213TCM     c1 1228   1.424   2.767   3.356
  213TCM    cl1 1229   1.368   2.598   3.334
  213TCM    cl2 1230   1.581   2.789   3.272
  213TCM     h1 1231   1.350   2.836   3.315
  213TCM    cl3 1232   1.446   2.798   3.532
  214TCM     c1 1233   3.952   4.633   3.662
  214TCM    cl1 1234   4.026   4.704   3.514
  214TCM    cl2 1235   3.783   4.587   3.627
  214TCM     h1 1236   4.009   4.544   3.692
  214TCM    cl3 1237   3.956   4.754   3.794
  215TCM     c1 1238   0.268   3.137   0.366
  215TCM    cl1 1239   0.109   3.158   0.285
  215TCM    cl2 1240   0.373   3.276   0.324
  215TCM     h1 1241   0.254   3.132   0.474
  215TCM    cl3 1242   0.345   2.986   0.309
  216TCM     c1 1243   1.482   2.384   0.121
  216TCM    cl1 1244   1.606   2.368  -0.008
  216TCM    cl2 1245   1.336   2.290   0.076
  216TCM     h1 1246   1.522   2.348   0.216
  216TCM    cl3 1247   1.439   2.558   0.136
  217TCM     c1 1248   0.553   1.833   2.853
  217TCM    cl1 1249   0.678   1.773   2.739
  217TCM    cl2 1250   0.490   1.695   2.948
  217TCM     h1 1251   0.598   1.907   2.920
  217TCM    cl3 1252   0.419   1.908   2.760
  218TCM     c1 1253   3.583   0.043   4.772
  218TCM    cl1 1254   3.437   0.044   4.876
  218TCM    cl2 1255   3.696   0.172   4.825
  218TCM     h1 1256   3.633  -0.055   4.780
  218TCM    cl3 1257   3.535   0.072   4.602
  219TCM     c1 1258   1.758   2.367   1.964
  219TCM    cl1 1259   1.739   2.467   2.112
  219TCM    cl2 1260   1.666   2.215   1.984
  219TCM     h1 1261   1.720   2.422   1.877
  219TCM    cl3 1262   1.931   2.329   1.938
  220TCM     c1 1263   4.377   0.527   3.978
  220TCM    cl1 1264   4.241   0.578   3.873
  220TCM    cl2 1265   4.379   0.629   4.125
  220TCM     h1 1266   4.365   0.422   4.006
  220TCM    cl3 1267   4.532   0.550   3.890
  221TCM     c1 1268   0.529   3.766   1.184
  221TCM    cl1 1269   0.659   3.842   1.282
  221TCM    cl2 1270   0.604   3.671   1.051
  221TCM     h1 1271   0.469   3.700   1.247
  221TCM    cl3 1272   0.426   3.895   1.114
  222TCM     c1 1273   0.564   1.612   0.732
  222TCM    cl1 1274   0.432   1.517   0.655
  222TCM    cl2 1275   0.663   1.502   0.834
  222TCM     h1 1276   0.626   1.656   0.654
  222TCM    cl3 1277   0.494   1.742   0.834
  223TCM     c1 1278   3.542   2.498   2.520
  223TCM    cl1 1279   3.384   2.455   2.592
  223TCM    cl2 1280   3.514   2.594   2.370
  223TCM     h1 1281   3.599   2.558   2.591
  223TCM    cl3 1282   3.633   2.349   2.480
  224TCM     c1 1283   0.263   4.809   3.024
  224TCM    cl1 1284   0.353   4.718   3.150
  224TCM    cl2 1285   0.093   4.755   3.021
  224TCM     h1 1286   0.267   4.916   3.046
  224TCM    cl3 1287   0.339   4.780   2.864
  225TCM     c1 1288   0.399   4.718   2.047
  225TCM    cl1 1289   0.229   4.776   2.064
  225TCM    cl2 1290   0.479   4.721   2.207
  225TCM     h1 1291   0.399   4.616   2.008
  225TCM    cl3 1292   0.487   4.826   1.933
  226TCM     c1 1293   0.470   2.412   2.100
  226TCM    cl1 1294   0.577   2.331   2.220
  226TCM    cl2 1295   0.568   2.471   1.962
  226TCM     h1 1296   0.395   2.342   2.065
  226TCM    cl3 1297   0.390   2.552   2.179
  227TCM     c1 1298   0.520   3.926   2.848
  227TCM    cl1 1299   0.451   4.086   2.802
  227TCM    cl2 1300   0.415   3.796   2.782
  227TCM     h1 1301   0.620   3.917   2.806
  227TCM    cl3 1302   0.527   3.914   3.027
  228TCM     c1 1303   2.282   0.627   3.865
  228TCM    cl1 1304   2.428   0.523   3.859
  228TCM    cl2 1305   2.305   0.765   3.752
  228TCM     h1 1306   2.194   0.570   3.835
  228TCM    cl3 1307   2.260   0.690   4.031
  229TCM     c1 1308   1.536   1.819   1.861
  229TCM    cl1 1309   1.427   1.678   1.871
  229TCM    cl2 1310   1.646   1.823   2.003
  229TCM     h1 1311   1.595   1.814   1.769
  229TCM    cl3 1312   1.438   1.969   1.861
  230TCM     c1 1313   0.862   3.359   2.087
  230TCM    cl1 1314   0.891   3.382   2.263
  230TCM    cl2 1315   0.866   3.518   2.005
  230TCM     h1 1316   0.939   3.294   2.045
  230TCM    cl3 1317   0.701   3.283   2.063
  231TCM     c1 1318   4.706   4.078   3.013
  231TCM    cl1 1319   4.590   4.178   3.107
  231TCM    cl2 1320   4.725   3.918   3.093
  231TCM     h1 1321   4.668   4.063   2.912
  231TCM    cl3 1322   4.865   4.159   3.007
  232TCM     c1 1323   4.334   0.911   4.379
  232TCM    cl1 1324   4.512   0.894   4.363
  232TCM    cl2 1325   4.263   0.951   4.219
  232TCM     h1 1326   4.292   0.818   4.416
  232TCM    cl3 1327   4.298   1.045   4.492
  233TCM     c1 1328   0.470   3.319   4.520
  233TCM    cl1 1329   0.448   3.371   4.690
  233TCM    cl2 1330   0.310   3.301   4.442
  233TCM     h1 1331   0.529   3.395   4.467
  233TCM    cl3 1332   0.557   3.162   4.517
  234TCM     c1 1333   1.026   1.859   0.298
  234TCM    cl1 1334   0.960   1.986   0.406
  234TCM    cl2 1335   1.095   1.933   0.150
  234TCM     h1 1336   1.104   1.803   0.350
  234TCM    cl3 1337   0.893   1.747   0.252
  235TCM     c1 1338   1.703   2.108   1.639
  235TCM    cl1 1339   1.824   2.017   1.737
  235TCM    cl2 1340   1.674   2.017   1.487
  235TCM     h1 1341   1.610   2.116   1.694
  235TCM    cl3 1342   1.766   2.271   1.601
  236TCM     c1 1343   2.623   4.610   3.727
  236TCM    cl1 1344   2.761   4.553   3.626
  236TCM    cl2 1345   2.667   4.765   3.806
  236TCM     h1 1346   2.536   4.624   3.664
  236TCM    cl3 1347   2.586   4.486   3.852
  237TCM     c1 1348   3.255   0.448   1.546
  237TCM    cl1 1349   3.334   0.423   1.705
  237TCM    cl2 1350   3.376   0.428   1.415
  237TCM     h1 1351   3.175   0.375   1.534
  237TCM    cl3 1352   3.188   0.614   1.538
  238TCM     c1 1353   2.286   4.588   4.778
  238TCM    cl1 1354   2.320   4.454   4.893
  238TCM    cl2 1355   2.438   4.678   4.745
  238TCM     h1 1356   2.247   4.546   4.685
  238TCM    cl3 1357   2.166   4.699   4.850
  239TCM     c1 1358   2.604   1.707   3.084
  239TCM    cl1 1359   2.753   1.806   3.073
  239TCM    cl2 1360   2.511   1.761   3.227
  239TCM     h1 1361   2.544   1.719   2.994
  239TCM    cl3 1362   2.648   1.534   3.104
  240TCM     c1 1363   0.921   1.609   4.831
  240TCM    cl1 1364   0.877   1.773   4.889
  240TCM    cl2 1365   0.825   1.489   4.924
  240TCM     h1 1366   0.899   1.600   4.725
  240TCM    cl3 1367   1.095   1.579   4.860
  241TCM     c1 1368   2.977   1.084   2.821
  241TCM    cl1 1369   3.145   1.109   2.881
  241TCM    cl2 1370   2.922   1.232   2.736
  241TCM     h1 1371   2.975   0.999   2.752
  241TCM    cl3 1372   2.870   1.050   2.961
  242TCM     c1 1373   3.649   0.624   1.529
  242TCM    cl1 1374   3.531   0.725   1.619
  242TCM    cl2 1375   3.690   0.479   1.626
  242TCM     h1 1376   3.605   0.593   1.434
  242TCM    cl3 1377   3.798   0.719   1.497
  243TCM     c1 1378   0.490   0.192   0.432
  243TCM    cl1 1379   0.593   0.140   0.294
  243TCM    cl2 1380   0.360   0.071   0.457
  243TCM     h1 1381   0.552   0.198   0.522
  243TCM    cl3 1382   0.419   0.352   0.397
  244TCM     c1 1383   0.837   3.647   3.668
  244TCM    cl1 1384   0.793   3.473   3.650
  244TCM    cl2 1385   1.004   3.673   3.610
  244TCM     h1 1386   0.768   3.708   3.609
  244TCM    cl3 1387   0.824   3.694   3.841
  245TCM     c1 1388   0.120   4.123   4.141
  245TCM    cl1 1389   0.262   4.137   4.250
  245TCM    cl2 1390  -0.012   4.036   4.227
  245TCM     h1 1391   0.086   4.223   4.113
  245TCM    cl3 1392   0.167   4.032   3.994
  246TCM     c1 1393   3.447   1.907   0.707
  246TCM    cl1 1394   3.406   1.836   0.867
  246TCM    cl2 1395   3.480   2.082   0.726
  246TCM     h1 1396   3.535   1.857   0.667
  246TCM    cl3 1397   3.308   1.884   0.595
  247TCM     c1 1398   3.454   4.321   3.562
  247TCM    cl1 1399   3.499   4.446   3.442
  247TCM    cl2 1400   3.595   4.285   3.668
  247TCM     h1 1401   3.371   4.357   3.624
  247TCM    cl3 1402   3.406   4.170   3.478
  248TCM     c1 1403   1.602   4.933   2.999
  248TCM    cl1 1404   1.773   4.955   2.949
  248TCM    cl2 1405   1.593   4.818   3.136
  248TCM     h1 1406   1.561   5.029   3.029
  248TCM    cl3 1407   1.508   4.867   2.861
  249TCM     c1 1408   2.712   0.509   2.416
  249TCM    cl1 1409   2.813   0.612   2.523
  249TCM    cl2 1410   2.540   0.559   2.429
  249TCM     h1 1411   2.745   0.520   2.313
  249TCM    cl3 1412   2.728   0.337   2.467
  250TCM     c1 1413   3.198   2.138   3.921
  250TCM    cl1 1414   3.061   2.066   4.013
  250TCM    cl2 1415   3.278   2.263   4.022
  250TCM     h1 1416   3.270   2.060   3.895
  250TCM    cl3 1417   3.135   2.214   3.771
  251TCM     c1 1418   3.048   2.520   0.314
  251TCM    cl1 1419   2.878   2.468   0.293
  251TCM    cl2 1420   3.054   2.699   0.325
  251TCM     h1 1421   3.088   2.476   0.406
  251TCM    cl3 1422   3.145   2.465   0.174
  252TCM     c1 1423   1.527   0.482   4.573
  252TCM    cl1 1424   1.450   0.626   4.498
  252TCM    cl2 1425   1.399   0.372   4.634
  252TCM     h1 1426   1.588   0.430   4.499
  252TCM    cl3 1427   1.630   0.535   4.710
  253TCM     c1 1428   0.909   1.462   1.307
  253TCM    cl1 1429   0.858   1.549   1.456
  253TCM    cl2 1430   0.797   1.503   1.173
  253TCM     h1 1431   1.010   1.492   1.281
  253TCM    cl3 1432   0.903   1.286   1.337
  254TCM     c1 1433   0.035   2.877   0.060
  254TCM    cl1 1434  -0.094   2.872   0.185
  254TCM    cl2 1435  -0.038   2.853  -0.102
  254TCM     h1 1436   0.086   2.973   0.064
  254TCM    cl3 1437   0.153   2.745   0.094
  255TCM     c1 1438   0.572   1.688   3.844
  255TCM    cl1 1439   0.591   1.717   3.667
  255TCM    cl2 1440   0.583   1.844   3.932
  255TCM     h1 1441   0.475   1.642   3.863
  255TCM    cl3 1442   0.703   1.580   3.902
  256TCM     c1 1443   0.915   0.759   0.262
  256TCM    cl1 1444   0.758   0.700   0.199
  256TCM    cl2 1445   0.956   0.673   0.414
  256TCM     h1 1446   0.994   0.741   0.188
  256TCM    cl3 1447   0.904   0.934   0.297
  257TCM     c1 1448   3.417   4.603   4.738
  257TCM    cl1 1449   3.515   4.688   4.862
  257TCM    cl2 1450   3.527   4.514   4.628
  257TCM     h1 1451   3.349   4.532   4.787
  257TCM    cl3 1452   3.323   4.724   4.645
  258TCM     c1 1453   3.179   3.904   3.579
  258TCM    cl1 1454   3.194   3.820   3.421
  258TCM    cl2 1455   3.271   3.812   3.703
  258TCM     h1 1456   3.219   4.005   3.571
  258TCM    cl3 1457   3.006   3.912   3.626
  259TCM     c1 1458   2.924   4.436   2.968
  259TCM    cl1 1459   2.930   4.274   3.046
  259TCM    cl2 1460   2.837   4.550   3.076
  259TCM     h1 1461   3.025   4.472   2.951
  259TCM    cl3 1462   2.837   4.424   2.812
  260TCM     c1 1463   3.456   1.118   2.701
  260TCM    cl1 1464   3.523   0.953   2.690
  260TCM    cl2 1465   3.330   1.139   2.575
  260TCM     h1 1466   3.412   1.133   2.800
  260TCM    cl3 1467   3.586   1.238   2.675
  261TCM     c1 1468   4.568   2.015   4.920
  261TCM    cl1 1469   4.600   2.182   4.979
  261TCM    cl2 1470   4.688   1.972   4.794
  261TCM     h1 1471   4.576   1.945   5.003
  261TCM    cl3 1472   4.403   2.006   4.850
  262TCM     c1 1473   3.057   2.156   0.505
  262TCM    cl1 1474   2.918   2.242   0.580
  262TCM    cl2 1475   3.206   2.251   0.530
  262TCM     h1 1476   3.068   2.057   0.551
  262TCM    cl3 1477   3.027   2.136   0.329
  263TCM     c1 1478   4.635   4.499   1.269
  263TCM    cl1 1479   4.745   4.597   1.167
  263TCM    cl2 1480   4.656   4.325   1.230
  263TCM     h1 1481   4.658   4.516   1.374
  263TCM    cl3 1482   4.465   4.547   1.237
  264TCM     c1 1483   4.860   0.823   2.941
  264TCM    cl1 1484   4.746   0.790   2.806
  264TCM    cl2 1485   4.787   0.768   3.095
  264TCM     h1 1486   4.954   0.770   2.923
  264TCM    cl3 1487   4.892   1.000   2.950
  265TCM     c1 1488   3.416   2.136   0.108
  265TCM    cl1 1489   3.261   2.149   0.020
  265TCM    cl2 1490   3.388   2.064   0.270
  265TCM     h1 1491   3.486   2.074   0.052
  265TCM    cl3 1492   3.486   2.300   0.128
  266TCM     c1 1493   1.736   0.238   2.616
  266TCM    cl1 1494   1.694   0.383   2.519
  266TCM    cl2 1495   1.591   0.182   2.706
  266TCM     h1 1496   1.771   0.159   2.549
  266TCM    cl3 1497   1.866   0.280   2.732
  267TCM     c1 1498   1.325   4.541   4.843
  267TCM    cl1 1499   1.478   4.586   4.762
  267TCM    cl2 1500   1.211   4.679   4.837
  267TCM     h1 1501   1.280   4.455   4.792
  267TCM    cl3 1502   1.358   4.498   5.015
  268TCM     c1 1503   4.994   0.299   4.621
  268TCM    cl1 1504   4.982   0.124   4.660
  268TCM    cl2 1505   4.857   0.386   4.698
  268TCM     h1 1506   5.088   0.338   4.659
  268TCM    cl3 1507   4.984   0.320   4.444
  269TCM     c1 1508   4.367   4.684   0.090
  269TCM    cl1 1509   4.208   4.714   0.012
  269TCM    cl2 1510   4.355   4.545   0.202
  269TCM     h1 1511   4.442   4.663   0.013
  269TCM    cl3 1512   4.415   4.831   0.182
  270TCM     c1 1513   0.442   2.639   3.797
  270TCM    cl1 1514   0.604   2.716   3.801
  270TCM    cl2 1515   0.459   2.461   3.816
  270TCM     h1 1516   0.381   2.678   3.878
  270TCM    cl3 1517   0.363   2.675   3.640
  271TCM     c1 1518   3.809   1.247   1.583
  271TCM    cl1 1519   3.741   1.352   1.454
  271TCM    cl2 1520   3.920   1.343   1.685
  271TCM     h1 1521   3.727   1.208   1.644
  271TCM    cl3 1522   3.900   1.111   1.509
  272TCM     c1 1523   1.331   4.939   0.104
  272TCM    cl1 1524   1.472   4.836   0.063
  272TCM    cl2 1525   1.198   4.837   0.167
  272TCM     h1 1526   1.361   5.011   0.181
  272TCM    cl3 1527   1.276   5.026  -0.042
  273TCM     c1 1528   2.946   0.934   3.888
  273TCM    cl1 1529   3.067   0.980   3.764
  273TCM    cl2 1530   2.872   1.083   3.956
  273TCM     h1 1531   2.868   0.873   3.842
  273TCM    cl3 1532   3.027   0.842   4.018
  274TCM     c1 1533   4.351   3.292   3.373
  274TCM    cl1 1534   4.242   3.434   3.374
  274TCM    cl2 1535   4.339   3.206   3.530
  274TCM     h1 1536   4.322   3.224   3.292
  274TCM    cl3 1537   4.520   3.347   3.347
  275TCM     c1 1538   1.372   0.729   0.288
  275TCM    cl1 1539   1.481   0.772   0.152
  275TCM    cl2 1540   1.265   0.594   0.236
  275TCM     h1 1541   1.431   0.698   0.375
  275TCM    cl3 1542   1.271   0.870   0.331
  276TCM     c1 1543   1.108   1.844   1.019
  276TCM    cl1 1544   1.272   1.916   1.008
  276TCM    cl2 1545   1.008   1.941   1.130
  276TCM     h1 1546   1.062   1.842   0.920
  276TCM    cl3 1547   1.121   1.676   1.081
  277TCM     c1 1548   3.336   2.834   2.152
  277TCM    cl1 1549   3.226   2.894   2.024
  277TCM    cl2 1550   3.305   2.924   2.305
  277TCM     h1 1551   3.319   2.727   2.169
  277TCM    cl3 1552   3.506   2.861   2.101
  278TCM     c1 1553   2.990   3.786   2.343
  278TCM    cl1 1554   3.087   3.899   2.242
  278TCM    cl2 1555   2.915   3.877   2.479
  278TCM     h1 1556   2.911   3.741   2.281
  278TCM    cl3 1557   3.096   3.658   2.407
  279TCM     c1 1558   1.096   1.074   4.859
  279TCM    cl1 1559   1.132   0.985   5.011
  279TCM    cl2 1560   1.226   1.193   4.827
  279TCM     h1 1561   1.089   1.003   4.776
  279TCM    cl3 1562   0.940   1.160   4.879
  280TCM     c1 1563   3.134   0.130   0.833
  280TCM    cl1 1564   3.295   0.052   0.851
  280TCM    cl2 1565   3.059   0.148   0.995
  280TCM     h1 1566   3.146   0.228   0.787
  280TCM    cl3 1567   3.029   0.027   0.730
  281TCM     c1 1568   1.973   3.590   0.814
  281TCM    cl1 1569   2.031   3.749   0.753
  281TCM    cl2 1570   1.987   3.587   0.993
  281TCM     h1 1571   1.869   3.576   0.785
  281TCM    cl3 1572   2.074   3.459   0.744
  282TCM     c1 1573   2.784   3.851   1.621
  282TCM    cl1 1574   2.609   3.815   1.606
  282TCM    cl2 1575   2.847   3.909   1.463
  282TCM     h1 1576   2.799   3.929   1.697
  282TCM    cl3 1577   2.871   3.702   1.670
  283TCM     c1 1578   4.697   0.244   3.841
  283TCM    cl1 1579   4.585   0.201   3.975
  283TCM    cl2 1580   4.715   0.104   3.731
  283TCM     h1 1581   4.656   0.329   3.785
  283TCM    cl3 1582   4.857   0.289   3.909
  284TCM     c1 1583   4.452   2.863   4.666
  284TCM    cl1 1584   4.343   2.994   4.722
  284TCM    cl2 1585   4.597   2.937   4.589
  284TCM     h1 1586   4.483   2.802   4.751
  284TCM    cl3 1587   4.366   2.761   4.547
  285TCM     c1 1588   0.953   4.652   2.060
  285TCM    cl1 1589   1.058   4.700   1.922
  285TCM    cl2 1590   0.786   4.624   1.999
  285TCM     h1 1591   0.991   4.561   2.105
  285TCM    cl3 1592   0.950   4.783   2.182
  286TCM     c1 1593   0.114   0.354   0.169
  286TCM    cl1 1594  -0.043   0.358   0.257
  286TCM    cl2 1595   0.090   0.414   0.001
  286TCM     h1 1596   0.187   0.417   0.220
  286TCM    cl3 1597   0.174   0.185   0.163
  287TCM     c1 1598   4.564   0.375   3.476
  287TCM    cl1 1599   4.492   0.442   3.326
  287TCM    cl2 1600   4.435   0.340   3.595
  287TCM     h1 1601   4.619   0.283   3.453
  287TCM    cl3 1602   4.677   0.495   3.548
  288TCM     c1 1603   3.383   0.178   4.254
  288TCM    cl1 1604   3.323   0.347   4.244
  288TCM    cl2 1605   3.468   0.136   4.102
  288TCM     h1 1606   3.452   0.169   4.339
  288TCM    cl3 1607   3.245   0.066   4.276
  289TCM     c1 1608   1.300   1.819   1.388
  289TCM    cl1 1609   1.307   1.998   1.372
  289TCM    cl2 1610   1.135   1.770   1.437
  289TCM     h1 1611   1.325   1.773   1.292
  289TCM    cl3 1612   1.417   1.766   1.513
  290TCM     c1 1613   0.383   0.115   1.514
  290TCM    cl1 1614   0.400   0.016   1.366
  290TCM    cl2 1615   0.255   0.046   1.619
  290TCM     h1 1616   0.478   0.117   1.568
  290TCM    cl3 1617   0.338   0.283   1.468
  291TCM     c1 1618   3.347   1.573   2.672
  291TCM    cl1 1619   3.503   1.637   2.732
  291TCM    cl2 1620   3.285   1.449   2.787
  291TCM     h1 1621   3.274   1.654   2.664
  291TCM    cl3 1622   3.372   1.499   2.511
  292TCM     c1 1623   3.619   0.360   0.242
  292TCM    cl1 1624   3.778   0.360   0.157
  292TCM    cl2 1625   3.491   0.305   0.130
  292TCM     h1 1626   3.624   0.293   0.328
  292TCM    cl3 1627   3.582   0.526   0.297
  293TCM     c1 1628   0.515   1.331   1.629
  293TCM    cl1 1629   0.645   1.421   1.714
  293TCM    cl2 1630   0.499   1.167   1.702
  293TCM     h1 1631   0.420   1.385   1.640
  293TCM    cl3 1632   0.555   1.314   1.455
  294TCM     c1 1633   2.858   3.754   1.060
  294TCM    cl1 1634   2.721   3.687   0.966
  294TCM    cl2 1635   2.885   3.653   1.206
  294TCM     h1 1636   2.949   3.754   0.999
  294TCM    cl3 1637   2.819   3.922   1.110
  295TCM     c1 1638   1.966   2.645   4.340
  295TCM    cl1 1639   1.974   2.467   4.366
  295TCM    cl2 1640   1.949   2.678   4.164
  295TCM     h1 1641   1.881   2.686   4.393
  295TCM    cl3 1642   2.117   2.721   4.400
  296TCM     c1 1643   0.493   2.257   0.439
  296TCM    cl1 1644   0.405   2.336   0.304
  296TCM    cl2 1645   0.453   2.341   0.592
  296TCM     h1 1646   0.463   2.152   0.446
  296TCM    cl3 1647   0.670   2.267   0.409
  297TCM     c1 1648   2.537   0.296   1.699
  297TCM    cl1 1649   2.475   0.369   1.850
  297TCM    cl2 1650   2.676   0.189   1.736
  297TCM     h1 1651   2.457   0.237   1.652
  297TCM    cl3 1652   2.591   0.425   1.587
  298TCM     c1 1653   2.457   3.488   4.727
  298TCM    cl1 1654   2.393   3.343   4.642
  298TCM    cl2 1655   2.509   3.442   4.892
  298TCM     h1 1656   2.541   3.529   4.672
  298TCM    cl3 1657   2.326   3.611   4.738
  299TCM     c1 1658   0.134   3.538   4.917
  299TCM    cl1 1659   0.184   3.391   5.006
  299TCM    cl2 1660   0.107   3.498   4.744
  299TCM     h1 1661   0.041   3.577   4.960
  299TCM    cl3 1662   0.263   3.662   4.929
  300TCM     c1 1663   3.492   1.734   1.694
  300TCM    cl1 1664   3.509   1.749   1.872
  300TCM    cl2 1665   3.372   1.606   1.656
  300TCM     h1 1666   3.459   1.829   1.652
  300TCM    cl3 1667   3.650   1.688   1.622
  301TCM     c1 1668   2.098   2.672   2.675
  301TCM    cl1 1669   2.183   2.562   2.561
  301TCM    cl2 1670   2.209   2.714   2.810
  301TCM     h1 1671   2.068   2.763   2.623
  301TCM    cl3 1672   1.954   2.589   2.741
  302TCM     c1 1673   4.725   2.705   0.655
  302TCM    cl1 1674   4.772   2.830   0.535
  302TCM    cl2 1675   4.872   2.632   0.728
  302TCM     h1 1676   4.664   2.751   0.734
  302TCM    cl3 1677   4.630   2.577   0.573
  303TCM     c1 1678   0.294   4.265   1.230
  303TCM    cl1 1679   0.337   4.412   1.136
  303TCM    cl2 1680   0.174   4.309   1.356
  303TCM     h1 1681   0.251   4.190   1.163
  303TCM    cl3 1682   0.441   4.199   1.309
  304TCM     c1 1683   3.109   1.691   3.635
  304TCM    cl1 1684   3.164   1.860   3.660
  304TCM    cl2 1685   2.969   1.658   3.742
  304TCM     h1 1686   3.080   1.677   3.531
  304TCM    cl3 1687   3.243   1.578   3.675
  305TCM     c1 1688   0.965   3.883   2.050
  305TCM    cl1 1689   1.116   3.978   2.070
  305TCM    cl2 1690   0.908   3.899   1.880
  305TCM     h1 1691   0.985   3.778   2.071
  305TCM    cl3 1692   0.840   3.945   2.162
  306TCM     c1 1693   2.836   4.192   1.982
  306TCM    cl1 1694   2.863   4.367   1.957
  306TCM    cl2 1695   2.846   4.154   2.157
  306TCM     h1 1696   2.738   4.164   1.944
  306TCM    cl3 1697   2.963   4.099   1.895
  307TCM     c1 1698   1.580   2.848   2.029
  307TCM    cl1 1699   1.748   2.904   2.059
  307TCM    cl2 1700   1.515   2.771   2.178
  307TCM     h1 1701   1.517   2.933   2.002
  307TCM    cl3 1702   1.580   2.728   1.896
  308TCM     c1 1703   4.601   4.921   4.684
  308TCM    cl1 1704   4.753   4.836   4.639
  308TCM    cl2 1705   4.623   5.099   4.671
  308TCM     h1 1706   4.521   4.890   4.616
  308TCM    cl3 1707   4.557   4.880   4.853
  309TCM     c1 1708   4.100   0.087   2.377
  309TCM    cl1 1709   4.268   0.124   2.327
  309TCM    cl2 1710   4.019   0.237   2.431
  309TCM     h1 1711   4.045   0.045   2.292
  309TCM    cl3 1712   4.104  -0.032   2.511
  310TCM     c1 1713   1.172   0.115   2.897
  310TCM    cl1 1714   1.203   0.120   2.721
  310TCM    cl2 1715   1.322   0.158   2.985
  310TCM     h1 1716   1.093   0.186   2.923
  310TCM    cl3 1717   1.121  -0.050   2.944
  311TCM     c1 1718   3.554   4.967   3.607
  311TCM    cl1 1719   3.481   4.803   3.613
  311TCM    cl2 1720   3.483   5.059   3.470
  311TCM     h1 1721   3.535   5.020   3.700
  311TCM    cl3 1722   3.731   4.953   3.581
  312TCM     c1 1723   3.687   2.212   4.620
  312TCM    cl1 1724   3.799   2.089   4.687
  312TCM    cl2 1725   3.782   2.338   4.536
  312TCM     h1 1726   3.618   2.164   4.549
  312TCM    cl3 1727   3.593   2.287   4.753
  313TCM     c1 1728   4.931   4.187   2.662
  313TCM    cl1 1729   5.096   4.137   2.711
  313TCM    cl2 1730   4.825   4.043   2.652
  313TCM     h1 1731   4.891   4.256   2.737
  313TCM    cl3 1732   4.937   4.270   2.503
  314TCM     c1 1733   4.983   2.859   2.017
  314TCM    cl1 1734   5.149   2.811   2.064
  314TCM    cl2 1735   4.916   2.970   2.141
  314TCM     h1 1736   4.985   2.909   1.919
  314TCM    cl3 1737   4.880   2.712   2.008
  315TCM     c1 1738   1.118   2.257   0.811
  315TCM    cl1 1739   1.035   2.106   0.760
  315TCM    cl2 1740   1.292   2.245   0.770
  315TCM     h1 1741   1.073   2.342   0.759
  315TCM    cl3 1742   1.099   2.278   0.988
  316TCM     c1 1743   0.959   1.841   3.939
  316TCM    cl1 1744   1.052   1.986   3.990
  316TCM    cl2 1745   1.058   1.694   3.967
  316TCM     h1 1746   0.867   1.834   3.997
  316TCM    cl3 1747   0.922   1.855   3.764
  317TCM     c1 1748   3.935   3.683   1.012
  317TCM    cl1 1749   3.790   3.580   0.985
  317TCM    cl2 1750   4.052   3.595   1.116
  317TCM     h1 1751   3.982   3.706   0.916
  317TCM    cl3 1752   3.886   3.835   1.093
  318TCM     c1 1753   0.053   0.111   2.041
  318TCM    cl1 1754   0.049   0.212   2.189
  318TCM    cl2 1755   0.053   0.218   1.897
  318TCM     h1 1756   0.144   0.050   2.041
  318TCM    cl3 1757  -0.091   0.005   2.038
  319TCM     c1 1758   1.167   2.193   1.764
  319TCM    cl1 1759   1.033   2.309   1.735
  319TCM    cl2 1760   1.317   2.255   1.685
  319TCM     h1 1761   1.184   2.183   1.871
  319TCM    cl3 1762   1.125   2.034   1.693
  320TCM     c1 1763   0.805   2.243   3.880
  320TCM    cl1 1764   0.704   2.157   3.760
  320TCM    cl2 1765   0.725   2.237   4.041
  320TCM     h1 1766   0.903   2.195   3.887
  320TCM    cl3 1767   0.826   2.414   3.830
  321TCM     c1 1768   0.803   0.793   4.678
  321TCM    cl1 1769   0.637   0.760   4.618
  321TCM    cl2 1770   0.798   0.836   4.852
  321TCM     h1 1771   0.864   0.703   4.664
  321TCM    cl3 1772   0.875   0.929   4.585
  322TCM     c1 1773   3.456   3.119   0.639
  322TCM    cl1 1774   3.371   3.252   0.724
  322TCM    cl2 1775   3.557   3.029   0.756
  322TCM     h1 1776   3.382   3.051   0.594
  322TCM    cl3 1777   3.560   3.188   0.510
  323TCM     c1 1778   3.646   4.942   2.761
  323TCM    cl1 1779   3.652   4.899   2.936
  323TCM    cl2 1780   3.793   5.034   2.717
  323TCM     h1 1781   3.640   4.851   2.702
  323TCM    cl3 1782   3.500   5.042   2.730
  324TCM     c1 1783   4.735   3.152   4.846
  324TCM    cl1 1784   4.864   3.236   4.938
  324TCM    cl2 1785   4.623   3.274   4.776
  324TCM     h1 1786   4.779   3.092   4.766
  324TCM    cl3 1787   4.644   3.046   4.958
  325TCM     c1 1788   4.588   2.641   2.617
  325TCM    cl1 1789   4.607   2.798   2.701
  325TCM    cl2 1790   4.418   2.625   2.560
  325TCM     h1 1791   4.656   2.637   2.531
  325TCM    cl3 1792   4.625   2.507   2.730
  326TCM     c1 1793   2.379   4.407   3.346
  326TCM    cl1 1794   2.325   4.246   3.291
  326TCM    cl2 1795   2.400   4.406   3.524
  326TCM     h1 1796   2.474   4.432   3.298
  326TCM    cl3 1797   2.256   4.531   3.300
  327TCM     c1 1798   3.198   2.194   0.918
  327TCM    cl1 1799   3.096   2.062   0.853
  327TCM    cl2 1800   3.293   2.133   1.059
  327TCM     h1 1801   3.266   2.229   0.841
  327TCM    cl3 1802   3.093   2.329   0.972
  328TCM     c1 1803   2.494   2.080   2.412
  328TCM    cl1 1804   2.553   1.920   2.467
  328TCM    cl2 1805   2.410   2.163   2.548
  328TCM     h1 1806   2.578   2.141   2.379
  328TCM    cl3 1807   2.378   2.057   2.277
  329TCM     c1 1808   2.979   2.877   3.202
  329TCM    cl1 1809   3.090   2.935   3.073
  329TCM    cl2 1810   2.811   2.926   3.162
  329TCM     h1 1811   2.985   2.769   3.209
  329TCM    cl3 1812   3.027   2.951   3.358
  330TCM     c1 1813   0.148   1.795   1.517
  330TCM    cl1 1814   0.200   1.636   1.582
  330TCM    cl2 1815   0.123   1.783   1.340
  330TCM     h1 1816   0.054   1.826   1.565
  330TCM    cl3 1817   0.275   1.917   1.549
  331TCM     c1 1818   1.621   1.395   3.460
  331TCM    cl1 1819   1.621   1.220   3.499
  331TCM    cl2 1820   1.698   1.422   3.300
  331TCM     h1 1821   1.517   1.432   3.457
  331TCM    cl3 1822   1.711   1.485   3.587
  332TCM     c1 1823   3.220   4.373   2.021
  332TCM    cl1 1824   3.380   4.379   1.940
  332TCM    cl2 1825   3.193   4.529   2.106
  332TCM     h1 1826   3.142   4.358   1.947
  332TCM    cl3 1827   3.218   4.239   2.140
  333TCM     c1 1828   1.852   3.615   0.367
  333TCM    cl1 1829   1.763   3.573   0.517
  333TCM    cl2 1830   1.804   3.501   0.236
  333TCM     h1 1831   1.827   3.717   0.337
  333TCM    cl3 1832   2.028   3.603   0.397
  334TCM     c1 1833   4.538   2.086   2.755
  334TCM    cl1 1834   4.715   2.072   2.777
  334TCM    cl2 1835   4.455   2.050   2.910
  334TCM     h1 1836   4.513   2.188   2.723
  334TCM    cl3 1837   4.483   1.969   2.630
  335TCM     c1 1838   2.440   3.867   1.114
  335TCM    cl1 1839   2.517   3.817   1.267
  335TCM    cl2 1840   2.446   4.046   1.102
  335TCM     h1 1841   2.493   3.823   1.029
  335TCM    cl3 1842   2.269   3.811   1.113
  336TCM     c1 1843   1.051   0.014   4.486
  336TCM    cl1 1844   1.064  -0.162   4.519
  336TCM    cl2 1845   1.096   0.045   4.315
  336TCM     h1 1846   0.948   0.047   4.503
  336TCM    cl3 1847   1.163   0.103   4.594
  337TCM     c1 1848   3.500   3.103   3.399
  337TCM    cl1 1849   3.591   3.224   3.304
  337TCM    cl2 1850   3.429   2.980   3.289
  337TCM     h1 1851   3.567   3.053   3.470
  337TCM    cl3 1852   3.368   3.185   3.489
  338TCM     c1 1853   3.510   3.951   0.941
  338TCM    cl1 1854   3.631   3.884   0.826
  338TCM    cl2 1855   3.395   4.056   0.852
  338TCM     h1 1856   3.457   3.869   0.989
  338TCM    cl3 1857   3.594   4.049   1.066
  339TCM     c1 1858   2.612   1.408   3.590
  339TCM    cl1 1859   2.435   1.413   3.618
  339TCM    cl2 1860   2.695   1.405   3.749
  339TCM     h1 1861   2.638   1.319   3.533
  339TCM    cl3 1862   2.662   1.554   3.499
  340TCM     c1 1863   1.945   3.417   4.468
  340TCM    cl1 1864   1.817   3.345   4.572
  340TCM    cl2 1865   2.073   3.296   4.439
  340TCM     h1 1866   1.901   3.448   4.373
  340TCM    cl3 1867   2.016   3.560   4.550
  341TCM     c1 1868   4.304   3.747   3.166
  341TCM    cl1 1869   4.312   3.909   3.090
  341TCM    cl2 1870   4.451   3.653   3.121
  341TCM     h1 1871   4.299   3.757   3.275
  341TCM    cl3 1872   4.158   3.662   3.106
  342TCM     c1 1873   3.074   1.816   4.580
  342TCM    cl1 1874   3.122   1.905   4.729
  342TCM    cl2 1875   3.213   1.719   4.522
  342TCM     h1 1876   2.990   1.750   4.602
  342TCM    cl3 1877   3.027   1.934   4.453
  343TCM     c1 1878   0.751   0.762   4.216
  343TCM    cl1 1879   0.585   0.720   4.271
  343TCM    cl2 1880   0.767   0.718   4.043
  343TCM     h1 1881   0.768   0.869   4.229
  343TCM    cl3 1882   0.873   0.671   4.313
  344TCM     c1 1883   3.352   0.907   1.910
  344TCM    cl1 1884   3.419   1.069   1.946
  344TCM    cl2 1885   3.228   0.921   1.781
  344TCM     h1 1886   3.432   0.840   1.877
  344TCM    cl3 1887   3.274   0.842   2.058
  345TCM     c1 1888   2.806   4.415   2.447
  345TCM    cl1 1889   2.779   4.244   2.497
  345TCM    cl2 1890   2.688   4.459   2.319
  345TCM     h1 1891   2.793   4.481   2.533
  345TCM    cl3 1892   2.972   4.431   2.383
  346TCM     c1 1893   0.953   1.154   1.771
  346TCM    cl1 1894   0.998   1.322   1.728
  346TCM    cl2 1895   0.868   1.075   1.634
  346TCM     h1 1896   1.043   1.097   1.795
  346TCM    cl3 1897   0.844   1.158   1.913
  347TCM     c1 1898   2.398   4.390   2.876
  347TCM    cl1 1899   2.495   4.329   2.739
  347TCM    cl2 1900   2.507   4.429   3.014
  347TCM     h1 1901   2.344   4.481   2.846
  347TCM    cl3 1902   2.280   4.265   2.927
  348TCM     c1 1903   4.170   1.828   4.593
  348TCM    cl1 1904   4.249   1.698   4.498
  348TCM    cl2 1905   4.082   1.755   4.731
  348TCM     h1 1906   4.246   1.898   4.630
  348TCM    cl3 1907   4.053   1.915   4.488
  349TCM     c1 1908   0.293   0.725   4.998
  349TCM    cl1 1909   0.196   0.875   4.976
  349TCM    cl2 1910   0.297   0.682   5.172
  349TCM     h1 1911   0.247   0.644   4.940
  349TCM    cl3 1912   0.460   0.754   4.940
  350TCM     c1 1913   3.734   3.878   0.051
  350TCM    cl1 1914   3.772   3.929  -0.117
  350TCM    cl2 1915   3.745   4.020   0.160
  350TCM     h1 1916   3.633   3.837   0.055
  350TCM    cl3 1917   3.852   3.753   0.103
  351TCM     c1 1918   2.032   2.195   2.351
  351TCM    cl1 1919   2.070   2.351   2.270
  351TCM    cl2 1920   1.868   2.141   2.303
  351TCM     h1 1921   2.106   2.120   2.322
  351TCM    cl3 1922   2.037   2.220   2.528
  352TCM     c1 1923   1.992   4.145   1.387
  352TCM    cl1 1924   1.992   4.164   1.566
  352TCM    cl2 1925   2.161   4.126   1.331
  352TCM     h1 1926   1.934   4.057   1.360
  352TCM    cl3 1927   1.919   4.291   1.312
  353TCM     c1 1928   4.059   3.833   1.418
  353TCM    cl1 1929   4.186   3.891   1.305
  353TCM    cl2 1930   4.023   3.963   1.537
  353TCM     h1 1931   3.968   3.809   1.361
  353TCM    cl3 1932   4.117   3.687   1.504
  354TCM     c1 1933   2.640   4.496   0.584
  354TCM    cl1 1934   2.769   4.601   0.518
  354TCM    cl2 1935   2.655   4.332   0.512
  354TCM     h1 1936   2.650   4.490   0.693
  354TCM    cl3 1937   2.479   4.565   0.542
  355TCM     c1 1938   3.175   2.255   4.540
  355TCM    cl1 1939   3.147   2.313   4.707
  355TCM    cl2 1940   3.322   2.152   4.539
  355TCM     h1 1941   3.089   2.197   4.506
  355TCM    cl3 1942   3.199   2.397   4.432
  356TCM     c1 1943   1.654   3.297   2.214
  356TCM    cl1 1944   1.588   3.463   2.229
  356TCM    cl2 1945   1.771   3.293   2.078
  356TCM     h1 1946   1.705   3.269   2.307
  356TCM    cl3 1947   1.520   3.183   2.181
  357TCM     c1 1948   0.602   4.298   4.639
  357TCM    cl1 1949   0.778   4.311   4.674
  357TCM    cl2 1950   0.523   4.207   4.771
  357TCM     h1 1951   0.559   4.398   4.633
  357TCM    cl3 1952   0.579   4.212   4.484
  358TCM     c1 1953   0.185   2.251   1.418
  358TCM    cl1 1954   0.096   2.211   1.268
  358TCM    cl2 1955   0.082   2.216   1.561
  358TCM     h1 1956   0.276   2.191   1.423
  358TCM    cl3 1957   0.228   2.425   1.417
  359TCM     c1 1958   4.518   0.911   3.928
  359TCM    cl1 1959   4.569   1.051   4.029
  359TCM    cl2 1960   4.634   0.892   3.792
  359TCM     h1 1961   4.517   0.821   3.989
  359TCM    cl3 1962   4.355   0.942   3.861
  360TCM     c1 1963   3.893   0.879   4.980
  360TCM    cl1 1964   4.066   0.867   5.026
  360TCM    cl2 1965   3.826   1.034   5.043
  360TCM     h1 1966   3.883   0.877   4.871
  360TCM    cl3 1967   3.803   0.742   5.052
  361TCM     c1 1968   2.125   1.750   3.557
  361TCM    cl1 1969   2.078   1.583   3.602
  361TCM    cl2 1970   2.025   1.805   3.419
  361TCM     h1 1971   2.111   1.817   3.643
  361TCM    cl3 1972   2.298   1.750   3.509
  362TCM     c1 1973   0.227   1.561   2.021
  362TCM    cl1 1974   0.360   1.532   1.905
  362TCM    cl2 1975   0.073   1.584   1.932
  362TCM     h1 1976   0.217   1.475   2.089
  362TCM    cl3 1977   0.262   1.709   2.116
  363TCM     c1 1978   1.370   0.497   3.132
  363TCM    cl1 1979   1.401   0.670   3.096
  363TCM    cl2 1980   1.197   0.459   3.099
  363TCM     h1 1981   1.434   0.434   3.071
  363TCM    cl3 1982   1.406   0.470   3.305
  364TCM     c1 1983   1.945   4.049   0.966
  364TCM    cl1 1984   2.114   4.110   0.976
  364TCM    cl2 1985   1.831   4.187   0.977
  364TCM     h1 1986   1.931   3.997   0.871
  364TCM    cl3 1987   1.916   3.936   1.102
  365TCM     c1 1988   3.432   1.865   4.108
  365TCM    cl1 1989   3.315   1.787   3.997
  365TCM    cl2 1990   3.342   1.953   4.236
  365TCM     h1 1991   3.496   1.789   4.153
  365TCM    cl3 1992   3.532   1.982   4.016
  366TCM     c1 1993   2.107   3.633   4.101
  366TCM    cl1 1994   2.051   3.757   4.217
  366TCM    cl2 1995   2.090   3.696   3.934
  366TCM     h1 1996   2.212   3.608   4.120
  366TCM    cl3 1997   2.006   3.485   4.119
  367TCM     c1 1998   3.033   0.648   4.524
  367TCM    cl1 1999   3.206   0.622   4.481
  367TCM    cl2 2000   2.998   0.824   4.523
  367TCM     h1 2001   2.969   0.597   4.453
  367TCM    cl3 2002   3.005   0.583   4.689
  368TCM     c1 2003   2.973   2.564   2.247
  368TCM    cl1 2004   3.009   2.597   2.075
  368TCM    cl2 2005   3.118   2.599   2.346
  368TCM     h1 2006   2.890   2.628   2.280
  368TCM    cl3 2007   2.928   2.392   2.268
  369TCM     c1 2008   4.883   4.184   0.625
  369TCM    cl1 2009   4.958   4.237   0.471
  369TCM    cl2 2010   4.894   4.316   0.746
  369TCM     h1 2011   4.778   4.159   0.608
  369TCM    cl3 2012   4.970   4.039   0.687
  370TCM     c1 2013   1.716   3.024   4.368
  370TCM    cl1 2014   1.862   2.983   4.463
  370TCM    cl2 2015   1.580   3.059   4.481
  370TCM     h1 2016   1.735   3.111   4.306
  370TCM    cl3 2017   1.673   2.884   4.265
  371TCM     c1 2018   2.748   4.059   4.231
  371TCM    cl1 2019   2.599   4.043   4.331
  371TCM    cl2 2020   2.705   4.049   4.058
  371TCM     h1 2021   2.796   4.155   4.252
  371TCM    cl3 2022   2.861   3.926   4.272
  372TCM     c1 2023   4.463   0.048   2.643
  372TCM    cl1 2024   4.540   0.175   2.743
  372TCM    cl2 2025   4.424  -0.094   2.746
  372TCM     h1 2026   4.372   0.087   2.597
  372TCM    cl3 2027   4.578  -0.003   2.514
  373TCM     c1 2028   1.950   3.687   1.824
  373TCM    cl1 2029   2.056   3.789   1.926
  373TCM    cl2 2030   1.812   3.630   1.923
  373TCM     h1 2031   1.912   3.746   1.739
  373TCM    cl3 2032   2.042   3.546   1.764
  374TCM     c1 2033   3.412   0.545   1.046
  374TCM    cl1 2034   3.576   0.542   1.119
  374TCM    cl2 2035   3.345   0.379   1.045
  374TCM     h1 2036   3.348   0.610   1.105
  374TCM    cl3 2037   3.422   0.605   0.877
  375TCM     c1 2038   0.182   3.807   3.164
  375TCM    cl1 2039   0.026   3.766   3.242
  375TCM    cl2 2040   0.155   3.938   3.044
  375TCM     h1 2041   0.254   3.841   3.239
  375TCM    cl3 2042   0.246   3.662   3.081
  376TCM     c1 2043   2.932   2.608   4.701
  376TCM    cl1 2044   2.796   2.491   4.696
  376TCM    cl2 2045   3.008   2.605   4.863
  376TCM     h1 2046   3.006   2.581   4.625
  376TCM    cl3 2047   2.870   2.773   4.667
  377TCM     c1 2048   1.975   0.279   0.292
  377TCM    cl1 2049   1.958   0.273   0.113
  377TCM    cl2 2050   1.843   0.184   0.368
  377TCM     h1 2051   2.072   0.237   0.321
  377TCM    cl3 2052   1.964   0.449   0.346
  378TCM     c1 2053   2.919   0.274   2.115
  378TCM    cl1 2054   2.976   0.142   2.223
  378TCM    cl2 2055   2.970   0.431   2.185
  378TCM     h1 2056   2.961   0.262   2.015
  378TCM    cl3 2057   2.740   0.269   2.105
  379TCM     c1 2058   1.564   3.507   4.323
  379TCM    cl1 2059   1.683   3.635   4.363
  379TCM    cl2 2060   1.647   3.373   4.239
  379TCM     h1 2061   1.517   3.470   4.414
  379TCM    cl3 2062   1.438   3.577   4.215
  380TCM     c1 2063   0.758   2.786   0.514
  380TCM    cl1 2064   0.892   2.818   0.399
  380TCM    cl2 2065   0.779   2.889   0.659
  380TCM     h1 2066   0.662   2.808   0.466
  380TCM    cl3 2067   0.761   2.613   0.563
  381TCM     c1 2068   2.849   0.166   3.099
  381TCM    cl1 2069   2.821   0.241   3.260
  381TCM    cl2 2070   2.907  -0.003   3.121
  381TCM     h1 2071   2.756   0.165   3.042
  381TCM    cl3 2072   2.973   0.260   3.010
  382TCM     c1 2073   2.217   3.065   0.807
  382TCM    cl1 2074   2.260   2.992   0.965
  382TCM    cl2 2075   2.040   3.047   0.779
  382TCM     h1 2076   2.243   3.171   0.808
  382TCM    cl3 2077   2.306   2.982   0.676
  383TCM     c1 2078   3.135   0.102   3.919
  383TCM    cl1 2079   3.253   0.091   3.784
  383TCM    cl2 2080   2.984   0.016   3.877
  383TCM     h1 2081   3.179   0.058   4.009
  383TCM    cl3 2082   3.097   0.275   3.950
  384TCM     c1 2083   2.855   3.366   0.013
  384TCM    cl1 2084   2.889   3.339  -0.161
  384TCM    cl2 2085   2.928   3.523   0.063
  384TCM     h1 2086   2.747   3.369   0.030
  384TCM    cl3 2087   2.929   3.235   0.110
  385TCM     c1 2088   0.323   0.251   4.222
  385TCM    cl1 2089   0.303   0.181   4.386
  385TCM    cl2 2090   0.319   0.430   4.235
  385TCM     h1 2091   0.418   0.219   4.178
  385TCM    cl3 2092   0.187   0.198   4.118
  386TCM     c1 2093   2.735   2.558   3.414
  386TCM    cl1 2094   2.742   2.723   3.484
  386TCM    cl2 2095   2.829   2.445   3.517
  386TCM     h1 2096   2.631   2.524   3.408
  386TCM    cl3 2097   2.807   2.561   3.250
  387TCM     c1 2098   0.569   1.210   4.903
  387TCM    cl1 2099   0.500   1.369   4.858
  387TCM    cl2 2100   0.581   1.107   4.757
  387TCM     h1 2101   0.668   1.223   4.947
  387TCM    cl3 2102   0.461   1.132   5.024
  388TCM     c1 2103   4.748   2.781   1.515
  388TCM    cl1 2104   4.791   2.952   1.478
  388TCM    cl2 2105   4.605   2.733   1.418
  388TCM     h1 2106   4.832   2.716   1.491
  388TCM    cl3 2107   4.708   2.767   1.690
  389TCM     c1 2108   3.067   3.236   0.467
  389TCM    cl1 2109   3.044   3.381   0.570
  389TCM    cl2 2110   3.078   3.090   0.572
  389TCM     h1 2111   2.983   3.225   0.399
  389TCM    cl3 2112   3.219   3.253   0.374
  390TCM     c1 2113   2.647   4.682   1.352
  390TCM    cl1 2114   2.576   4.575   1.478
  390TCM    cl2 2115   2.758   4.799   1.430
  390TCM     h1 2116   2.703   4.621   1.280
  390TCM    cl3 2117   2.515   4.769   1.267
  391TCM     c1 2118   2.695   3.879   4.745
  391TCM    cl1 2119   2.820   3.904   4.620
  391TCM    cl2 2120   2.716   3.716   4.817
  391TCM     h1 2121   2.705   3.955   4.823
  391TCM    cl3 2122   2.533   3.891   4.670
  392TCM     c1 2123   3.999   3.890   2.858
  392TCM    cl1 2124   4.077   4.050   2.838
  392TCM    cl2 2125   4.085   3.771   2.754
  392TCM     h1 2126   4.005   3.858   2.962
  392TCM    cl3 2127   3.828   3.901   2.807
  393TCM     c1 2128   2.398   1.669   2.254
  393TCM    cl1 2129   2.394   1.492   2.285
  393TCM    cl2 2130   2.246   1.717   2.170
  393TCM     h1 2131   2.406   1.722   2.349
  393TCM    cl3 2132   2.538   1.708   2.150
  394TCM     c1 2133   4.917   2.384   0.460
  394TCM    cl1 2134   4.831   2.260   0.363
  394TCM    cl2 2135   4.931   2.535   0.364
  394TCM     h1 2136   4.861   2.403   0.552
  394TCM    cl3 2137   5.081   2.325   0.501
  395TCM     c1 2138   4.339   0.581   2.871
  395TCM    cl1 2139   4.320   0.720   2.759
  395TCM    cl2 2140   4.183   0.549   2.952
  395TCM     h1 2141   4.371   0.493   2.815
  395TCM    cl3 2142   4.463   0.622   2.995
  396TCM     c1 2143   4.940   2.337   0.021
  396TCM    cl1 2144   5.096   2.345   0.109
  396TCM    cl2 2145   4.962   2.243  -0.131
  396TCM     h1 2146   4.865   2.289   0.084
  396TCM    cl3 2147   4.888   2.503  -0.020
  397TCM     c1 2148   3.393   1.076   1.021
  397TCM    cl1 2149   3.243   1.131   1.102
  397TCM    cl2 2150   3.429   0.907   1.070
  397TCM     h1 2151   3.380   1.081   0.913
  397TCM    cl3 2152   3.529   1.183   1.070
  398TCM     c1 2153   2.784   4.297   4.659
  398TCM    cl1 2154   2.612   4.246   4.646
  398TCM    cl2 2155   2.866   4.263   4.503
  398TCM     h1 2156   2.789   4.403   4.681
  398TCM    cl3 2157   2.864   4.204   4.790
  399TCM     c1 2158   1.468   0.198   0.441
  399TCM    cl1 2159   1.330   0.245   0.335
  399TCM    cl2 2160   1.499   0.023   0.422
  399TCM     h1 2161   1.557   0.255   0.412
  399TCM    cl3 2162   1.427   0.234   0.612
  400TCM     c1 2163   1.380   3.111   4.026
  400TCM    cl1 2164   1.553   3.073   3.993
  400TCM    cl2 2165   1.355   3.288   4.011
  400TCM     h1 2166   1.317   3.059   3.954
  400TCM    cl3 2167   1.339   3.058   4.192
  401TCM     c1 2168   1.391   2.334   2.163
  401TCM    cl1 2169   1.347   2.432   2.307
  401TCM    cl2 2170   1.370   2.434   2.016
  401TCM     h1 2171   1.495   2.302   2.172
  401TCM    cl3 2172   1.284   2.190   2.152
  402TCM     c1 2173   1.465   1.190   0.298
  402TCM    cl1 2174   1.514   1.362   0.288
  402TCM    cl2 2175   1.593   1.095   0.381
  402TCM     h1 2176   1.371   1.181   0.354
  402TCM    cl3 2177   1.442   1.128   0.131
  403TCM     c1 2178   0.337   0.235   3.091
  403TCM    cl1 2179   0.182   0.322   3.108
  403TCM    cl2 2180   0.345   0.156   2.930
  403TCM     h1 2181   0.420   0.305   3.100
  403TCM    cl3 2182   0.350   0.109   3.217
  404TCM     c1 2183   2.475   3.705   0.220
  404TCM    cl1 2184   2.387   3.553   0.252
  404TCM    cl2 2185   2.431   3.768   0.057
  404TCM     h1 2186   2.449   3.779   0.296
  404TCM    cl3 2187   2.651   3.673   0.226
  405TCM     c1 2188   0.134   1.895   0.592
  405TCM    cl1 2189   0.283   1.994   0.597
  405TCM    cl2 2190  -0.006   1.995   0.642
  405TCM     h1 2191   0.118   1.857   0.491
  405TCM    cl3 2192   0.151   1.756   0.705
  406TCM     c1 2193   3.265   4.646   3.848
  406TCM    cl1 2194   3.092   4.608   3.881
  406TCM    cl2 2195   3.364   4.499   3.878
  406TCM     h1 2196   3.276   4.677   3.744
  406TCM    cl3 2197   3.319   4.777   3.958
  407TCM     c1 2198   0.339   3.159   3.396
  407TCM    cl1 2199   0.409   3.033   3.502
  407TCM    cl2 2200   0.257   3.081   3.257
  407TCM     h1 2201   0.267   3.219   3.453
  407TCM    cl3 2202   0.471   3.265   3.336
  408TCM     c1 2203   2.930   0.567   1.786
  408TCM    cl1 2204   2.780   0.570   1.884
  408TCM    cl2 2205   2.950   0.404   1.713
  408TCM     h1 2206   2.924   0.643   1.707
  408TCM    cl3 2207   3.071   0.602   1.891
  409TCM     c1 2208   4.895   0.039   4.246
  409TCM    cl1 2209   4.737   0.067   4.326
  409TCM    cl2 2210   4.868  -0.037   4.086
  409TCM     h1 2211   4.947   0.135   4.233
  409TCM    cl3 2212   4.997  -0.070   4.346
  410TCM     c1 2213   3.887   0.889   1.798
  410TCM    cl1 2214   3.879   0.722   1.862
  410TCM    cl2 2215   3.998   0.987   1.899
  410TCM     h1 2216   3.922   0.888   1.695
  410TCM    cl3 2217   3.723   0.963   1.804
  411TCM     c1 2218   2.405   4.823   1.970
  411TCM    cl1 2219   2.293   4.757   1.845
  411TCM    cl2 2220   2.333   4.798   2.132
  411TCM     h1 2221   2.501   4.772   1.964
  411TCM    cl3 2222   2.428   4.999   1.943
  412TCM     c1 2223   2.168   2.620   0.675
  412TCM    cl1 2224   2.209   2.458   0.611
  412TCM    cl2 2225   2.246   2.641   0.835
  412TCM     h1 2226   2.205   2.697   0.606
  412TCM    cl3 2227   1.990   2.635   0.692
  413TCM     c1 2228   2.161   4.513   0.219
  413TCM    cl1 2229   2.135   4.447   0.384
  413TCM    cl2 2230   2.200   4.687   0.229
  413TCM     h1 2231   2.243   4.459   0.171
  413TCM    cl3 2232   2.011   4.490   0.123
  414TCM     c1 2233   3.643   0.960   2.255
  414TCM    cl1 2234   3.506   0.869   2.326
  414TCM    cl2 2235   3.756   0.844   2.177
  414TCM     h1 2236   3.606   1.030   2.180
  414TCM    cl3 2237   3.729   1.048   2.385
  415TCM     c1 2238   3.397   4.095   0.430
  415TCM    cl1 2239   3.399   4.102   0.251
  415TCM    cl2 2240   3.526   3.983   0.485
  415TCM     h1 2241   3.415   4.195   0.471
  415TCM    cl3 2242   3.238   4.034   0.487
  416TCM     c1 2243   1.472   4.385   1.563
  416TCM    cl1 2244   1.645   4.357   1.603
  416TCM    cl2 2245   1.387   4.454   1.705
  416TCM     h1 2246   1.465   4.454   1.479
  416TCM    cl3 2247   1.396   4.228   1.518
  417TCM     c1 2248   4.998   2.592   2.955
  417TCM    cl1 2249   4.852   2.527   3.036
  417TCM    cl2 2250   5.079   2.710   3.064
  417TCM     h1 2251   5.067   2.510   2.931
  417TCM    cl3 2252   4.949   2.675   2.803
  418TCM     c1 2253   1.583   1.341   2.051
  418TCM    cl1 2254   1.582   1.494   2.144
  418TCM    cl2 2255   1.438   1.336   1.944
  418TCM     h1 2256   1.673   1.336   1.990
  418TCM    cl3 2257   1.577   1.203   2.165
  419TCM     c1 2258   1.045   4.368   0.147
  419TCM    cl1 2259   1.033   4.319  -0.025
  419TCM    cl2 2260   0.941   4.261   0.247
  419TCM     h1 2261   1.149   4.359   0.181
  419TCM    cl3 2262   0.991   4.538   0.164
  420TCM     c1 2263   3.102   2.738   0.700
  420TCM    cl1 2264   3.271   2.791   0.671
  420TCM    cl2 2265   3.056   2.775   0.869
  420TCM     h1 2266   3.035   2.789   0.631
  420TCM    cl3 2267   3.092   2.561   0.674
  421TCM     c1 2268   0.637   1.851   2.300
  421TCM    cl1 2269   0.527   1.744   2.393
  421TCM    cl2 2270   0.739   1.946   2.414
  421TCM     h1 2271   0.701   1.791   2.235
  421TCM    cl3 2272   0.541   1.964   2.201
  422TCM     c1 2273   2.570   0.555   4.554
  422TCM    cl1 2274   2.446   0.571   4.426
  422TCM    cl2 2275   2.634   0.718   4.596
  422TCM     h1 2276   2.526   0.510   4.643
  422TCM    cl3 2277   2.705   0.453   4.495
  423TCM     c1 2278   0.480   4.304   4.014
  423TCM    cl1 2279   0.590   4.305   3.872
  423TCM    cl2 2280   0.323   4.377   3.968
  423TCM     h1 2281   0.464   4.201   4.048
  423TCM    cl3 2282   0.552   4.400   4.147
  424TCM     c1 2283   4.944   4.001   1.145
  424TCM    cl1 2284   4.962   4.165   1.074
  424TCM    cl2 2285   5.089   3.964   1.245
  424TCM     h1 2286   4.855   3.999   1.208
  424TCM    cl3 2287   4.930   3.879   1.015
  425TCM     c1 2288   2.510   2.371   0.153
  425TCM    cl1 2289   2.357   2.423   0.231
  425TCM    cl2 2290   2.485   2.362  -0.025
  425TCM     h1 2291   2.589   2.442   0.175
  425TCM    cl3 2292   2.557   2.209   0.215
  426TCM     c1 2293   4.975   4.811   3.407
  426TCM    cl1 2294   4.881   4.896   3.280
  426TCM    cl2 2295   5.137   4.886   3.422
  426TCM     h1 2296   4.922   4.820   3.503
  426TCM    cl3 2297   4.992   4.638   3.365
  427TCM     c1 2298   3.320   2.306   2.093
  427TCM    cl1 2299   3.355   2.478   2.054
  427TCM    cl2 2300   3.166   2.256   2.016
  427TCM     h1 2301   3.401   2.243   2.057
  427TCM    cl3 2302   3.305   2.288   2.271
  428TCM     c1 2303   4.131   1.233   4.749
  428TCM    cl1 2304   4.012   1.102   4.715
  428TCM    cl2 2305   4.126   1.273   4.923
  428TCM     h1 2306   4.231   1.199   4.722
  428TCM    cl3 2307   4.088   1.379   4.653
  429TCM     c1 2308   0.938   1.941   4.400
  429TCM    cl1 2309   0.881   1.847   4.542
  429TCM    cl2 2310   0.815   1.931   4.269
  429TCM     h1 2311   0.953   2.046   4.429
  429TCM    cl3 2312   1.093   1.872   4.343
  430TCM     c1 2313   0.426   0.348   1.994
  430TCM    cl1 2314   0.425   0.384   1.819
  430TCM    cl2 2315   0.396   0.173   2.018
  430TCM     h1 2316   0.523   0.374   2.037
  430TCM    cl3 2317   0.297   0.443   2.075
  431TCM     c1 2318   3.612   0.349   0.710
  431TCM    cl1 2319   3.454   0.328   0.627
  431TCM    cl2 2320   3.744   0.339   0.589
  431TCM     h1 2321   3.615   0.446   0.760
  431TCM    cl3 2322   3.633   0.219   0.832
  432TCM     c1 2323   3.074   2.148   3.379
  432TCM    cl1 2324   3.249   2.127   3.411
  432TCM    cl2 2325   3.003   1.991   3.330
  432TCM     h1 2326   3.024   2.184   3.470
  432TCM    cl3 2327   3.052   2.268   3.247
  433TCM     c1 2328   3.943   3.100   3.306
  433TCM    cl1 2329   3.845   2.956   3.351
  433TCM    cl2 2330   4.108   3.048   3.259
  433TCM     h1 2331   3.895   3.151   3.223
  433TCM    cl3 2332   3.952   3.210   3.447
  434TCM     c1 2333   3.084   4.506   1.616
  434TCM    cl1 2334   2.905   4.521   1.610
  434TCM    cl2 2335   3.129   4.337   1.654
  434TCM     h1 2336   3.126   4.535   1.519
  434TCM    cl3 2337   3.146   4.616   1.743
  435TCM     c1 2338   0.631   1.168   3.980
  435TCM    cl1 2339   0.571   1.036   3.873
  435TCM    cl2 2340   0.670   1.099   4.141
  435TCM     h1 2341   0.720   1.213   3.936
  435TCM    cl3 2342   0.502   1.292   3.998
  436TCM     c1 2343   0.516   1.774   1.311
  436TCM    cl1 2344   0.674   1.841   1.257
  436TCM    cl2 2345   0.537   1.691   1.468
  436TCM     h1 2346   0.444   1.856   1.322
  436TCM    cl3 2347   0.455   1.657   1.189
  437TCM     c1 2348   0.977   3.511   4.821
  437TCM    cl1 2349   1.036   3.676   4.859
  437TCM    cl2 2350   1.061   3.451   4.674
  437TCM     h1 2351   0.997   3.443   4.905
  437TCM    cl3 2352   0.800   3.516   4.789
  438TCM     c1 2353   3.438   1.074   1.421
  438TCM    cl1 2354   3.592   0.993   1.377
  438TCM    cl2 2355   3.453   1.145   1.585
  438TCM     h1 2356   3.416   1.153   1.349
  438TCM    cl3 2357   3.306   0.953   1.420
  439TCM     c1 2358   3.525   1.803   4.698
  439TCM    cl1 2359   3.676   1.731   4.763
  439TCM    cl2 2360   3.553   1.859   4.530
  439TCM     h1 2361   3.445   1.729   4.700
  439TCM    cl3 2362   3.478   1.943   4.800
  440TCM     c1 2363   0.605   3.895   4.074
  440TCM    cl1 2364   0.494   3.853   4.208
  440TCM    cl2 2365   0.705   4.035   4.123
  440TCM     h1 2366   0.669   3.810   4.051
  440TCM    cl3 2367   0.509   3.940   3.929
  441TCM     c1 2368   3.431   3.325   0.042
  441TCM    cl1 2369   3.283   3.426   0.043
  441TCM    cl2 2370   3.387   3.152   0.057
  441TCM     h1 2371   3.485   3.340  -0.052
  441TCM    cl3 2372   3.538   3.372   0.178
  442TCM     c1 2373   0.944   2.250   1.317
  442TCM    cl1 2374   0.823   2.382   1.302
  442TCM    cl2 2375   0.887   2.129   1.437
  442TCM     h1 2376   0.956   2.201   1.220
  442TCM    cl3 2377   1.101   2.318   1.370
  443TCM     c1 2378   4.226   0.085   4.984
  443TCM    cl1 2379   4.333   0.219   5.035
  443TCM    cl2 2380   4.238   0.061   4.807
  443TCM     h1 2381   4.257  -0.007   5.035
  443TCM    cl3 2382   4.056   0.123   5.029
  444TCM     c1 2383   4.372   0.806   4.812
  444TCM    cl1 2384   4.526   0.765   4.728
  444TCM    cl2 2385   4.234   0.766   4.705
  444TCM     h1 2386   4.365   0.749   4.905
  444TCM    cl3 2387   4.371   0.981   4.849
  445TCM     c1 2388   3.007   0.781   3.220
  445TCM    cl1 2389   3.004   0.602   3.212
  445TCM    cl2 2390   3.151   0.840   3.131
  445TCM     h1 2391   2.916   0.822   3.174
  445TCM    cl3 2392   3.017   0.834   3.391
  446TCM     c1 2393   4.608   1.298   4.518
  446TCM    cl1 2394   4.647   1.240   4.353
  446TCM    cl2 2395   4.614   1.160   4.632
  446TCM     h1 2396   4.681   1.374   4.548
  446TCM    cl3 2397   4.444   1.370   4.520
  447TCM     c1 2398   4.846   1.942   3.249
  447TCM    cl1 2399   5.022   1.927   3.282
  447TCM    cl2 2400   4.756   1.879   3.391
  447TCM     h1 2401   4.820   2.047   3.233
  447TCM    cl3 2402   4.805   1.845   3.104
  448TCM     c1 2403   3.242   0.677   3.748
  448TCM    cl1 2404   3.336   0.547   3.829
  448TCM    cl2 2405   3.079   0.614   3.705
  448TCM     h1 2406   3.231   0.762   3.816
  448TCM    cl3 2407   3.326   0.730   3.599
  449TCM     c1 2408   3.627   3.707   1.376
  449TCM    cl1 2409   3.770   3.601   1.358
  449TCM    cl2 2410   3.532   3.707   1.224
  449TCM     h1 2411   3.565   3.670   1.458
  449TCM    cl3 2412   3.681   3.874   1.412
  450TCM     c1 2413   0.723   0.271   1.199
  450TCM    cl1 2414   0.694   0.259   1.376
  450TCM    cl2 2415   0.874   0.183   1.157
  450TCM     h1 2416   0.638   0.226   1.146
  450TCM    cl3 2417   0.740   0.443   1.152
  451TCM     c1 2418   2.188   3.957   3.496
  451TCM    cl1 2419   2.155   4.105   3.593
  451TCM    cl2 2420   2.127   3.814   3.585
  451TCM     h1 2421   2.137   3.965   3.399
  451TCM    cl3 2422   2.364   3.941   3.469
  452TCM     c1 2423   4.506   4.041   1.028
  452TCM    cl1 2424   4.369   3.938   0.976
  452TCM    cl2 2425   4.629   4.048   0.898
  452TCM     h1 2426   4.470   4.142   1.049
  452TCM    cl3 2427   4.579   3.972   1.176
  453TCM     c1 2428   3.216   4.249   4.424
  453TCM    cl1 2429   3.206   4.339   4.578
  453TCM    cl2 2430   3.234   4.074   4.458
  453TCM     h1 2431   3.125   4.265   4.365
  453TCM    cl3 2432   3.358   4.307   4.331
  454TCM     c1 2433   2.048   2.158   4.824
  454TCM    cl1 2434   2.167   2.166   4.958
  454TCM    cl2 2435   2.067   2.301   4.718
  454TCM     h1 2436   2.064   2.066   4.766
  454TCM    cl3 2437   1.882   2.156   4.892
  455TCM     c1 2438   1.564   3.320   1.728
  455TCM    cl1 2439   1.583   3.156   1.799
  455TCM    cl2 2440   1.721   3.375   1.662
  455TCM     h1 2441   1.490   3.317   1.648
  455TCM    cl3 2442   1.510   3.434   1.855
  456TCM     c1 2443   1.860   0.058   1.473
  456TCM    cl1 2444   1.970  -0.021   1.355
  456TCM    cl2 2445   1.854  -0.040   1.623
  456TCM     h1 2446   1.897   0.158   1.497
  456TCM    cl3 2447   1.695   0.070   1.402
  457TCM     c1 2448   4.076   4.299   3.409
  457TCM    cl1 2449   4.182   4.181   3.326
  457TCM    cl2 2450   4.162   4.364   3.552
  457TCM     h1 2451   4.052   4.381   3.341
  457TCM    cl3 2452   3.925   4.219   3.463
  458TCM     c1 2453   0.683   0.974   3.418
  458TCM    cl1 2454   0.564   0.901   3.531
  458TCM    cl2 2455   0.606   1.109   3.329
  458TCM     h1 2456   0.769   1.011   3.475
  458TCM    cl3 2457   0.739   0.850   3.301
  459TCM     c1 2458   1.731   4.283   0.246
  459TCM    cl1 2459   1.683   4.281   0.073
  459TCM    cl2 2460   1.873   4.176   0.271
  459TCM     h1 2461   1.756   4.386   0.276
  459TCM    cl3 2462   1.594   4.224   0.346
  460TCM     c1 2463   3.148   0.202   0.037
  460TCM    cl1 2464   3.081   0.054  -0.037
  460TCM    cl2 2465   3.145   0.184   0.216
  460TCM     h1 2466   3.250   0.219   0.003
  460TCM    cl3 2467   3.045   0.341  -0.010
  461TCM     c1 2468   3.899   1.011   2.963
  461TCM    cl1 2469   3.729   0.975   3.008
  461TCM    cl2 2470   3.901   1.091   2.802
  461TCM     h1 2471   3.943   1.078   3.037
  461TCM    cl3 2472   3.993   0.859   2.955
  462TCM     c1 2473   4.977   4.406   3.662
  462TCM    cl1 2474   4.817   4.487   3.656
  462TCM    cl2 2475   4.967   4.261   3.767
  462TCM     h1 2476   5.008   4.377   3.561
  462TCM    cl3 2477   5.097   4.521   3.731
  463TCM     c1 2478   4.384   1.543   4.837
  463TCM    cl1 2479   4.476   1.400   4.893
  463TCM    cl2 2480   4.497   1.659   4.761
  463TCM     h1 2481   4.308   1.512   4.765
  463TCM    cl3 2482   4.304   1.621   4.978
  464TCM     c1 2483   0.340   0.978   2.852
  464TCM    cl1 2484   0.214   0.855   2.822
  464TCM    cl2 2485   0.402   1.038   2.694
  464TCM     h1 2486   0.298   1.061   2.909
  464TCM    cl3 2487   0.476   0.905   2.943
  465TCM     c1 2488   0.632   1.791   1.803
  465TCM    cl1 2489   0.482   1.881   1.844
  465TCM    cl2 2490   0.717   1.745   1.954
  465TCM     h1 2491   0.607   1.701   1.747
  465TCM    cl3 2492   0.739   1.895   1.703
  466TCM     c1 2493   3.547   2.133   1.369
  466TCM    cl1 2494   3.415   2.085   1.481
  466TCM    cl2 2495   3.665   1.999   1.358
  466TCM     h1 2496   3.506   2.154   1.270
  466TCM    cl3 2497   3.629   2.280   1.432
  467TCM     c1 2498   2.578   0.796   4.176
  467TCM    cl1 2499   2.596   0.839   4.002
  467TCM    cl2 2500   2.476   0.919   4.258
  467TCM     h1 2501   2.532   0.698   4.185
  467TCM    cl3 2502   2.740   0.794   4.252
  468TCM     c1 2503   4.634   2.433   4.722
  468TCM    cl1 2504   4.457   2.451   4.747
  468TCM    cl2 2505   4.701   2.583   4.652
  468TCM     h1 2506   4.681   2.413   4.819
  468TCM    cl3 2507   4.664   2.295   4.611
  469TCM     c1 2508   3.971   0.804   2.485
  469TCM    cl1 2509   4.095   0.918   2.546
  469TCM    cl2 2510   3.854   0.766   2.615
  469TCM     h1 2511   3.918   0.849   2.401
  469TCM    cl3 2512   4.051   0.653   2.430
  470TCM     c1 2513   3.189   2.039   2.902
  470TCM    cl1 2514   3.012   2.038   2.929
  470TCM    cl2 2515   3.235   1.900   2.797
  470TCM     h1 2516   3.218   2.132   2.853
  470TCM    cl3 2517   3.273   2.024   3.059
  471TCM     c1 2518   3.507   1.589   1.290
  471TCM    cl1 2519   3.406   1.443   1.313
  471TCM    cl2 2520   3.406   1.736   1.307
  471TCM     h1 2521   3.587   1.591   1.364
  471TCM    cl3 2522   3.579   1.586   1.125
  472TCM     c1 2523   0.452   3.280   1.184
  472TCM    cl1 2524   0.322   3.157   1.194
  472TCM    cl2 2525   0.410   3.420   1.289
  472TCM     h1 2526   0.547   3.237   1.217
  472TCM    cl3 2527   0.468   3.338   1.015
  473TCM     c1 2528   2.508   3.699   4.337
  473TCM    cl1 2529   2.557   3.703   4.164
  473TCM    cl2 2530   2.642   3.632   4.435
  473TCM     h1 2531   2.483   3.800   4.371
  473TCM    cl3 2532   2.364   3.593   4.355
  474TCM     c1 2533   1.960   1.678   1.743
  474TCM    cl1 2534   1.798   1.649   1.670
  474TCM    cl2 2535   2.080   1.567   1.669
  474TCM     h1 2536   1.990   1.781   1.725
  474TCM    cl3 2537   1.952   1.648   1.920
  475TCM     c1 2538   4.618   2.656   0.164
  475TCM    cl1 2539   4.582   2.484   0.197
  475TCM    cl2 2540   4.516   2.761   0.269
  475TCM     h1 2541   4.724   2.676   0.185
  475TCM    cl3 2542   4.583   2.692  -0.008
  476TCM     c1 2543   3.070   4.398   3.402
  476TCM    cl1 2544   3.057   4.222   3.434
  476TCM    cl2 2545   3.181   4.425   3.264
  476TCM     h1 2546   2.971   4.439   3.379
  476TCM    cl3 2547   3.135   4.478   3.548
  477TCM     c1 2548   0.234   4.038   0.059
  477TCM    cl1 2549   0.226   4.034  -0.119
  477TCM    cl2 2550   0.106   3.931   0.127
  477TCM     h1 2551   0.333   4.002   0.092
  477TCM    cl3 2552   0.208   4.205   0.117
  478TCM     c1 2553   1.012   2.601   3.254
  478TCM    cl1 2554   1.068   2.764   3.201
  478TCM    cl2 2555   0.849   2.569   3.187
  478TCM     h1 2556   1.082   2.525   3.219
  478TCM    cl3 2557   1.005   2.598   3.433
  479TCM     c1 2558   2.578   2.813   1.057
  479TCM    cl1 2559   2.745   2.779   1.111
  479TCM    cl2 2560   2.466   2.691   1.127
  479TCM     h1 2561   2.548   2.913   1.090
  479TCM    cl3 2562   2.571   2.804   0.878
  480TCM     c1 2563   4.961   3.404   3.473
  480TCM    cl1 2564   5.056   3.390   3.321
  480TCM    cl2 2565   4.994   3.562   3.551
  480TCM     h1 2566   4.855   3.396   3.450
  480TCM    cl3 2567   5.009   3.272   3.585
  481TCM     c1 2568   2.575   4.792   2.920
  481TCM    cl1 2569   2.410   4.771   2.988
  481TCM    cl2 2570   2.604   4.966   2.889
  481TCM     h1 2571   2.650   4.754   2.990
  481TCM    cl3 2572   2.587   4.701   2.766
  482TCM     c1 2573   0.140   2.985   3.894
  482TCM    cl1 2574   0.128   2.807   3.907
  482TCM    cl2 2575   0.308   3.029   3.849
  482TCM     h1 2576   0.071   3.021   3.817
  482TCM    cl3 2577   0.099   3.059   4.052
  483TCM     c1 2578   2.697   2.160   3.083
  483TCM    cl1 2579   2.744   2.308   2.993
  483TCM    cl2 2580   2.539   2.100   3.022
  483TCM     h1 2581   2.773   2.083   3.069
  483TCM    cl3 2582   2.684   2.197   3.258
  484TCM     c1 2583   1.957   0.919   3.828
  484TCM    cl1 2584   1.939   0.751   3.769
  484TCM    cl2 2585   1.956   0.920   4.008
  484TCM     h1 2586   2.052   0.961   3.792
  484TCM    cl3 2587   1.820   1.017   3.767
  485TCM     c1 2588   0.927   0.371   0.630
  485TCM    cl1 2589   1.055   0.258   0.576
  485TCM    cl2 2590   0.869   0.321   0.793
  485TCM     h1 2591   0.966   0.473   0.634
  485TCM    cl3 2592   0.790   0.364   0.514
  486TCM     c1 2593   4.137   1.278   3.503
  486TCM    cl1 2594   4.138   1.099   3.509
  486TCM    cl2 2595   3.969   1.336   3.477
  486TCM     h1 2596   4.174   1.318   3.597
  486TCM    cl3 2597   4.240   1.335   3.368
  487TCM     c1 2598   3.299   4.804   3.111
  487TCM    cl1 2599   3.289   4.972   3.050
  487TCM    cl2 2600   3.157   4.713   3.052
  487TCM     h1 2601   3.391   4.757   3.076
  487TCM    cl3 2602   3.297   4.804   3.291
  488TCM     c1 2603   2.192   2.333   2.853
  488TCM    cl1 2604   2.128   2.401   3.006
  488TCM    cl2 2605   2.173   2.155   2.855
  488TCM     h1 2606   2.136   2.374   2.768
  488TCM    cl3 2607   2.365   2.375   2.838
  489TCM     c1 2608   1.193   0.607   4.809
  489TCM    cl1 2609   1.113   0.616   4.648
  489TCM    cl2 2610   1.071   0.638   4.937
  489TCM     h1 2611   1.236   0.508   4.823
  489TCM    cl3 2612   1.321   0.732   4.819
  490TCM     c1 2613   2.297   4.386   4.043
  490TCM    cl1 2614   2.175   4.366   3.913
  490TCM    cl2 2615   2.250   4.285   4.183
  490TCM     h1 2616   2.395   4.355   4.007
  490TCM    cl3 2617   2.303   4.559   4.093
  491TCM     c1 2618   0.734   3.873   4.889
  491TCM    cl1 2619   0.820   3.984   5.001
  491TCM    cl2 2620   0.766   3.924   4.719
  491TCM     h1 2621   0.770   3.771   4.904
  491TCM    cl3 2622   0.558   3.878   4.921
  492TCM     c1 2623   0.181   2.928   1.494
  492TCM    cl1 2624   0.360   2.914   1.505
  492TCM    cl2 2625   0.112   2.945   1.659
  492TCM     h1 2626   0.155   3.016   1.434
  492TCM    cl3 2627   0.114   2.781   1.416
  493TCM     c1 2628   3.337   1.215   3.355
  493TCM    cl1 2629   3.201   1.178   3.244
  493TCM    cl2 2630   3.302   1.146   3.517
  493TCM     h1 2631   3.429   1.172   3.315
  493TCM    cl3 2632   3.353   1.394   3.368
  494TCM     c1 2633   1.433   0.043   1.064
  494TCM    cl1 2634   1.357   0.117   1.208
  494TCM    cl2 2635   1.309   0.017   0.938
  494TCM     h1 2636   1.511   0.109   1.026
  494TCM    cl3 2637   1.506  -0.114   1.112
  495TCM     c1 2638   2.645   3.149   3.409
  495TCM    cl1 2639   2.551   3.273   3.320
  495TCM    cl2 2640   2.551   3.094   3.552
  495TCM     h1 2641   2.665   3.064   3.344
  495TCM    cl3 2642   2.801   3.221   3.463
  496TCM     c1 2643   0.108   3.312   0.737
  496TCM    cl1 2644   0.054   3.158   0.661
  496TCM    cl2 2645   0.272   3.354   0.677
  496TCM     h1 2646   0.038   3.392   0.712
  496TCM    cl3 2647   0.115   3.290   0.915
  497TCM     c1 2648   1.593   0.345   0.052
  497TCM    cl1 2649   1.428   0.379  -0.008
  497TCM    cl2 2650   1.608   0.170   0.085
  497TCM     h1 2651   1.667   0.376  -0.023
  497TCM    cl3 2652   1.619   0.436   0.205
  498TCM     c1 2653   1.265   1.530   2.860
  498TCM    cl1 2654   1.152   1.394   2.889
  498TCM    cl2 2655   1.397   1.525   2.981
  498TCM     h1 2656   1.308   1.521   2.759
  498TCM    cl3 2657   1.176   1.685   2.874
  499TCM     c1 2658   2.551   3.878   2.091
  499TCM    cl1 2659   2.469   4.037   2.092
  499TCM    cl2 2660   2.636   3.855   2.247
  499TCM     h1 2661   2.477   3.798   2.078
  499TCM    cl3 2662   2.670   3.874   1.957
  500TCM     c1 2663   1.506   0.656   2.751
  500TCM    cl1 2664   1.487   0.705   2.580
  500TCM    cl2 2665   1.680   0.644   2.792
  500TCM     h1 2666   1.458   0.729   2.816
  500TCM    cl3 2667   1.430   0.495   2.776
  501TCM     c1 2668   4.916   0.044   2.802
  501TCM    cl1 2669   4.818  -0.106   2.795
  501TCM    cl2 2670   5.079   0.013   2.736
  501TCM     h1 2671   4.866   0.122   2.744
  501TCM    cl3 2672   4.930   0.098   2.973
  502TCM     c1 2673   2.722   3.988   2.965
  502TCM    cl1 2674   2.737   4.036   2.793
  502TCM    cl2 2675   2.676   3.815   2.975
  502TCM     h1 2676   2.817   4.004   3.016
  502TCM    cl3 2677   2.594   4.086   3.044
  503TCM     c1 2678   4.899   4.969   0.068
  503TCM    cl1 2679   4.827   5.111  -0.014
  503TCM    cl2 2680   4.961   4.852  -0.053
  503TCM     h1 2681   4.982   5.002   0.132
  503TCM    cl3 2682   4.774   4.889   0.170
  504TCM     c1 2683   1.403   4.072   4.961
  504TCM    cl1 2684   1.367   4.183   4.825
  504TCM    cl2 2685   1.337   3.910   4.924
  504TCM     h1 2686   1.511   4.066   4.975
  504TCM    cl3 2687   1.327   4.134   5.111
  505TCM     c1 2688   0.413   1.881   3.275
  505TCM    cl1 2689   0.379   1.960   3.433
  505TCM    cl2 2690   0.591   1.861   3.257
  505TCM     h1 2691   0.364   1.784   3.271
  505TCM    cl3 2692   0.352   1.985   3.143
  506TCM     c1 2693   4.438   0.385   4.559
  506TCM    cl1 2694   4.333   0.256   4.491
  506TCM    cl2 2695   4.392   0.416   4.729
  506TCM     h1 2696   4.543   0.354   4.553
  506TCM    cl3 2697   4.414   0.535   4.464
  507TCM     c1 2698   4.367   2.288   2.332
  507TCM    cl1 2699   4.238   2.175   2.382
  507TCM    cl2 2700   4.436   2.234   2.175
  507TCM     h1 2701   4.326   2.389   2.322
  507TCM    cl3 2702   4.496   2.288   2.457
  508TCM     c1 2703   3.431   4.574   1.426
  508TCM    cl1 2704   3.337   4.724   1.459
  508TCM    cl2 2705   3.327   4.459   1.335
  508TCM     h1 2706   3.520   4.599   1.368
  508TCM    cl3 2707   3.479   4.500   1.582
  509TCM     c1 2708   4.989   0.084   0.620
  509TCM    cl1 2709   5.095  -0.050   0.676
  509TCM    cl2 2710   4.932   0.049   0.454
  509TCM     h1 2711   4.903   0.092   0.688
  509TCM    cl3 2712   5.081   0.238   0.621
  510TCM     c1 2713   3.814   4.868   0.143
  510TCM    cl1 2714   3.690   4.998   0.146
  510TCM    cl2 2715   3.839   4.816  -0.027
  510TCM     h1 2716   3.908   4.906   0.184
  510TCM    cl3 2717   3.756   4.729   0.241
  511TCM     c1 2718   0.793   0.022   2.431
  511TCM    cl1 2719   0.778   0.188   2.498
  511TCM    cl2 2720   0.683   0.005   2.290
  511TCM     h1 2721   0.896   0.004   2.399
  511TCM    cl3 2722   0.749  -0.100   2.555
  512TCM     c1 2723   2.742   4.991   4.148
  512TCM    cl1 2724   2.614   5.073   4.053
  512TCM    cl2 2725   2.666   4.902   4.285
  512TCM     h1 2726   2.795   4.920   4.083
  512TCM    cl3 2727   2.856   5.113   4.211
  513TCM     c1 2728   4.218   4.244   1.351
  513TCM    cl1 2729   4.374   4.206   1.431
  513TCM    cl2 2730   4.245   4.258   1.174
  513TCM     h1 2731   4.146   4.165   1.371
  513TCM    cl3 2732   4.155   4.400   1.414
  514TCM     c1 2733   3.128   3.610   4.745
  514TCM    cl1 2734   3.088   3.761   4.833
  514TCM    cl2 2735   3.296   3.621   4.682
  514TCM     h1 2736   3.120   3.524   4.813
  514TCM    cl3 2737   3.015   3.588   4.608
  515TCM     c1 2738   2.806   0.445   4.063
  515TCM    cl1 2739   2.804   0.564   3.929
  515TCM    cl2 2740   2.643   0.438   4.138
  515TCM     h1 2741   2.833   0.346   4.025
  515TCM    cl3 2742   2.927   0.496   4.186
  516TCM     c1 2743   3.387   3.353   1.638
  516TCM    cl1 2744   3.514   3.416   1.749
  516TCM    cl2 2745   3.416   3.417   1.473
  516TCM     h1 2746   3.390   3.244   1.637
  516TCM    cl3 2747   3.226   3.409   1.696
  517TCM     c1 2748   4.982   2.883   3.380
  517TCM    cl1 2749   5.056   2.902   3.542
  517TCM    cl2 2750   4.892   3.032   3.337
  517TCM     h1 2751   5.061   2.865   3.306
  517TCM    cl3 2752   4.869   2.743   3.381
  518TCM     c1 2753   1.470   3.643   3.399
  518TCM    cl1 2754   1.590   3.627   3.266
  518TCM    cl2 2755   1.320   3.556   3.355
  518TCM     h1 2756   1.512   3.601   3.490
  518TCM    cl3 2757   1.433   3.817   3.425
  519TCM     c1 2758   2.565   4.221   1.607
  519TCM    cl1 2759   2.525   4.141   1.451
  519TCM    cl2 2760   2.741   4.207   1.637
  519TCM     h1 2761   2.536   4.326   1.603
  519TCM    cl3 2762   2.477   4.139   1.740
  520TCM     c1 2763   0.339   1.422   2.787
  520TCM    cl1 2764   0.392   1.341   2.938
  520TCM    cl2 2765   0.206   1.328   2.712
  520TCM     h1 2766   0.304   1.523   2.809
  520TCM    cl3 2767   0.477   1.431   2.673
  521TCM     c1 2768   4.404   3.370   2.899
  521TCM    cl1 2769   4.448   3.234   2.791
  521TCM    cl2 2770   4.285   3.312   3.021
  521TCM     h1 2771   4.493   3.407   2.950
  521TCM    cl3 2772   4.330   3.502   2.802
  522TCM     c1 2773   2.724   4.924   2.373
  522TCM    cl1 2774   2.701   4.888   2.199
  522TCM    cl2 2775   2.820   4.793   2.450
  522TCM     h1 2776   2.777   5.020   2.384
  522TCM    cl3 2777   2.564   4.935   2.453
  523TCM     c1 2778   2.807   3.468   2.072
  523TCM    cl1 2779   2.640   3.527   2.100
  523TCM    cl2 2780   2.870   3.393   2.222
  523TCM     h1 2781   2.807   3.394   1.991
  523TCM    cl3 2782   2.913   3.606   2.026
  524TCM     c1 2783   1.760   3.556   3.835
  524TCM    cl1 2784   1.705   3.635   3.684
  524TCM    cl2 2785   1.679   3.397   3.853
  524TCM     h1 2786   1.868   3.543   3.832
  524TCM    cl3 2787   1.716   3.660   3.975
  525TCM     c1 2788   0.058   1.976   0.114
  525TCM    cl1 2789   0.101   2.034   0.278
  525TCM    cl2 2790  -0.121   1.971   0.102
  525TCM     h1 2791   0.098   2.044   0.038
  525TCM    cl3 2792   0.125   1.812   0.089
  526TCM     c1 2793   2.021   3.161   1.707
  526TCM    cl1 2794   2.045   3.190   1.882
  526TCM    cl2 2795   2.001   2.986   1.677
  526TCM     h1 2796   1.931   3.214   1.674
  526TCM    cl3 2797   2.162   3.224   1.616
  527TCM     c1 2798   1.643   0.910   4.591
  527TCM    cl1 2799   1.773   0.999   4.675
  527TCM    cl2 2800   1.684   0.894   4.416
  527TCM     h1 2801   1.632   0.810   4.635
  527TCM    cl3 2802   1.488   0.999   4.607
  528TCM     c1 2803   0.129   4.931   3.830
  528TCM    cl1 2804   0.137   5.102   3.778
  528TCM    cl2 2805   0.271   4.843   3.764
  528TCM     h1 2806   0.129   4.925   3.939
  528TCM    cl3 2807  -0.021   4.857   3.765
  529TCM     c1 2808   1.682   4.679   1.352
  529TCM    cl1 2809   1.561   4.729   1.474
  529TCM    cl2 2810   1.623   4.535   1.263
  529TCM     h1 2811   1.699   4.762   1.281
  529TCM    cl3 2812   1.837   4.639   1.433
  530TCM     c1 2813   4.944   1.024   4.167
  530TCM    cl1 2814   4.927   1.044   3.990
  530TCM    cl2 2815   5.006   1.176   4.240
  530TCM     h1 2816   4.846   1.000   4.211
  530TCM    cl3 2817   5.060   0.891   4.201
  531TCM     c1 2818   2.504   3.056   4.962
  531TCM    cl1 2819   2.561   3.141   5.109
  531TCM    cl2 2820   2.612   3.096   4.824
  531TCM     h1 2821   2.505   2.948   4.979
  531TCM    cl3 2822   2.337   3.110   4.924
  532TCM     c1 2823   2.735   4.262   1.168
  532TCM    cl1 2824   2.846   4.291   1.306
  532TCM    cl2 2825   2.824   4.283   1.014
  532TCM     h1 2826   2.695   4.161   1.174
  532TCM    cl3 2827   2.601   4.380   1.176
  533TCM     c1 2828   1.562   0.751   3.885
  533TCM    cl1 2829   1.614   0.806   4.048
  533TCM    cl2 2830   1.428   0.855   3.826
  533TCM     h1 2831   1.646   0.756   3.816
  533TCM    cl3 2832   1.505   0.581   3.897
  534TCM     c1 2833   1.584   1.218   2.565
  534TCM    cl1 2834   1.727   1.320   2.526
  534TCM    cl2 2835   1.486   1.300   2.691
  534TCM     h1 2836   1.525   1.204   2.474
  534TCM    cl3 2837   1.639   1.059   2.627
  535TCM     c1 2838   2.045   3.305   3.627
  535TCM    cl1 2839   1.987   3.455   3.546
  535TCM    cl2 2840   1.920   3.177   3.613
  535TCM     h1 2841   2.138   3.271   3.579
  535TCM    cl3 2842   2.075   3.340   3.800
  536TCM     c1 2843   3.702   4.252   2.768
  536TCM    cl1 2844   3.562   4.166   2.841
  536TCM    cl2 2845   3.808   4.316   2.898
  536TCM     h1 2846   3.759   4.182   2.706
  536TCM    cl3 2847   3.642   4.388   2.668
  537TCM     c1 2848   2.747   0.002   0.310
  537TCM    cl1 2849   2.897  -0.066   0.382
  537TCM    cl2 2850   2.608  -0.107   0.343
  537TCM     h1 2851   2.727   0.100   0.352
  537TCM    cl3 2852   2.771   0.016   0.132
  538TCM     c1 2853   1.346   3.619   3.862
  538TCM    cl1 2854   1.389   3.785   3.810
  538TCM    cl2 2855   1.346   3.511   3.718
  538TCM     h1 2856   1.420   3.583   3.934
  538TCM    cl3 2857   1.183   3.620   3.936
  539TCM     c1 2858   2.237   2.392   1.108
  539TCM    cl1 2859   2.128   2.484   1.217
  539TCM    cl2 2860   2.139   2.309   0.982
  539TCM     h1 2861   2.307   2.460   1.060
  539TCM    cl3 2862   2.326   2.269   1.204
  540TCM     c1 2863   2.984   4.879   3.457
  540TCM    cl1 2864   3.094   4.835   3.591
  540TCM    cl2 2865   2.834   4.951   3.523
  540TCM     h1 2866   3.033   4.951   3.391
  540TCM    cl3 2867   2.942   4.731   3.364
  541TCM     c1 2868   2.100   1.234   1.895
  541TCM    cl1 2869   2.186   1.359   1.992
  541TCM    cl2 2870   2.194   1.202   1.746
  541TCM     h1 2871   2.093   1.142   1.954
  541TCM    cl3 2872   1.936   1.291   1.854
  542TCM     c1 2873   2.152   2.839   0.231
  542TCM    cl1 2874   2.153   2.988   0.332
  542TCM    cl2 2875   2.116   2.698   0.335
  542TCM     h1 2876   2.075   2.848   0.154
  542TCM    cl3 2877   2.313   2.819   0.156
  543TCM     c1 2878   3.601   2.432   4.200
  543TCM    cl1 2879   3.667   2.364   4.048
  543TCM    cl2 2880   3.520   2.301   4.292
  543TCM     h1 2881   3.683   2.473   4.260
  543TCM    cl3 2882   3.482   2.561   4.163
  544TCM     c1 2883   0.754   0.083   1.935
  544TCM    cl1 2884   0.750   0.235   2.030
  544TCM    cl2 2885   0.924   0.032   1.912
  544TCM     h1 2886   0.699   0.005   1.988
  544TCM    cl3 2887   0.679   0.112   1.774
  545TCM     c1 2888   4.446   4.823   0.540
  545TCM    cl1 2889   4.545   4.684   0.596
  545TCM    cl2 2890   4.554   4.964   0.512
  545TCM     h1 2891   4.396   4.796   0.447
  545TCM    cl3 2892   4.325   4.864   0.665
  546TCM     c1 2893   0.349   4.168   0.729
  546TCM    cl1 2894   0.277   4.106   0.881
  546TCM    cl2 2895   0.265   4.320   0.683
  546TCM     h1 2896   0.455   4.189   0.745
  546TCM    cl3 2897   0.330   4.047   0.598
  547TCM     c1 2898   2.222   2.080   3.196
  547TCM    cl1 2899   2.210   1.917   3.122
  547TCM    cl2 2900   2.330   2.074   3.339
  547TCM     h1 2901   2.264   2.150   3.122
  547TCM    cl3 2902   2.059   2.135   3.246
  548TCM     c1 2903   0.714   4.080   0.977
  548TCM    cl1 2904   0.659   3.993   0.830
  548TCM    cl2 2905   0.625   4.235   0.989
  548TCM     h1 2906   0.693   4.019   1.066
  548TCM    cl3 2907   0.890   4.111   0.966
  549TCM     c1 2908   1.449   3.801   0.247
  549TCM    cl1 2909   1.457   3.626   0.285
  549TCM    cl2 2910   1.607   3.855   0.182
  549TCM     h1 2911   1.370   3.819   0.174
  549TCM    cl3 2912   1.413   3.893   0.396
  550TCM     c1 2913   3.143   1.865   2.245
  550TCM    cl1 2914   3.287   1.919   2.154
  550TCM    cl2 2915   3.033   2.005   2.271
  550TCM     h1 2916   3.090   1.788   2.189
  550TCM    cl3 2917   3.193   1.800   2.404
  551TCM     c1 2918   1.687   2.590   2.449
  551TCM    cl1 2919   1.840   2.671   2.400
  551TCM    cl2 2920   1.616   2.677   2.589
  551TCM     h1 2921   1.617   2.591   2.366
  551TCM    cl3 2922   1.722   2.420   2.496
  552TCM     c1 2923   3.114   0.020   1.812
  552TCM    cl1 2924   3.100   0.077   1.643
  552TCM    cl2 2925   2.950  -0.010   1.879
  552TCM     h1 2926   3.173  -0.072   1.815
  552TCM    cl3 2927   3.195   0.146   1.910
  553TCM     c1 2928   0.849   2.687   4.091
  553TCM    cl1 2929   1.019   2.672   4.147
  553TCM    cl2 2930   0.799   2.860   4.098
  553TCM     h1 2931   0.840   2.650   3.988
  553TCM    cl3 2932   0.742   2.590   4.198
  554TCM     c1 2933   4.661   3.644   4.753
  554TCM    cl1 2934   4.780   3.648   4.888
  554TCM    cl2 2935   4.744   3.590   4.603
  554TCM     h1 2936   4.580   3.575   4.778
  554TCM    cl3 2937   4.594   3.808   4.727
  555TCM     c1 2938   0.019   1.625   3.500
  555TCM    cl1 2939  -0.002   1.525   3.647
  555TCM    cl2 2940  -0.071   1.550   3.364
  555TCM     h1 2941  -0.020   1.725   3.519
  555TCM    cl3 2942   0.193   1.633   3.459
  556TCM     c1 2943   4.096   2.231   2.738
  556TCM    cl1 2944   4.128   2.057   2.706
  556TCM    cl2 2945   3.983   2.295   2.614
  556TCM     h1 2946   4.051   2.242   2.837
  556TCM    cl3 2947   4.250   2.322   2.731
  557TCM     c1 2948   1.220   2.826   4.983
  557TCM    cl1 2949   1.384   2.898   4.996
  557TCM    cl2 2950   1.166   2.837   4.812
  557TCM     h1 2951   1.223   2.722   5.014
  557TCM    cl3 2952   1.106   2.918   5.087
  558TCM     c1 2953   3.593   1.990   2.775
  558TCM    cl1 2954   3.511   2.150   2.777
  558TCM    cl2 2955   3.602   1.927   2.943
  558TCM     h1 2956   3.537   1.921   2.712
  558TCM    cl3 2957   3.759   2.009   2.711
  559TCM     c1 2958   2.773   4.804   0.882
  559TCM    cl1 2959   2.644   4.850   0.767
  559TCM    cl2 2960   2.755   4.631   0.926
  559TCM     h1 2961   2.871   4.819   0.834
  559TCM    cl3 2962   2.762   4.904   1.030
  560TCM     c1 2963   1.622   3.931   0.672
  560TCM    cl1 2964   1.688   3.848   0.816
  560TCM    cl2 2965   1.745   3.927   0.541
  560TCM     h1 2966   1.532   3.880   0.639
  560TCM    cl3 2967   1.584   4.101   0.713
  561TCM     c1 2968   0.322   3.049   4.791
  561TCM    cl1 2969   0.339   3.042   4.969
  561TCM    cl2 2970   0.169   3.132   4.750
  561TCM     h1 2971   0.406   3.103   4.748
  561TCM    cl3 2972   0.318   2.882   4.725
  562TCM     c1 2973   3.012   4.964   2.763
  562TCM    cl1 2974   3.142   4.929   2.644
  562TCM    cl2 2975   2.928   4.812   2.807
  562TCM     h1 2976   3.056   5.010   2.852
  562TCM    cl3 2977   2.893   5.077   2.689
  563TCM     c1 2978   4.563   3.812   3.498
  563TCM    cl1 2979   4.414   3.723   3.544
  563TCM    cl2 2980   4.518   3.951   3.394
  563TCM     h1 2981   4.613   3.848   3.588
  563TCM    cl3 2982   4.672   3.702   3.408
  564TCM     c1 2983   1.552   1.055   3.003
  564TCM    cl1 2984   1.502   1.137   3.154
  564TCM    cl2 2985   1.406   1.001   2.915
  564TCM     h1 2986   1.609   1.124   2.940
  564TCM    cl3 2987   1.652   0.912   3.042
  565TCM     c1 2988   3.390   2.734   4.486
  565TCM    cl1 2989   3.465   2.897   4.498
  565TCM    cl2 2990   3.250   2.726   4.598
  565TCM     h1 2991   3.356   2.717   4.384
  565TCM    cl3 2992   3.510   2.609   4.532
  566TCM     c1 2993   2.172   4.092   0.480
  566TCM    cl1 2994   2.209   3.924   0.427
  566TCM    cl2 2995   2.323   4.174   0.530
  566TCM     h1 2996   2.126   4.147   0.397
  566TCM    cl3 2997   2.058   4.087   0.618
  567TCM     c1 2998   3.307   1.675   0.070
  567TCM    cl1 2999   3.471   1.743   0.099
  567TCM    cl2 3000   3.297   1.612  -0.097
  567TCM     h1 3001   3.289   1.593   0.141
  567TCM    cl3 3002   3.184   1.803   0.093
  568TCM     c1 3003   2.469   1.599   3.956
  568TCM    cl1 3004   2.478   1.678   4.116
  568TCM    cl2 3005   2.497   1.720   3.827
  568TCM     h1 3006   2.546   1.521   3.950
  568TCM    cl3 3007   2.307   1.525   3.935
  569TCM     c1 3008   1.182   1.067   2.495
  569TCM    cl1 3009   1.322   1.059   2.383
  569TCM    cl2 3010   1.167   1.231   2.563
  569TCM     h1 3011   1.090   1.041   2.441
  569TCM    cl3 3012   1.208   0.951   2.628
  570TCM     c1 3013   2.487   4.175   0.162
  570TCM    cl1 3014   2.542   4.046   0.275
  570TCM    cl2 3015   2.308   4.183   0.162
  570TCM     h1 3016   2.528   4.271   0.195
  570TCM    cl3 3017   2.545   4.138  -0.004
  571TCM     c1 3018   2.184   4.502   1.438
  571TCM    cl1 3019   2.272   4.403   1.558
  571TCM    cl2 3020   2.257   4.478   1.275
  571TCM     h1 3021   2.079   4.472   1.436
  571TCM    cl3 3022   2.196   4.675   1.483
  572TCM     c1 3023   0.926   2.569   4.818
  572TCM    cl1 3024   0.875   2.661   4.963
  572TCM    cl2 3025   0.782   2.499   4.737
  572TCM     h1 3026   0.977   2.637   4.749
  572TCM    cl3 3027   1.038   2.439   4.868
  573TCM     c1 3028   1.618   1.269   1.555
  573TCM    cl1 3029   1.521   1.415   1.592
  573TCM    cl2 3030   1.635   1.169   1.703
  573TCM     h1 3031   1.569   1.210   1.478
  573TCM    cl3 3032   1.781   1.319   1.498
  574TCM     c1 3033   0.435   3.534   3.572
  574TCM    cl1 3034   0.479   3.673   3.677
  574TCM    cl2 3035   0.339   3.594   3.433
  574TCM     h1 3036   0.526   3.486   3.536
  574TCM    cl3 3037   0.339   3.416   3.667
  575TCM     c1 3038   0.061   0.352   3.523
  575TCM    cl1 3039   0.024   0.493   3.418
  575TCM    cl2 3040   0.227   0.294   3.488
  575TCM     h1 3041   0.054   0.382   3.628
  575TCM    cl3 3042  -0.057   0.222   3.488
  576TCM     c1 3043   4.143   0.179   2.941
  576TCM    cl1 3044   4.298   0.211   3.024
  576TCM    cl2 3045   4.103   0.004   2.953
  576TCM     h1 3046   4.063   0.238   2.986
  576TCM    cl3 3047   4.160   0.224   2.768
  577TCM     c1 3048   3.187   3.985   1.240
  577TCM    cl1 3049   3.345   4.008   1.321
  577TCM    cl2 3050   3.202   3.854   1.118
  577TCM     h1 3051   3.111   3.959   1.314
  577TCM    cl3 3052   3.142   4.138   1.158
  578TCM     c1 3053   4.476   4.237   3.660
  578TCM    cl1 3054   4.464   4.370   3.779
  578TCM    cl2 3055   4.601   4.120   3.715
  578TCM     h1 3056   4.379   4.186   3.652
  578TCM    cl3 3057   4.522   4.303   3.500
  579TCM     c1 3058   1.032   3.716   0.309
  579TCM    cl1 3059   1.084   3.580   0.203
  579TCM    cl2 3060   1.083   3.872   0.235
  579TCM     h1 3061   0.923   3.715   0.320
  579TCM    cl3 3062   1.109   3.698   0.469
  580TCM     c1 3063   0.331   2.250   4.776
  580TCM    cl1 3064   0.341   2.150   4.925
  580TCM    cl2 3065   0.487   2.242   4.687
  580TCM     h1 3066   0.251   2.213   4.712
  580TCM    cl3 3067   0.298   2.421   4.821
  581TCM     c1 3068   1.007   0.343   2.234
  581TCM    cl1 3069   1.036   0.166   2.226
  581TCM    cl2 3070   1.087   0.420   2.092
  581TCM     h1 3071   0.900   0.364   2.231
  581TCM    cl3 3072   1.077   0.404   2.387
  582TCM     c1 3073   1.050   1.330   4.185
  582TCM    cl1 3074   1.018   1.482   4.277
  582TCM    cl2 3075   0.958   1.333   4.031
  582TCM     h1 3076   1.157   1.322   4.164
  582TCM    cl3 3077   0.997   1.189   4.283
  583TCM     c1 3078   3.883   2.736   4.192
  583TCM    cl1 3079   3.834   2.693   4.026
  583TCM    cl2 3080   3.928   2.588   4.282
  583TCM     h1 3081   3.969   2.804   4.189
  583TCM    cl3 3082   3.746   2.816   4.276
  584TCM     c1 3083   2.146   3.418   4.993
  584TCM    cl1 3084   2.051   3.346   4.858
  584TCM    cl2 3085   2.122   3.320   5.141
  584TCM     h1 3086   2.252   3.418   4.966
  584TCM    cl3 3087   2.091   3.586   5.021
  585TCM     c1 3088   1.278   0.698   0.719
  585TCM    cl1 3089   1.264   0.567   0.597
  585TCM    cl2 3090   1.128   0.795   0.717
  585TCM     h1 3091   1.293   0.654   0.818
  585TCM    cl3 3092   1.418   0.801   0.676
  586TCM     c1 3093   0.373   3.710   0.402
  586TCM    cl1 3094   0.438   3.828   0.284
  586TCM    cl2 3095   0.503   3.598   0.453
  586TCM     h1 3096   0.334   3.763   0.489
  586TCM    cl3 3097   0.240   3.616   0.325
  587TCM     c1 3098   3.072   1.547   3.142
  587TCM    cl1 3099   2.997   1.415   3.047
  587TCM    cl2 3100   2.975   1.580   3.289
  587TCM     h1 3101   3.174   1.518   3.171
  587TCM    cl3 3102   3.079   1.695   3.041
  588TCM     c1 3103   2.655   4.618   0.063
  588TCM    cl1 3104   2.537   4.549   0.179
  588TCM    cl2 3105   2.685   4.499  -0.068
  588TCM     h1 3106   2.614   4.710   0.019
  588TCM    cl3 3107   2.809   4.655   0.147
  589TCM     c1 3108   3.788   3.530   3.207
  589TCM    cl1 3109   3.883   3.407   3.118
  589TCM    cl2 3110   3.781   3.681   3.111
  589TCM     h1 3111   3.686   3.493   3.224
  589TCM    cl3 3112   3.867   3.563   3.365
  590TCM     c1 3113   2.894   3.963   0.701
  590TCM    cl1 3114   2.731   4.009   0.760
  590TCM    cl2 3115   2.898   3.787   0.668
  590TCM     h1 3116   2.917   4.018   0.610
  590TCM    cl3 3117   3.016   4.004   0.827
  591TCM     c1 3118   4.444   4.380   0.758
  591TCM    cl1 3119   4.536   4.312   0.620
  591TCM    cl2 3120   4.555   4.410   0.895
  591TCM     h1 3121   4.397   4.474   0.729
  591TCM    cl3 3122   4.318   4.263   0.808
  592TCM     c1 3123   4.146   3.281   4.846
  592TCM    cl1 3124   3.983   3.321   4.910
  592TCM    cl2 3125   4.257   3.245   4.983
  592TCM     h1 3126   4.139   3.193   4.781
  592TCM    cl3 3127   4.211   3.419   4.753
  593TCM     c1 3128   2.896   0.927   2.114
  593TCM    cl1 3129   2.816   0.779   2.177
  593TCM    cl2 3130   2.812   1.071   2.180
  593TCM     h1 3131   3.001   0.928   2.143
  593TCM    cl3 3132   2.882   0.929   1.935
  594TCM     c1 3133   3.313   4.514   2.748
  594TCM    cl1 3134   3.150   4.556   2.686
  594TCM    cl2 3135   3.295   4.416   2.898
  594TCM     h1 3136   3.367   4.456   2.673
  594TCM    cl3 3137   3.404   4.665   2.784
  595TCM     c1 3138   3.535   3.571   3.587
  595TCM    cl1 3139   3.638   3.711   3.631
  595TCM    cl2 3140   3.626   3.419   3.616
  595TCM     h1 3141   3.444   3.572   3.648
  595TCM    cl3 3142   3.490   3.581   3.413
  596TCM     c1 3143   3.954   0.458   4.827
  596TCM    cl1 3144   4.082   0.498   4.946
  596TCM    cl2 3145   4.014   0.331   4.716
  596TCM     h1 3146   3.864   0.423   4.879
  596TCM    cl3 3147   3.915   0.605   4.731
  597TCM     c1 3148   3.125   3.294   3.235
  597TCM    cl1 3149   3.145   3.446   3.328
  597TCM    cl2 3150   3.266   3.273   3.126
  597TCM     h1 3151   3.120   3.210   3.305
  597TCM    cl3 3152   2.975   3.302   3.138
  598TCM     c1 3153   0.562   2.242   1.612
  598TCM    cl1 3154   0.537   2.144   1.463
  598TCM    cl2 3155   0.420   2.220   1.721
  598TCM     h1 3156   0.653   2.210   1.663
  598TCM    cl3 3157   0.574   2.415   1.568
  599TCM     c1 3158   0.249   4.304   3.027
  599TCM    cl1 3159   0.321   4.418   2.909
  599TCM    cl2 3160   0.126   4.390   3.125
  599TCM     h1 3161   0.202   4.221   2.974
  599TCM    cl3 3162   0.377   4.240   3.136
  600TCM     c1 3163   2.333   3.383   1.198
  600TCM    cl1 3164   2.487   3.474   1.181
  600TCM    cl2 3165   2.365   3.227   1.280
  600TCM     h1 3166   2.262   3.441   1.257
  600TCM    cl3 3167   2.265   3.352   1.035
  601TCM     c1 3168   0.075   1.389   2.382
  601TCM    cl1 3169  -0.008   1.536   2.442
  601TCM    cl2 3170   0.250   1.426   2.359
  601TCM     h1 3171   0.064   1.308   2.454
  601TCM    cl3 3172   0.004   1.340   2.225
  602TCM     c1 3173   3.884   3.065   3.772
  602TCM    cl1 3174   3.717   3.055   3.707
  602TCM    cl2 3175   3.979   2.924   3.712
  602TCM     h1 3176   3.931   3.158   3.738
  602TCM    cl3 3177   3.879   3.061   3.951
  603TCM     c1 3178   1.450   3.244   3.503
  603TCM    cl1 3179   1.609   3.325   3.492
  603TCM    cl2 3180   1.444   3.146   3.654
  603TCM     h1 3181   1.371   3.319   3.505
  603TCM    cl3 3182   1.427   3.137   3.361
  604TCM     c1 3183   2.484   3.127   2.150
  604TCM    cl1 3184   2.483   2.961   2.218
  604TCM    cl2 3185   2.625   3.146   2.041
  604TCM     h1 3186   2.391   3.145   2.094
  604TCM    cl3 3187   2.496   3.246   2.284
  605TCM     c1 3188   1.888   3.022   4.862
  605TCM    cl1 3189   1.895   3.038   5.041
  605TCM    cl2 3190   1.739   2.933   4.816
  605TCM     h1 3191   1.887   3.121   4.816
  605TCM    cl3 3192   2.032   2.931   4.806
  606TCM     c1 3193   4.902   0.937   2.515
  606TCM    cl1 3194   5.021   0.803   2.520
  606TCM    cl2 3195   4.872   0.984   2.345
  606TCM     h1 3196   4.808   0.905   2.561
  606TCM    cl3 3197   4.967   1.078   2.605
  607TCM     c1 3198   0.285   2.031   0.954
  607TCM    cl1 3199   0.271   2.201   0.897
  607TCM    cl2 3200   0.123   1.969   0.998
  607TCM     h1 3201   0.328   1.969   0.875
  607TCM    cl3 3202   0.391   2.027   1.099
  608TCM     c1 3203   2.946   3.879   0.190
  608TCM    cl1 3204   3.117   3.921   0.160
  608TCM    cl2 3205   2.847   3.947   0.058
  608TCM     h1 3206   2.934   3.771   0.194
  608TCM    cl3 3207   2.894   3.952   0.346
  609TCM     c1 3208   2.678   4.140   3.411
  609TCM    cl1 3209   2.707   4.144   3.588
  609TCM    cl2 3210   2.786   4.019   3.335
  609TCM     h1 3211   2.574   4.113   3.392
  609TCM    cl3 3212   2.712   4.302   3.342
  610TCM     c1 3213   1.925   4.656   1.827
  610TCM    cl1 3214   1.972   4.652   2.000
  610TCM    cl2 3215   1.747   4.667   1.813
  610TCM     h1 3216   1.971   4.743   1.778
  610TCM    cl3 3217   1.982   4.506   1.747
  611TCM     c1 3218   1.475   2.014   0.426
  611TCM    cl1 3219   1.556   2.059   0.579
  611TCM    cl2 3220   1.572   2.074   0.287
  611TCM     h1 3221   1.467   1.905   0.419
  611TCM    cl3 3222   1.312   2.087   0.420
  612TCM     c1 3223   0.444   2.925   4.252
  612TCM    cl1 3224   0.481   3.079   4.168
  612TCM    cl2 3225   0.426   2.793   4.131
  612TCM     h1 3226   0.525   2.900   4.321
  612TCM    cl3 3227   0.291   2.942   4.344
  613TCM     c1 3228   0.669   1.390   4.516
  613TCM    cl1 3229   0.643   1.555   4.581
  613TCM    cl2 3230   0.828   1.329   4.575
  613TCM     h1 3231   0.590   1.323   4.550
  613TCM    cl3 3232   0.669   1.397   4.337
  614TCM     c1 3233   0.240   2.655   0.552
  614TCM    cl1 3234   0.141   2.803   0.531
  614TCM    cl2 3235   0.252   2.615   0.727
  614TCM     h1 3236   0.194   2.572   0.499
  614TCM    cl3 3237   0.405   2.684   0.486
  615TCM     c1 3238   2.184   4.121   4.507
  615TCM    cl1 3239   2.259   3.971   4.444
  615TCM    cl2 3240   2.259   4.166   4.664
  615TCM     h1 3241   2.199   4.202   4.435
  615TCM    cl3 3242   2.008   4.094   4.532
  616TCM     c1 3243   3.040   3.694   2.990
  616TCM    cl1 3244   3.027   3.776   2.831
  616TCM    cl2 3245   3.005   3.813   3.120
  616TCM     h1 3246   2.968   3.611   2.995
  616TCM    cl3 3247   3.207   3.631   3.011
  617TCM     c1 3248   2.994   4.279   0.150
  617TCM    cl1 3249   3.092   4.306   0.297
  617TCM    cl2 3250   3.028   4.406   0.029
  617TCM     h1 3251   3.018   4.181   0.108
  617TCM    cl3 3252   2.820   4.285   0.194
  618TCM     c1 3253   3.504   4.480   0.152
  618TCM    cl1 3254   3.376   4.409   0.048
  618TCM    cl2 3255   3.660   4.400   0.114
  618TCM     h1 3256   3.512   4.587   0.133
  618TCM    cl3 3257   3.463   4.453   0.325
  619TCM     c1 3258   2.380   3.749   0.695
  619TCM    cl1 3259   2.375   3.914   0.765
  619TCM    cl2 3260   2.394   3.630   0.828
  619TCM     h1 3261   2.288   3.730   0.638
  619TCM    cl3 3262   2.522   3.735   0.586
  620TCM     c1 3263   4.032   3.891   3.583
  620TCM    cl1 3264   4.077   3.852   3.414
  620TCM    cl2 3265   4.160   3.994   3.656
  620TCM     h1 3266   3.937   3.945   3.583
  620TCM    cl3 3267   4.017   3.739   3.677
  621TCM     c1 3268   0.384   4.776   4.188
  621TCM    cl1 3269   0.234   4.708   4.116
  621TCM    cl2 3270   0.351   4.822   4.358
  621TCM     h1 3271   0.464   4.702   4.184
  621TCM    cl3 3272   0.431   4.923   4.095
  622TCM     c1 3273   4.125   0.384   3.330
  622TCM    cl1 3274   4.179   0.216   3.361
  622TCM    cl2 3275   4.085   0.463   3.486
  622TCM     h1 3276   4.205   0.440   3.280
  622TCM    cl3 3277   3.980   0.380   3.224
  623TCM     c1 3278   2.422   2.621   3.127
  623TCM    cl1 3279   2.442   2.742   3.258
  623TCM    cl2 3280   2.436   2.456   3.195
  623TCM     h1 3281   2.323   2.634   3.081
  623TCM    cl3 3282   2.549   2.647   3.003
  624TCM     c1 3283   4.954   4.744   2.430
  624TCM    cl1 3284   4.926   4.921   2.418
  624TCM    cl2 3285   4.810   4.665   2.504
  624TCM     h1 3286   4.971   4.703   2.330
  624TCM    cl3 3287   5.098   4.713   2.532
  625TCM     c1 3288   2.517   0.813   1.941
  625TCM    cl1 3289   2.446   0.744   1.791
  625TCM    cl2 3290   2.451   0.727   2.084
  625TCM     h1 3291   2.625   0.802   1.938
  625TCM    cl3 3292   2.475   0.987   1.952
  626TCM     c1 3293   0.407   2.411   3.017
  626TCM    cl1 3294   0.363   2.535   2.896
  626TCM    cl2 3295   0.455   2.260   2.932
  626TCM     h1 3296   0.491   2.447   3.078
  626TCM    cl3 3297   0.265   2.378   3.122
  627TCM     c1 3298   1.120   4.085   0.648
  627TCM    cl1 3299   1.198   4.156   0.502
  627TCM    cl2 3300   1.228   3.960   0.718
  627TCM     h1 3301   1.102   4.163   0.722
  627TCM    cl3 3302   0.965   4.008   0.600
  628TCM     c1 3303   2.681   3.073   0.452
  628TCM    cl1 3304   2.809   2.990   0.359
  628TCM    cl2 3305   2.697   3.250   0.428
  628TCM     h1 3306   2.583   3.039   0.418
  628TCM    cl3 3307   2.701   3.034   0.626
  629TCM     c1 3308   0.610   0.663   0.707
  629TCM    cl1 3309   0.780   0.676   0.764
  629TCM    cl2 3310   0.543   0.502   0.751
  629TCM     h1 3311   0.550   0.742   0.754
  629TCM    cl3 3312   0.605   0.683   0.529
  630TCM     c1 3313   0.097   2.140   2.920
  630TCM    cl1 3314  -0.039   2.187   3.026
  630TCM    cl2 3315   0.109   2.255   2.784
  630TCM     h1 3316   0.190   2.142   2.978
  630TCM    cl3 3317   0.070   1.974   2.858
  631TCM     c1 3318   2.506   0.983   3.266
  631TCM    cl1 3319   2.665   0.902   3.287
  631TCM    cl2 3320   2.493   1.122   3.379
  631TCM     h1 3321   2.497   1.019   3.163
  631TCM    cl3 3322   2.376   0.865   3.301
  632TCM     c1 3323   0.212   1.095   1.924
  632TCM    cl1 3324   0.322   1.186   2.034
  632TCM    cl2 3325   0.148   1.208   1.800
  632TCM     h1 3326   0.268   1.015   1.875
  632TCM    cl3 3327   0.076   1.027   2.018
  633TCM     c1 3328   4.040   0.471   4.377
  633TCM    cl1 3329   3.863   0.441   4.388
  633TCM    cl2 3330   4.071   0.647   4.385
  633TCM     h1 3331   4.090   0.421   4.461
  633TCM    cl3 3332   4.102   0.405   4.222
  634TCM     c1 3333   4.869   0.897   4.691
  634TCM    cl1 3334   4.941   0.960   4.540
  634TCM    cl2 3335   4.890   1.018   4.821
  634TCM     h1 3336   4.763   0.878   4.675
  634TCM    cl3 3337   4.950   0.744   4.739
  635TCM     c1 3338   2.841   0.301   1.342
  635TCM    cl1 3339   2.790   0.396   1.199
  635TCM    cl2 3340   3.019   0.277   1.337
  635TCM     h1 3341   2.814   0.355   1.433
  635TCM    cl3 3342   2.759   0.142   1.340
  636TCM     c1 3343   2.132   1.219   3.563
  636TCM    cl1 3344   2.107   1.255   3.737
  636TCM    cl2 3345   1.981   1.254   3.474
  636TCM     h1 3346   2.213   1.280   3.523
  636TCM    cl3 3347   2.170   1.045   3.545
  637TCM     c1 3348   3.282   1.310   2.223
  637TCM    cl1 3349   3.286   1.422   2.082
  637TCM    cl2 3350   3.447   1.249   2.256
  637TCM     h1 3351   3.245   1.364   2.311
  637TCM    cl3 3352   3.173   1.172   2.188
  638TCM     c1 3353   3.870   2.086   4.173
  638TCM    cl1 3354   3.977   2.214   4.240
  638TCM    cl2 3355   3.755   2.033   4.300
  638TCM     h1 3356   3.814   2.126   4.088
  638TCM    cl3 3357   3.969   1.946   4.121
  639TCM     c1 3358   1.152   2.322   4.210
  639TCM    cl1 3359   0.999   2.294   4.299
  639TCM    cl2 3360   1.116   2.341   4.035
  639TCM     h1 3361   1.201   2.412   4.248
  639TCM    cl3 3362   1.261   2.181   4.232
  640TCM     c1 3363   1.346   0.405   1.756
  640TCM    cl1 3364   1.347   0.267   1.871
  640TCM    cl2 3365   1.448   0.364   1.613
  640TCM     h1 3366   1.244   0.424   1.723
  640TCM    cl3 3367   1.411   0.551   1.838
   5.00000   5.00000   5.00000
