FOO
 3367
    1POM     C1    1   1.749   1.424   1.278
    1POM     O2    2   1.670   1.513   1.361
    1POM     C3    3   1.672   1.649   1.329
    1POM     C4    4   1.747   1.704   1.222
    1POM     C5    5   1.742   1.842   1.196
    1POM     C6    6   1.663   1.928   1.275
    1POM     C7    7   1.656   2.073   1.239
    1POM     C8    8   1.530   2.136   1.226
    1POM     C9    9   1.522   2.274   1.197
    1POM    C10   10   1.640   2.349   1.180
    1POM    C11   11   1.766   2.286   1.188
    1POM    C12   12   1.891   2.366   1.173
    1POM    O13   13   1.962   2.381   1.271
    1POM    C14   14   1.774   2.148   1.219
    1POM    C15   15   1.590   1.874   1.385
    1POM    C16   16   1.517   1.960   1.481
    1POM    C17   17   1.382   1.933   1.513
    1POM    C18   18   1.312   2.014   1.605
    1POM    C19   19   1.378   2.122   1.669
    1POM    C20   20   1.305   2.214   1.767
    1POM    C21   21   1.244   2.330   1.687
    1POM    N22   22   1.197   2.154   1.849
    1POM    C23   23   1.513   2.149   1.636
    1POM    C24   24   1.581   2.069   1.544
    1POM    C25   25   1.595   1.735   1.409
    1POM    H26   26   1.736   1.322   1.317
    1POM    H27   27   1.713   1.428   1.175
    1POM    H28   28   1.855   1.451   1.284
    1POM    H29   29   1.809   1.643   1.158
    1POM    H30   30   1.799   1.883   1.112
    1POM    H31   31   1.438   2.079   1.239
    1POM    H32   32   1.425   2.322   1.190
    1POM    H33   33   1.633   2.456   1.160
    1POM    H34   34   1.871   2.101   1.231
    1POM    H35   35   1.331   1.850   1.466
    1POM    H36   36   1.208   1.993   1.626
    1POM    H37   37   1.379   2.256   1.836
    1POM    H38   38   1.197   2.401   1.756
    1POM    H39   39   1.170   2.291   1.617
    1POM    H40   40   1.324   2.381   1.632
    1POM    H41   41   1.126   2.217   1.886
    1POM    H42   42   1.564   2.233   1.683
    1POM    H43   43   1.685   2.091   1.520
    1POM    H44   44   1.540   1.694   1.493
    2POM    C45   45   0.454   1.436   1.820
    2POM    O46   46   0.506   1.452   1.954
    2POM    C47   47   0.602   1.550   1.976
    2POM    C48   48   0.654   1.634   1.874
    2POM    C49   49   0.751   1.732   1.905
    2POM    C50   50   0.798   1.748   2.038
    2POM    C51   51   0.894   1.860   2.067
    2POM    C52   52   0.878   1.941   2.182
    2POM    C53   53   0.968   2.045   2.210
    2POM    C54   54   1.072   2.074   2.120
    2POM    C55   55   1.087   1.998   2.002
    2POM    C56   56   1.197   2.029   1.909
    2POM    O57   57   1.301   1.965   1.917
    2POM    C58   58   0.999   1.890   1.977
    2POM    C59   59   0.749   1.660   2.140
    2POM    C60   60   0.804   1.659   2.278
    2POM    C61   61   0.718   1.668   2.390
    2POM    C62   62   0.771   1.674   2.520
    2POM    C63   63   0.911   1.666   2.542
    2POM    C64   64   0.975   1.677   2.681
    2POM    C65   65   1.048   1.813   2.689
    2POM    N66   66   0.893   1.673   2.803
    2POM    C67   67   0.996   1.654   2.429
    2POM    C68   68   0.943   1.652   2.299
    2POM    C69   69   0.651   1.564   2.107
    2POM    H70   70   0.379   1.357   1.822
    2POM    H71   71   0.406   1.529   1.787
    2POM    H72   72   0.534   1.407   1.752
    2POM    H73   73   0.620   1.627   1.771
    2POM    H74   74   0.786   1.797   1.826
    2POM    H75   75   0.797   1.921   2.252
    2POM    H76   76   0.957   2.103   2.302
    2POM    H77   77   1.142   2.154   2.143
    2POM    H78   78   1.014   1.828   1.888
    2POM    H79   79   0.611   1.674   2.375
    2POM    H80   80   0.703   1.685   2.604
    2POM    H81   81   1.050   1.598   2.689
    2POM    H82   82   1.101   1.820   2.785
    2POM    H83   83   0.975   1.894   2.681
    2POM    H84   84   1.121   1.820   2.608
    2POM    H85   85   0.931   1.719   2.885
    2POM    H86   86   1.104   1.649   2.443
    2POM    H87   87   1.011   1.646   2.214
    2POM    H88   88   0.613   1.496   2.183
    3POM    C89   89   0.100   2.088   3.254
    3POM    O90   90   0.127   1.957   3.310
    3POM    C91   91   0.241   1.889   3.267
    3POM    C92   92   0.333   1.943   3.173
    3POM    C93   93   0.447   1.868   3.135
    3POM    C94   94   0.472   1.741   3.191
    3POM    C95   95   0.596   1.667   3.151
    3POM    C96   96   0.680   1.610   3.250
    3POM    C97   97   0.795   1.537   3.213
    3POM    C98   98   0.830   1.525   3.077
    3POM    C99   99   0.750   1.585   2.978
    3POM   C100  100   0.794   1.583   2.838
    3POM   O101  101   0.761   1.491   2.765
    3POM   C102  102   0.632   1.655   3.015
    3POM   C103  103   0.379   1.687   3.284
    3POM   C104  104   0.393   1.548   3.334
    3POM   C105  105   0.433   1.524   3.468
    3POM   C106  106   0.470   1.393   3.507
    3POM   C107  107   0.462   1.286   3.415
    3POM   C108  108   0.519   1.147   3.447
    3POM   C109  109   0.662   1.139   3.391
    3POM   N110  110   0.527   1.112   3.590
    3POM   C111  111   0.413   1.310   3.285
    3POM   C112  112   0.379   1.441   3.245
    3POM   C113  113   0.264   1.761   3.320
    3POM   H114  114   0.007   2.125   3.297
    3POM   H115  115   0.181   2.156   3.279
    3POM   H116  116   0.088   2.080   3.145
    3POM   H117  117   0.320   2.040   3.128
    3POM   H118  118   0.517   1.911   3.064
    3POM   H119  119   0.657   1.620   3.355
    3POM   H120  120   0.857   1.491   3.290
    3POM   H121  121   0.919   1.469   3.049
    3POM   H122  122   0.569   1.699   2.938
    3POM   H123  123   0.444   1.606   3.537
    3POM   H124  124   0.508   1.377   3.608
    3POM   H125  125   0.457   1.072   3.397
    3POM   H126  126   0.701   1.038   3.406
    3POM   H127  127   0.725   1.212   3.441
    3POM   H128  128   0.659   1.160   3.284
    3POM   H129  129   0.606   1.056   3.620
    3POM   H130  130   0.407   1.229   3.212
    3POM   H131  131   0.348   1.459   3.142
    3POM   H132  132   0.192   1.718   3.389
    4POM   C133  133   0.421   1.547   4.535
    4POM   O134  134   0.377   1.409   4.530
    4POM   C135  135   0.399   1.337   4.413
    4POM   C136  136   0.463   1.390   4.298
    4POM   C137  137   0.480   1.311   4.182
    4POM   C138  138   0.435   1.177   4.180
    4POM   C139  139   0.460   1.093   4.058
    4POM   C140  140   0.512   0.962   4.072
    4POM   C141  141   0.528   0.879   3.959
    4POM   C142  142   0.497   0.928   3.831
    4POM   C143  143   0.449   1.060   3.815
    4POM   C144  144   0.422   1.112   3.680
    4POM   O145  145   0.307   1.114   3.638
    4POM   C146  146   0.429   1.142   3.929
    4POM   C147  147   0.369   1.124   4.295
    4POM   C148  148   0.305   0.990   4.292
    4POM   C149  149   0.355   0.884   4.371
    4POM   C150  150   0.308   0.753   4.351
    4POM   C151  151   0.211   0.726   4.252
    4POM   C152  152   0.169   0.584   4.216
    4POM   C153  153   0.288   0.508   4.150
    4POM   N154  154   0.103   0.515   4.329
    4POM   C155  155   0.157   0.834   4.177
    4POM   C156  156   0.203   0.965   4.198
    4POM   C157  157   0.352   1.205   4.409
    4POM   H158  158   0.397   1.587   4.633
    4POM   H159  159   0.529   1.551   4.520
    4POM   H160  160   0.369   1.605   4.458
    4POM   H161  161   0.500   1.492   4.295
    4POM   H162  162   0.530   1.353   4.096
    4POM   H163  163   0.538   0.923   4.170
    4POM   H164  164   0.564   0.777   3.971
    4POM   H165  165   0.508   0.863   3.745
    4POM   H166  166   0.388   1.242   3.917
    4POM   H167  167   0.435   0.903   4.442
    4POM   H168  168   0.351   0.671   4.409
    4POM   H169  169   0.093   0.591   4.138
    4POM   H170  170   0.255   0.407   4.123
    4POM   H171  171   0.373   0.503   4.218
    4POM   H172  172   0.317   0.562   4.060
    4POM   H173  173   0.009   0.547   4.350
    4POM   H174  174   0.083   0.816   4.100
    4POM   H175  175   0.165   1.046   4.138
    4POM   H176  176   0.299   1.166   4.495
    5CAP   C177  177   1.859   2.374   0.934
    5CAP   O178  178   1.930   2.419   1.052
    5CAP   H179  179   1.865   2.265   0.926
    5CAP   H180  180   1.907   2.419   0.846
    5CAP   H181  181   1.755   2.407   0.937
    6CAP   C182  182   0.005   0.397   4.768
    6CAP   C183  183   0.127   0.394   4.674
    6CAP   C184  184   0.233   0.491   4.734
    6CAP   C185  185   0.177   0.247   4.669
    6CAP   O186  186   0.074   0.441   4.546
    6CAP   C187  187   0.161   0.462   4.442
    6CAP   O188  188   0.277   0.423   4.437
    6CAP   H189  189   0.034   0.362   4.868
    6CAP   H190  190  -0.034   0.499   4.775
    6CAP   H191  191  -0.073   0.331   4.728
    6CAP   H192  192   0.196   0.593   4.727
    6CAP   H193  193   0.327   0.482   4.679
    6CAP   H194  194   0.250   0.465   4.839
    6CAP   H195  195   0.100   0.185   4.622
    6CAP   H196  196   0.270   0.240   4.611
    6CAP   H197  197   0.196   0.212   4.770
    7TCM     c1  198   4.389   0.428   2.406
    7TCM    cl1  199   4.292   0.290   2.469
    7TCM    cl2  200   4.279   0.559   2.353
    7TCM     h1  201   4.454   0.466   2.485
    7TCM    cl3  202   4.489   0.371   2.269
    8TCM     c1  203   1.611   2.719   4.153
    8TCM    cl1  204   1.591   2.550   4.097
    8TCM    cl2  205   1.709   2.810   4.033
    8TCM     h1  206   1.513   2.766   4.165
    8TCM    cl3  207   1.697   2.719   4.311
    9TCM     c1  208   1.559   2.044   0.817
    9TCM    cl1  209   1.522   2.218   0.844
    9TCM    cl2  210   1.463   1.942   0.929
    9TCM     h1  211   1.534   2.018   0.714
    9TCM    cl3  212   1.734   2.015   0.845
   10TCM     c1  213   2.762   0.564   3.517
   10TCM    cl1  214   2.633   0.689   3.506
   10TCM    cl2  215   2.687   0.405   3.551
   10TCM     h1  216   2.816   0.559   3.422
   10TCM    cl3  217   2.875   0.606   3.649
   11TCM     c1  218   2.296   1.705   2.561
   11TCM    cl1  219   2.324   1.684   2.385
   11TCM    cl2  220   2.281   1.544   2.639
   11TCM     h1  221   2.380   1.759   2.605
   11TCM    cl3  222   2.144   1.797   2.586
   12TCM     c1  223   0.145   1.289   0.426
   12TCM    cl1  224   0.182   1.278   0.251
   12TCM    cl2  225   0.111   1.125   0.490
   12TCM     h1  226   0.231   1.332   0.479
   12TCM    cl3  227   0.001   1.393   0.451
   13TCM     c1  228   2.808   0.645   2.347
   13TCM    cl1  229   2.822   0.554   2.193
   13TCM    cl2  230   2.651   0.733   2.350
   13TCM     h1  231   2.813   0.575   2.431
   13TCM    cl3  232   2.942   0.763   2.358
   14TCM     c1  233   3.593   3.854   4.422
   14TCM    cl1  234   3.647   3.708   4.512
   14TCM    cl2  235   3.572   3.812   4.249
   14TCM     h1  236   3.498   3.890   4.463
   14TCM    cl3  237   3.717   3.983   4.438
   15TCM     c1  238   0.408   3.943   3.429
   15TCM    cl1  239   0.479   4.022   3.574
   15TCM    cl2  240   0.437   4.046   3.285
   15TCM     h1  241   0.455   3.846   3.414
   15TCM    cl3  242   0.232   3.922   3.455
   16TCM     c1  243   3.856   1.199   2.439
   16TCM    cl1  244   3.846   1.080   2.573
   16TCM    cl2  245   3.952   1.126   2.306
   16TCM     h1  246   3.755   1.221   2.402
   16TCM    cl3  247   3.935   1.349   2.497
   17TCM     c1  248   4.989   2.997   4.181
   17TCM    cl1  249   5.027   3.112   4.313
   17TCM    cl2  250   4.813   2.960   4.184
   17TCM     h1  251   5.016   3.040   4.084
   17TCM    cl3  252   5.081   2.845   4.207
   18TCM     c1  253   0.478   2.588   0.974
   18TCM    cl1  254   0.531   2.706   1.098
   18TCM    cl2  255   0.307   2.542   1.005
   18TCM     h1  256   0.487   2.632   0.874
   18TCM    cl3  257   0.581   2.442   0.985
   19TCM     c1  258   1.604   1.938   2.030
   19TCM    cl1  259   1.675   1.964   2.192
   19TCM    cl2  260   1.636   1.769   1.979
   19TCM     h1  261   1.496   1.956   2.033
   19TCM    cl3  262   1.682   2.052   1.916
   20TCM     c1  263   4.315   4.279   0.447
   20TCM    cl1  264   4.392   4.146   0.539
   20TCM    cl2  265   4.443   4.390   0.386
   20TCM     h1  266   4.259   4.238   0.363
   20TCM    cl3  267   4.204   4.371   0.555
   21TCM     c1  268   2.660   0.048   3.750
   21TCM    cl1  269   2.815   0.065   3.660
   21TCM    cl2  270   2.646  -0.119   3.813
   21TCM     h1  271   2.658   0.119   3.832
   21TCM    cl3  272   2.523   0.080   3.639
   22TCM     c1  273   2.800   1.812   2.673
   22TCM    cl1  274   2.771   1.960   2.770
   22TCM    cl2  275   2.958   1.827   2.589
   22TCM     h1  276   2.801   1.725   2.739
   22TCM    cl3  277   2.669   1.793   2.551
   23TCM     c1  278   0.816   2.970   4.655
   23TCM    cl1  279   0.702   3.099   4.705
   23TCM    cl2  280   0.798   2.828   4.763
   23TCM     h1  281   0.795   2.940   4.552
   23TCM    cl3  282   0.984   3.032   4.665
   24TCM     c1  283   4.558   3.249   2.008
   24TCM    cl1  284   4.483   3.382   2.103
   24TCM    cl2  285   4.433   3.126   1.968
   24TCM     h1  286   4.600   3.289   1.915
   24TCM    cl3  287   4.688   3.172   2.104
   25TCM     c1  288   0.322   3.761   4.671
   25TCM    cl1  289   0.342   3.894   4.789
   25TCM    cl2  290   0.281   3.830   4.510
   25TCM     h1  291   0.414   3.703   4.664
   25TCM    cl3  292   0.189   3.653   4.725
   26TCM     c1  293   2.315   1.226   3.070
   26TCM    cl1  294   2.461   1.149   3.000
   26TCM    cl2  295   2.172   1.122   3.042
   26TCM     h1  296   2.329   1.240   3.178
   26TCM    cl3  297   2.289   1.386   2.993
   27TCM     c1  298   1.357   1.990   2.468
   27TCM    cl1  299   1.494   2.107   2.466
   27TCM    cl2  300   1.335   1.915   2.307
   27TCM     h1  301   1.378   1.912   2.542
   27TCM    cl3  302   1.208   2.078   2.513
   28TCM     c1  303   2.970   4.755   4.611
   28TCM    cl1  304   2.825   4.693   4.525
   28TCM    cl2  305   3.010   4.919   4.550
   28TCM     h1  306   2.951   4.759   4.718
   28TCM    cl3  307   3.108   4.645   4.578
   29TCM     c1  308   2.682   2.368   2.183
   29TCM    cl1  309   2.813   2.256   2.135
   29TCM    cl2  310   2.683   2.511   2.074
   29TCM     h1  311   2.585   2.317   2.177
   29TCM    cl3  312   2.710   2.424   2.351
   30TCM     c1  313   2.953   2.174   4.911
   30TCM    cl1  314   2.783   2.211   4.864
   30TCM    cl2  315   3.042   2.328   4.938
   30TCM     h1  316   2.952   2.116   5.003
   30TCM    cl3  317   3.031   2.079   4.781
   31TCM     c1  318   0.105   0.069   1.064
   31TCM    cl1  319   0.105  -0.092   0.985
   31TCM    cl2  320   0.038   0.054   1.229
   31TCM     h1  321   0.207   0.107   1.069
   31TCM    cl3  322   0.003   0.183   0.970
   32TCM     c1  323   3.177   0.612   1.102
   32TCM    cl1  324   3.256   0.460   1.157
   32TCM    cl2  325   3.105   0.695   1.244
   32TCM     h1  326   3.251   0.677   1.055
   32TCM    cl3  327   3.048   0.572   0.984
   33TCM     c1  328   3.715   3.442   1.798
   33TCM    cl1  329   3.711   3.494   1.627
   33TCM    cl2  330   3.803   3.565   1.896
   33TCM     h1  331   3.613   3.432   1.836
   33TCM    cl3  332   3.800   3.284   1.811
   34TCM     c1  333   1.232   0.735   3.241
   34TCM    cl1  334   1.231   0.810   3.404
   34TCM    cl2  335   1.128   0.832   3.131
   34TCM     h1  336   1.334   0.734   3.202
   34TCM    cl3  337   1.170   0.567   3.254
   35TCM     c1  338   0.716   0.053   4.091
   35TCM    cl1  339   0.652  -0.108   4.139
   35TCM    cl2  340   0.833   0.033   3.957
   35TCM     h1  341   0.634   0.117   4.059
   35TCM    cl3  342   0.799   0.128   4.232
   36TCM     c1  343   2.738   3.438   3.209
   36TCM    cl1  344   2.829   3.283   3.212
   36TCM    cl2  345   2.595   3.419   3.101
   36TCM     h1  346   2.705   3.464   3.310
   36TCM    cl3  347   2.844   3.567   3.144
   37TCM     c1  348   0.486   0.973   2.190
   37TCM    cl1  349   0.446   0.990   2.364
   37TCM    cl2  350   0.456   1.129   2.106
   37TCM     h1  351   0.591   0.945   2.179
   37TCM    cl3  352   0.382   0.847   2.117
   38TCM     c1  353   4.862   2.028   2.065
   38TCM    cl1  354   4.919   1.916   2.194
   38TCM    cl2  355   4.837   1.936   1.913
   38TCM     h1  356   4.767   2.073   2.096
   38TCM    cl3  357   4.985   2.155   2.039
   39TCM     c1  358   1.550   3.602   2.030
   39TCM    cl1  359   1.465   3.497   2.148
   39TCM    cl2  360   1.599   3.754   2.110
   39TCM     h1  361   1.638   3.550   1.992
   39TCM    cl3  362   1.440   3.640   1.893
   40TCM     c1  363   3.777   1.305   1.919
   40TCM    cl1  364   3.807   1.476   1.871
   40TCM    cl2  365   3.643   1.237   1.822
   40TCM     h1  366   3.868   1.247   1.902
   40TCM    cl3  367   3.734   1.299   2.093
   41TCM     c1  368   0.842   2.328   2.052
   41TCM    cl1  369   0.907   2.391   2.207
   41TCM    cl2  370   0.947   2.382   1.917
   41TCM     h1  371   0.839   2.218   2.055
   41TCM    cl3  372   0.677   2.392   2.028
   42TCM     c1  373   2.300   3.601   1.699
   42TCM    cl1  374   2.180   3.730   1.666
   42TCM    cl2  375   2.241   3.498   1.834
   42TCM     h1  376   2.314   3.540   1.610
   42TCM    cl3  377   2.456   3.677   1.746
   43TCM     c1  378   0.902   4.394   0.932
   43TCM    cl1  379   0.753   4.489   0.963
   43TCM    cl2  380   1.025   4.499   0.853
   43TCM     h1  381   0.941   4.357   1.026
   43TCM    cl3  382   0.865   4.256   0.823
   44TCM     c1  383   0.364   1.154   4.817
   44TCM    cl1  384   0.305   1.320   4.851
   44TCM    cl2  385   0.389   1.068   4.972
   44TCM     h1  386   0.291   1.101   4.756
   44TCM    cl3  387   0.520   1.162   4.728
   45TCM     c1  388   1.475   3.686   4.530
   45TCM    cl1  389   1.497   3.611   4.692
   45TCM    cl2  390   1.408   3.564   4.417
   45TCM     h1  391   1.405   3.770   4.538
   45TCM    cl3  392   1.633   3.745   4.471
   46TCM     c1  393   0.546   0.735   4.798
   46TCM    cl1  394   0.496   0.671   4.958
   46TCM    cl2  395   0.404   0.809   4.718
   46TCM     h1  396   0.624   0.810   4.812
   46TCM    cl3  397   0.608   0.600   4.698
   47TCM     c1  398   1.372   4.126   1.814
   47TCM    cl1  399   1.331   3.988   1.707
   47TCM    cl2  400   1.410   4.064   1.978
   47TCM     h1  401   1.460   4.178   1.774
   47TCM    cl3  402   1.233   4.239   1.822
   48TCM     c1  403   3.551   4.057   4.892
   48TCM    cl1  404   3.646   3.993   5.031
   48TCM    cl2  405   3.505   3.922   4.784
   48TCM     h1  406   3.461   4.106   4.930
   48TCM    cl3  407   3.650   4.176   4.802
   49TCM     c1  408   1.382   1.364   1.104
   49TCM    cl1  409   1.351   1.412   0.933
   49TCM    cl2  410   1.485   1.217   1.106
   49TCM     h1  411   1.433   1.445   1.157
   49TCM    cl3  412   1.225   1.328   1.183
   50TCM     c1  413   3.294   0.470   1.971
   50TCM    cl1  414   3.259   0.340   2.090
   50TCM    cl2  415   3.450   0.549   2.015
   50TCM     h1  416   3.301   0.428   1.871
   50TCM    cl3  417   3.164   0.593   1.977
   51TCM     c1  418   0.209   0.413   1.608
   51TCM    cl1  419   0.156   0.286   1.723
   51TCM    cl2  420   0.375   0.466   1.650
   51TCM     h1  421   0.208   0.373   1.506
   51TCM    cl3  422   0.097   0.553   1.618
   52TCM     c1  423   3.515   2.464   0.948
   52TCM    cl1  424   3.642   2.417   0.831
   52TCM    cl2  425   3.586   2.569   1.075
   52TCM     h1  426   3.436   2.518   0.896
   52TCM    cl3  427   3.447   2.316   1.023
   53TCM     c1  428   0.015   1.715   3.047
   53TCM    cl1  429  -0.031   1.670   2.879
   53TCM    cl2  430   0.034   1.566   3.144
   53TCM     h1  431   0.109   1.771   3.046
   53TCM    cl3  432  -0.116   1.817   3.118
   54TCM     c1  433   2.018   3.440   2.214
   54TCM    cl1  434   2.039   3.318   2.084
   54TCM    cl2  435   1.844   3.479   2.230
   54TCM     h1  436   2.056   3.401   2.308
   54TCM    cl3  437   2.109   3.588   2.169
   55TCM     c1  438   0.484   4.965   4.582
   55TCM    cl1  439   0.512   4.940   4.757
   55TCM    cl2  440   0.538   4.820   4.491
   55TCM     h1  441   0.377   4.981   4.564
   55TCM    cl3  442   0.577   5.108   4.527
   56TCM     c1  443   4.691   0.696   4.237
   56TCM    cl1  444   4.796   0.783   4.120
   56TCM    cl2  445   4.658   0.803   4.378
   56TCM     h1  446   4.597   0.670   4.188
   56TCM    cl3  447   4.774   0.547   4.293
   57TCM     c1  448   3.855   4.749   1.373
   57TCM    cl1  449   3.744   4.854   1.468
   57TCM    cl2  450   3.848   4.795   1.200
   57TCM     h1  451   3.957   4.762   1.410
   57TCM    cl3  452   3.805   4.578   1.391
   58TCM     c1  453   4.663   4.274   4.849
   58TCM    cl1  454   4.629   4.105   4.799
   58TCM    cl2  455   4.565   4.313   4.994
   58TCM     h1  456   4.769   4.284   4.873
   58TCM    cl3  457   4.620   4.386   4.716
   59TCM     c1  458   3.962   4.203   1.583
   59TCM    cl1  459   3.788   4.242   1.601
   59TCM    cl2  460   4.021   4.120   1.731
   59TCM     h1  461   3.976   4.137   1.497
   59TCM    cl3  462   4.055   4.355   1.558
   60TCM     c1  463   3.745   4.098   3.173
   60TCM    cl1  464   3.597   4.192   3.137
   60TCM    cl2  465   3.711   3.986   3.310
   60TCM     h1  466   3.774   4.040   3.085
   60TCM    cl3  467   3.878   4.210   3.219
   61TCM     c1  468   0.366   0.803   3.294
   61TCM    cl1  469   0.247   0.929   3.249
   61TCM    cl2  470   0.377   0.791   3.473
   61TCM     h1  471   0.334   0.706   3.254
   61TCM    cl3  472   0.526   0.846   3.226
   62TCM     c1  473   3.000   2.447   2.660
   62TCM    cl1  474   3.065   2.446   2.827
   62TCM    cl2  475   2.859   2.558   2.651
   62TCM     h1  476   3.078   2.481   2.591
   62TCM    cl3  477   2.948   2.281   2.615
   63TCM     c1  478   3.830   2.113   2.348
   63TCM    cl1  479   3.739   2.052   2.205
   63TCM    cl2  480   3.716   2.132   2.485
   63TCM     h1  481   3.908   2.042   2.375
   63TCM    cl3  482   3.903   2.272   2.309
   64TCM     c1  483   0.008   0.634   2.012
   64TCM    cl1  484  -0.089   0.509   2.097
   64TCM    cl2  485   0.170   0.567   1.972
   64TCM     h1  486  -0.043   0.664   1.920
   64TCM    cl3  487   0.028   0.776   2.120
   65TCM     c1  488   0.342   4.977   2.885
   65TCM    cl1  489   0.503   4.957   2.808
   65TCM    cl2  490   0.213   4.938   2.766
   65TCM     h1  491   0.334   4.911   2.971
   65TCM    cl3  492   0.323   5.147   2.939
   66TCM     c1  493   0.128   3.778   0.933
   66TCM    cl1  494   0.010   3.861   0.826
   66TCM    cl2  495   0.053   3.751   1.094
   66TCM     h1  496   0.156   3.682   0.889
   66TCM    cl3  497   0.273   3.881   0.951
   67TCM     c1  498   1.571   3.424   0.639
   67TCM    cl1  499   1.562   3.591   0.704
   67TCM    cl2  500   1.709   3.412   0.525
   67TCM     h1  501   1.586   3.353   0.722
   67TCM    cl3  502   1.419   3.383   0.553
   68TCM     c1  503   2.732   4.369   3.834
   68TCM    cl1  504   2.565   4.406   3.887
   68TCM    cl2  505   2.782   4.487   3.708
   68TCM     h1  506   2.800   4.375   3.919
   68TCM    cl3  507   2.739   4.203   3.765
   69TCM     c1  508   4.719   1.593   0.164
   69TCM    cl1  509   4.623   1.443   0.177
   69TCM    cl2  510   4.610   1.735   0.181
   69TCM     h1  511   4.795   1.596   0.243
   69TCM    cl3  512   4.799   1.599   0.004
   70TCM     c1  513   2.929   4.596   4.180
   70TCM    cl1  514   2.936   4.418   4.200
   70TCM    cl2  515   2.839   4.634   4.030
   70TCM     h1  516   2.877   4.641   4.266
   70TCM    cl3  517   3.094   4.663   4.167
   71TCM     c1  518   3.827   3.992   2.026
   71TCM    cl1  519   3.754   4.147   1.973
   71TCM    cl2  520   3.697   3.876   2.068
   71TCM     h1  521   3.888   3.951   1.945
   71TCM    cl3  522   3.931   4.020   2.170
   72TCM     c1  523   1.029   0.235   3.258
   72TCM    cl1  524   1.059   0.253   3.433
   72TCM    cl2  525   0.871   0.309   3.217
   72TCM     h1  526   1.108   0.284   3.201
   72TCM    cl3  527   1.025   0.060   3.216
   73TCM     c1  528   0.826   1.196   2.500
   73TCM    cl1  529   0.729   1.306   2.396
   73TCM    cl2  530   0.721   1.125   2.626
   73TCM     h1  531   0.868   1.116   2.439
   73TCM    cl3  532   0.960   1.288   2.577
   74TCM     c1  533   1.117   0.611   2.262
   74TCM    cl1  534   0.960   0.590   2.178
   74TCM    cl2  535   1.101   0.556   2.432
   74TCM     h1  536   1.194   0.552   2.211
   74TCM    cl3  537   1.163   0.784   2.261
   75TCM     c1  538   2.853   1.134   3.620
   75TCM    cl1  539   2.886   1.214   3.777
   75TCM    cl2  540   2.741   1.235   3.523
   75TCM     h1  541   2.946   1.119   3.565
   75TCM    cl3  542   2.777   0.975   3.653
   76TCM     c1  543   4.715   4.860   0.854
   76TCM    cl1  544   4.807   4.969   0.746
   76TCM    cl2  545   4.740   4.910   1.025
   76TCM     h1  546   4.608   4.866   0.830
   76TCM    cl3  547   4.772   4.691   0.832
   77TCM     c1  548   0.535   4.209   0.180
   77TCM    cl1  549   0.474   4.144   0.335
   77TCM    cl2  550   0.429   4.343   0.125
   77TCM     h1  551   0.637   4.247   0.193
   77TCM    cl3  552   0.535   4.078   0.057
   78TCM     c1  553   2.427   3.287   2.057
   78TCM    cl1  554   2.475   3.449   2.115
   78TCM    cl2  555   2.387   3.183   2.198
   78TCM     h1  556   2.339   3.295   1.992
   78TCM    cl3  557   2.563   3.214   1.965
   79TCM     c1  558   0.486   3.040   0.856
   79TCM    cl1  559   0.568   3.134   0.986
   79TCM    cl2  560   0.341   2.960   0.924
   79TCM     h1  561   0.457   3.108   0.775
   79TCM    cl3  562   0.597   2.915   0.793
   80TCM     c1  563   3.252   3.570   0.852
   80TCM    cl1  564   3.103   3.554   0.951
   80TCM    cl2  565   3.292   3.743   0.831
   80TCM     h1  566   3.334   3.519   0.901
   80TCM    cl3  567   3.223   3.496   0.691
   81TCM     c1  568   3.191   2.963   4.763
   81TCM    cl1  569   3.317   2.869   4.677
   81TCM    cl2  570   3.270   3.085   4.868
   81TCM     h1  571   3.127   3.014   4.690
   81TCM    cl3  572   3.091   2.853   4.863
   82TCM     c1  573   1.204   1.406   1.672
   82TCM    cl1  574   1.239   1.284   1.798
   82TCM    cl2  575   1.111   1.542   1.742
   82TCM     h1  576   1.298   1.443   1.630
   82TCM    cl3  577   1.108   1.326   1.543
   83TCM     c1  578   1.993   2.414   4.565
   83TCM    cl1  579   1.989   2.249   4.494
   83TCM    cl2  580   2.047   2.402   4.736
   83TCM     h1  581   2.063   2.476   4.509
   83TCM    cl3  582   1.829   2.485   4.559
   84TCM     c1  583   2.243   4.041   3.856
   84TCM    cl1  584   2.230   3.884   3.770
   84TCM    cl2  585   2.411   4.064   3.915
   84TCM     h1  586   2.217   4.122   3.787
   84TCM    cl3  587   2.129   4.042   3.995
   85TCM     c1  588   0.837   0.227   4.779
   85TCM    cl1  589   0.957   0.216   4.646
   85TCM    cl2  590   0.865   0.378   4.873
   85TCM     h1  591   0.736   0.229   4.736
   85TCM    cl3  592   0.854   0.086   4.887
   86TCM     c1  593   0.932   0.412   2.871
   86TCM    cl1  594   0.869   0.424   2.704
   86TCM    cl2  595   1.019   0.564   2.913
   86TCM     h1  596   0.849   0.397   2.941
   86TCM    cl3  597   1.047   0.275   2.883
   87TCM     c1  598   4.708   3.002   3.013
   87TCM    cl1  599   4.622   2.860   2.944
   87TCM    cl2  600   4.864   3.024   2.928
   87TCM     h1  601   4.646   3.091   3.001
   87TCM    cl3  602   4.739   2.972   3.187
   88TCM     c1  603   3.230   4.669   0.020
   88TCM    cl1  604   3.130   4.787  -0.070
   88TCM    cl2  605   3.269   4.531  -0.088
   88TCM     h1  606   3.322   4.716   0.054
   88TCM    cl3  607   3.137   4.610   0.161
   89TCM     c1  608   1.987   0.116   3.522
   89TCM    cl1  609   2.017  -0.023   3.412
   89TCM    cl2  610   1.839   0.203   3.472
   89TCM     h1  611   1.975   0.079   3.624
   89TCM    cl3  612   2.128   0.227   3.515
   90TCM     c1  613   0.974   0.566   3.963
   90TCM    cl1  614   1.069   0.618   4.106
   90TCM    cl2  615   0.837   0.678   3.938
   90TCM     h1  616   1.038   0.566   3.875
   90TCM    cl3  617   0.910   0.400   3.991
   91TCM     c1  618   2.101   4.763   2.129
   91TCM    cl1  619   1.935   4.696   2.146
   91TCM    cl2  620   2.126   4.815   1.960
   91TCM     h1  621   2.112   4.848   2.196
   91TCM    cl3  622   2.220   4.636   2.172
   92TCM     c1  623   1.092   1.343   2.253
   92TCM    cl1  624   1.123   1.167   2.266
   92TCM    cl2  625   1.054   1.384   2.083
   92TCM     h1  626   1.007   1.371   2.317
   92TCM    cl3  627   1.237   1.432   2.308
   93TCM     c1  628   1.328   1.584   0.031
   93TCM    cl1  629   1.290   1.736  -0.056
   93TCM    cl2  630   1.506   1.561   0.037
   93TCM     h1  631   1.288   1.589   0.133
   93TCM    cl3  632   1.253   1.446  -0.055
   94TCM     c1  633   4.407   2.930   2.275
   94TCM    cl1  634   4.563   2.843   2.260
   94TCM    cl2  635   4.432   3.083   2.365
   94TCM     h1  636   4.368   2.952   2.175
   94TCM    cl3  637   4.290   2.828   2.365
   95TCM     c1  638   3.029   4.761   1.230
   95TCM    cl1  639   2.984   4.794   1.059
   95TCM    cl2  640   2.974   4.597   1.276
   95TCM     h1  641   3.137   4.767   1.241
   95TCM    cl3  642   2.951   4.882   1.337
   96TCM     c1  643   0.379   0.861   0.254
   96TCM    cl1  644   0.434   0.995   0.360
   96TCM    cl2  645   0.202   0.876   0.224
   96TCM     h1  646   0.432   0.866   0.159
   96TCM    cl3  647   0.413   0.703   0.333
   97TCM     c1  648   4.454   2.517   3.019
   97TCM    cl1  649   4.430   2.505   3.197
   97TCM    cl2  650   4.356   2.390   2.937
   97TCM     h1  651   4.422   2.615   2.985
   97TCM    cl3  652   4.627   2.492   2.982
   98TCM     c1  653   4.380   0.521   3.555
   98TCM    cl1  654   4.249   0.545   3.435
   98TCM    cl2  655   4.459   0.363   3.526
   98TCM     h1  656   4.453   0.602   3.546
   98TCM    cl3  657   4.310   0.521   3.720
   99TCM     c1  658   4.116   0.883   3.011
   99TCM    cl1  659   3.975   0.790   3.072
   99TCM    cl2  660   4.141   0.845   2.838
   99TCM     h1  661   4.098   0.990   3.023
   99TCM    cl3  662   4.262   0.835   3.103
  100TCM     c1  663   2.037   0.285   2.982
  100TCM    cl1  664   2.063   0.462   2.980
  100TCM    cl2  665   2.015   0.230   3.151
  100TCM     h1  666   1.949   0.259   2.923
  100TCM    cl3  667   2.181   0.204   2.912
  101TCM     c1  668   0.285   4.445   3.425
  101TCM    cl1  669   0.210   4.286   3.461
  101TCM    cl2  670   0.168   4.548   3.335
  101TCM     h1  671   0.312   4.495   3.518
  101TCM    cl3  672   0.431   4.420   3.325
  102TCM     c1  673   0.314   1.982   4.437
  102TCM    cl1  674   0.418   1.910   4.564
  102TCM    cl2  675   0.417   2.069   4.319
  102TCM     h1  676   0.259   1.903   4.385
  102TCM    cl3  677   0.197   2.096   4.513
  103TCM     c1  678   1.195   4.977   4.885
  103TCM    cl1  679   1.142   4.910   5.043
  103TCM    cl2  680   1.342   4.891   4.830
  103TCM     h1  681   1.115   4.963   4.812
  103TCM    cl3  682   1.230   5.152   4.903
  104TCM     c1  683   0.698   2.103   1.042
  104TCM    cl1  684   0.814   2.172   0.923
  104TCM    cl2  685   0.790   2.025   1.175
  104TCM     h1  686   0.635   2.182   1.082
  104TCM    cl3  687   0.596   1.981   0.959
  105TCM     c1  688   4.714   1.575   2.149
  105TCM    cl1  689   4.740   1.427   2.248
  105TCM    cl2  690   4.551   1.568   2.074
  105TCM     h1  691   4.721   1.663   2.213
  105TCM    cl3  692   4.839   1.583   2.021
  106TCM     c1  693   2.943   1.136   2.358
  106TCM    cl1  694   2.767   1.109   2.334
  106TCM    cl2  695   2.971   1.309   2.399
  106TCM     h1  696   2.979   1.073   2.439
  106TCM    cl3  697   3.030   1.096   2.207
  107TCM     c1  698   3.054   0.288   2.454
  107TCM    cl1  699   3.127   0.449   2.424
  107TCM    cl2  700   2.975   0.231   2.303
  107TCM     h1  701   3.132   0.217   2.484
  107TCM    cl3  702   2.932   0.302   2.584
  108TCM     c1  703   2.322   4.523   0.824
  108TCM    cl1  704   2.320   4.682   0.909
  108TCM    cl2  705   2.303   4.550   0.648
  108TCM     h1  706   2.417   4.473   0.844
  108TCM    cl3  707   2.186   4.421   0.884
  109TCM     c1  708   0.330   3.361   3.896
  109TCM    cl1  709   0.416   3.500   3.971
  109TCM    cl2  710   0.250   3.265   4.025
  109TCM     h1  711   0.255   3.397   3.826
  109TCM    cl3  712   0.449   3.258   3.811
  110TCM     c1  713   2.558   4.945   1.545
  110TCM    cl1  714   2.423   4.878   1.448
  110TCM    cl2  715   2.673   4.814   1.586
  110TCM     h1  716   2.610   5.023   1.488
  110TCM    cl3  717   2.491   5.015   1.697
  111TCM     c1  718   2.596   4.889   3.344
  111TCM    cl1  719   2.435   4.828   3.396
  111TCM    cl2  720   2.598   4.903   3.165
  111TCM     h1  721   2.614   4.987   3.389
  111TCM    cl3  722   2.723   4.774   3.398
  112TCM     c1  723   3.353   3.446   4.807
  112TCM    cl1  724   3.335   3.612   4.874
  112TCM    cl2  725   3.508   3.433   4.718
  112TCM     h1  726   3.351   3.374   4.889
  112TCM    cl3  727   3.218   3.412   4.694
  113TCM     c1  728   1.596   4.999   4.414
  113TCM    cl1  729   1.613   4.911   4.569
  113TCM    cl2  730   1.729   5.119   4.399
  113TCM     h1  731   1.601   4.928   4.331
  113TCM    cl3  732   1.438   5.084   4.411
  114TCM     c1  733   3.288   3.643   1.670
  114TCM    cl1  734   3.167   3.513   1.698
  114TCM    cl2  735   3.369   3.615   1.512
  114TCM     h1  736   3.238   3.740   1.670
  114TCM    cl3  737   3.411   3.637   1.801
  115TCM     c1  738   0.219   2.449   1.847
  115TCM    cl1  739   0.293   2.582   1.752
  115TCM    cl2  740   0.349   2.338   1.903
  115TCM     h1  741   0.167   2.490   1.933
  115TCM    cl3  742   0.104   2.359   1.744
  116TCM     c1  743   2.034   0.713   3.359
  116TCM    cl1  744   1.880   0.788   3.409
  116TCM    cl2  745   2.077   0.768   3.194
  116TCM     h1  746   2.113   0.741   3.429
  116TCM    cl3  747   2.015   0.535   3.358
  117TCM     c1  748   1.663   4.724   3.361
  117TCM    cl1  749   1.678   4.863   3.473
  117TCM    cl2  750   1.825   4.653   3.332
  117TCM     h1  751   1.598   4.648   3.405
  117TCM    cl3  752   1.593   4.779   3.205
  118TCM     c1  753   1.533   3.102   3.204
  118TCM    cl1  754   1.580   3.186   3.053
  118TCM    cl2  755   1.391   3.184   3.277
  118TCM     h1  756   1.508   2.998   3.183
  118TCM    cl3  757   1.671   3.108   3.320
  119TCM     c1  758   4.757   2.355   2.236
  119TCM    cl1  759   4.683   2.223   2.333
  119TCM    cl2  760   4.734   2.512   2.320
  119TCM     h1  761   4.864   2.336   2.224
  119TCM    cl3  762   4.678   2.362   2.075
  120TCM     c1  763   2.311   1.266   1.716
  120TCM    cl1  764   2.447   1.383   1.729
  120TCM    cl2  765   2.288   1.221   1.544
  120TCM     h1  766   2.334   1.177   1.775
  120TCM    cl3  767   2.161   1.343   1.777
  121TCM     c1  768   1.250   4.952   3.504
  121TCM    cl1  769   1.362   5.061   3.415
  121TCM    cl2  770   1.238   5.004   3.675
  121TCM     h1  771   1.151   4.955   3.458
  121TCM    cl3  772   1.314   4.785   3.496
  122TCM     c1  773   4.468   3.542   2.454
  122TCM    cl1  774   4.603   3.424   2.446
  122TCM    cl2  775   4.487   3.642   2.602
  122TCM     h1  776   4.470   3.606   2.366
  122TCM    cl3  777   4.312   3.453   2.461
  123TCM     c1  778   4.447   1.050   3.495
  123TCM    cl1  779   4.321   1.138   3.588
  123TCM    cl2  780   4.392   0.882   3.464
  123TCM     h1  781   4.464   1.101   3.400
  123TCM    cl3  782   4.599   1.047   3.590
  124TCM     c1  783   3.603   1.652   2.336
  124TCM    cl1  784   3.605   1.478   2.378
  124TCM    cl2  785   3.711   1.680   2.195
  124TCM     h1  786   3.501   1.683   2.310
  124TCM    cl3  787   3.662   1.747   2.476
  125TCM     c1  788   4.929   4.052   3.279
  125TCM    cl1  789   4.836   3.954   3.161
  125TCM    cl2  790   4.887   3.998   3.445
  125TCM     h1  791   5.036   4.039   3.263
  125TCM    cl3  792   4.887   4.225   3.260
  126TCM     c1  793   0.515   1.925   0.205
  126TCM    cl1  794   0.601   1.901   0.359
  126TCM    cl2  795   0.382   2.043   0.232
  126TCM     h1  796   0.584   1.963   0.129
  126TCM    cl3  797   0.446   1.769   0.150
  127TCM     c1  798   3.504   1.745   3.437
  127TCM    cl1  799   3.375   1.733   3.312
  127TCM    cl2  800   3.537   1.581   3.503
  127TCM     h1  801   3.595   1.785   3.392
  127TCM    cl3  802   3.449   1.852   3.569
  128TCM     c1  803   1.612   2.487   2.641
  128TCM    cl1  804   1.725   2.621   2.678
  128TCM    cl2  805   1.681   2.332   2.700
  128TCM     h1  806   1.517   2.506   2.690
  128TCM    cl3  807   1.586   2.478   2.463
  129TCM     c1  808   0.753   4.593   4.907
  129TCM    cl1  809   0.804   4.722   5.021
  129TCM    cl2  810   0.578   4.612   4.873
  129TCM     h1  811   0.810   4.602   4.814
  129TCM    cl3  812   0.783   4.432   4.980
  130TCM     c1  813   4.823   4.605   0.090
  130TCM    cl1  814   4.902   4.446   0.063
  130TCM    cl2  815   4.713   4.591   0.231
  130TCM     h1  816   4.899   4.681   0.109
  130TCM    cl3  817   4.727   4.651  -0.054
  131TCM     c1  818   0.669   1.503   0.391
  131TCM    cl1  819   0.686   1.600   0.542
  131TCM    cl2  820   0.744   1.342   0.415
  131TCM     h1  821   0.563   1.491   0.367
  131TCM    cl3  822   0.751   1.589   0.257
  132TCM     c1  823   2.350   0.373   3.250
  132TCM    cl1  824   2.433   0.220   3.294
  132TCM    cl2  825   2.423   0.440   3.101
  132TCM     h1  826   2.244   0.353   3.233
  132TCM    cl3  827   2.367   0.492   3.383
  133TCM     c1  828   0.800   1.088   3.017
  133TCM    cl1  829   0.936   1.163   2.927
  133TCM    cl2  830   0.781   0.918   2.964
  133TCM     h1  831   0.822   1.090   3.124
  133TCM    cl3  832   0.649   1.180   2.985
  134TCM     c1  833   0.165   4.291   4.735
  134TCM    cl1  834   0.200   4.177   4.600
  134TCM    cl2  835   0.188   4.206   4.891
  134TCM     h1  836   0.233   4.376   4.729
  134TCM    cl3  837  -0.005   4.347   4.724
  135TCM     c1  838   4.178   1.404   2.121
  135TCM    cl1  839   4.266   1.341   2.264
  135TCM    cl2  840   4.027   1.485   2.176
  135TCM     h1  841   4.241   1.476   2.068
  135TCM    cl3  842   4.136   1.268   2.012
  136TCM     c1  843   1.499   0.789   1.926
  136TCM    cl1  844   1.497   0.748   2.101
  136TCM    cl2  845   1.330   0.809   1.868
  136TCM     h1  846   1.554   0.882   1.910
  136TCM    cl3  847   1.577   0.656   1.835
  137TCM     c1  848   0.086   0.024   3.247
  137TCM    cl1  849   0.135   0.196   3.260
  137TCM    cl2  850   0.232  -0.080   3.249
  137TCM     h1  851   0.021  -0.002   3.331
  137TCM    cl3  852  -0.002  -0.001   3.093
  138TCM     c1  853   2.126   1.802   3.057
  138TCM    cl1  854   2.207   1.943   2.981
  138TCM    cl2  855   2.244   1.711   3.155
  138TCM     h1  856   2.045   1.838   3.121
  138TCM    cl3  857   2.059   1.696   2.929
  139TCM     c1  858   2.548   3.222   3.516
  139TCM    cl1  859   2.442   3.318   3.408
  139TCM    cl2  860   2.459   3.173   3.663
  139TCM     h1  861   2.582   3.132   3.463
  139TCM    cl3  862   2.690   3.321   3.562
  140TCM     c1  863   1.073   1.199   3.456
  140TCM    cl1  864   1.048   1.181   3.279
  140TCM    cl2  865   0.988   1.066   3.540
  140TCM     h1  866   1.179   1.196   3.479
  140TCM    cl3  867   1.004   1.356   3.510
  141TCM     c1  868   0.742   4.252   1.581
  141TCM    cl1  869   0.877   4.316   1.481
  141TCM    cl2  870   0.663   4.115   1.496
  141TCM     h1  871   0.781   4.218   1.677
  141TCM    cl3  872   0.621   4.382   1.608
  142TCM     c1  873   3.590   4.265   2.398
  142TCM    cl1  874   3.538   4.162   2.261
  142TCM    cl2  875   3.762   4.232   2.436
  142TCM     h1  876   3.577   4.370   2.371
  142TCM    cl3  877   3.488   4.227   2.540
  143TCM     c1  878   0.473   2.506   3.317
  143TCM    cl1  879   0.574   2.422   3.194
  143TCM    cl2  880   0.576   2.560   3.453
  143TCM     h1  881   0.424   2.592   3.271
  143TCM    cl3  882   0.349   2.392   3.378
  144TCM     c1  883   1.746   3.923   1.435
  144TCM    cl1  884   1.595   3.826   1.429
  144TCM    cl2  885   1.775   3.999   1.275
  144TCM     h1  886   1.737   4.001   1.511
  144TCM    cl3  887   1.885   3.816   1.474
  145TCM     c1  888   1.771   1.638   2.339
  145TCM    cl1  889   1.809   1.519   2.211
  145TCM    cl2  890   1.849   1.588   2.492
  145TCM     h1  891   1.808   1.736   2.310
  145TCM    cl3  892   1.593   1.645   2.363
  146TCM     c1  893   4.984   4.586   4.362
  146TCM    cl1  894   5.100   4.455   4.400
  146TCM    cl2  895   4.911   4.648   4.513
  146TCM     h1  896   5.036   4.667   4.310
  146TCM    cl3  897   4.855   4.521   4.255
  147TCM     c1  898   1.080   1.427   0.666
  147TCM    cl1  899   1.048   1.556   0.546
  147TCM    cl2  900   1.086   1.268   0.583
  147TCM     h1  901   1.175   1.446   0.716
  147TCM    cl3  902   0.948   1.424   0.788
  148TCM     c1  903   2.750   2.929   0.041
  148TCM    cl1  904   2.677   2.962  -0.119
  148TCM    cl2  905   2.654   2.802   0.124
  148TCM     h1  906   2.853   2.895   0.029
  148TCM    cl3  907   2.747   3.078   0.141
  149TCM     c1  908   3.580   1.405   3.005
  149TCM    cl1  909   3.465   1.272   2.971
  149TCM    cl2  910   3.721   1.393   2.894
  149TCM     h1  911   3.530   1.501   2.989
  149TCM    cl3  912   3.636   1.395   3.175
  150TCM     c1  913   3.601   0.137   1.660
  150TCM    cl1  914   3.536   0.242   1.790
  150TCM    cl2  915   3.703   0.235   1.549
  150TCM     h1  916   3.661   0.057   1.704
  150TCM    cl3  917   3.466   0.066   1.566
  151TCM     c1  918   3.789   2.413   1.407
  151TCM    cl1  919   3.910   2.330   1.511
  151TCM    cl2  920   3.726   2.296   1.286
  151TCM     h1  921   3.707   2.450   1.469
  151TCM    cl3  922   3.867   2.550   1.322
  152TCM     c1  923   3.168   4.150   2.328
  152TCM    cl1  924   3.032   4.090   2.228
  152TCM    cl2  925   3.135   4.117   2.501
  152TCM     h1  926   3.261   4.100   2.298
  152TCM    cl3  927   3.186   4.327   2.304
  153TCM     c1  928   4.300   0.948   2.484
  153TCM    cl1  929   4.474   0.950   2.528
  153TCM    cl2  930   4.284   0.960   2.305
  153TCM     h1  931   4.255   0.854   2.518
  153TCM    cl3  932   4.218   1.087   2.561
  154TCM     c1  933   1.071   2.015   4.654
  154TCM    cl1  934   1.149   1.855   4.638
  154TCM    cl2  935   1.035   2.046   4.827
  154TCM     h1  936   1.138   2.093   4.616
  154TCM    cl3  937   0.917   2.015   4.562
  155TCM     c1  938   2.435   4.616   4.343
  155TCM    cl1  939   2.437   4.657   4.518
  155TCM    cl2  940   2.588   4.534   4.298
  155TCM     h1  941   2.351   4.549   4.322
  155TCM    cl3  942   2.418   4.766   4.246
  156TCM     c1  943   2.250   4.966   4.818
  156TCM    cl1  944   2.235   5.145   4.820
  156TCM    cl2  945   2.423   4.920   4.810
  156TCM     h1  946   2.205   4.925   4.909
  156TCM    cl3  947   2.166   4.902   4.673
  157TCM     c1  948   2.034   1.189   2.671
  157TCM    cl1  949   1.985   1.335   2.764
  157TCM    cl2  950   1.949   1.046   2.738
  157TCM     h1  951   2.007   1.202   2.566
  157TCM    cl3  952   2.211   1.165   2.683
  158TCM     c1  953   1.788   2.205   4.945
  158TCM    cl1  954   1.817   2.323   5.077
  158TCM    cl2  955   1.683   2.280   4.820
  158TCM     h1  956   1.883   2.176   4.900
  158TCM    cl3  957   1.707   2.060   5.014
  159TCM     c1  958   2.233   1.601   1.492
  159TCM    cl1  959   2.251   1.700   1.640
  159TCM    cl2  960   2.279   1.699   1.348
  159TCM     h1  961   2.298   1.513   1.498
  159TCM    cl3  962   2.062   1.549   1.476
  160TCM     c1  963   2.777   2.801   0.565
  160TCM    cl1  964   2.674   2.671   0.498
  160TCM    cl2  965   2.872   2.874   0.431
  160TCM     h1  966   2.715   2.877   0.612
  160TCM    cl3  967   2.890   2.731   0.685
  161TCM     c1  968   3.231   1.827   1.952
  161TCM    cl1  969   3.107   1.958   1.955
  161TCM    cl2  970   3.176   1.694   1.846
  161TCM     h1  971   3.325   1.867   1.915
  161TCM    cl3  972   3.254   1.764   2.119
  162TCM     c1  973   4.533   4.549   2.599
  162TCM    cl1  974   4.601   4.392   2.653
  162TCM    cl2  975   4.564   4.674   2.724
  162TCM     h1  976   4.580   4.578   2.505
  162TCM    cl3  977   4.356   4.532   2.574
  163TCM     c1  978   3.346   0.218   4.479
  163TCM    cl1  979   3.328   0.381   4.551
  163TCM    cl2  980   3.221   0.194   4.353
  163TCM     h1  981   3.446   0.209   4.435
  163TCM    cl3  982   3.326   0.093   4.607
  164TCM     c1  983   3.766   4.033   3.880
  164TCM    cl1  984   3.865   3.884   3.896
  164TCM    cl2  985   3.702   4.080   4.041
  164TCM     h1  986   3.828   4.114   3.840
  164TCM    cl3  987   3.629   4.001   3.769
  165TCM     c1  988   2.164   1.358   2.192
  165TCM    cl1  989   2.058   1.239   2.110
  165TCM    cl2  990   2.111   1.376   2.362
  165TCM     h1  991   2.267   1.324   2.189
  165TCM    cl3  992   2.152   1.516   2.107
  166TCM     c1  993   2.754   0.205   4.857
  166TCM    cl1  994   2.790   0.031   4.828
  166TCM    cl2  995   2.778   0.242   5.031
  166TCM     h1  996   2.821   0.267   4.797
  166TCM    cl3  997   2.584   0.240   4.812
  167TCM     c1  998   2.481   2.766   1.901
  167TCM    cl1  999   2.524   2.854   2.052
  167TCM    cl2 1000   2.444   2.885   1.773
  167TCM     h1 1001   2.565   2.704   1.870
  167TCM    cl3 1002   2.338   2.663   1.932
  168TCM     c1 1003   0.896   4.853   1.272
  168TCM    cl1 1004   0.802   4.957   1.383
  168TCM    cl2 1005   1.059   4.924   1.249
  168TCM     h1 1006   0.905   4.753   1.314
  168TCM    cl3 1007   0.812   4.844   1.114
  169TCM     c1 1008   4.096   2.169   4.304
  169TCM    cl1 1009   4.047   2.223   4.468
  169TCM    cl2 1010   3.960   2.081   4.227
  169TCM     h1 1011   4.123   2.256   4.244
  169TCM    cl3 1012   4.238   2.060   4.318
  170TCM     c1 1013   1.863   4.837   4.872
  170TCM    cl1 1014   1.701   4.771   4.913
  170TCM    cl2 1015   1.972   4.818   5.013
  170TCM     h1 1016   1.904   4.783   4.786
  170TCM    cl3 1017   1.850   5.012   4.832
  171TCM     c1 1018   3.359   3.707   0.383
  171TCM    cl1 1019   3.305   3.548   0.321
  171TCM    cl2 1020   3.487   3.684   0.507
  171TCM     h1 1021   3.399   3.767   0.301
  171TCM    cl3 1022   3.220   3.793   0.457
  172TCM     c1 1023   4.880   1.077   0.179
  172TCM    cl1 1024   4.777   1.138   0.312
  172TCM    cl2 1025   4.882   1.197   0.045
  172TCM     h1 1026   4.982   1.061   0.215
  172TCM    cl3 1027   4.813   0.922   0.118
  173TCM     c1 1028   4.014   1.824   2.031
  173TCM    cl1 1029   3.885   1.863   1.912
  173TCM    cl2 1030   4.080   1.977   2.099
  173TCM     h1 1031   3.972   1.764   2.112
  173TCM    cl3 1032   4.145   1.733   1.949
  174TCM     c1 1033   3.937   1.769   4.988
  174TCM    cl1 1034   3.981   1.661   4.851
  174TCM    cl2 1035   3.759   1.791   4.991
  174TCM     h1 1036   3.970   1.724   5.082
  174TCM    cl3 1037   4.017   1.928   4.965
  175TCM     c1 1038   3.942   3.236   4.876
  175TCM    cl1 1039   3.861   3.320   4.739
  175TCM    cl2 1040   3.908   3.324   5.028
  175TCM     h1 1041   3.904   3.134   4.884
  175TCM    cl3 1042   4.119   3.232   4.847
  176TCM     c1 1043   1.351   0.386   3.636
  176TCM    cl1 1044   1.487   0.296   3.710
  176TCM    cl2 1045   1.398   0.559   3.617
  176TCM     h1 1046   1.328   0.344   3.538
  176TCM    cl3 1047   1.206   0.376   3.742
  177TCM     c1 1048   3.425   0.120   1.194
  177TCM    cl1 1049   3.327  -0.024   1.238
  177TCM    cl2 1050   3.392   0.161   1.023
  177TCM     h1 1051   3.399   0.204   1.258
  177TCM    cl3 1052   3.599   0.080   1.213
  178TCM     c1 1053   1.170   0.165   4.106
  178TCM    cl1 1054   1.175   0.289   4.236
  178TCM    cl2 1055   1.142   0.003   4.178
  178TCM     h1 1056   1.090   0.188   4.035
  178TCM    cl3 1057   1.327   0.164   4.020
  179TCM     c1 1058   3.184   0.227   3.443
  179TCM    cl1 1059   3.285   0.319   3.327
  179TCM    cl2 1060   3.040   0.324   3.489
  179TCM     h1 1061   3.151   0.133   3.398
  179TCM    cl3 1062   3.280   0.192   3.591
  180TCM     c1 1063   2.236   0.884   4.102
  180TCM    cl1 1064   2.268   0.864   3.927
  180TCM    cl2 1065   2.361   0.796   4.196
  180TCM     h1 1066   2.239   0.990   4.128
  180TCM    cl3 1067   2.074   0.817   4.140
  181TCM     c1 1068   3.350   0.570   0.051
  181TCM    cl1 1069   3.509   0.497   0.093
  181TCM    cl2 1070   3.219   0.481   0.135
  181TCM     h1 1071   3.350   0.674   0.082
  181TCM    cl3 1072   3.324   0.560  -0.126
  182TCM     c1 1073   1.811   1.886   2.685
  182TCM    cl1 1074   1.641   1.860   2.736
  182TCM    cl2 1075   1.886   2.011   2.791
  182TCM     h1 1076   1.867   1.793   2.693
  182TCM    cl3 1077   1.813   1.944   2.516
  183TCM     c1 1078   4.849   3.941   4.559
  183TCM    cl1 1079   4.916   3.826   4.439
  183TCM    cl2 1080   4.844   4.106   4.488
  183TCM     h1 1081   4.748   3.911   4.587
  183TCM    cl3 1082   4.954   3.942   4.705
  184TCM     c1 1083   0.794   0.744   2.548
  184TCM    cl1 1084   0.933   0.808   2.642
  184TCM    cl2 1085   0.783   0.834   2.393
  184TCM     h1 1086   0.809   0.638   2.527
  184TCM    cl3 1087   0.644   0.766   2.643
  185TCM     c1 1088   4.886   0.760   3.342
  185TCM    cl1 1089   4.727   0.711   3.410
  185TCM    cl2 1090   5.016   0.657   3.413
  185TCM     h1 1091   4.886   0.747   3.234
  185TCM    cl3 1092   4.916   0.932   3.382
  186TCM     c1 1093   4.985   4.556   0.526
  186TCM    cl1 1094   4.921   4.721   0.500
  186TCM    cl2 1095   5.088   4.511   0.385
  186TCM     h1 1096   5.045   4.553   0.617
  186TCM    cl3 1097   4.848   4.440   0.539
  187TCM     c1 1098   0.660   3.258   0.049
  187TCM    cl1 1099   0.809   3.347   0.093
  187TCM    cl2 1100   0.519   3.340   0.123
  187TCM     h1 1101   0.648   3.256  -0.060
  187TCM    cl3 1102   0.670   3.090   0.112
  188TCM     c1 1103   1.465   2.422   4.530
  188TCM    cl1 1104   1.325   2.333   4.599
  188TCM    cl2 1105   1.413   2.588   4.487
  188TCM     h1 1106   1.546   2.426   4.604
  188TCM    cl3 1107   1.522   2.337   4.383
  189TCM     c1 1108   1.790   3.985   4.994
  189TCM    cl1 1109   1.925   3.938   5.102
  189TCM    cl2 1110   1.750   3.849   4.884
  189TCM     h1 1111   1.702   4.010   5.054
  189TCM    cl3 1112   1.836   4.129   4.897
  190TCM     c1 1113   0.686   3.326   0.470
  190TCM    cl1 1114   0.753   3.491   0.449
  190TCM    cl2 1115   0.614   3.312   0.634
  190TCM     h1 1116   0.609   3.308   0.395
  190TCM    cl3 1117   0.817   3.205   0.451
  191TCM     c1 1118   4.167   1.686   2.439
  191TCM    cl1 1119   4.015   1.776   2.405
  191TCM    cl2 1120   4.234   1.739   2.597
  191TCM     h1 1121   4.146   1.579   2.442
  191TCM    cl3 1122   4.286   1.721   2.309
  192TCM     c1 1123   2.031   0.474   4.256
  192TCM    cl1 1124   2.030   0.296   4.235
  192TCM    cl2 1125   2.173   0.521   4.355
  192TCM     h1 1126   2.038   0.522   4.158
  192TCM    cl3 1127   1.880   0.527   4.337
  193TCM     c1 1128   0.352   0.242   2.513
  193TCM    cl1 1129   0.358   0.071   2.457
  193TCM    cl2 1130   0.494   0.278   2.616
  193TCM     h1 1131   0.353   0.308   2.426
  193TCM    cl3 1132   0.201   0.269   2.606
  194TCM     c1 1133   2.042   4.490   3.964
  194TCM    cl1 1134   1.956   4.389   4.085
  194TCM    cl2 1135   2.146   4.384   3.862
  194TCM     h1 1136   1.969   4.541   3.901
  194TCM    cl3 1137   2.144   4.611   4.048
  195TCM     c1 1138   4.162   4.500   1.238
  195TCM    cl1 1139   4.293   4.381   1.268
  195TCM    cl2 1140   4.149   4.532   1.062
  195TCM     h1 1141   4.067   4.460   1.275
  195TCM    cl3 1142   4.201   4.653   1.323
  196TCM     c1 1143   1.010   2.381   0.344
  196TCM    cl1 1144   0.890   2.309   0.457
  196TCM    cl2 1145   0.930   2.504   0.241
  196TCM     h1 1146   1.091   2.427   0.401
  196TCM    cl3 1147   1.076   2.251   0.240
  197TCM     c1 1148   1.456   0.533   4.175
  197TCM    cl1 1149   1.556   0.680   4.201
  197TCM    cl2 1150   1.556   0.388   4.207
  197TCM     h1 1151   1.370   0.535   4.243
  197TCM    cl3 1152   1.399   0.530   4.005
  198TCM     c1 1153   1.679   1.463   0.796
  198TCM    cl1 1154   1.771   1.348   0.899
  198TCM    cl2 1155   1.770   1.493   0.645
  198TCM     h1 1156   1.581   1.422   0.773
  198TCM    cl3 1157   1.659   1.618   0.885
  199TCM     c1 1158   1.251   4.473   1.205
  199TCM    cl1 1159   1.091   4.554   1.215
  199TCM    cl2 1160   1.234   4.321   1.110
  199TCM     h1 1161   1.323   4.539   1.156
  199TCM    cl3 1162   1.308   4.434   1.371
  200TCM     c1 1163   0.097   2.472   2.367
  200TCM    cl1 1164   0.163   2.432   2.205
  200TCM    cl2 1165   0.212   2.578   2.455
  200TCM     h1 1166   0.002   2.524   2.356
  200TCM    cl3 1167   0.073   2.319   2.457
  201TCM     c1 1168   0.757   2.265   0.010
  201TCM    cl1 1169   0.697   2.143  -0.107
  201TCM    cl2 1170   0.690   2.228   0.172
  201TCM     h1 1171   0.866   2.261   0.014
  201TCM    cl3 1172   0.703   2.428  -0.040
  202TCM     c1 1173   3.618   4.629   3.105
  202TCM    cl1 1174   3.705   4.784   3.082
  202TCM    cl2 1175   3.447   4.663   3.147
  202TCM     h1 1176   3.622   4.570   3.013
  202TCM    cl3 1177   3.695   4.538   3.239
  203TCM     c1 1178   1.953   0.915   2.218
  203TCM    cl1 1179   2.021   0.971   2.374
  203TCM    cl2 1180   1.779   0.960   2.210
  203TCM     h1 1181   2.007   0.962   2.135
  203TCM    cl3 1182   1.968   0.737   2.205
  204TCM     c1 1183   0.635   4.427   4.401
  204TCM    cl1 1184   0.460   4.440   4.434
  204TCM    cl2 1185   0.728   4.495   4.540
  204TCM     h1 1186   0.663   4.322   4.387
  204TCM    cl3 1187   0.673   4.521   4.253
  205TCM     c1 1188   2.199   4.766   3.651
  205TCM    cl1 1189   2.323   4.654   3.716
  205TCM    cl2 1190   2.205   4.921   3.743
  205TCM     h1 1191   2.218   4.786   3.545
  205TCM    cl3 1192   2.035   4.695   3.669
  206TCM     c1 1193   1.011   0.112   0.945
  206TCM    cl1 1194   0.891   0.220   1.023
  206TCM    cl2 1195   1.177   0.169   0.984
  206TCM     h1 1196   0.998   0.010   0.982
  206TCM    cl3 1197   0.989   0.115   0.767
  207TCM     c1 1198   2.479   3.316   1.045
  207TCM    cl1 1199   2.318   3.313   1.123
  207TCM    cl2 1200   2.492   3.178   0.931
  207TCM     h1 1201   2.492   3.410   0.990
  207TCM    cl3 1202   2.606   3.301   1.171
  208TCM     c1 1203   1.058   3.530   0.755
  208TCM    cl1 1204   1.216   3.506   0.838
  208TCM    cl2 1205   0.966   3.376   0.757
  208TCM     h1 1206   1.001   3.607   0.807
  208TCM    cl3 1207   1.087   3.581   0.585
  209TCM     c1 1208   3.714   2.350   1.923
  209TCM    cl1 1209   3.685   2.448   1.776
  209TCM    cl2 1210   3.711   2.457   2.067
  209TCM     h1 1211   3.636   2.274   1.932
  209TCM    cl3 1212   3.874   2.269   1.912
  210TCM     c1 1213   2.694   2.415   0.808
  210TCM    cl1 1214   2.796   2.373   0.666
  210TCM    cl2 1215   2.797   2.483   0.938
  210TCM     h1 1216   2.619   2.490   0.779
  210TCM    cl3 1217   2.611   2.268   0.868
  211TCM     c1 1218   2.611   3.425   4.029
  211TCM    cl1 1219   2.738   3.543   4.075
  211TCM    cl2 1220   2.516   3.382   4.175
  211TCM     h1 1221   2.545   3.470   3.954
  211TCM    cl3 1222   2.686   3.277   3.960
  212TCM     c1 1223   1.188   2.853   4.080
  212TCM    cl1 1224   1.235   2.836   4.252
  212TCM    cl2 1225   1.016   2.807   4.059
  212TCM     h1 1226   1.202   2.957   4.048
  212TCM    cl3 1227   1.291   2.745   3.980
  213TCM     c1 1228   1.685   2.781   2.998
  213TCM    cl1 1229   1.530   2.838   2.928
  213TCM    cl2 1230   1.666   2.757   3.174
  213TCM     h1 1231   1.714   2.687   2.951
  213TCM    cl3 1232   1.813   2.904   2.968
  214TCM     c1 1233   3.694   4.536   3.731
  214TCM    cl1 1234   3.675   4.690   3.821
  214TCM    cl2 1235   3.711   4.399   3.846
  214TCM     h1 1236   3.607   4.519   3.667
  214TCM    cl3 1237   3.842   4.545   3.629
  215TCM     c1 1238   0.327   3.069   0.425
  215TCM    cl1 1239   0.497   3.017   0.446
  215TCM    cl2 1240   0.320   3.248   0.412
  215TCM     h1 1241   0.286   3.023   0.335
  215TCM    cl3 1242   0.232   3.017   0.568
  216TCM     c1 1243   1.326   2.149   0.021
  216TCM    cl1 1244   1.383   2.088  -0.138
  216TCM    cl2 1245   1.418   2.297   0.066
  216TCM     h1 1246   1.220   2.173   0.015
  216TCM    cl3 1247   1.353   2.024   0.147
  217TCM     c1 1248   0.394   1.872   2.680
  217TCM    cl1 1249   0.308   2.022   2.631
  217TCM    cl2 1250   0.306   1.795   2.816
  217TCM     h1 1251   0.399   1.803   2.596
  217TCM    cl3 1252   0.560   1.914   2.734
  218TCM     c1 1253   3.739   0.206   4.735
  218TCM    cl1 1254   3.737   0.110   4.887
  218TCM    cl2 1255   3.629   0.346   4.752
  218TCM     h1 1256   3.840   0.241   4.715
  218TCM    cl3 1257   3.684   0.102   4.599
  219TCM     c1 1258   1.745   2.503   1.890
  219TCM    cl1 1259   1.576   2.503   1.830
  219TCM    cl2 1260   1.754   2.400   2.036
  219TCM     h1 1261   1.812   2.464   1.813
  219TCM    cl3 1262   1.793   2.671   1.932
  220TCM     c1 1263   4.231   0.556   4.087
  220TCM    cl1 1264   4.357   0.537   4.213
  220TCM    cl2 1265   4.105   0.670   4.145
  220TCM     h1 1266   4.276   0.595   3.995
  220TCM    cl3 1267   4.155   0.397   4.054
  221TCM     c1 1268   0.344   3.807   1.304
  221TCM    cl1 1269   0.245   3.712   1.420
  221TCM    cl2 1270   0.516   3.760   1.321
  221TCM     h1 1271   0.311   3.786   1.202
  221TCM    cl3 1272   0.327   3.982   1.337
  222TCM     c1 1273   0.580   1.467   0.857
  222TCM    cl1 1274   0.522   1.634   0.886
  222TCM    cl2 1275   0.467   1.385   0.744
  222TCM     h1 1276   0.680   1.471   0.813
  222TCM    cl3 1277   0.586   1.379   1.012
  223TCM     c1 1278   3.515   2.410   2.595
  223TCM    cl1 1279   3.367   2.510   2.577
  223TCM    cl2 1280   3.516   2.333   2.757
  223TCM     h1 1281   3.516   2.332   2.518
  223TCM    cl3 1282   3.660   2.513   2.575
  224TCM     c1 1283   0.387   4.588   2.996
  224TCM    cl1 1284   0.478   4.703   3.100
  224TCM    cl2 1285   0.457   4.588   2.831
  224TCM     h1 1286   0.393   4.487   3.039
  224TCM    cl3 1287   0.215   4.639   2.987
  225TCM     c1 1288   0.010   4.624   2.092
  225TCM    cl1 1289   0.078   4.640   1.926
  225TCM    cl2 1290   0.132   4.549   2.200
  225TCM     h1 1291  -0.018   4.722   2.130
  225TCM    cl3 1292  -0.135   4.519   2.085
  226TCM     c1 1293   0.574   2.512   2.346
  226TCM    cl1 1294   0.579   2.587   2.509
  226TCM    cl2 1295   0.487   2.620   2.233
  226TCM     h1 1296   0.676   2.497   2.311
  226TCM    cl3 1297   0.490   2.353   2.356
  227TCM     c1 1298   0.460   3.997   2.728
  227TCM    cl1 1299   0.448   4.062   2.895
  227TCM    cl2 1300   0.298   4.002   2.650
  227TCM     h1 1301   0.531   4.056   2.670
  227TCM    cl3 1302   0.515   3.826   2.736
  228TCM     c1 1303   2.286   0.536   3.798
  228TCM    cl1 1304   2.225   0.503   3.963
  228TCM    cl2 1305   2.147   0.569   3.690
  228TCM     h1 1306   2.353   0.623   3.800
  228TCM    cl3 1307   2.376   0.392   3.740
  229TCM     c1 1308   2.004   1.936   2.059
  229TCM    cl1 1309   2.112   1.857   1.939
  229TCM    cl2 1310   2.036   2.112   2.061
  229TCM     h1 1311   1.900   1.917   2.031
  229TCM    cl3 1312   2.036   1.867   2.222
  230TCM     c1 1313   1.169   3.277   2.083
  230TCM    cl1 1314   1.179   3.382   1.938
  230TCM    cl2 1315   1.119   3.111   2.033
  230TCM     h1 1316   1.267   3.272   2.131
  230TCM    cl3 1317   1.048   3.344   2.197
  231TCM     c1 1318   4.766   3.516   2.940
  231TCM    cl1 1319   4.634   3.636   2.962
  231TCM    cl2 1320   4.783   3.476   2.766
  231TCM     h1 1321   4.860   3.558   2.977
  231TCM    cl3 1322   4.728   3.367   3.032
  232TCM     c1 1323   4.239   0.763   4.597
  232TCM    cl1 1324   4.282   0.835   4.439
  232TCM    cl2 1325   4.072   0.811   4.641
  232TCM     h1 1326   4.245   0.654   4.591
  232TCM    cl3 1327   4.354   0.823   4.722
  233TCM     c1 1328   0.369   2.891   4.412
  233TCM    cl1 1329   0.526   2.832   4.474
  233TCM    cl2 1330   0.397   3.029   4.302
  233TCM     h1 1331   0.318   2.810   4.358
  233TCM    cl3 1332   0.267   2.945   4.549
  234TCM     c1 1333   1.018   1.895   0.247
  234TCM    cl1 1334   0.958   1.928   0.412
  234TCM    cl2 1335   0.886   1.928   0.129
  234TCM     h1 1336   1.103   1.959   0.225
  234TCM    cl3 1337   1.069   1.723   0.233
  235TCM     c1 1338   1.978   1.946   1.611
  235TCM    cl1 1339   1.948   2.118   1.650
  235TCM    cl2 1340   1.998   1.926   1.434
  235TCM     h1 1341   2.069   1.912   1.661
  235TCM    cl3 1342   1.840   1.846   1.665
  236TCM     c1 1343   2.532   4.298   3.476
  236TCM    cl1 1344   2.515   4.475   3.463
  236TCM    cl2 1345   2.503   4.225   3.314
  236TCM     h1 1346   2.632   4.272   3.511
  236TCM    cl3 1347   2.409   4.236   3.592
  237TCM     c1 1348   3.170   0.380   1.498
  237TCM    cl1 1349   3.137   0.207   1.464
  237TCM    cl2 1350   3.346   0.405   1.517
  237TCM     h1 1351   3.133   0.441   1.415
  237TCM    cl3 1352   3.087   0.430   1.649
  238TCM     c1 1353   2.349   4.575   4.882
  238TCM    cl1 1354   2.341   4.657   5.042
  238TCM    cl2 1355   2.184   4.570   4.811
  238TCM     h1 1356   2.416   4.630   4.816
  238TCM    cl3 1357   2.409   4.408   4.905
  239TCM     c1 1358   2.572   1.659   3.008
  239TCM    cl1 1359   2.676   1.781   3.089
  239TCM    cl2 1360   2.672   1.526   2.944
  239TCM     h1 1361   2.499   1.619   3.079
  239TCM    cl3 1362   2.486   1.737   2.872
  240TCM     c1 1363   0.820   1.695   4.770
  240TCM    cl1 1364   0.776   1.550   4.675
  240TCM    cl2 1365   0.930   1.646   4.903
  240TCM     h1 1366   0.871   1.768   4.706
  240TCM    cl3 1367   0.672   1.770   4.839
  241TCM     c1 1368   2.979   1.151   2.901
  241TCM    cl1 1369   2.910   1.140   2.736
  241TCM    cl2 1370   2.962   1.318   2.963
  241TCM     h1 1371   2.927   1.082   2.968
  241TCM    cl3 1372   3.154   1.110   2.895
  242TCM     c1 1373   3.624   0.627   1.254
  242TCM    cl1 1374   3.775   0.668   1.342
  242TCM    cl2 1375   3.482   0.694   1.341
  242TCM     h1 1376   3.628   0.669   1.153
  242TCM    cl3 1377   3.608   0.448   1.243
  243TCM     c1 1378   0.450   0.349   0.441
  243TCM    cl1 1379   0.611   0.396   0.376
  243TCM    cl2 1380   0.441   0.389   0.615
  243TCM     h1 1381   0.372   0.404   0.387
  243TCM    cl3 1382   0.426   0.173   0.419
  244TCM     c1 1383   0.787   3.740   3.600
  244TCM    cl1 1384   0.817   3.914   3.633
  244TCM    cl2 1385   0.702   3.723   3.443
  244TCM     h1 1386   0.883   3.687   3.596
  244TCM    cl3 1387   0.685   3.671   3.730
  245TCM     c1 1388   0.131   4.087   4.246
  245TCM    cl1 1389   0.014   4.189   4.156
  245TCM    cl2 1390   0.291   4.168   4.248
  245TCM     h1 1391   0.097   4.073   4.349
  245TCM    cl3 1392   0.145   3.928   4.164
  246TCM     c1 1393   3.592   1.749   0.409
  246TCM    cl1 1394   3.583   1.629   0.276
  246TCM    cl2 1395   3.426   1.809   0.445
  246TCM     h1 1396   3.633   1.701   0.499
  246TCM    cl3 1397   3.697   1.885   0.360
  247TCM     c1 1398   3.455   4.251   3.476
  247TCM    cl1 1399   3.629   4.288   3.492
  247TCM    cl2 1400   3.376   4.380   3.380
  247TCM     h1 1401   3.442   4.154   3.427
  247TCM    cl3 1402   3.382   4.246   3.640
  248TCM     c1 1403   2.073   4.797   3.102
  248TCM    cl1 1404   1.937   4.891   3.033
  248TCM    cl2 1405   2.222   4.897   3.104
  248TCM     h1 1406   2.049   4.767   3.204
  248TCM    cl3 1407   2.102   4.651   3.002
  249TCM     c1 1408   2.477   0.336   2.284
  249TCM    cl1 1409   2.377   0.187   2.288
  249TCM    cl2 1410   2.624   0.311   2.384
  249TCM     h1 1411   2.506   0.358   2.181
  249TCM    cl3 1412   2.383   0.474   2.350
  250TCM     c1 1413   3.203   1.967   3.886
  250TCM    cl1 1414   3.114   1.979   4.041
  250TCM    cl2 1415   3.379   1.991   3.916
  250TCM     h1 1416   3.187   1.868   3.842
  250TCM    cl3 1417   3.144   2.093   3.773
  251TCM     c1 1418   3.098   2.559   0.236
  251TCM    cl1 1419   2.967   2.645   0.149
  251TCM    cl2 1420   3.048   2.536   0.407
  251TCM     h1 1421   3.115   2.461   0.189
  251TCM    cl3 1422   3.248   2.656   0.229
  252TCM     c1 1423   1.540   0.389   4.575
  252TCM    cl1 1424   1.368   0.425   4.536
  252TCM    cl2 1425   1.549   0.279   4.717
  252TCM     h1 1426   1.587   0.341   4.490
  252TCM    cl3 1427   1.625   0.542   4.613
  253TCM     c1 1428   0.820   1.532   1.471
  253TCM    cl1 1429   0.867   1.494   1.302
  253TCM    cl2 1430   0.650   1.482   1.497
  253TCM     h1 1431   0.885   1.477   1.540
  253TCM    cl3 1432   0.836   1.708   1.501
  254TCM     c1 1433   0.077   2.773   0.221
  254TCM    cl1 1434   0.251   2.749   0.258
  254TCM    cl2 1435   0.023   2.931   0.286
  254TCM     h1 1436   0.061   2.771   0.113
  254TCM    cl3 1437  -0.018   2.642   0.298
  255TCM     c1 1438   0.494   1.774   4.023
  255TCM    cl1 1439   0.443   1.926   3.942
  255TCM    cl2 1440   0.504   1.641   3.903
  255TCM     h1 1441   0.592   1.789   4.068
  255TCM    cl3 1442   0.375   1.731   4.150
  256TCM     c1 1443   0.931   0.557   0.274
  256TCM    cl1 1444   0.954   0.688   0.395
  256TCM    cl2 1445   1.087   0.526   0.192
  256TCM     h1 1446   0.897   0.467   0.325
  256TCM    cl3 1447   0.808   0.609   0.154
  257TCM     c1 1448   3.626   4.764   4.803
  257TCM    cl1 1449   3.478   4.855   4.846
  257TCM    cl2 1450   3.627   4.733   4.626
  257TCM     h1 1451   3.714   4.823   4.830
  257TCM    cl3 1452   3.629   4.608   4.891
  258TCM     c1 1453   3.217   3.835   3.211
  258TCM    cl1 1454   3.313   3.985   3.235
  258TCM    cl2 1455   3.063   3.847   3.303
  258TCM     h1 1456   3.195   3.821   3.105
  258TCM    cl3 1457   3.312   3.695   3.272
  259TCM     c1 1458   2.840   4.142   2.905
  259TCM    cl1 1459   2.756   4.204   3.051
  259TCM    cl2 1460   2.967   4.024   2.953
  259TCM     h1 1461   2.768   4.093   2.839
  259TCM    cl3 1462   2.916   4.279   2.817
  260TCM     c1 1463   3.413   1.068   2.645
  260TCM    cl1 1464   3.520   1.210   2.617
  260TCM    cl2 1465   3.499   0.919   2.594
  260TCM     h1 1466   3.388   1.062   2.751
  260TCM    cl3 1467   3.264   1.088   2.547
  261TCM     c1 1468   4.346   1.928   4.778
  261TCM    cl1 1469   4.355   2.085   4.690
  261TCM    cl2 1470   4.390   1.954   4.950
  261TCM     h1 1471   4.245   1.889   4.772
  261TCM    cl3 1472   4.461   1.812   4.704
  262TCM     c1 1473   3.220   2.124   0.344
  262TCM    cl1 1474   3.119   2.048   0.216
  262TCM    cl2 1475   3.114   2.173   0.480
  262TCM     h1 1476   3.295   2.054   0.379
  262TCM    cl3 1477   3.300   2.270   0.277
  263TCM     c1 1478   4.742   4.586   1.197
  263TCM    cl1 1479   4.732   4.545   1.371
  263TCM    cl2 1480   4.575   4.603   1.131
  263TCM     h1 1481   4.796   4.680   1.184
  263TCM    cl3 1482   4.828   4.455   1.109
  264TCM     c1 1483   4.533   0.524   2.811
  264TCM    cl1 1484   4.424   0.632   2.717
  264TCM    cl2 1485   4.674   0.618   2.869
  264TCM     h1 1486   4.478   0.482   2.896
  264TCM    cl3 1487   4.590   0.391   2.704
  265TCM     c1 1488   3.503   2.055   4.983
  265TCM    cl1 1489   3.444   1.948   5.114
  265TCM    cl2 1490   3.623   2.169   5.052
  265TCM     h1 1491   3.549   1.995   4.905
  265TCM    cl3 1492   3.365   2.148   4.916
  266TCM     c1 1493   1.201   4.521   4.923
  266TCM    cl1 1494   1.216   4.352   4.866
  266TCM    cl2 1495   1.122   4.521   5.085
  266TCM     h1 1496   1.300   4.567   4.931
  266TCM    cl3 1497   1.100   4.614   4.807
  267TCM     c1 1498   0.210   0.149   4.253
  267TCM    cl1 1499   0.319   0.084   4.125
  267TCM    cl2 1500   0.180   0.022   4.376
  267TCM     h1 1501   0.258   0.235   4.300
  267TCM    cl3 1502   0.054   0.200   4.180
  268TCM     c1 1503   4.341   4.600   0.099
  268TCM    cl1 1504   4.178   4.555   0.159
  268TCM    cl2 1505   4.397   4.745   0.188
  268TCM     h1 1506   4.411   4.517   0.116
  268TCM    cl3 1507   4.334   4.637  -0.076
  269TCM     c1 1508   0.380   2.316   3.801
  269TCM    cl1 1509   0.370   2.489   3.753
  269TCM    cl2 1510   0.333   2.297   3.973
  269TCM     h1 1511   0.313   2.256   3.738
  269TCM    cl3 1512   0.549   2.258   3.779
  270TCM     c1 1513   3.847   1.174   1.524
  270TCM    cl1 1514   3.915   1.120   1.367
  270TCM    cl2 1515   3.788   1.343   1.508
  270TCM     h1 1516   3.764   1.108   1.552
  270TCM    cl3 1517   3.975   1.167   1.650
  271TCM     c1 1518   1.515   4.786   0.296
  271TCM    cl1 1519   1.685   4.728   0.291
  271TCM    cl2 1520   1.437   4.735   0.449
  271TCM     h1 1521   1.514   4.895   0.289
  271TCM    cl3 1522   1.425   4.717   0.157
  272TCM     c1 1523   3.210   1.046   3.784
  272TCM    cl1 1524   3.223   1.139   3.631
  272TCM    cl2 1525   3.374   1.007   3.844
  272TCM     h1 1526   3.156   1.105   3.859
  272TCM    cl3 1527   3.122   0.893   3.753
  273TCM     c1 1528   4.442   3.294   3.289
  273TCM    cl1 1529   4.604   3.282   3.365
  273TCM    cl2 1530   4.422   3.165   3.166
  273TCM     h1 1531   4.364   3.283   3.366
  273TCM    cl3 1532   4.425   3.454   3.210
  274TCM     c1 1533   1.341   0.803   0.404
  274TCM    cl1 1534   1.244   0.883   0.532
  274TCM    cl2 1535   1.386   0.637   0.457
  274TCM     h1 1536   1.282   0.797   0.312
  274TCM    cl3 1537   1.489   0.899   0.376
  275TCM     c1 1538   0.963   1.813   0.903
  275TCM    cl1 1539   0.867   1.703   1.007
  275TCM    cl2 1540   0.876   1.841   0.749
  275TCM     h1 1541   0.978   1.908   0.954
  275TCM    cl3 1542   1.122   1.737   0.868
  276TCM     c1 1543   3.394   2.837   2.142
  276TCM    cl1 1544   3.549   2.903   2.080
  276TCM    cl2 1545   3.318   2.956   2.252
  276TCM     h1 1546   3.327   2.817   2.058
  276TCM    cl3 1547   3.425   2.684   2.231
  277TCM     c1 1548   3.148   3.198   2.489
  277TCM    cl1 1549   3.048   3.339   2.441
  277TCM    cl2 1550   3.042   3.057   2.519
  277TCM     h1 1551   3.219   3.175   2.409
  277TCM    cl3 1552   3.238   3.237   2.640
  278TCM     c1 1553   1.207   1.106   0.063
  278TCM    cl1 1554   1.133   0.982   0.169
  278TCM    cl2 1555   1.149   1.086  -0.105
  278TCM     h1 1556   1.179   1.206   0.100
  278TCM    cl3 1557   1.386   1.090   0.068
  279TCM     c1 1558   3.147   0.043   0.569
  279TCM    cl1 1559   3.304   0.031   0.655
  279TCM    cl2 1560   3.014   0.010   0.685
  279TCM     h1 1561   3.135   0.144   0.528
  279TCM    cl3 1562   3.142  -0.077   0.436
  280TCM     c1 1563   1.966   3.378   0.786
  280TCM    cl1 1564   1.908   3.498   0.907
  280TCM    cl2 1565   1.870   3.228   0.802
  280TCM     h1 1566   1.954   3.419   0.685
  280TCM    cl3 1567   2.139   3.343   0.816
  281TCM     c1 1568   2.786   3.604   1.619
  281TCM    cl1 1569   2.910   3.724   1.571
  281TCM    cl2 1570   2.796   3.573   1.795
  281TCM     h1 1571   2.687   3.642   1.594
  281TCM    cl3 1572   2.813   3.449   1.532
  282TCM     c1 1573   4.765   0.413   3.860
  282TCM    cl1 1574   4.906   0.485   3.944
  282TCM    cl2 1575   4.744   0.493   3.701
  282TCM     h1 1576   4.781   0.306   3.845
  282TCM    cl3 1577   4.617   0.437   3.958
  283TCM     c1 1578   4.821   2.950   4.570
  283TCM    cl1 1579   4.909   2.801   4.522
  283TCM    cl2 1580   4.922   3.044   4.683
  283TCM     h1 1581   4.800   3.010   4.481
  283TCM    cl3 1582   4.667   2.904   4.649
  284TCM     c1 1583   0.955   4.523   2.012
  284TCM    cl1 1584   0.879   4.420   1.886
  284TCM    cl2 1585   0.835   4.641   2.074
  284TCM     h1 1586   0.990   4.460   2.094
  284TCM    cl3 1587   1.094   4.612   1.941
  285TCM     c1 1588   0.263   4.928   0.163
  285TCM    cl1 1589   0.113   4.833   0.187
  285TCM    cl2 1590   0.248   5.024   0.013
  285TCM     h1 1591   0.279   4.995   0.248
  285TCM    cl3 1592   0.403   4.816   0.147
  286TCM     c1 1593   4.611   0.341   3.204
  286TCM    cl1 1594   4.630   0.263   3.044
  286TCM    cl2 1595   4.526   0.498   3.184
  286TCM     h1 1596   4.553   0.276   3.270
  286TCM    cl3 1597   4.773   0.369   3.277
  287TCM     c1 1598   3.496   4.838   4.283
  287TCM    cl1 1599   3.340   4.834   4.369
  287TCM    cl2 1600   3.544   5.008   4.252
  287TCM     h1 1601   3.573   4.789   4.343
  287TCM    cl3 1602   3.479   4.751   4.127
  288TCM     c1 1603   1.176   1.705   1.228
  288TCM    cl1 1604   1.341   1.706   1.156
  288TCM    cl2 1605   1.118   1.874   1.245
  288TCM     h1 1606   1.108   1.649   1.164
  288TCM    cl3 1607   1.186   1.628   1.390
  289TCM     c1 1608   0.444   0.018   1.325
  289TCM    cl1 1609   0.333   0.121   1.422
  289TCM    cl2 1610   0.491   0.106   1.176
  289TCM     h1 1611   0.533  -0.005   1.384
  289TCM    cl3 1612   0.360  -0.134   1.280
  290TCM     c1 1613   3.310   1.498   2.593
  290TCM    cl1 1614   3.261   1.639   2.493
  290TCM    cl2 1615   3.169   1.439   2.687
  290TCM     h1 1616   3.347   1.418   2.529
  290TCM    cl3 1617   3.439   1.550   2.707
  291TCM     c1 1618   3.502   0.069   0.317
  291TCM    cl1 1619   3.650   0.140   0.246
  291TCM    cl2 1620   3.439  -0.060   0.209
  291TCM     h1 1621   3.525   0.027   0.415
  291TCM    cl3 1622   3.379   0.199   0.336
  292TCM     c1 1623   0.789   1.160   1.733
  292TCM    cl1 1624   0.795   1.152   1.554
  292TCM    cl2 1625   0.625   1.115   1.788
  292TCM     h1 1626   0.862   1.090   1.775
  292TCM    cl3 1627   0.827   1.326   1.787
  293TCM     c1 1628   2.797   3.715   1.071
  293TCM    cl1 1629   2.734   3.590   0.957
  293TCM    cl2 1630   2.795   3.649   1.237
  293TCM     h1 1631   2.899   3.742   1.043
  293TCM    cl3 1632   2.691   3.860   1.065
  294TCM     c1 1633   2.422   2.464   4.256
  294TCM    cl1 1634   2.585   2.389   4.273
  294TCM    cl2 1635   2.341   2.468   4.417
  294TCM     h1 1636   2.432   2.565   4.217
  294TCM    cl3 1637   2.324   2.365   4.143
  295TCM     c1 1638   0.464   2.227   0.568
  295TCM    cl1 1639   0.621   2.155   0.615
  295TCM    cl2 1640   0.488   2.353   0.443
  295TCM     h1 1641   0.398   2.149   0.528
  295TCM    cl3 1642   0.388   2.302   0.712
  296TCM     c1 1643   2.278   0.304   1.448
  296TCM    cl1 1644   2.444   0.255   1.399
  296TCM    cl2 1645   2.287   0.434   1.571
  296TCM     h1 1646   2.224   0.339   1.360
  296TCM    cl3 1647   2.192   0.162   1.518
  297TCM     c1 1648   2.543   3.458   4.951
  297TCM    cl1 1649   2.593   3.330   4.836
  297TCM    cl2 1650   2.615   3.425   5.112
  297TCM     h1 1651   2.576   3.555   4.914
  297TCM    cl3 1652   2.364   3.457   4.964
  298TCM     c1 1653   0.264   3.210   4.808
  298TCM    cl1 1654   0.367   3.093   4.896
  298TCM    cl2 1655   0.366   3.304   4.693
  298TCM     h1 1656   0.187   3.157   4.752
  298TCM    cl3 1657   0.188   3.322   4.926
  299TCM     c1 1658   3.593   1.665   1.650
  299TCM    cl1 1659   3.480   1.526   1.645
  299TCM    cl2 1660   3.553   1.769   1.792
  299TCM     h1 1661   3.696   1.628   1.660
  299TCM    cl3 1662   3.577   1.760   1.499
  300TCM     c1 1663   2.465   2.629   2.540
  300TCM    cl1 1664   2.397   2.743   2.661
  300TCM    cl2 1665   2.494   2.716   2.386
  300TCM     h1 1666   2.559   2.587   2.577
  300TCM    cl3 1667   2.347   2.497   2.509
  301TCM     c1 1668   4.479   2.584   0.425
  301TCM    cl1 1669   4.424   2.587   0.254
  301TCM    cl2 1670   4.437   2.740   0.503
  301TCM     h1 1671   4.429   2.502   0.478
  301TCM    cl3 1672   4.656   2.561   0.431
  302TCM     c1 1673   0.078   4.365   1.560
  302TCM    cl1 1674  -0.084   4.299   1.602
  302TCM    cl2 1675   0.082   4.405   1.385
  302TCM     h1 1676   0.097   4.455   1.619
  302TCM    cl3 1677   0.204   4.242   1.595
  303TCM     c1 1678   3.155   1.602   3.584
  303TCM    cl1 1679   3.028   1.476   3.571
  303TCM    cl2 1680   3.229   1.596   3.747
  303TCM     h1 1681   3.232   1.584   3.508
  303TCM    cl3 1682   3.082   1.764   3.557
  304TCM     c1 1683   1.137   3.817   1.984
  304TCM    cl1 1684   1.035   3.725   1.869
  304TCM    cl2 1685   1.161   3.721   2.134
  304TCM     h1 1686   1.234   3.837   1.938
  304TCM    cl3 1687   1.056   3.972   2.024
  305TCM     c1 1688   2.893   4.005   1.867
  305TCM    cl1 1689   2.959   4.101   1.730
  305TCM    cl2 1690   3.002   3.866   1.900
  305TCM     h1 1691   2.886   4.068   1.957
  305TCM    cl3 1692   2.730   3.945   1.823
  306TCM     c1 1693   1.497   2.857   2.055
  306TCM    cl1 1694   1.459   3.012   2.137
  306TCM    cl2 1695   1.369   2.819   1.936
  306TCM     h1 1696   1.594   2.865   2.004
  306TCM    cl3 1697   1.506   2.726   2.178
  307TCM     c1 1698   4.798   0.116   0.036
  307TCM    cl1 1699   4.843   0.068  -0.131
  307TCM    cl2 1700   4.941   0.189   0.117
  307TCM     h1 1701   4.717   0.189   0.033
  307TCM    cl3 1702   4.746  -0.029   0.128
  308TCM     c1 1703   3.999   4.683   2.617
  308TCM    cl1 1704   3.915   4.722   2.771
  308TCM    cl2 1705   3.919   4.772   2.483
  308TCM     h1 1706   4.104   4.712   2.623
  308TCM    cl3 1707   3.987   4.506   2.585
  309TCM     c1 1708   1.469   0.081   3.042
  309TCM    cl1 1709   1.354   0.213   3.080
  309TCM    cl2 1710   1.635   0.129   3.090
  309TCM     h1 1711   1.439  -0.009   3.096
  309TCM    cl3 1712   1.465   0.048   2.865
  310TCM     c1 1713   3.562   4.871   3.500
  310TCM    cl1 1714   3.479   4.974   3.379
  310TCM    cl2 1715   3.732   4.845   3.449
  310TCM     h1 1716   3.560   4.920   3.598
  310TCM    cl3 1717   3.477   4.713   3.511
  311TCM     c1 1718   3.704   2.120   4.568
  311TCM    cl1 1719   3.698   1.987   4.448
  311TCM    cl2 1720   3.761   2.055   4.725
  311TCM     h1 1721   3.773   2.197   4.533
  311TCM    cl3 1722   3.540   2.189   4.588
  312TCM     c1 1723   4.648   4.247   2.268
  312TCM    cl1 1724   4.572   4.410   2.275
  312TCM    cl2 1725   4.534   4.126   2.336
  312TCM     h1 1726   4.670   4.222   2.164
  312TCM    cl3 1727   4.799   4.247   2.364
  313TCM     c1 1728   5.000   2.780   2.083
  313TCM    cl1 1729   5.179   2.771   2.079
  313TCM    cl2 1730   4.944   2.800   2.252
  313TCM     h1 1731   4.966   2.864   2.022
  313TCM    cl3 1732   4.933   2.627   2.016
  314TCM     c1 1733   1.149   2.105   0.674
  314TCM    cl1 1734   1.154   2.110   0.853
  314TCM    cl2 1735   1.252   1.970   0.615
  314TCM     h1 1736   1.046   2.091   0.640
  314TCM    cl3 1737   1.214   2.259   0.609
  315TCM     c1 1738   0.801   2.012   3.906
  315TCM    cl1 1739   0.831   1.836   3.884
  315TCM    cl2 1740   0.948   2.102   3.856
  315TCM     h1 1741   0.717   2.043   3.844
  315TCM    cl3 1742   0.766   2.044   4.079
  316TCM     c1 1743   3.985   3.640   1.160
  316TCM    cl1 1744   3.960   3.806   1.096
  316TCM    cl2 1745   3.848   3.595   1.268
  316TCM     h1 1746   3.990   3.569   1.077
  316TCM    cl3 1747   4.138   3.635   1.253
  317TCM     c1 1748   0.167   0.061   2.036
  317TCM    cl1 1749   0.268  -0.073   2.100
  317TCM    cl2 1750   0.156   0.192   2.158
  317TCM     h1 1751   0.213   0.100   1.944
  317TCM    cl3 1752   0.002  -0.000   1.999
  318TCM     c1 1753   1.265   2.673   1.473
  318TCM    cl1 1754   1.422   2.696   1.558
  318TCM    cl2 1755   1.133   2.663   1.594
  318TCM     h1 1756   1.247   2.758   1.407
  318TCM    cl3 1757   1.270   2.521   1.377
  319TCM     c1 1758   0.789   2.522   4.009
  319TCM    cl1 1759   0.718   2.576   3.853
  319TCM    cl2 1760   0.943   2.436   3.975
  319TCM     h1 1761   0.808   2.608   4.072
  319TCM    cl3 1762   0.674   2.411   4.091
  320TCM     c1 1763   0.946   0.719   4.746
  320TCM    cl1 1764   0.869   0.871   4.691
  320TCM    cl2 1765   1.029   0.748   4.902
  320TCM     h1 1766   0.870   0.642   4.759
  320TCM    cl3 1767   1.064   0.663   4.622
  321TCM     c1 1768   3.397   2.750   0.551
  321TCM    cl1 1769   3.478   2.746   0.711
  321TCM    cl2 1770   3.487   2.861   0.442
  321TCM     h1 1771   3.396   2.650   0.507
  321TCM    cl3 1772   3.229   2.810   0.571
  322TCM     c1 1773   3.542   4.723   2.618
  322TCM    cl1 1774   3.401   4.736   2.507
  322TCM    cl2 1775   3.619   4.562   2.597
  322TCM     h1 1776   3.614   4.801   2.595
  322TCM    cl3 1777   3.486   4.740   2.787
  323TCM     c1 1778   4.555   3.203   4.883
  323TCM    cl1 1779   4.582   3.257   4.713
  323TCM    cl2 1780   4.464   3.331   4.971
  323TCM     h1 1781   4.498   3.110   4.883
  323TCM    cl3 1782   4.714   3.178   4.962
  324TCM     c1 1783   4.496   2.629   2.589
  324TCM    cl1 1784   4.630   2.748   2.596
  324TCM    cl2 1785   4.369   2.676   2.706
  324TCM     h1 1786   4.454   2.627   2.488
  324TCM    cl3 1787   4.558   2.466   2.630
  325TCM     c1 1788   2.163   4.389   3.361
  325TCM    cl1 1789   2.077   4.332   3.214
  325TCM    cl2 1790   2.066   4.347   3.507
  325TCM     h1 1791   2.261   4.342   3.367
  325TCM    cl3 1792   2.182   4.567   3.353
  326TCM     c1 1793   3.508   2.079   0.728
  326TCM    cl1 1794   3.338   2.025   0.747
  326TCM    cl2 1795   3.526   2.155   0.566
  326TCM     h1 1796   3.532   2.152   0.806
  326TCM    cl3 1797   3.618   1.938   0.741
  327TCM     c1 1798   2.449   2.170   2.574
  327TCM    cl1 1799   2.412   2.025   2.674
  327TCM    cl2 1800   2.489   2.119   2.407
  327TCM     h1 1801   2.361   2.235   2.573
  327TCM    cl3 1802   2.588   2.257   2.645
  328TCM     c1 1803   2.944   2.724   3.051
  328TCM    cl1 1804   2.981   2.897   3.084
  328TCM    cl2 1805   2.779   2.711   2.982
  328TCM     h1 1806   3.017   2.684   2.981
  328TCM    cl3 1807   2.952   2.632   3.205
  329TCM     c1 1808   0.089   2.045   1.462
  329TCM    cl1 1809   0.076   1.900   1.358
  329TCM    cl2 1810  -0.053   2.053   1.572
  329TCM     h1 1811   0.181   2.041   1.520
  329TCM    cl3 1812   0.089   2.191   1.357
  330TCM     c1 1813   1.590   1.027   3.413
  330TCM    cl1 1814   1.567   0.914   3.550
  330TCM    cl2 1815   1.704   1.157   3.459
  330TCM     h1 1816   1.630   0.972   3.327
  330TCM    cl3 1817   1.432   1.101   3.369
  331TCM     c1 1818   3.390   4.042   1.941
  331TCM    cl1 1819   3.328   3.920   2.057
  331TCM    cl2 1820   3.310   4.199   1.971
  331TCM     h1 1821   3.498   4.052   1.953
  331TCM    cl3 1822   3.353   3.989   1.773
  332TCM     c1 1823   2.142   3.448   0.377
  332TCM    cl1 1824   2.306   3.412   0.317
  332TCM    cl2 1825   2.154   3.559   0.518
  332TCM     h1 1826   2.083   3.495   0.298
  332TCM    cl3 1827   2.062   3.296   0.429
  333TCM     c1 1828   4.594   2.073   3.118
  333TCM    cl1 1829   4.594   2.101   2.941
  333TCM    cl2 1830   4.431   2.111   3.183
  333TCM     h1 1831   4.618   1.968   3.138
  333TCM    cl3 1832   4.715   2.179   3.196
  334TCM     c1 1833   2.366   3.678   1.284
  334TCM    cl1 1834   2.397   3.663   1.108
  334TCM    cl2 1835   2.464   3.558   1.375
  334TCM     h1 1836   2.393   3.778   1.317
  334TCM    cl3 1837   2.192   3.649   1.316
  335TCM     c1 1838   0.951   4.885   4.490
  335TCM    cl1 1839   1.125   4.900   4.531
  335TCM    cl2 1840   0.861   4.836   4.638
  335TCM     h1 1841   0.914   4.980   4.453
  335TCM    cl3 1842   0.930   4.759   4.364
  336TCM     c1 1843   3.573   3.455   3.309
  336TCM    cl1 1844   3.442   3.370   3.396
  336TCM    cl2 1845   3.555   3.426   3.133
  336TCM     h1 1846   3.568   3.562   3.330
  336TCM    cl3 1847   3.731   3.390   3.363
  337TCM     c1 1848   3.567   3.898   1.009
  337TCM    cl1 1849   3.664   4.023   1.093
  337TCM    cl2 1850   3.543   3.757   1.118
  337TCM     h1 1851   3.469   3.940   0.982
  337TCM    cl3 1852   3.653   3.846   0.861
  338TCM     c1 1853   2.437   1.003   3.552
  338TCM    cl1 1854   2.438   1.095   3.706
  338TCM    cl2 1855   2.404   1.115   3.416
  338TCM     h1 1856   2.534   0.954   3.537
  338TCM    cl3 1857   2.308   0.878   3.558
  339TCM     c1 1858   2.095   3.523   4.646
  339TCM    cl1 1859   2.014   3.542   4.806
  339TCM    cl2 1860   2.257   3.600   4.650
  339TCM     h1 1861   2.105   3.417   4.623
  339TCM    cl3 1862   1.994   3.604   4.521
  340TCM     c1 1863   4.258   3.671   2.889
  340TCM    cl1 1864   4.151   3.622   2.754
  340TCM    cl2 1865   4.172   3.643   3.044
  340TCM     h1 1866   4.350   3.611   2.887
  340TCM    cl3 1867   4.298   3.845   2.873
  341TCM     c1 1868   2.410   0.084   4.400
  341TCM    cl1 1869   2.550   0.034   4.501
  341TCM    cl2 1870   2.469   0.141   4.241
  341TCM     h1 1871   2.344  -0.001   4.386
  341TCM    cl3 1872   2.321   0.217   4.482
  342TCM     c1 1873   3.233   1.747   4.611
  342TCM    cl1 1874   3.116   1.796   4.484
  342TCM    cl2 1875   3.347   1.882   4.645
  342TCM     h1 1876   3.178   1.722   4.702
  342TCM    cl3 1877   3.325   1.603   4.556
  343TCM     c1 1878   2.371   3.875   0.095
  343TCM    cl1 1879   2.262   3.766   0.187
  343TCM    cl2 1880   2.292   4.035   0.073
  343TCM     h1 1881   2.464   3.889   0.151
  343TCM    cl3 1882   2.406   3.803  -0.065
  344TCM     c1 1883   0.547   0.369   3.766
  344TCM    cl1 1884   0.545   0.545   3.732
  344TCM    cl2 1885   0.543   0.343   3.943
  344TCM     h1 1886   0.460   0.322   3.720
  344TCM    cl3 1887   0.697   0.296   3.699
  345TCM     c1 1888   3.588   0.731   1.733
  345TCM    cl1 1889   3.676   0.864   1.651
  345TCM    cl2 1890   3.644   0.573   1.670
  345TCM     h1 1891   3.608   0.736   1.841
  345TCM    cl3 1892   3.411   0.748   1.704
  346TCM     c1 1893   2.796   4.958   2.469
  346TCM    cl1 1894   2.691   4.870   2.585
  346TCM    cl2 1895   2.767   4.898   2.302
  346TCM     h1 1896   2.774   5.065   2.474
  346TCM    cl3 1897   2.968   4.930   2.513
  347TCM     c1 1898   2.867   4.406   2.106
  347TCM    cl1 1899   2.987   4.369   1.979
  347TCM    cl2 1900   2.735   4.284   2.098
  347TCM     h1 1901   2.915   4.401   2.204
  347TCM    cl3 1902   2.801   4.570   2.079
  348TCM     c1 1903   0.899   0.945   2.059
  348TCM    cl1 1904   0.816   1.095   2.111
  348TCM    cl2 1905   1.034   0.987   1.948
  348TCM     h1 1906   0.938   0.892   2.146
  348TCM    cl3 1907   0.781   0.840   1.974
  349TCM     c1 1908   2.386   4.202   2.960
  349TCM    cl1 1909   2.299   4.074   3.050
  349TCM    cl2 1910   2.268   4.318   2.890
  349TCM     h1 1911   2.454   4.255   3.027
  349TCM    cl3 1912   2.480   4.127   2.827
  350TCM     c1 1913   4.055   1.721   4.486
  350TCM    cl1 1914   4.047   1.877   4.574
  350TCM    cl2 1915   4.223   1.694   4.428
  350TCM     h1 1916   4.026   1.640   4.553
  350TCM    cl3 1917   3.944   1.726   4.345
  351TCM     c1 1918   0.520   0.306   0.030
  351TCM    cl1 1919   0.498   0.284  -0.146
  351TCM    cl2 1920   0.577   0.152   0.101
  351TCM     h1 1921   0.594   0.384   0.048
  351TCM    cl3 1922   0.363   0.353   0.102
  352TCM     c1 1923   3.868   3.683   4.798
  352TCM    cl1 1924   3.874   3.859   4.765
  352TCM    cl2 1925   3.739   3.648   4.918
  352TCM     h1 1926   3.847   3.629   4.705
  352TCM    cl3 1927   4.027   3.631   4.863
  353TCM     c1 1928   1.964   2.259   2.495
  353TCM    cl1 1929   1.858   2.262   2.351
  353TCM    cl2 1930   1.999   2.427   2.547
  353TCM     h1 1931   1.913   2.205   2.576
  353TCM    cl3 1932   2.117   2.175   2.455
  354TCM     c1 1933   2.156   4.049   1.317
  354TCM    cl1 1934   2.305   4.010   1.226
  354TCM    cl2 1935   2.092   4.206   1.259
  354TCM     h1 1936   2.081   3.971   1.301
  354TCM    cl3 1937   2.195   4.059   1.492
  355TCM     c1 1938   4.204   3.741   1.587
  355TCM    cl1 1939   4.039   3.677   1.618
  355TCM    cl2 1940   4.292   3.758   1.742
  355TCM     h1 1941   4.258   3.671   1.521
  355TCM    cl3 1942   4.192   3.901   1.507
  356TCM     c1 1943   2.520   4.400   0.402
  356TCM    cl1 1944   2.418   4.351   0.263
  356TCM    cl2 1945   2.553   4.576   0.389
  356TCM     h1 1946   2.467   4.380   0.495
  356TCM    cl3 1947   2.674   4.309   0.400
  357TCM     c1 1948   2.942   2.195   4.383
  357TCM    cl1 1949   2.867   2.037   4.345
  357TCM    cl2 1950   3.112   2.170   4.438
  357TCM     h1 1951   2.942   2.259   4.294
  357TCM    cl3 1952   2.849   2.276   4.514
  358TCM     c1 1953   1.787   3.060   2.306
  358TCM    cl1 1954   1.714   2.943   2.422
  358TCM    cl2 1955   1.821   2.979   2.150
  358TCM     h1 1956   1.717   3.143   2.290
  358TCM    cl3 1957   1.940   3.123   2.375
  359TCM     c1 1958   0.604   4.136   4.705
  359TCM    cl1 1959   0.517   4.285   4.752
  359TCM    cl2 1960   0.781   4.165   4.712
  359TCM     h1 1961   0.577   4.055   4.774
  359TCM    cl3 1962   0.558   4.090   4.538
  360TCM     c1 1963   0.415   2.350   1.379
  360TCM    cl1 1964   0.393   2.527   1.401
  360TCM    cl2 1965   0.392   2.266   1.536
  360TCM     h1 1966   0.342   2.313   1.306
  360TCM    cl3 1967   0.581   2.319   1.319
  361TCM     c1 1968   4.442   0.896   3.899
  361TCM    cl1 1969   4.556   0.775   3.833
  361TCM    cl2 1970   4.437   0.881   4.078
  361TCM     h1 1971   4.474   0.997   3.871
  361TCM    cl3 1972   4.278   0.864   3.834
  362TCM     c1 1973   4.012   0.838   0.003
  362TCM    cl1 1974   4.017   0.967   0.127
  362TCM    cl2 1975   3.859   0.746   0.017
  362TCM     h1 1976   4.018   0.883  -0.097
  362TCM    cl3 1977   4.152   0.727   0.026
  363TCM     c1 1978   1.972   1.707   3.507
  363TCM    cl1 1979   2.151   1.716   3.517
  363TCM    cl2 1980   1.913   1.566   3.601
  363TCM     h1 1981   1.929   1.799   3.548
  363TCM    cl3 1982   1.922   1.689   3.336
  364TCM     c1 1983   0.191   1.858   1.868
  364TCM    cl1 1984   0.234   2.016   1.796
  364TCM    cl2 1985   0.340   1.781   1.931
  364TCM     h1 1986   0.120   1.873   1.950
  364TCM    cl3 1987   0.119   1.753   1.742
  365TCM     c1 1988   1.661   0.507   3.303
  365TCM    cl1 1989   1.738   0.474   3.145
  365TCM    cl2 1990   1.541   0.378   3.340
  365TCM     h1 1991   1.738   0.509   3.382
  365TCM    cl3 1992   1.577   0.665   3.296
  366TCM     c1 1993   2.106   4.035   0.928
  366TCM    cl1 1994   1.996   4.092   0.798
  366TCM    cl2 1995   2.262   3.980   0.857
  366TCM     h1 1996   2.124   4.116   0.998
  366TCM    cl3 1997   2.030   3.897   1.014
  367TCM     c1 1998   3.464   1.773   4.187
  367TCM    cl1 1999   3.567   1.671   4.292
  367TCM    cl2 2000   3.393   1.907   4.282
  367TCM     h1 2001   3.524   1.814   4.106
  367TCM    cl3 2002   3.331   1.673   4.118
  368TCM     c1 2003   2.253   3.510   3.761
  368TCM    cl1 2004   2.418   3.556   3.706
  368TCM    cl2 2005   2.264   3.416   3.913
  368TCM     h1 2006   2.193   3.600   3.777
  368TCM    cl3 2007   2.175   3.408   3.636
  369TCM     c1 2008   3.009   0.566   4.652
  369TCM    cl1 2009   3.033   0.742   4.628
  369TCM    cl2 2010   2.986   0.487   4.492
  369TCM     h1 2011   3.096   0.523   4.701
  369TCM    cl3 2012   2.863   0.539   4.753
  370TCM     c1 2013   3.026   2.605   2.280
  370TCM    cl1 2014   3.069   2.672   2.119
  370TCM    cl2 2015   3.097   2.708   2.409
  370TCM     h1 2016   2.917   2.603   2.290
  370TCM    cl3 2017   3.091   2.439   2.295
  371TCM     c1 2018   4.720   4.112   0.700
  371TCM    cl1 2019   4.802   4.028   0.565
  371TCM    cl2 2020   4.842   4.188   0.807
  371TCM     h1 2021   4.654   4.190   0.659
  371TCM    cl3 2022   4.623   3.994   0.794
  372TCM     c1 2023   2.033   2.684   4.207
  372TCM    cl1 2024   2.178   2.711   4.104
  372TCM    cl2 2025   2.071   2.732   4.376
  372TCM     h1 2026   1.950   2.745   4.170
  372TCM    cl3 2027   1.988   2.511   4.203
  373TCM     c1 2028   2.742   4.032   4.106
  373TCM    cl1 2029   2.915   4.072   4.086
  373TCM    cl2 2030   2.655   4.177   4.167
  373TCM     h1 2031   2.699   4.002   4.009
  373TCM    cl3 2032   2.725   3.897   4.224
  374TCM     c1 2033   4.477   4.965   2.438
  374TCM    cl1 2034   4.597   4.844   2.381
  374TCM    cl2 2035   4.527   5.027   2.599
  374TCM     h1 2036   4.472   5.047   2.367
  374TCM    cl3 2037   4.317   4.886   2.452
  375TCM     c1 2038   1.870   3.531   1.709
  375TCM    cl1 2039   1.884   3.603   1.873
  375TCM    cl2 2040   1.698   3.533   1.659
  375TCM     h1 2041   1.930   3.589   1.638
  375TCM    cl3 2042   1.927   3.361   1.713
  376TCM     c1 2043   3.459   0.515   0.753
  376TCM    cl1 2044   3.435   0.636   0.623
  376TCM    cl2 2045   3.312   0.414   0.767
  376TCM     h1 2046   3.545   0.452   0.729
  376TCM    cl3 2047   3.488   0.600   0.909
  377TCM     c1 2048   0.188   3.788   2.939
  377TCM    cl1 2049   0.187   3.869   3.099
  377TCM    cl2 2050   0.020   3.763   2.883
  377TCM     h1 2051   0.241   3.851   2.867
  377TCM    cl3 2052   0.271   3.630   2.952
  378TCM     c1 2053   2.675   2.547   4.716
  378TCM    cl1 2054   2.812   2.613   4.812
  378TCM    cl2 2055   2.678   2.617   4.551
  378TCM     h1 2056   2.684   2.438   4.710
  378TCM    cl3 2057   2.521   2.590   4.797
  379TCM     c1 2058   2.240   0.241   0.198
  379TCM    cl1 2059   2.411   0.258   0.146
  379TCM    cl2 2060   2.187   0.071   0.172
  379TCM     h1 2061   2.231   0.266   0.304
  379TCM    cl3 2062   2.137   0.351   0.101
  380TCM     c1 2063   2.831   0.124   1.992
  380TCM    cl1 2064   2.834   0.014   1.850
  380TCM    cl2 2065   2.661   0.147   2.045
  380TCM     h1 2066   2.889   0.080   2.073
  380TCM    cl3 2067   2.902   0.282   1.946
  381TCM     c1 2068   1.747   3.343   4.544
  381TCM    cl1 2069   1.596   3.264   4.600
  381TCM    cl2 2070   1.726   3.404   4.377
  381TCM     h1 2071   1.772   3.426   4.610
  381TCM    cl3 2072   1.881   3.224   4.544
  382TCM     c1 2073   0.812   2.697   0.607
  382TCM    cl1 2074   0.981   2.636   0.596
  382TCM    cl2 2075   0.703   2.565   0.659
  382TCM     h1 2076   0.808   2.779   0.680
  382TCM    cl3 2077   0.760   2.758   0.446
  383TCM     c1 2078   2.852   0.202   3.148
  383TCM    cl1 2079   3.012   0.239   3.076
  383TCM    cl2 2080   2.775   0.354   3.203
  383TCM     h1 2081   2.788   0.155   3.072
  383TCM    cl3 2082   2.873   0.092   3.288
  384TCM     c1 2083   2.065   2.917   0.905
  384TCM    cl1 2084   2.175   2.990   1.026
  384TCM    cl2 2085   2.071   2.738   0.920
  384TCM     h1 2086   1.962   2.951   0.923
  384TCM    cl3 2087   2.116   2.965   0.740
  385TCM     c1 2088   3.187   4.965   3.864
  385TCM    cl1 2089   3.335   4.893   3.792
  385TCM    cl2 2090   3.215   4.995   4.039
  385TCM     h1 2091   3.164   5.060   3.814
  385TCM    cl3 2092   3.050   4.852   3.844
  386TCM     c1 2093   2.955   3.355   4.991
  386TCM    cl1 2094   3.122   3.364   5.056
  386TCM    cl2 2095   2.944   3.217   4.876
  386TCM     h1 2096   2.885   3.341   5.073
  386TCM    cl3 2097   2.918   3.507   4.903
  387TCM     c1 2098   0.123   0.386   3.668
  387TCM    cl1 2099   0.254   0.417   3.550
  387TCM    cl2 2100   0.191   0.305   3.813
  387TCM     h1 2101   0.077   0.481   3.698
  387TCM    cl3 2102   0.000   0.279   3.593
  388TCM     c1 2103   2.535   2.511   3.635
  388TCM    cl1 2104   2.714   2.520   3.624
  388TCM    cl2 2105   2.483   2.531   3.805
  388TCM     h1 2106   2.491   2.590   3.574
  388TCM    cl3 2107   2.479   2.351   3.574
  389TCM     c1 2108   0.796   1.266   4.975
  389TCM    cl1 2109   0.644   1.353   5.013
  389TCM    cl2 2110   0.771   1.089   4.996
  389TCM     h1 2111   0.825   1.286   4.871
  389TCM    cl3 2112   0.926   1.321   5.085
  390TCM     c1 2113   4.590   2.701   1.927
  390TCM    cl1 2114   4.680   2.854   1.903
  390TCM    cl2 2115   4.610   2.596   1.783
  390TCM     h1 2116   4.628   2.649   2.015
  390TCM    cl3 2117   4.416   2.737   1.950
  391TCM     c1 2118   3.134   3.095   0.342
  391TCM    cl1 2119   3.297   3.170   0.339
  391TCM    cl2 2120   3.105   3.010   0.187
  391TCM     h1 2121   3.128   3.024   0.424
  391TCM    cl3 2122   3.010   3.223   0.365
  392TCM     c1 2123   2.577   4.646   1.165
  392TCM    cl1 2124   2.631   4.817   1.167
  392TCM    cl2 2125   2.609   4.570   1.324
  392TCM     h1 2126   2.470   4.642   1.144
  392TCM    cl3 2127   2.667   4.558   1.037
  393TCM     c1 2128   2.657   3.758   4.577
  393TCM    cl1 2129   2.625   3.590   4.523
  393TCM    cl2 2130   2.709   3.757   4.749
  393TCM     h1 2131   2.735   3.803   4.515
  393TCM    cl3 2132   2.505   3.853   4.561
  394TCM     c1 2133   4.116   3.957   2.559
  394TCM    cl1 2134   4.191   3.849   2.436
  394TCM    cl2 2135   3.942   3.918   2.573
  394TCM     h1 2136   4.165   3.942   2.656
  394TCM    cl3 2137   4.135   4.128   2.509
  395TCM     c1 2138   2.433   1.020   2.187
  395TCM    cl1 2139   2.389   1.113   2.334
  395TCM    cl2 2140   2.427   1.129   2.045
  395TCM     h1 2141   2.533   0.978   2.198
  395TCM    cl3 2142   2.314   0.887   2.164
  396TCM     c1 2143   0.028   2.277   0.355
  396TCM    cl1 2144   0.132   2.173   0.457
  396TCM    cl2 2145  -0.143   2.253   0.401
  396TCM     h1 2146   0.056   2.382   0.369
  396TCM    cl3 2147   0.050   2.233   0.183
  397TCM     c1 2148   4.053   0.480   2.891
  397TCM    cl1 2149   3.956   0.340   2.945
  397TCM    cl2 2150   4.099   0.460   2.719
  397TCM     h1 2151   3.995   0.572   2.903
  397TCM    cl3 2152   4.202   0.490   2.991
  398TCM     c1 2153   4.861   2.026   4.796
  398TCM    cl1 2154   4.754   2.065   4.657
  398TCM    cl2 2155   4.761   1.960   4.930
  398TCM     h1 2156   4.935   1.951   4.765
  398TCM    cl3 2157   4.944   2.175   4.850
  399TCM     c1 2158   3.334   0.998   0.775
  399TCM    cl1 2159   3.506   0.964   0.811
  399TCM    cl2 2160   3.233   0.863   0.837
  399TCM     h1 2161   3.304   1.091   0.824
  399TCM    cl3 2162   3.311   1.013   0.598
  400TCM     c1 2163   2.779   4.292   4.507
  400TCM    cl1 2164   2.951   4.321   4.549
  400TCM    cl2 2165   2.674   4.377   4.625
  400TCM     h1 2166   2.759   4.330   4.406
  400TCM    cl3 2167   2.747   4.116   4.512
  401TCM     c1 2168   1.384   0.165   0.458
  401TCM    cl1 2169   1.302   0.062   0.580
  401TCM    cl2 2170   1.301   0.147   0.300
  401TCM     h1 2171   1.380   0.270   0.490
  401TCM    cl3 2172   1.556   0.115   0.443
  402TCM     c1 2173   1.505   3.177   4.201
  402TCM    cl1 2174   1.461   3.103   4.044
  402TCM    cl2 2175   1.609   3.063   4.293
  402TCM     h1 2176   1.558   3.271   4.185
  402TCM    cl3 2177   1.354   3.208   4.295
  403TCM     c1 2178   1.371   2.391   2.180
  403TCM    cl1 2179   1.263   2.376   2.323
  403TCM    cl2 2180   1.279   2.464   2.045
  403TCM     h1 2181   1.457   2.453   2.205
  403TCM    cl3 2182   1.428   2.228   2.130
  404TCM     c1 2183   1.458   1.273   0.381
  404TCM    cl1 2184   1.452   1.262   0.560
  404TCM    cl2 2185   1.608   1.358   0.331
  404TCM     h1 2186   1.456   1.172   0.338
  404TCM    cl3 2187   1.316   1.366   0.322
  405TCM     c1 2188   0.537   0.441   3.181
  405TCM    cl1 2189   0.574   0.496   3.348
  405TCM    cl2 2190   0.631   0.538   3.062
  405TCM     h1 2191   0.563   0.336   3.171
  405TCM    cl3 2192   0.361   0.462   3.150
  406TCM     c1 2193   2.815   3.760   0.280
  406TCM    cl1 2194   2.937   3.629   0.266
  406TCM    cl2 2195   2.717   3.766   0.130
  406TCM     h1 2196   2.751   3.740   0.366
  406TCM    cl3 2197   2.898   3.917   0.303
  407TCM     c1 2198   0.281   1.719   0.617
  407TCM    cl1 2199   0.106   1.701   0.649
  407TCM    cl2 2200   0.316   1.890   0.577
  407TCM     h1 2201   0.338   1.691   0.706
  407TCM    cl3 2202   0.329   1.615   0.480
  408TCM     c1 2203   3.153   4.510   3.821
  408TCM    cl1 2204   3.324   4.526   3.873
  408TCM    cl2 2205   3.093   4.346   3.863
  408TCM     h1 2206   3.092   4.584   3.872
  408TCM    cl3 2207   3.143   4.534   3.643
  409TCM     c1 2208   0.249   3.253   2.955
  409TCM    cl1 2209   0.081   3.315   2.957
  409TCM    cl2 2210   0.250   3.082   2.901
  409TCM     h1 2211   0.309   3.313   2.887
  409TCM    cl3 2212   0.318   3.264   3.121
  410TCM     c1 2213   2.724   0.390   1.654
  410TCM    cl1 2214   2.676   0.515   1.534
  410TCM    cl2 2215   2.773   0.240   1.569
  410TCM     h1 2216   2.807   0.427   1.714
  410TCM    cl3 2217   2.584   0.355   1.760
  411TCM     c1 2218   4.912   4.874   3.990
  411TCM    cl1 2219   4.860   5.029   3.915
  411TCM    cl2 2220   4.886   4.880   4.168
  411TCM     h1 2221   4.853   4.792   3.948
  411TCM    cl3 2222   5.086   4.847   3.957
  412TCM     c1 2223   4.041   0.909   2.030
  412TCM    cl1 2224   4.011   0.766   2.134
  412TCM    cl2 2225   3.886   0.967   1.961
  412TCM     h1 2226   4.086   0.988   2.090
  412TCM    cl3 2227   4.152   0.865   1.896
  413TCM     c1 2228   2.493   4.627   1.847
  413TCM    cl1 2229   2.460   4.475   1.936
  413TCM    cl2 2230   2.507   4.763   1.964
  413TCM     h1 2231   2.586   4.617   1.791
  413TCM    cl3 2232   2.358   4.658   1.734
  414TCM     c1 2233   2.206   2.483   0.682
  414TCM    cl1 2234   2.378   2.460   0.638
  414TCM    cl2 2235   2.115   2.333   0.647
  414TCM     h1 2236   2.199   2.507   0.789
  414TCM    cl3 2237   2.138   2.618   0.585
  415TCM     c1 2238   2.064   4.426   0.152
  415TCM    cl1 2239   2.046   4.262   0.221
  415TCM    cl2 2240   2.085   4.544   0.285
  415TCM     h1 2241   2.151   4.429   0.086
  415TCM    cl3 2242   1.916   4.467   0.058
  416TCM     c1 2243   3.521   0.932   2.200
  416TCM    cl1 2244   3.505   1.097   2.269
  416TCM    cl2 2245   3.675   0.860   2.259
  416TCM     h1 2246   3.437   0.871   2.233
  416TCM    cl3 2247   3.524   0.941   2.021
  417TCM     c1 2248   3.566   4.052   0.553
  417TCM    cl1 2249   3.651   4.209   0.571
  417TCM    cl2 2250   3.519   4.030   0.382
  417TCM     h1 2251   3.633   3.971   0.584
  417TCM    cl3 2252   3.419   4.052   0.657
  418TCM     c1 2253   1.800   4.005   1.879
  418TCM    cl1 2254   1.743   4.175   1.870
  418TCM    cl2 2255   1.965   3.993   1.808
  418TCM     h1 2256   1.803   3.973   1.983
  418TCM    cl3 2257   1.688   3.900   1.786
  419TCM     c1 2258   4.941   2.708   2.783
  419TCM    cl1 2259   5.092   2.793   2.733
  419TCM    cl2 2260   4.953   2.666   2.957
  419TCM     h1 2261   4.855   2.774   2.766
  419TCM    cl3 2262   4.924   2.558   2.686
  420TCM     c1 2263   1.534   1.266   1.982
  420TCM    cl1 2264   1.497   1.415   2.074
  420TCM    cl2 2265   1.446   1.127   2.053
  420TCM     h1 2266   1.504   1.279   1.878
  420TCM    cl3 2267   1.711   1.234   1.988
  421TCM     c1 2268   0.353   0.470   1.086
  421TCM    cl1 2269   0.289   0.626   1.023
  421TCM    cl2 2270   0.335   0.344   0.959
  421TCM     h1 2271   0.458   0.482   1.112
  421TCM    cl3 2272   0.259   0.421   1.231
  422TCM     c1 2273   1.024   4.158   0.102
  422TCM    cl1 2274   1.016   4.037  -0.030
  422TCM    cl2 2275   1.176   4.136   0.194
  422TCM     h1 2276   1.020   4.259   0.060
  422TCM    cl3 2277   0.884   4.133   0.212
  423TCM     c1 2278   3.147   2.451   0.757
  423TCM    cl1 2279   3.172   2.585   0.873
  423TCM    cl2 2280   3.111   2.301   0.847
  423TCM     h1 2281   3.063   2.475   0.691
  423TCM    cl3 2282   3.296   2.428   0.660
  424TCM     c1 2283   0.429   1.918   2.239
  424TCM    cl1 2284   0.341   1.781   2.314
  424TCM    cl2 2285   0.544   1.986   2.359
  424TCM     h1 2286   0.484   1.883   2.151
  424TCM    cl3 2287   0.311   2.045   2.191
  425TCM     c1 2288   2.524   0.540   4.485
  425TCM    cl1 2289   2.620   0.687   4.448
  425TCM    cl2 2290   2.444   0.558   4.644
  425TCM     h1 2291   2.448   0.526   4.407
  425TCM    cl3 2292   2.633   0.398   4.488
  426TCM     c1 2293   0.445   4.250   3.843
  426TCM    cl1 2294   0.470   4.384   3.726
  426TCM    cl2 2295   0.269   4.216   3.857
  426TCM     h1 2296   0.496   4.160   3.808
  426TCM    cl3 2297   0.511   4.298   4.002
  427TCM     c1 2298   4.914   4.107   1.218
  427TCM    cl1 2299   4.964   4.016   1.364
  427TCM    cl2 2300   4.792   4.010   1.128
  427TCM     h1 2301   4.870   4.203   1.247
  427TCM    cl3 2302   5.057   4.136   1.112
  428TCM     c1 2303   2.709   2.401   0.264
  428TCM    cl1 2304   2.585   2.327   0.370
  428TCM    cl2 2305   2.635   2.438   0.105
  428TCM     h1 2306   2.747   2.493   0.309
  428TCM    cl3 2307   2.844   2.286   0.241
  429TCM     c1 2308   3.350   2.258   2.109
  429TCM    cl1 2309   3.345   2.395   1.994
  429TCM    cl2 2310   3.444   2.304   2.254
  429TCM     h1 2311   3.248   2.231   2.138
  429TCM    cl3 2312   3.429   2.117   2.030
  430TCM     c1 2313   4.017   1.217   4.804
  430TCM    cl1 2314   3.998   1.318   4.952
  430TCM    cl2 2315   3.876   1.108   4.788
  430TCM     h1 2316   4.024   1.282   4.717
  430TCM    cl3 2317   4.167   1.120   4.819
  431TCM     c1 2318   1.202   2.078   4.171
  431TCM    cl1 2319   1.355   2.100   4.079
  431TCM    cl2 2320   1.239   2.079   4.346
  431TCM     h1 2321   1.133   2.160   4.147
  431TCM    cl3 2322   1.126   1.922   4.128
  432TCM     c1 2323   0.457   0.376   2.063
  432TCM    cl1 2324   0.549   0.520   2.008
  432TCM    cl2 2325   0.531   0.311   2.212
  432TCM     h1 2326   0.353   0.405   2.083
  432TCM    cl3 2327   0.461   0.250   1.936
  433TCM     c1 2328   3.732   0.165   0.773
  433TCM    cl1 2329   3.715   0.293   0.897
  433TCM    cl2 2330   3.632   0.207   0.630
  433TCM     h1 2331   3.836   0.156   0.743
  433TCM    cl3 2332   3.675   0.008   0.841
  434TCM     c1 2333   3.032   2.117   3.309
  434TCM    cl1 2334   2.975   1.974   3.216
  434TCM    cl2 2335   3.053   2.256   3.197
  434TCM     h1 2336   2.959   2.143   3.386
  434TCM    cl3 2337   3.190   2.078   3.385
  435TCM     c1 2338   3.572   3.051   3.251
  435TCM    cl1 2339   3.639   3.040   3.417
  435TCM    cl2 2340   3.497   2.894   3.206
  435TCM     h1 2341   3.497   3.130   3.246
  435TCM    cl3 2342   3.706   3.088   3.137
  436TCM     c1 2343   3.233   4.280   1.581
  436TCM    cl1 2344   3.406   4.272   1.533
  436TCM    cl2 2345   3.130   4.296   1.435
  436TCM     h1 2346   3.206   4.189   1.635
  436TCM    cl3 2347   3.207   4.423   1.687
  437TCM     c1 2348   0.795   1.138   3.931
  437TCM    cl1 2349   0.816   1.222   4.088
  437TCM    cl2 2350   0.941   1.040   3.896
  437TCM     h1 2351   0.708   1.072   3.937
  437TCM    cl3 2352   0.769   1.259   3.801
  438TCM     c1 2353   0.419   1.798   1.314
  438TCM    cl1 2354   0.436   1.976   1.329
  438TCM    cl2 2355   0.388   1.727   1.476
  438TCM     h1 2356   0.336   1.774   1.248
  438TCM    cl3 2357   0.570   1.730   1.245
  439TCM     c1 2358   0.143   2.814   1.197
  439TCM    cl1 2359   0.075   2.663   1.268
  439TCM    cl2 2360   0.267   2.880   1.307
  439TCM     h1 2361   0.187   2.791   1.100
  439TCM    cl3 2362   0.011   2.934   1.177
  440TCM     c1 2363   1.111   3.464   4.758
  440TCM    cl1 2364   1.108   3.624   4.677
  440TCM    cl2 2365   1.223   3.355   4.671
  440TCM     h1 2366   1.143   3.476   4.862
  440TCM    cl3 2367   0.945   3.394   4.755
  441TCM     c1 2368   3.514   1.066   1.209
  441TCM    cl1 2369   3.652   0.970   1.148
  441TCM    cl2 2370   3.523   1.076   1.388
  441TCM     h1 2371   3.519   1.167   1.167
  441TCM    cl3 2372   3.360   0.988   1.161
  442TCM     c1 2373   3.680   1.505   4.635
  442TCM    cl1 2374   3.670   1.435   4.800
  442TCM    cl2 2375   3.828   1.444   4.556
  442TCM     h1 2376   3.592   1.476   4.577
  442TCM    cl3 2377   3.687   1.684   4.646
  443TCM     c1 2378   0.554   3.848   4.021
  443TCM    cl1 2379   0.510   3.874   4.194
  443TCM    cl2 2380   0.684   3.963   3.976
  443TCM     h1 2381   0.589   3.745   4.008
  443TCM    cl3 2382   0.411   3.877   3.917
  444TCM     c1 2383   3.559   3.122   0.079
  444TCM    cl1 2384   3.533   3.300   0.083
  444TCM    cl2 2385   3.678   3.076   0.205
  444TCM     h1 2386   3.464   3.071   0.097
  444TCM    cl3 2387   3.623   3.076  -0.083
  445TCM     c1 2388   0.888   2.622   1.137
  445TCM    cl1 2389   0.877   2.674   0.966
  445TCM    cl2 2390   1.011   2.722   1.222
  445TCM     h1 2391   0.791   2.636   1.186
  445TCM    cl3 2392   0.935   2.449   1.146
  446TCM     c1 2393   4.448   4.980   4.889
  446TCM    cl1 2394   4.478   5.157   4.876
  446TCM    cl2 2395   4.438   5.003   4.712
  446TCM     h1 2396   4.357   4.923   4.869
  446TCM    cl3 2397   4.343   5.045   5.019
  447TCM     c1 2398   4.459   1.124   0.123
  447TCM    cl1 2399   4.424   0.954   0.168
  447TCM    cl2 2400   4.310   1.222   0.140
  447TCM     h1 2401   4.536   1.164   0.189
  447TCM    cl3 2402   4.516   1.129  -0.047
  448TCM     c1 2403   3.093   0.781   3.269
  448TCM    cl1 2404   3.038   0.860   3.118
  448TCM    cl2 2405   3.047   0.608   3.264
  448TCM     h1 2406   3.202   0.790   3.279
  448TCM    cl3 2407   3.013   0.859   3.409
  449TCM     c1 2408   4.315   1.256   4.431
  449TCM    cl1 2409   4.141   1.224   4.461
  449TCM    cl2 2410   4.361   1.186   4.272
  449TCM     h1 2411   4.333   1.364   4.430
  449TCM    cl3 2412   4.413   1.180   4.561
  450TCM     c1 2413   4.897   2.278   3.613
  450TCM    cl1 2414   5.073   2.288   3.579
  450TCM    cl2 2415   4.870   2.278   3.790
  450TCM     h1 2416   4.846   2.364   3.568
  450TCM    cl3 2417   4.832   2.126   3.542
  451TCM     c1 2418   3.394   0.698   3.612
  451TCM    cl1 2419   3.543   0.598   3.600
  451TCM    cl2 2420   3.251   0.593   3.587
  451TCM     h1 2421   3.389   0.744   3.710
  451TCM    cl3 2422   3.397   0.824   3.484
  452TCM     c1 2423   3.697   3.848   1.513
  452TCM    cl1 2424   3.837   3.916   1.423
  452TCM    cl2 2425   3.548   3.931   1.460
  452TCM     h1 2426   3.688   3.741   1.493
  452TCM    cl3 2427   3.720   3.874   1.689
  453TCM     c1 2428   0.581   4.946   0.761
  453TCM    cl1 2429   0.473   4.868   0.882
  453TCM    cl2 2430   0.736   4.855   0.753
  453TCM     h1 2431   0.533   4.946   0.663
  453TCM    cl3 2432   0.613   5.115   0.812
  454TCM     c1 2433   2.217   3.798   3.339
  454TCM    cl1 2434   2.110   3.718   3.459
  454TCM    cl2 2435   2.365   3.699   3.316
  454TCM     h1 2436   2.164   3.808   3.244
  454TCM    cl3 2437   2.263   3.960   3.399
  455TCM     c1 2438   4.403   3.929   1.112
  455TCM    cl1 2439   4.272   4.032   1.178
  455TCM    cl2 2440   4.335   3.820   0.987
  455TCM     h1 2441   4.481   3.991   1.068
  455TCM    cl3 2442   4.473   3.830   1.245
  456TCM     c1 2443   3.242   4.164   4.395
  456TCM    cl1 2444   3.273   4.323   4.318
  456TCM    cl2 2445   3.352   4.142   4.535
  456TCM     h1 2446   3.138   4.160   4.430
  456TCM    cl3 2447   3.270   4.033   4.276
  457TCM     c1 2448   1.688   1.894   4.622
  457TCM    cl1 2449   1.842   1.961   4.683
  457TCM    cl2 2450   1.582   2.027   4.566
  457TCM     h1 2451   1.708   1.826   4.538
  457TCM    cl3 2452   1.605   1.803   4.753
  458TCM     c1 2453   1.632   3.192   1.812
  458TCM    cl1 2454   1.454   3.175   1.811
  458TCM    cl2 2455   1.708   3.030   1.799
  458TCM     h1 2456   1.663   3.254   1.727
  458TCM    cl3 2457   1.683   3.269   1.966
  459TCM     c1 2458   1.576   4.786   1.306
  459TCM    cl1 2459   1.670   4.715   1.171
  459TCM    cl2 2460   1.595   4.683   1.452
  459TCM     h1 2461   1.614   4.887   1.327
  459TCM    cl3 2462   1.403   4.794   1.260
  460TCM     c1 2463   4.054   4.245   3.602
  460TCM    cl1 2464   4.209   4.184   3.535
  460TCM    cl2 2465   4.072   4.270   3.779
  460TCM     h1 2466   4.027   4.339   3.553
  460TCM    cl3 2467   3.926   4.123   3.574
  461TCM     c1 2468   0.885   0.734   3.512
  461TCM    cl1 2469   0.747   0.809   3.598
  461TCM    cl2 2470   0.850   0.731   3.336
  461TCM     h1 2471   0.975   0.793   3.530
  461TCM    cl3 2472   0.911   0.567   3.572
  462TCM     c1 2473   1.584   4.376   0.202
  462TCM    cl1 2474   1.550   4.397   0.027
  462TCM    cl2 2475   1.667   4.219   0.228
  462TCM     h1 2476   1.648   4.457   0.237
  462TCM    cl3 2477   1.430   4.377   0.294
  463TCM     c1 2478   3.197   0.140   4.930
  463TCM    cl1 2479   3.119   0.114   5.089
  463TCM    cl2 2480   3.366   0.194   4.954
  463TCM     h1 2481   3.198   0.046   4.874
  463TCM    cl3 2482   3.106   0.263   4.837
  464TCM     c1 2483   3.636   0.913   3.021
  464TCM    cl1 2484   3.644   0.986   3.184
  464TCM    cl2 2485   3.719   1.020   2.904
  464TCM     h1 2486   3.684   0.815   3.022
  464TCM    cl3 2487   3.464   0.894   2.972
  465TCM     c1 2488   4.986   4.442   3.763
  465TCM    cl1 2489   4.901   4.389   3.614
  465TCM    cl2 2490   4.869   4.523   3.873
  465TCM     h1 2491   5.030   4.356   3.813
  465TCM    cl3 2492   5.115   4.559   3.718
  466TCM     c1 2493   4.357   1.450   4.851
  466TCM    cl1 2494   4.528   1.463   4.798
  466TCM    cl2 2495   4.249   1.478   4.710
  466TCM     h1 2496   4.338   1.350   4.891
  466TCM    cl3 2497   4.322   1.573   4.976
  467TCM     c1 2498   0.309   0.645   2.409
  467TCM    cl1 2499   0.211   0.521   2.324
  467TCM    cl2 2500   0.482   0.617   2.372
  467TCM     h1 2501   0.279   0.745   2.375
  467TCM    cl3 2502   0.283   0.631   2.586
  468TCM     c1 2503   0.632   2.089   1.778
  468TCM    cl1 2504   0.810   2.101   1.755
  468TCM    cl2 2505   0.597   2.053   1.950
  468TCM     h1 2506   0.584   2.183   1.749
  468TCM    cl3 2507   0.570   1.956   1.675
  469TCM     c1 2508   3.482   2.121   1.567
  469TCM    cl1 2509   3.453   2.294   1.534
  469TCM    cl2 2510   3.353   2.058   1.675
  469TCM     h1 2511   3.483   2.065   1.474
  469TCM    cl3 2512   3.641   2.103   1.649
  470TCM     c1 2513   2.677   0.814   4.003
  470TCM    cl1 2514   2.596   0.731   3.866
  470TCM    cl2 2515   2.624   0.986   4.008
  470TCM     h1 2516   2.651   0.765   4.097
  470TCM    cl3 2517   2.855   0.808   3.980
  471TCM     c1 2518   4.738   2.441   4.620
  471TCM    cl1 2519   4.651   2.512   4.480
  471TCM    cl2 2520   4.733   2.557   4.757
  471TCM     h1 2521   4.690   2.347   4.650
  471TCM    cl3 2522   4.909   2.411   4.575
  472TCM     c1 2523   3.828   0.715   2.556
  472TCM    cl1 2524   3.998   0.754   2.514
  472TCM    cl2 2525   3.807   0.713   2.734
  472TCM     h1 2526   3.761   0.790   2.512
  472TCM    cl3 2527   3.787   0.553   2.490
  473TCM     c1 2528   3.269   2.018   2.881
  473TCM    cl1 2529   3.097   2.068   2.883
  473TCM    cl2 2530   3.285   1.868   2.783
  473TCM     h1 2531   3.330   2.097   2.838
  473TCM    cl3 2532   3.323   1.983   3.049
  474TCM     c1 2533   3.658   1.488   1.204
  474TCM    cl1 2534   3.499   1.438   1.269
  474TCM    cl2 2535   3.636   1.628   1.093
  474TCM     h1 2536   3.725   1.516   1.286
  474TCM    cl3 2537   3.730   1.350   1.113
  475TCM     c1 2538   0.305   3.395   1.222
  475TCM    cl1 2539   0.243   3.241   1.154
  475TCM    cl2 2540   0.336   3.511   1.088
  475TCM     h1 2541   0.230   3.437   1.290
  475TCM    cl3 2542   0.457   3.365   1.311
  476TCM     c1 2543   2.399   3.750   4.219
  476TCM    cl1 2544   2.418   3.723   4.043
  476TCM    cl2 2545   2.266   3.648   4.281
  476TCM     h1 2546   2.492   3.725   4.271
  476TCM    cl3 2547   2.359   3.923   4.246
  477TCM     c1 2548   1.763   1.499   1.686
  477TCM    cl1 2549   1.587   1.507   1.723
  477TCM    cl2 2550   1.803   1.334   1.629
  477TCM     h1 2551   1.787   1.572   1.608
  477TCM    cl3 2552   1.857   1.533   1.835
  478TCM     c1 2553   4.664   2.275   0.076
  478TCM    cl1 2554   4.575   2.278  -0.080
  478TCM    cl2 2555   4.547   2.249   0.210
  478TCM     h1 2556   4.737   2.194   0.075
  478TCM    cl3 2557   4.748   2.432   0.099
  479TCM     c1 2558   3.033   4.311   3.377
  479TCM    cl1 2559   3.058   4.183   3.500
  479TCM    cl2 2560   2.860   4.360   3.377
  479TCM     h1 2561   3.095   4.398   3.401
  479TCM    cl3 2562   3.077   4.249   3.215
  480TCM     c1 2563   0.054   3.925   0.047
  480TCM    cl1 2564  -0.091   4.029   0.067
  480TCM    cl2 2565   0.008   3.753   0.069
  480TCM     h1 2566   0.095   3.939  -0.054
  480TCM    cl3 2567   0.178   3.969   0.169
  481TCM     c1 2568   1.322   2.443   2.908
  481TCM    cl1 2569   1.482   2.469   2.985
  481TCM    cl2 2570   1.329   2.296   2.806
  481TCM     h1 2571   1.245   2.432   2.985
  481TCM    cl3 2572   1.283   2.585   2.804
  482TCM     c1 2573   2.476   2.806   0.906
  482TCM    cl1 2574   2.651   2.834   0.936
  482TCM    cl2 2575   2.433   2.639   0.957
  482TCM     h1 2576   2.417   2.878   0.962
  482TCM    cl3 2577   2.444   2.824   0.730
  483TCM     c1 2578   4.930   3.476   3.347
  483TCM    cl1 2579   4.990   3.586   3.219
  483TCM    cl2 2580   4.997   3.528   3.506
  483TCM     h1 2581   4.821   3.480   3.351
  483TCM    cl3 2582   4.983   3.309   3.312
  484TCM     c1 2583   2.606   4.590   2.998
  484TCM    cl1 2584   2.469   4.542   3.104
  484TCM    cl2 2585   2.604   4.489   2.849
  484TCM     h1 2586   2.596   4.695   2.971
  484TCM    cl3 2587   2.760   4.564   3.085
  485TCM     c1 2588   0.068   2.694   3.797
  485TCM    cl1 2589   0.059   2.566   3.921
  485TCM    cl2 2590  -0.021   2.839   3.855
  485TCM     h1 2591   0.173   2.721   3.779
  485TCM    cl3 2592  -0.005   2.636   3.644
  486TCM     c1 2593   2.693   2.178   3.056
  486TCM    cl1 2594   2.686   2.202   3.234
  486TCM    cl2 2595   2.741   2.332   2.977
  486TCM     h1 2596   2.766   2.100   3.032
  486TCM    cl3 2597   2.531   2.129   2.997
  487TCM     c1 2598   1.890   1.008   3.873
  487TCM    cl1 2599   1.743   1.098   3.821
  487TCM    cl2 2600   2.007   1.124   3.943
  487TCM     h1 2601   1.862   0.934   3.948
  487TCM    cl3 2602   1.963   0.926   3.731
  488TCM     c1 2603   0.937   0.093   0.403
  488TCM    cl1 2604   0.998  -0.073   0.374
  488TCM    cl2 2605   0.770   0.084   0.469
  488TCM     h1 2606   1.002   0.143   0.475
  488TCM    cl3 2607   0.934   0.185   0.249
  489TCM     c1 2608   4.059   1.171   3.289
  489TCM    cl1 2609   4.033   1.009   3.363
  489TCM    cl2 2610   3.948   1.191   3.150
  489TCM     h1 2611   4.041   1.248   3.364
  489TCM    cl3 2612   4.228   1.182   3.230
  490TCM     c1 2613   3.167   4.792   3.325
  490TCM    cl1 2614   3.168   4.915   3.195
  490TCM    cl2 2615   3.056   4.659   3.279
  490TCM     h1 2616   3.268   4.752   3.339
  490TCM    cl3 2617   3.112   4.867   3.478
  491TCM     c1 2618   2.207   2.446   2.845
  491TCM    cl1 2619   2.384   2.444   2.872
  491TCM    cl2 2620   2.126   2.529   2.981
  491TCM     h1 2621   2.184   2.498   2.751
  491TCM    cl3 2622   2.149   2.276   2.835
  492TCM     c1 2623   1.420   0.648   4.902
  492TCM    cl1 2624   1.381   0.777   4.783
  492TCM    cl2 2625   1.306   0.511   4.881
  492TCM     h1 2626   1.522   0.613   4.886
  492TCM    cl3 2627   1.404   0.713   5.068
  493TCM     c1 2628   2.260   4.256   4.338
  493TCM    cl1 2629   2.318   4.313   4.178
  493TCM    cl2 2630   2.152   4.379   4.410
  493TCM     h1 2631   2.205   4.162   4.325
  493TCM    cl3 2632   2.401   4.231   4.446
  494TCM     c1 2633   0.725   3.683   4.755
  494TCM    cl1 2634   0.703   3.830   4.854
  494TCM    cl2 2635   0.685   3.721   4.585
  494TCM     h1 2636   0.828   3.648   4.763
  494TCM    cl3 2637   0.614   3.555   4.815
  495TCM     c1 2638   0.002   2.834   1.598
  495TCM    cl1 2639   0.071   2.906   1.747
  495TCM    cl2 2640  -0.136   2.934   1.541
  495TCM     h1 2641   0.079   2.829   1.520
  495TCM    cl3 2642  -0.056   2.668   1.634
  496TCM     c1 2643   3.209   1.239   3.236
  496TCM    cl1 2644   3.043   1.215   3.298
  496TCM    cl2 2645   3.299   1.084   3.246
  496TCM     h1 2646   3.205   1.272   3.132
  496TCM    cl3 2647   3.293   1.363   3.335
  497TCM     c1 2648   1.353   4.772   0.846
  497TCM    cl1 2649   1.414   4.614   0.907
  497TCM    cl2 2650   1.468   4.902   0.892
  497TCM     h1 2651   1.344   4.768   0.737
  497TCM    cl3 2652   1.194   4.806   0.920
  498TCM     c1 2653   2.711   2.886   3.358
  498TCM    cl1 2654   2.588   2.846   3.482
  498TCM    cl2 2655   2.842   2.983   3.435
  498TCM     h1 2656   2.753   2.794   3.317
  498TCM    cl3 2657   2.635   2.983   3.228
  499TCM     c1 2658   0.084   3.303   0.787
  499TCM    cl1 2659   0.035   3.142   0.850
  499TCM    cl2 2660   0.263   3.314   0.782
  499TCM     h1 2661   0.043   3.316   0.686
  499TCM    cl3 2662   0.020   3.431   0.895
  500TCM     c1 2663   1.660   0.213   0.060
  500TCM    cl1 2664   1.557   0.067   0.066
  500TCM    cl2 2665   1.804   0.187   0.164
  500TCM     h1 2666   1.692   0.231  -0.043
  500TCM    cl3 2667   1.568   0.355   0.120
  501TCM     c1 2668   1.426   1.480   2.628
  501TCM    cl1 2669   1.579   1.475   2.722
  501TCM    cl2 2670   1.357   1.646   2.636
  501TCM     h1 2671   1.446   1.454   2.523
  501TCM    cl3 2672   1.308   1.364   2.697
  502TCM     c1 2673   2.777   3.609   2.240
  502TCM    cl1 2674   2.722   3.744   2.135
  502TCM    cl2 2675   2.878   3.674   2.373
  502TCM     h1 2676   2.690   3.557   2.282
  502TCM    cl3 2677   2.873   3.493   2.143
  503TCM     c1 2678   1.477   0.525   2.821
  503TCM    cl1 2679   1.338   0.476   2.718
  503TCM    cl2 2680   1.600   0.394   2.821
  503TCM     h1 2681   1.521   0.617   2.782
  503TCM    cl3 2682   1.419   0.553   2.989
  504TCM     c1 2683   4.960   0.009   2.488
  504TCM    cl1 2684   4.879  -0.083   2.619
  504TCM    cl2 2685   4.848   0.133   2.424
  504TCM     h1 2686   5.050   0.056   2.528
  504TCM    cl3 2687   5.005  -0.103   2.355
  505TCM     c1 2688   2.596   3.759   2.965
  505TCM    cl1 2689   2.676   3.820   2.817
  505TCM    cl2 2690   2.420   3.741   2.935
  505TCM     h1 2691   2.638   3.663   2.992
  505TCM    cl3 2692   2.621   3.875   3.100
  506TCM     c1 2693   0.223   4.707   4.829
  506TCM    cl1 2694   0.267   4.648   4.666
  506TCM    cl2 2695   0.219   4.569   4.944
  506TCM     h1 2696   0.296   4.781   4.863
  506TCM    cl3 2697   0.060   4.781   4.823
  507TCM     c1 2698   1.389   3.902   4.876
  507TCM    cl1 2699   1.289   3.939   4.732
  507TCM    cl2 2700   1.297   3.795   4.987
  507TCM     h1 2701   1.480   3.851   4.844
  507TCM    cl3 2702   1.431   4.055   4.960
  508TCM     c1 2703   0.523   1.983   3.473
  508TCM    cl1 2704   0.603   1.897   3.608
  508TCM    cl2 2705   0.635   2.103   3.402
  508TCM     h1 2706   0.494   1.910   3.397
  508TCM    cl3 2707   0.377   2.067   3.534
  509TCM     c1 2708   4.653   0.460   4.623
  509TCM    cl1 2709   4.668   0.286   4.582
  509TCM    cl2 2710   4.649   0.480   4.801
  509TCM     h1 2711   4.738   0.515   4.582
  509TCM    cl3 2712   4.501   0.524   4.552
  510TCM     c1 2713   4.246   2.382   2.308
  510TCM    cl1 2714   4.300   2.212   2.292
  510TCM    cl2 2715   4.375   2.491   2.247
  510TCM     h1 2716   4.155   2.398   2.249
  510TCM    cl3 2717   4.214   2.419   2.480
  511TCM     c1 2718   3.400   4.714   1.483
  511TCM    cl1 2719   3.242   4.772   1.546
  511TCM    cl2 2720   3.371   4.599   1.349
  511TCM     h1 2721   3.458   4.800   1.445
  511TCM    cl3 2722   3.491   4.634   1.614
  512TCM     c1 2723   0.152   4.976   0.607
  512TCM    cl1 2724   0.240   5.094   0.709
  512TCM    cl2 2725   0.269   4.856   0.542
  512TCM     h1 2726   0.076   4.925   0.666
  512TCM    cl3 2727   0.074   5.063   0.470
  513TCM     c1 2728   3.986   4.882   0.096
  513TCM    cl1 2729   4.001   5.056   0.137
  513TCM    cl2 2730   4.022   4.858  -0.078
  513TCM     h1 2731   4.057   4.824   0.156
  513TCM    cl3 2732   3.819   4.826   0.130
  514TCM     c1 2733   0.740   4.959   2.341
  514TCM    cl1 2734   0.769   5.124   2.405
  514TCM    cl2 2735   0.634   4.967   2.196
  514TCM     h1 2736   0.836   4.914   2.313
  514TCM    cl3 2737   0.662   4.858   2.467
  515TCM     c1 2738   2.889   0.034   4.222
  515TCM    cl1 2739   2.876   0.096   4.054
  515TCM    cl2 2740   2.767  -0.096   4.244
  515TCM     h1 2741   2.989  -0.006   4.240
  515TCM    cl3 2742   2.855   0.167   4.337
  516TCM     c1 2743   4.482   4.115   1.487
  516TCM    cl1 2744   4.563   3.983   1.578
  516TCM    cl2 2745   4.603   4.200   1.385
  516TCM     h1 2746   4.404   4.073   1.423
  516TCM    cl3 2747   4.408   4.231   1.602
  517TCM     c1 2748   3.105   3.756   4.604
  517TCM    cl1 2749   3.041   3.923   4.592
  517TCM    cl2 2750   3.267   3.748   4.526
  517TCM     h1 2751   3.114   3.727   4.709
  517TCM    cl3 2752   2.993   3.644   4.519
  518TCM     c1 2753   2.688   0.401   4.101
  518TCM    cl1 2754   2.535   0.487   4.135
  518TCM    cl2 2755   2.825   0.499   4.163
  518TCM     h1 2756   2.688   0.304   4.150
  518TCM    cl3 2757   2.706   0.381   3.924
  519TCM     c1 2758   3.326   3.214   1.816
  519TCM    cl1 2759   3.430   3.247   1.674
  519TCM    cl2 2760   3.406   3.279   1.963
  519TCM     h1 2761   3.229   3.262   1.803
  519TCM    cl3 2762   3.302   3.037   1.834
  520TCM     c1 2763   0.202   2.829   3.170
  520TCM    cl1 2764   0.374   2.863   3.207
  520TCM    cl2 2765   0.103   2.973   3.211
  520TCM     h1 2766   0.190   2.806   3.064
  520TCM    cl3 2767   0.148   2.690   3.269
  521TCM     c1 2768   1.681   3.492   3.238
  521TCM    cl1 2769   1.623   3.478   3.408
  521TCM    cl2 2770   1.812   3.614   3.230
  521TCM     h1 2771   1.718   3.395   3.205
  521TCM    cl3 2772   1.544   3.544   3.134
  522TCM     c1 2773   2.687   4.050   1.460
  522TCM    cl1 2774   2.589   4.180   1.384
  522TCM    cl2 2775   2.833   4.020   1.360
  522TCM     h1 2776   2.717   4.081   1.560
  522TCM    cl3 2777   2.590   3.900   1.470
  523TCM     c1 2778   0.467   1.379   2.702
  523TCM    cl1 2779   0.374   1.235   2.649
  523TCM    cl2 2780   0.400   1.437   2.858
  523TCM     h1 2781   0.572   1.354   2.713
  523TCM    cl3 2782   0.447   1.509   2.579
  524TCM     c1 2783   4.441   3.200   2.710
  524TCM    cl1 2784   4.614   3.154   2.699
  524TCM    cl2 2785   4.421   3.334   2.827
  524TCM     h1 2786   4.405   3.232   2.612
  524TCM    cl3 2787   4.347   3.057   2.765
  525TCM     c1 2788   2.792   4.479   2.498
  525TCM    cl1 2789   2.643   4.538   2.417
  525TCM    cl2 2790   2.934   4.568   2.435
  525TCM     h1 2791   2.783   4.494   2.606
  525TCM    cl3 2792   2.812   4.304   2.463
  526TCM     c1 2793   2.917   3.162   1.985
  526TCM    cl1 2794   2.956   3.237   1.827
  526TCM    cl2 2795   3.062   3.169   2.092
  526TCM     h1 2796   2.835   3.217   2.032
  526TCM    cl3 2797   2.870   2.991   1.960
  527TCM     c1 2798   2.018   3.226   4.123
  527TCM    cl1 2799   1.872   3.297   4.048
  527TCM    cl2 2800   1.977   3.065   4.191
  527TCM     h1 2801   2.096   3.214   4.047
  527TCM    cl3 2802   2.077   3.334   4.254
  528TCM     c1 2803   0.090   1.819   0.227
  528TCM    cl1 2804  -0.056   1.873   0.315
  528TCM    cl2 2805   0.087   1.888   0.061
  528TCM     h1 2806   0.180   1.853   0.279
  528TCM    cl3 2807   0.091   1.640   0.215
  529TCM     c1 2808   2.084   3.017   1.893
  529TCM    cl1 2809   2.193   3.137   1.816
  529TCM    cl2 2810   2.159   2.959   2.045
  529TCM     h1 2811   1.987   3.063   1.914
  529TCM    cl3 2812   2.060   2.878   1.781
  530TCM     c1 2813   2.004   0.421   4.751
  530TCM    cl1 2814   2.033   0.584   4.681
  530TCM    cl2 2815   1.962   0.306   4.620
  530TCM     h1 2816   2.095   0.387   4.802
  530TCM    cl3 2817   1.868   0.430   4.868
  531TCM     c1 2818   0.330   4.884   3.687
  531TCM    cl1 2819   0.452   5.000   3.750
  531TCM    cl2 2820   0.406   4.778   3.564
  531TCM     h1 2821   0.293   4.823   3.770
  531TCM    cl3 2822   0.194   4.974   3.613
  532TCM     c1 2823   1.739   4.344   1.493
  532TCM    cl1 2824   1.587   4.261   1.540
  532TCM    cl2 2825   1.740   4.368   1.315
  532TCM     h1 2826   1.745   4.441   1.543
  532TCM    cl3 2827   1.877   4.241   1.541
  533TCM     c1 2828   0.088   0.886   3.746
  533TCM    cl1 2829   0.193   0.753   3.804
  533TCM    cl2 2830   0.077   1.015   3.870
  533TCM     h1 2831   0.127   0.928   3.653
  533TCM    cl3 2832  -0.077   0.820   3.721
  534TCM     c1 2833   2.330   2.955   0.122
  534TCM    cl1 2834   2.298   2.881  -0.038
  534TCM    cl2 2835   2.179   2.961   0.218
  534TCM     h1 2836   2.405   2.896   0.175
  534TCM    cl3 2837   2.392   3.122   0.099
  535TCM     c1 2838   2.569   4.169   0.922
  535TCM    cl1 2839   2.465   4.260   1.037
  535TCM    cl2 2840   2.741   4.205   0.960
  535TCM     h1 2841   2.550   4.062   0.933
  535TCM    cl3 2842   2.532   4.221   0.754
  536TCM     c1 2843   1.720   0.571   3.837
  536TCM    cl1 2844   1.768   0.539   3.667
  536TCM    cl2 2845   1.650   0.736   3.848
  536TCM     h1 2846   1.647   0.497   3.870
  536TCM    cl3 2847   1.865   0.563   3.943
  537TCM     c1 2848   1.624   1.125   2.488
  537TCM    cl1 2849   1.478   1.186   2.405
  537TCM    cl2 2850   1.593   1.113   2.664
  537TCM     h1 2851   1.651   1.026   2.448
  537TCM    cl3 2852   1.758   1.240   2.457
  538TCM     c1 2853   2.160   2.909   3.224
  538TCM    cl1 2854   2.278   2.992   3.332
  538TCM    cl2 2855   2.171   2.980   3.059
  538TCM     h1 2856   2.183   2.802   3.219
  538TCM    cl3 2857   1.995   2.931   3.289
  539TCM     c1 2858   3.845   4.248   2.793
  539TCM    cl1 2859   3.997   4.177   2.856
  539TCM    cl2 2860   3.800   4.390   2.892
  539TCM     h1 2861   3.859   4.279   2.689
  539TCM    cl3 2862   3.715   4.125   2.802
  540TCM     c1 2863   2.706   4.901   0.262
  540TCM    cl1 2864   2.720   5.044   0.369
  540TCM    cl2 2865   2.861   4.876   0.176
  540TCM     h1 2866   2.683   4.812   0.322
  540TCM    cl3 2867   2.576   4.927   0.142
  541TCM     c1 2868   1.919   3.674   4.154
  541TCM    cl1 2869   2.020   3.668   4.005
  541TCM    cl2 2870   1.747   3.649   4.110
  541TCM     h1 2871   1.951   3.595   4.223
  541TCM    cl3 2872   1.939   3.834   4.233
  542TCM     c1 2873   2.227   2.132   1.067
  542TCM    cl1 2874   2.226   2.148   1.246
  542TCM    cl2 2875   2.248   2.294   0.992
  542TCM     h1 2876   2.310   2.068   1.037
  542TCM    cl3 2877   2.072   2.060   1.012
  543TCM     c1 2878   1.959   1.031   1.795
  543TCM    cl1 2879   2.121   0.992   1.863
  543TCM    cl2 2880   1.839   0.914   1.859
  543TCM     h1 2881   1.931   1.132   1.824
  543TCM    cl3 2882   1.966   1.017   1.616
  544TCM     c1 2883   2.280   2.521   0.182
  544TCM    cl1 2884   2.364   2.640   0.287
  544TCM    cl2 2885   2.135   2.597   0.109
  544TCM     h1 2886   2.348   2.489   0.102
  544TCM    cl3 2887   2.230   2.379   0.280
  545TCM     c1 2888   3.404   2.271   4.257
  545TCM    cl1 2889   3.421   2.426   4.346
  545TCM    cl2 2890   3.562   2.223   4.187
  545TCM     h1 2891   3.369   2.193   4.326
  545TCM    cl3 2892   3.284   2.293   4.125
  546TCM     c1 2893   0.722   0.260   1.584
  546TCM    cl1 2894   0.647   0.322   1.433
  546TCM    cl2 2895   0.622   0.126   1.649
  546TCM     h1 2896   0.823   0.224   1.562
  546TCM    cl3 2897   0.731   0.392   1.704
  547TCM     c1 2898   0.096   3.067   3.553
  547TCM    cl1 2899   0.090   3.170   3.700
  547TCM    cl2 2900  -0.064   2.990   3.528
  547TCM     h1 2901   0.121   3.128   3.466
  547TCM    cl3 2902   0.221   2.940   3.575
  548TCM     c1 2903   4.397   4.686   0.603
  548TCM    cl1 2904   4.378   4.721   0.778
  548TCM    cl2 2905   4.539   4.776   0.539
  548TCM     h1 2906   4.413   4.579   0.589
  548TCM    cl3 2907   4.249   4.737   0.516
  549TCM     c1 2908   0.200   4.194   0.729
  549TCM    cl1 2909   0.138   4.184   0.561
  549TCM    cl2 2910   0.172   4.359   0.793
  549TCM     h1 2911   0.149   4.121   0.792
  549TCM    cl3 2912   0.376   4.159   0.729
  550TCM     c1 2913   2.265   2.125   3.346
  550TCM    cl1 2914   2.271   2.249   3.216
  550TCM    cl2 2915   2.393   2.003   3.319
  550TCM     h1 2916   2.279   2.173   3.443
  550TCM    cl3 2917   2.105   2.044   3.341
  551TCM     c1 2918   0.626   4.073   1.133
  551TCM    cl1 2919   0.634   3.945   1.007
  551TCM    cl2 2920   0.514   4.203   1.080
  551TCM     h1 2921   0.589   4.029   1.226
  551TCM    cl3 2922   0.789   4.141   1.159
  552TCM     c1 2923   1.417   3.879   0.329
  552TCM    cl1 2924   1.562   3.850   0.227
  552TCM    cl2 2925   1.453   4.011   0.446
  552TCM     h1 2926   1.333   3.907   0.267
  552TCM    cl3 2927   1.380   3.729   0.419
  553TCM     c1 2928   3.245   2.010   2.447
  553TCM    cl1 2929   3.400   1.962   2.370
  553TCM    cl2 2930   3.127   2.056   2.320
  553TCM     h1 2931   3.205   1.927   2.505
  553TCM    cl3 2932   3.275   2.151   2.553
  554TCM     c1 2933   2.034   2.675   2.240
  554TCM    cl1 2934   2.118   2.766   2.370
  554TCM    cl2 2935   1.865   2.641   2.290
  554TCM     h1 2936   2.033   2.734   2.148
  554TCM    cl3 2937   2.119   2.520   2.210
  555TCM     c1 2938   3.206   4.948   1.873
  555TCM    cl1 2939   3.196   5.116   1.812
  555TCM    cl2 2940   3.142   4.942   2.041
  555TCM     h1 2941   3.148   4.882   1.809
  555TCM    cl3 2942   3.378   4.896   1.875
  556TCM     c1 2943   1.055   2.443   4.351
  556TCM    cl1 2944   0.951   2.589   4.338
  556TCM    cl2 2945   1.190   2.453   4.233
  556TCM     h1 2946   1.097   2.437   4.452
  556TCM    cl3 2947   0.956   2.298   4.317
  557TCM     c1 2948   4.685   3.600   4.802
  557TCM    cl1 2949   4.847   3.524   4.809
  557TCM    cl2 2950   4.643   3.634   4.631
  557TCM     h1 2951   4.611   3.533   4.845
  557TCM    cl3 2952   4.686   3.754   4.893
  558TCM     c1 2953   0.107   1.880   3.657
  558TCM    cl1 2954   0.113   1.999   3.791
  558TCM    cl2 2955  -0.051   1.795   3.658
  558TCM     h1 2956   0.120   1.931   3.561
  558TCM    cl3 2957   0.238   1.760   3.681
  559TCM     c1 2958   4.216   2.124   2.719
  559TCM    cl1 2959   4.209   2.014   2.860
  559TCM    cl2 2960   4.082   2.085   2.605
  559TCM     h1 2961   4.206   2.228   2.753
  559TCM    cl3 2962   4.373   2.105   2.635
  560TCM     c1 2963   1.454   2.651   0.019
  560TCM    cl1 2964   1.508   2.823   0.013
  560TCM    cl2 2965   1.428   2.592  -0.148
  560TCM     h1 2966   1.531   2.591   0.067
  560TCM    cl3 2967   1.301   2.640   0.112
  561TCM     c1 2968   3.689   1.805   2.833
  561TCM    cl1 2969   3.628   1.968   2.791
  561TCM    cl2 2970   3.628   1.759   2.995
  561TCM     h1 2971   3.653   1.733   2.758
  561TCM    cl3 2972   3.868   1.806   2.833
  562TCM     c1 2973   2.792   4.673   0.690
  562TCM    cl1 2974   2.635   4.758   0.713
  562TCM    cl2 2975   2.856   4.713   0.527
  562TCM     h1 2976   2.863   4.705   0.766
  562TCM    cl3 2977   2.766   4.496   0.700
  563TCM     c1 2978   1.794   3.813   0.512
  563TCM    cl1 2979   1.879   3.770   0.664
  563TCM    cl2 2980   1.857   3.710   0.379
  563TCM     h1 2981   1.687   3.797   0.524
  563TCM    cl3 2982   1.825   3.986   0.473
  564TCM     c1 2983   0.090   2.657   4.793
  564TCM    cl1 2984   0.148   2.811   4.864
  564TCM    cl2 2985   0.065   2.537   4.925
  564TCM     h1 2986  -0.004   2.673   4.741
  564TCM    cl3 2987   0.214   2.595   4.678
  565TCM     c1 2988   2.996   4.786   2.898
  565TCM    cl1 2989   3.142   4.860   2.826
  565TCM    cl2 2990   2.927   4.666   2.783
  565TCM     h1 2991   3.022   4.736   2.992
  565TCM    cl3 2992   2.873   4.913   2.930
  566TCM     c1 2993   4.558   3.848   3.368
  566TCM    cl1 2994   4.459   3.858   3.517
  566TCM    cl2 2995   4.450   3.847   3.225
  566TCM     h1 2996   4.625   3.934   3.363
  566TCM    cl3 2997   4.655   3.697   3.371
  567TCM     c1 2998   1.689   0.940   2.984
  567TCM    cl1 2999   1.802   1.003   3.107
  567TCM    cl2 3000   1.523   0.938   3.053
  567TCM     h1 3001   1.692   1.004   2.895
  567TCM    cl3 3002   1.735   0.772   2.939
  568TCM     c1 3003   3.118   2.617   4.473
  568TCM    cl1 3004   3.015   2.760   4.507
  568TCM    cl2 3005   3.052   2.529   4.331
  568TCM     h1 3006   3.220   2.650   4.451
  568TCM    cl3 3007   3.119   2.509   4.616
  569TCM     c1 3008   2.259   4.061   0.436
  569TCM    cl1 3009   2.178   3.918   0.507
  569TCM    cl2 3010   2.435   4.028   0.422
  569TCM     h1 3011   2.217   4.082   0.337
  569TCM    cl3 3012   2.234   4.204   0.542
  570TCM     c1 3013   3.259   1.622   4.990
  570TCM    cl1 3014   3.421   1.656   4.920
  570TCM    cl2 3015   3.185   1.486   4.900
  570TCM     h1 3016   3.270   1.596   5.095
  570TCM    cl3 3017   3.155   1.767   4.973
  571TCM     c1 3018   2.456   1.539   3.412
  571TCM    cl1 3019   2.560   1.684   3.428
  571TCM    cl2 3020   2.450   1.453   3.570
  571TCM     h1 3021   2.355   1.569   3.384
  571TCM    cl3 3022   2.524   1.431   3.286
  572TCM     c1 3023   1.279   0.845   2.614
  572TCM    cl1 3024   1.434   0.809   2.530
  572TCM    cl2 3025   1.223   1.010   2.571
  572TCM     h1 3026   1.204   0.772   2.584
  572TCM    cl3 3027   1.305   0.836   2.791
  573TCM     c1 3028   2.676   4.170   4.920
  573TCM    cl1 3029   2.651   4.120   5.091
  573TCM    cl2 3030   2.548   4.099   4.818
  573TCM     h1 3031   2.674   4.279   4.913
  573TCM    cl3 3032   2.835   4.110   4.865
  574TCM     c1 3033   2.225   4.557   1.416
  574TCM    cl1 3034   2.055   4.551   1.475
  574TCM    cl2 3035   2.224   4.569   1.237
  574TCM     h1 3036   2.275   4.645   1.458
  574TCM    cl3 3037   2.313   4.409   1.464
  575TCM     c1 3038   0.994   2.500   4.780
  575TCM    cl1 3039   0.922   2.378   4.670
  575TCM    cl2 3040   1.097   2.612   4.685
  575TCM     h1 3041   0.915   2.557   4.829
  575TCM    cl3 3042   1.093   2.416   4.903
  576TCM     c1 3043   1.471   1.089   1.522
  576TCM    cl1 3044   1.463   1.262   1.476
  576TCM    cl2 3045   1.305   1.022   1.533
  576TCM     h1 3046   1.528   1.033   1.448
  576TCM    cl3 3047   1.550   1.073   1.682
  577TCM     c1 3048   0.402   3.508   3.471
  577TCM    cl1 3049   0.349   3.606   3.611
  577TCM    cl2 3050   0.357   3.592   3.319
  577TCM     h1 3051   0.510   3.494   3.474
  577TCM    cl3 3052   0.320   3.348   3.476
  578TCM     c1 3053   0.566   0.022   3.337
  578TCM    cl1 3054   0.471   0.154   3.413
  578TCM    cl2 3055   0.719  -0.001   3.428
  578TCM     h1 3056   0.508  -0.071   3.339
  578TCM    cl3 3057   0.603   0.065   3.167
  579TCM     c1 3058   4.171   0.022   2.836
  579TCM    cl1 3059   4.291   0.154   2.861
  579TCM    cl2 3060   4.256  -0.134   2.816
  579TCM     h1 3061   4.105   0.016   2.923
  579TCM    cl3 3062   4.074   0.057   2.690
  580TCM     c1 3063   3.169   3.963   1.281
  580TCM    cl1 3064   3.311   4.049   1.214
  580TCM    cl2 3065   3.187   3.940   1.458
  580TCM     h1 3066   3.079   4.023   1.261
  580TCM    cl3 3067   3.153   3.803   1.202
  581TCM     c1 3068   4.551   4.189   3.653
  581TCM    cl1 3069   4.535   4.353   3.724
  581TCM    cl2 3070   4.685   4.101   3.733
  581TCM     h1 3071   4.457   4.134   3.667
  581TCM    cl3 3072   4.585   4.204   3.477
  582TCM     c1 3073   1.001   3.641   0.199
  582TCM    cl1 3074   0.965   3.662   0.025
  582TCM    cl2 3075   1.052   3.798   0.269
  582TCM     h1 3076   0.911   3.605   0.251
  582TCM    cl3 3077   1.133   3.521   0.216
  583TCM     c1 3078   0.315   2.253   4.847
  583TCM    cl1 3079   0.328   2.076   4.872
  583TCM    cl2 3080   0.428   2.303   4.717
  583TCM     h1 3081   0.213   2.279   4.819
  583TCM    cl3 3082   0.358   2.337   5.000
  584TCM     c1 3083   0.878   0.088   1.954
  584TCM    cl1 3084   0.979  -0.010   2.067
  584TCM    cl2 3085   0.963   0.101   1.796
  584TCM     h1 3086   0.781   0.039   1.940
  584TCM    cl3 3087   0.854   0.251   2.024
  585TCM     c1 3088   1.303   0.880   3.803
  585TCM    cl1 3089   1.310   0.890   3.982
  585TCM    cl2 3090   1.291   1.046   3.736
  585TCM     h1 3091   1.393   0.832   3.765
  585TCM    cl3 3092   1.158   0.786   3.755
  586TCM     c1 3093   3.823   2.528   4.168
  586TCM    cl1 3094   3.902   2.405   4.064
  586TCM    cl2 3095   3.803   2.461   4.334
  586TCM     h1 3096   3.886   2.618   4.172
  586TCM    cl3 3097   3.663   2.571   4.101
  587TCM     c1 3098   2.044   3.157   4.941
  587TCM    cl1 3099   2.146   3.193   4.798
  587TCM    cl2 3100   1.872   3.146   4.892
  587TCM     h1 3101   2.075   3.062   4.986
  587TCM    cl3 3102   2.060   3.288   5.062
  588TCM     c1 3103   1.165   0.429   0.709
  588TCM    cl1 3104   1.126   0.391   0.538
  588TCM    cl2 3105   1.125   0.600   0.744
  588TCM     h1 3106   1.106   0.364   0.775
  588TCM    cl3 3107   1.339   0.400   0.738
  589TCM     c1 3108   0.458   3.731   0.216
  589TCM    cl1 3109   0.374   3.671   0.069
  589TCM    cl2 3110   0.636   3.719   0.192
  589TCM     h1 3111   0.431   3.835   0.234
  589TCM    cl3 3112   0.411   3.630   0.357
  590TCM     c1 3113   3.113   1.669   3.076
  590TCM    cl1 3114   3.248   1.563   3.026
  590TCM    cl2 3115   3.022   1.591   3.209
  590TCM     h1 3116   3.152   1.765   3.110
  590TCM    cl3 3117   3.004   1.695   2.936
  591TCM     c1 3118   2.817   4.590   4.968
  591TCM    cl1 3119   2.701   4.677   4.862
  591TCM    cl2 3120   2.915   4.478   4.869
  591TCM     h1 3121   2.882   4.662   5.018
  591TCM    cl3 3122   2.725   4.497   5.090
  592TCM     c1 3123   3.774   3.713   3.014
  592TCM    cl1 3124   3.833   3.675   3.179
  592TCM    cl2 3125   3.883   3.834   2.938
  592TCM     h1 3126   3.772   3.622   2.953
  592TCM    cl3 3127   3.608   3.782   3.025
  593TCM     c1 3128   2.997   3.937   0.716
  593TCM    cl1 3129   3.009   3.961   0.894
  593TCM    cl2 3130   2.887   4.061   0.647
  593TCM     h1 3131   3.097   3.947   0.671
  593TCM    cl3 3132   2.931   3.774   0.682
  594TCM     c1 3133   4.437   4.346   0.927
  594TCM    cl1 3134   4.526   4.399   0.780
  594TCM    cl2 3135   4.548   4.255   1.033
  594TCM     h1 3136   4.399   4.434   0.980
  594TCM    cl3 3137   4.300   4.240   0.880
  595TCM     c1 3138   4.657   2.792   0.081
  595TCM    cl1 3139   4.516   2.842  -0.018
  595TCM    cl2 3140   4.661   2.889   0.232
  595TCM     h1 3141   4.649   2.686   0.106
  595TCM    cl3 3142   4.808   2.820  -0.011
  596TCM     c1 3143   2.853   0.845   1.895
  596TCM    cl1 3144   2.753   0.889   2.037
  596TCM    cl2 3145   2.810   0.952   1.758
  596TCM     h1 3146   2.958   0.856   1.919
  596TCM    cl3 3147   2.819   0.675   1.849
  597TCM     c1 3148   3.259   4.389   2.843
  597TCM    cl1 3149   3.225   4.459   2.681
  597TCM    cl2 3150   3.182   4.491   2.969
  597TCM     h1 3151   3.218   4.287   2.848
  597TCM    cl3 3152   3.436   4.384   2.871
  598TCM     c1 3153   3.745   3.597   3.695
  598TCM    cl1 3154   3.904   3.518   3.670
  598TCM    cl2 3155   3.618   3.471   3.707
  598TCM     h1 3156   3.747   3.655   3.788
  598TCM    cl3 3157   3.710   3.705   3.557
  599TCM     c1 3158   4.142   0.323   4.875
  599TCM    cl1 3159   4.244   0.448   4.798
  599TCM    cl2 3160   4.111   0.190   4.757
  599TCM     h1 3161   4.193   0.283   4.963
  599TCM    cl3 3162   3.985   0.395   4.924
  600TCM     c1 3163   3.171   3.206   3.113
  600TCM    cl1 3164   3.191   3.140   3.279
  600TCM    cl2 3165   3.305   3.147   3.009
  600TCM     h1 3166   3.075   3.172   3.073
  600TCM    cl3 3167   3.175   3.385   3.119
  601TCM     c1 3168   0.800   2.516   1.595
  601TCM    cl1 3169   0.748   2.632   1.468
  601TCM    cl2 3170   0.891   2.381   1.519
  601TCM     h1 3171   0.865   2.568   1.667
  601TCM    cl3 3172   0.656   2.451   1.679
  602TCM     c1 3173   0.096   4.287   2.926
  602TCM    cl1 3174   0.206   4.326   2.789
  602TCM    cl2 3175   0.195   4.261   3.074
  602TCM     h1 3176   0.026   4.369   2.942
  602TCM    cl3 3177   0.006   4.137   2.888
  603TCM     c1 3178   2.356   3.224   1.469
  603TCM    cl1 3179   2.316   3.050   1.471
  603TCM    cl2 3180   2.462   3.266   1.608
  603TCM     h1 3181   2.407   3.249   1.376
  603TCM    cl3 3182   2.204   3.320   1.481
  604TCM     c1 3183   0.108   1.326   2.157
  604TCM    cl1 3184   0.192   1.465   2.080
  604TCM    cl2 3185   0.193   1.281   2.309
  604TCM     h1 3186   0.005   1.355   2.181
  604TCM    cl3 3187   0.107   1.186   2.045
  605TCM     c1 3188   4.021   3.195   3.305
  605TCM    cl1 3189   4.101   3.252   3.455
  605TCM    cl2 3190   4.088   3.034   3.259
  605TCM     h1 3191   3.914   3.186   3.322
  605TCM    cl3 3192   4.052   3.312   3.173
  606TCM     c1 3193   2.056   3.294   3.219
  606TCM    cl1 3194   2.151   3.443   3.188
  606TCM    cl2 3195   1.940   3.268   3.084
  606TCM     h1 3196   2.124   3.208   3.225
  606TCM    cl3 3197   1.966   3.309   3.372
  607TCM     c1 3198   2.683   3.015   2.358
  607TCM    cl1 3199   2.674   3.012   2.537
  607TCM    cl2 3200   2.799   2.890   2.302
  607TCM     h1 3201   2.584   2.995   2.316
  607TCM    cl3 3202   2.739   3.177   2.304
  608TCM     c1 3203   1.822   2.796   4.814
  608TCM    cl1 3204   1.799   2.635   4.890
  608TCM    cl2 3205   1.709   2.815   4.676
  608TCM     h1 3206   1.802   2.874   4.887
  608TCM    cl3 3207   1.991   2.810   4.755
  609TCM     c1 3208   4.825   0.649   2.521
  609TCM    cl1 3209   4.897   0.486   2.509
  609TCM    cl2 3210   4.683   0.660   2.412
  609TCM     h1 3211   4.793   0.667   2.624
  609TCM    cl3 3212   4.947   0.772   2.474
  610TCM     c1 3213   0.174   2.055   1.002
  610TCM    cl1 3214   0.122   2.093   0.834
  610TCM    cl2 3215   0.300   2.173   1.054
  610TCM     h1 3216   0.088   2.061   1.069
  610TCM    cl3 3217   0.243   1.889   1.006
  611TCM     c1 3218   3.139   3.979   0.022
  611TCM    cl1 3219   3.053   3.835  -0.042
  611TCM    cl2 3220   3.188   4.086  -0.113
  611TCM     h1 3221   3.073   4.033   0.090
  611TCM    cl3 3222   3.285   3.925   0.110
  612TCM     c1 3223   2.631   3.877   3.472
  612TCM    cl1 3224   2.576   3.895   3.642
  612TCM    cl2 3225   2.703   3.714   3.450
  612TCM     h1 3226   2.546   3.889   3.405
  612TCM    cl3 3227   2.754   4.003   3.435
  613TCM     c1 3228   2.074   4.432   1.889
  613TCM    cl1 3229   2.153   4.320   1.773
  613TCM    cl2 3230   2.026   4.339   2.035
  613TCM     h1 3231   2.144   4.511   1.917
  613TCM    cl3 3232   1.928   4.503   1.813
  614TCM     c1 3233   1.505   1.680   0.490
  614TCM    cl1 3234   1.403   1.621   0.626
  614TCM    cl2 3235   1.603   1.819   0.545
  614TCM     h1 3236   1.571   1.600   0.456
  614TCM    cl3 3237   1.398   1.732   0.356
  615TCM     c1 3238   0.459   2.782   3.983
  615TCM    cl1 3239   0.339   2.908   3.941
  615TCM    cl2 3240   0.386   2.667   4.100
  615TCM     h1 3241   0.488   2.728   3.892
  615TCM    cl3 3242   0.603   2.858   4.057
  616TCM     c1 3243   0.793   1.623   4.317
  616TCM    cl1 3244   0.675   1.753   4.352
  616TCM    cl2 3245   0.956   1.678   4.367
  616TCM     h1 3246   0.766   1.532   4.372
  616TCM    cl3 3247   0.791   1.588   4.141
  617TCM     c1 3248   0.141   2.672   0.642
  617TCM    cl1 3249   0.082   2.746   0.794
  617TCM    cl2 3250   0.082   2.503   0.631
  617TCM     h1 3251   0.104   2.730   0.556
  617TCM    cl3 3252   0.321   2.672   0.640
  618TCM     c1 3253   2.192   4.001   4.685
  618TCM    cl1 3254   2.097   3.896   4.795
  618TCM    cl2 3255   2.171   4.173   4.733
  618TCM     h1 3256   2.298   3.974   4.691
  618TCM    cl3 3257   2.132   3.977   4.518
  619TCM     c1 3258   2.855   3.369   2.820
  619TCM    cl1 3259   2.754   3.374   2.672
  619TCM    cl2 3260   2.990   3.486   2.805
  619TCM     h1 3261   2.794   3.396   2.907
  619TCM    cl3 3262   2.920   3.203   2.843
  620TCM     c1 3263   3.022   4.250   0.367
  620TCM    cl1 3264   3.166   4.148   0.398
  620TCM    cl2 3265   3.002   4.274   0.190
  620TCM     h1 3266   2.933   4.200   0.407
  620TCM    cl3 3267   3.043   4.408   0.448
  621TCM     c1 3268   3.522   4.367   0.240
  621TCM    cl1 3269   3.493   4.544   0.247
  621TCM    cl2 3270   3.682   4.336   0.166
  621TCM     h1 3271   3.521   4.326   0.342
  621TCM    cl3 3272   3.394   4.289   0.142
  622TCM     c1 3273   2.455   3.717   0.644
  622TCM    cl1 3274   2.569   3.834   0.718
  622TCM    cl2 3275   2.451   3.566   0.741
  622TCM     h1 3276   2.355   3.761   0.641
  622TCM    cl3 3277   2.509   3.678   0.477
  623TCM     c1 3278   4.066   3.763   3.446
  623TCM    cl1 3279   4.094   3.894   3.327
  623TCM    cl2 3280   4.104   3.821   3.612
  623TCM     h1 3281   3.961   3.732   3.441
  623TCM    cl3 3282   4.171   3.622   3.408
  624TCM     c1 3283   0.342   4.592   4.111
  624TCM    cl1 3284   0.192   4.508   4.063
  624TCM    cl2 3285   0.303   4.721   4.230
  624TCM     h1 3286   0.412   4.521   4.156
  624TCM    cl3 3287   0.417   4.666   3.966
  625TCM     c1 3288   4.103   0.214   3.265
  625TCM    cl1 3289   4.278   0.214   3.225
  625TCM    cl2 3290   4.083   0.203   3.443
  625TCM     h1 3291   4.058   0.307   3.229
  625TCM    cl3 3292   4.025   0.073   3.187
  626TCM     c1 3293   2.434   2.572   3.205
  626TCM    cl1 3294   2.430   2.718   3.100
  626TCM    cl2 3295   2.320   2.595   3.341
  626TCM     h1 3296   2.405   2.484   3.146
  626TCM    cl3 3297   2.600   2.550   3.269
  627TCM     c1 3298   4.987   4.531   2.584
  627TCM    cl1 3299   4.867   4.586   2.463
  627TCM    cl2 3300   4.921   4.559   2.749
  627TCM     h1 3301   5.007   4.425   2.570
  627TCM    cl3 3302   5.140   4.624   2.566
  628TCM     c1 3303   2.399   0.648   1.865
  628TCM    cl1 3304   2.223   0.644   1.900
  628TCM    cl2 3305   2.490   0.600   2.013
  628TCM     h1 3306   2.422   0.579   1.784
  628TCM    cl3 3307   2.448   0.814   1.817
  629TCM     c1 3308   0.248   2.451   2.889
  629TCM    cl1 3309   0.313   2.380   2.738
  629TCM    cl2 3310   0.343   2.596   2.934
  629TCM     h1 3311   0.143   2.480   2.873
  629TCM    cl3 3312   0.259   2.330   3.020
  630TCM     c1 3313   1.129   3.976   0.735
  630TCM    cl1 3314   1.091   4.005   0.562
  630TCM    cl2 3315   1.275   3.872   0.747
  630TCM     h1 3316   1.147   4.071   0.785
  630TCM    cl3 3317   0.990   3.893   0.813
  631TCM     c1 3318   2.525   3.163   0.474
  631TCM    cl1 3319   2.681   3.183   0.560
  631TCM    cl2 3320   2.390   3.197   0.587
  631TCM     h1 3321   2.520   3.232   0.389
  631TCM    cl3 3322   2.512   2.994   0.416
  632TCM     c1 3323   0.757   0.574   0.748
  632TCM    cl1 3324   0.804   0.416   0.675
  632TCM    cl2 3325   0.657   0.543   0.894
  632TCM     h1 3326   0.847   0.629   0.777
  632TCM    cl3 3327   0.663   0.670   0.629
  633TCM     c1 3328   4.965   2.193   2.783
  633TCM    cl1 3329   4.923   2.294   2.925
  633TCM    cl2 3330   4.822   2.179   2.675
  633TCM     h1 3331   5.048   2.239   2.728
  633TCM    cl3 3332   5.014   2.031   2.841
  634TCM     c1 3333   2.609   0.855   3.150
  634TCM    cl1 3334   2.705   0.704   3.138
  634TCM    cl2 3335   2.695   0.972   3.255
  634TCM     h1 3336   2.596   0.898   3.050
  634TCM    cl3 3337   2.447   0.817   3.219
  635TCM     c1 3338   0.260   0.960   1.793
  635TCM    cl1 3339   0.281   1.095   1.676
  635TCM    cl2 3340   0.375   0.828   1.754
  635TCM     h1 3341   0.279   0.996   1.894
  635TCM    cl3 3342   0.092   0.898   1.781
  636TCM     c1 3343   3.958   0.369   4.371
  636TCM    cl1 3344   3.982   0.194   4.400
  636TCM    cl2 3345   4.078   0.462   4.467
  636TCM     h1 3346   3.971   0.392   4.265
  636TCM    cl3 3347   3.793   0.416   4.422
  637TCM     c1 3348   4.974   0.892   4.699
  637TCM    cl1 3349   5.081   0.997   4.600
  637TCM    cl2 3350   5.060   0.847   4.850
  637TCM     h1 3351   4.882   0.945   4.723
  637TCM    cl3 3352   4.934   0.743   4.605
  638TCM     c1 3353   2.873   0.270   1.132
  638TCM    cl1 3354   3.024   0.177   1.106
  638TCM    cl2 3355   2.899   0.393   1.260
  638TCM     h1 3356   2.844   0.320   1.039
  638TCM    cl3 3357   2.742   0.159   1.184
  639TCM     c1 3358   2.048   1.262   3.454
  639TCM    cl1 3359   2.123   1.260   3.617
  639TCM    cl2 3360   2.053   1.097   3.384
  639TCM     h1 3361   1.945   1.295   3.462
  639TCM    cl3 3362   2.139   1.375   3.348
  640TCM     c1 3363   3.294   1.401   2.062
  640TCM    cl1 3364   3.295   1.240   1.985
  640TCM    cl2 3365   3.444   1.489   2.018
  640TCM     h1 3366   3.207   1.458   2.028
  640TCM    cl3 3367   3.288   1.383   2.240
   5.00000   5.00000   5.00000
