Guyana Rwanda Oman Macau Angola Cameroon Senegal
 3367
    1POM     C1    1   1.916   1.527   1.482
    1POM     O2    2   1.847   1.605   1.579
    1POM     C3    3   1.829   1.738   1.551
    1POM     C4    4   1.871   1.805   1.436
    1POM     C5    5   1.842   1.941   1.420
    1POM     C6    6   1.773   2.013   1.518
    1POM     C7    7   1.737   2.154   1.492
    1POM     C8    8   1.603   2.194   1.499
    1POM     C9    9   1.569   2.329   1.495
    1POM    C10   10   1.669   2.424   1.482
    1POM    C11   11   1.801   2.388   1.457
    1POM    C12   12   1.908   2.487   1.425
    1POM    O13   13   2.027   2.458   1.429
    1POM    C14   14   1.835   2.251   1.465
    1POM    C15   15   1.736   1.947   1.638
    1POM    C16   16   1.668   2.016   1.749
    1POM    C17   17   1.541   1.974   1.789
    1POM    C18   18   1.471   2.044   1.886
    1POM    C19   19   1.528   2.150   1.956
    1POM    C20   20   1.454   2.217   2.070
    1POM    C21   21   1.328   2.289   2.023
    1POM    N22   22   1.424   2.130   2.185
    1POM    C23   23   1.654   2.194   1.916
    1POM    C24   24   1.722   2.129   1.813
    1POM    C25   25   1.763   1.809   1.651
    1POM    H26   26   1.922   1.424   1.522
    1POM    H27   27   1.861   1.522   1.388
    1POM    H28   28   2.017   1.563   1.467
    1POM    H29   29   1.923   1.753   1.356
    1POM    H30   30   1.873   1.990   1.328
    1POM    H31   31   1.523   2.122   1.516
    1POM    H32   32   1.465   2.360   1.506
    1POM    H33   33   1.641   2.528   1.494
    1POM    H34   34   1.940   2.221   1.457
    1POM    H35   35   1.494   1.887   1.743
    1POM    H36   36   1.369   2.011   1.907
    1POM    H37   37   1.520   2.294   2.112
    1POM    H38   38   1.283   2.347   2.105
    1POM    H39   39   1.251   2.219   1.988
    1POM    H40   40   1.350   2.359   1.941
    1POM    H41   41   1.418   2.184   2.269
    1POM    H42   42   1.701   2.281   1.963
    1POM    H43   43   1.819   2.168   1.781
    1POM    H44   44   1.732   1.756   1.740
    2POM    C45   45   0.486   1.594   2.052
    2POM    O46   46   0.548   1.599   2.180
    2POM    C47   47   0.654   1.684   2.194
    2POM    C48   48   0.707   1.769   2.097
    2POM    C49   49   0.814   1.853   2.129
    2POM    C50   50   0.871   1.857   2.257
    2POM    C51   51   0.978   1.954   2.288
    2POM    C52   52   0.965   2.048   2.391
    2POM    C53   53   1.067   2.135   2.425
    2POM    C54   54   1.188   2.131   2.355
    2POM    C55   55   1.206   2.037   2.253
    2POM    C56   56   1.333   2.026   2.176
    2POM    O57   57   1.348   1.926   2.107
    2POM    C58   58   1.100   1.951   2.219
    2POM    C59   59   0.821   1.767   2.354
    2POM    C60   60   0.878   1.758   2.489
    2POM    C61   61   0.798   1.788   2.599
    2POM    C62   62   0.851   1.793   2.726
    2POM    C63   63   0.984   1.756   2.752
    2POM    C64   64   1.038   1.749   2.893
    2POM    C65   65   1.044   1.887   2.958
    2POM    N66   66   0.971   1.652   2.981
    2POM    C67   67   1.066   1.727   2.641
    2POM    C68   68   1.013   1.729   2.512
    2POM    C69   69   0.711   1.684   2.321
    2POM    H70   70   0.404   1.523   2.058
    2POM    H71   71   0.444   1.691   2.024
    2POM    H72   72   0.556   1.557   1.976
    2POM    H73   73   0.666   1.772   1.996
    2POM    H74   74   0.852   1.920   2.050
    2POM    H75   75   0.873   2.050   2.451
    2POM    H76   76   1.055   2.205   2.508
    2POM    H77   77   1.265   2.201   2.385
    2POM    H78   78   1.114   1.879   2.138
    2POM    H79   79   0.692   1.811   2.587
    2POM    H80   80   0.787   1.825   2.806
    2POM    H81   81   1.141   1.712   2.888
    2POM    H82   82   1.094   1.880   3.056
    2POM    H83   83   0.944   1.927   2.977
    2POM    H84   84   1.099   1.959   2.898
    2POM    H85   85   1.034   1.620   3.052
    2POM    H86   86   1.172   1.704   2.655
    2POM    H87   87   1.080   1.709   2.428
    2POM    H88   88   0.670   1.617   2.398
    3POM    C89   89   0.087   2.078   3.457
    3POM    O90   90   0.143   1.957   3.505
    3POM    C91   91   0.265   1.919   3.455
    3POM    C92   92   0.342   1.989   3.363
    3POM    C93   93   0.467   1.939   3.323
    3POM    C94   94   0.518   1.817   3.374
    3POM    C95   95   0.654   1.773   3.336
    3POM    C96   96   0.752   1.748   3.432
    3POM    C97   97   0.880   1.699   3.398
    3POM    C98   98   0.911   1.676   3.265
    3POM    C99   99   0.815   1.697   3.166
    3POM   C100  100   0.840   1.669   3.022
    3POM   O101  101   0.743   1.665   2.947
    3POM   C102  102   0.687   1.747   3.202
    3POM   C103  103   0.436   1.744   3.463
    3POM   C104  104   0.477   1.613   3.517
    3POM   C105  105   0.495   1.598   3.654
    3POM   C106  106   0.545   1.480   3.705
    3POM   C107  107   0.568   1.368   3.625
    3POM   C108  108   0.613   1.237   3.684
    3POM   C109  109   0.752   1.246   3.749
    3POM   N110  110   0.518   1.174   3.777
    3POM   C111  111   0.553   1.383   3.487
    3POM   C112  112   0.509   1.505   3.433
    3POM   C113  113   0.312   1.798   3.503
    3POM   H114  114  -0.010   2.093   3.508
    3POM   H115  115   0.151   2.164   3.482
    3POM   H116  116   0.068   2.074   3.349
    3POM   H117  117   0.308   2.083   3.320
    3POM   H118  118   0.526   1.997   3.253
    3POM   H119  119   0.730   1.763   3.538
    3POM   H120  120   0.953   1.680   3.475
    3POM   H121  121   1.010   1.639   3.242
    3POM   H122  122   0.613   1.763   3.124
    3POM   H123  123   0.470   1.678   3.722
    3POM   H124  124   0.564   1.477   3.812
    3POM   H125  125   0.621   1.164   3.602
    3POM   H126  126   0.786   1.147   3.781
    3POM   H127  127   0.751   1.311   3.837
    3POM   H128  128   0.826   1.286   3.678
    3POM   H129  129   0.527   1.075   3.777
    3POM   H130  130   0.577   1.301   3.418
    3POM   H131  131   0.501   1.515   3.325
    3POM   H132  132   0.251   1.743   3.575
    4POM   C133  133   0.640   1.549   4.792
    4POM   O134  134   0.561   1.433   4.769
    4POM   C135  135   0.565   1.379   4.643
    4POM   C136  136   0.641   1.425   4.537
    4POM   C137  137   0.639   1.357   4.414
    4POM   C138  138   0.560   1.242   4.394
    4POM   C139  139   0.569   1.169   4.266
    4POM   C140  140   0.607   1.034   4.261
    4POM   C141  141   0.609   0.962   4.140
    4POM   C142  142   0.571   1.025   4.022
    4POM   C143  143   0.532   1.158   4.024
    4POM   C144  144   0.490   1.231   3.901
    4POM   O145  145   0.433   1.338   3.916
    4POM   C146  146   0.533   1.230   4.145
    4POM   C147  147   0.478   1.199   4.501
    4POM   C148  148   0.389   1.082   4.489
    4POM   C149  149   0.410   0.971   4.571
    4POM   C150  150   0.334   0.856   4.554
    4POM   C151  151   0.226   0.849   4.465
    4POM   C152  152   0.138   0.725   4.456
    4POM   C153  153   0.216   0.604   4.404
    4POM   N154  154   0.065   0.687   4.578
    4POM   C155  155   0.207   0.960   4.380
    4POM   C156  156   0.287   1.074   4.392
    4POM   C157  157   0.484   1.267   4.625
    4POM   H158  158   0.624   1.579   4.897
    4POM   H159  159   0.747   1.530   4.779
    4POM   H160  160   0.607   1.633   4.729
    4POM   H161  161   0.705   1.513   4.545
    4POM   H162  162   0.701   1.394   4.333
    4POM   H163  163   0.633   0.982   4.352
    4POM   H164  164   0.636   0.857   4.140
    4POM   H165  165   0.574   0.966   3.931
    4POM   H166  166   0.503   1.335   4.145
    4POM   H167  167   0.488   0.972   4.646
    4POM   H168  168   0.361   0.770   4.615
    4POM   H169  169   0.059   0.745   4.383
    4POM   H170  170   0.149   0.519   4.389
    4POM   H171  171   0.293   0.571   4.476
    4POM   H172  172   0.267   0.626   4.309
    4POM   H173  173  -0.010   0.621   4.557
    4POM   H174  174   0.130   0.958   4.303
    4POM   H175  175   0.272   1.157   4.323
    4POM   H176  176   0.425   1.231   4.709
    5CAP   C177  177   1.771   2.639   1.294
    5CAP   O178  178   1.865   2.614   1.400
    5CAP   H179  179   1.800   2.588   1.202
    5CAP   H180  180   1.770   2.747   1.277
    5CAP   H181  181   1.669   2.614   1.321
    6CAP   C182  182   0.124   0.317   4.847
    6CAP   C183  183   0.187   0.456   4.826
    6CAP   C184  184   0.186   0.530   4.960
    6CAP   C185  185   0.331   0.434   4.777
    6CAP   O186  186   0.106   0.521   4.723
    6CAP   C187  187   0.131   0.650   4.693
    6CAP   O188  188   0.204   0.721   4.757
    6CAP   H189  189   0.177   0.260   4.923
    6CAP   H190  190   0.019   0.327   4.878
    6CAP   H191  191   0.124   0.259   4.754
    6CAP   H192  192   0.083   0.555   4.989
    6CAP   H193  193   0.243   0.622   4.957
    6CAP   H194  194   0.231   0.469   5.040
    6CAP   H195  195   0.333   0.385   4.680
    6CAP   H196  196   0.386   0.528   4.766
    6CAP   H197  197   0.388   0.371   4.848
    1TCM     c1  198   4.363   0.344   2.692
    1TCM    cl1  199   4.272   0.192   2.701
    1TCM    cl2  200   4.296   0.460   2.809
    1TCM     h1  201   4.470   0.325   2.716
    1TCM    cl3  202   4.350   0.411   2.528
    1TCM     c1  203   1.666   2.472   4.339
    1TCM    cl1  204   1.668   2.294   4.330
    1TCM    cl2  205   1.691   2.539   4.176
    1TCM     h1  206   1.569   2.506   4.378
    1TCM    cl3  207   1.797   2.528   4.446
    1TCM     c1  208   1.824   2.292   1.026
    1TCM    cl1  209   1.745   2.423   0.935
    1TCM    cl2  210   1.737   2.139   0.997
    1TCM     h1  211   1.929   2.281   0.992
    1TCM    cl3  212   1.822   2.330   1.199
    1TCM     c1  213   2.638   0.617   3.814
    1TCM    cl1  214   2.685   0.788   3.832
    1TCM    cl2  215   2.617   0.545   3.975
    1TCM     h1  216   2.543   0.610   3.758
    1TCM    cl3  217   2.766   0.529   3.727
    1TCM     c1  218   2.214   1.797   2.727
    1TCM    cl1  219   2.344   1.726   2.628
    1TCM    cl2  220   2.248   1.767   2.899
    1TCM     h1  221   2.209   1.906   2.709
    1TCM    cl3  222   2.059   1.722   2.683
    1TCM     c1  223   5.055   1.278   0.579
    1TCM    cl1  224   4.933   1.357   0.476
    1TCM    cl2  225   5.039   1.102   0.565
    1TCM     h1  226   5.156   1.309   0.546
    1TCM    cl3  227   5.030   1.327   0.748
    1TCM     c1  228   2.963   0.836   2.611
    1TCM    cl1  229   2.881   0.729   2.495
    1TCM    cl2  230   2.896   1.001   2.595
    1TCM     h1  231   2.946   0.799   2.714
    1TCM    cl3  232   3.137   0.839   2.576
    1TCM     c1  233   3.795   4.056   4.753
    1TCM    cl1  234   3.832   3.882   4.752
    1TCM    cl2  235   3.877   4.134   4.615
    1TCM     h1  236   3.685   4.070   4.743
    1TCM    cl3  237   3.852   4.128   4.905
    1TCM     c1  238   0.779   4.134   3.484
    1TCM    cl1  239   0.759   4.197   3.649
    1TCM    cl2  240   0.953   4.127   3.445
    1TCM     h1  241   0.736   4.032   3.477
    1TCM    cl3  242   0.697   4.241   3.368
    1TCM     c1  243   3.946   1.320   2.602
    1TCM    cl1  244   3.805   1.255   2.688
    1TCM    cl2  245   4.030   1.188   2.518
    1TCM     h1  246   3.913   1.395   2.528
    1TCM    cl3  247   4.057   1.395   2.719
    1TCM     c1  248   4.950   3.087   4.450
    1TCM    cl1  249   4.885   3.252   4.467
    1TCM    cl2  250   4.816   2.971   4.440
    1TCM     h1  251   5.011   3.081   4.358
    1TCM    cl3  252   5.051   3.049   4.591
    1TCM     c1  253   0.602   2.808   1.446
    1TCM    cl1  254   0.489   2.945   1.462
    1TCM    cl2  255   0.517   2.669   1.374
    1TCM     h1  256   0.687   2.837   1.381
    1TCM    cl3  257   0.663   2.762   1.607
    1TCM     c1  258   1.536   1.993   2.356
    1TCM    cl1  259   1.620   1.876   2.460
    1TCM    cl2  260   1.552   1.944   2.186
    1TCM     h1  261   1.428   1.996   2.384
    1TCM    cl3  262   1.607   2.154   2.379
    1TCM     c1  263   4.300   4.401   0.738
    1TCM    cl1  264   4.349   4.288   0.866
    1TCM    cl2  265   4.418   4.534   0.729
    1TCM     h1  266   4.298   4.347   0.640
    1TCM    cl3  267   4.139   4.466   0.774
    1TCM     c1  268   2.640   5.249   3.814
    1TCM    cl1  269   2.762   5.137   3.748
    1TCM    cl2  270   2.553   5.169   3.947
    1TCM     h1  271   2.691   5.340   3.852
    1TCM    cl3  272   2.525   5.294   3.686
    1TCM     c1  273   2.934   1.948   3.119
    1TCM    cl1  274   2.884   2.002   2.957
    1TCM    cl2  275   3.069   1.833   3.104
    1TCM     h1  276   2.967   2.036   3.179
    1TCM    cl3  277   2.798   1.869   3.200
    1TCM     c1  278   0.703   3.094   5.001
    1TCM    cl1  279   0.646   3.205   4.875
    1TCM    cl2  280   0.564   3.013   5.076
    1TCM     h1  281   0.770   3.018   4.955
    1TCM    cl3  282   0.793   3.185   5.125
    1TCM     c1  283   4.590   3.523   2.172
    1TCM    cl1  284   4.463   3.589   2.066
    1TCM    cl2  285   4.619   3.635   2.307
    1TCM     h1  286   4.557   3.425   2.212
    1TCM    cl3  287   4.740   3.503   2.079
    1TCM     c1  288   5.233   3.668   4.911
    1TCM    cl1  289   5.268   3.811   5.010
    1TCM    cl2  290   5.284   3.697   4.743
    1TCM     h1  291   5.287   3.580   4.951
    1TCM    cl3  292   5.058   3.635   4.914
    1TCM     c1  293   2.128   1.091   3.470
    1TCM    cl1  294   2.189   0.961   3.364
    1TCM    cl2  295   1.967   1.142   3.414
    1TCM     h1  296   2.122   1.053   3.574
    1TCM    cl3  297   2.240   1.229   3.464
    1TCM     c1  298   1.344   2.117   2.814
    1TCM    cl1  299   1.451   2.253   2.774
    1TCM    cl2  300   1.422   1.964   2.767
    1TCM     h1  301   1.323   2.116   2.923
    1TCM    cl3  302   1.191   2.134   2.725
    1TCM     c1  303   3.064   4.710   4.855
    1TCM    cl1  304   2.972   4.757   4.710
    1TCM    cl2  305   2.989   4.782   4.999
    1TCM     h1  306   3.063   4.599   4.864
    1TCM    cl3  307   3.232   4.767   4.840
    1TCM     c1  308   2.707   2.463   2.026
    1TCM    cl1  309   2.809   2.370   2.138
    1TCM    cl2  310   2.803   2.514   1.886
    1TCM     h1  311   2.622   2.400   1.992
    1TCM    cl3  312   2.644   2.607   2.110
    1TCM     c1  313   2.760   2.023   5.078
    1TCM    cl1  314   2.629   1.906   5.046
    1TCM    cl2  315   2.700   2.151   5.186
    1TCM     h1  316   2.845   1.970   5.127
    1TCM    cl3  317   2.814   2.095   4.925
    1TCM     c1  318   4.907   0.290   1.289
    1TCM    cl1  319   4.987   0.144   1.353
    1TCM    cl2  320   4.731   0.269   1.297
    1TCM     h1  321   4.937   0.377   1.350
    1TCM    cl3  322   4.957   0.315   1.121
    1TCM     c1  323   3.088   0.863   1.281
    1TCM    cl1  324   3.185   0.715   1.265
    1TCM    cl2  325   3.090   0.917   1.450
    1TCM     h1  326   3.131   0.942   1.216
    1TCM    cl3  327   2.921   0.830   1.231
    1TCM     c1  328   3.923   3.244   1.903
    1TCM    cl1  329   3.945   3.134   1.765
    1TCM    cl2  330   4.034   3.197   2.034
    1TCM     h1  331   3.944   3.348   1.872
    1TCM    cl3  332   3.755   3.232   1.961
    1TCM     c1  333   1.171   0.867   3.622
    1TCM    cl1  334   1.178   0.997   3.743
    1TCM    cl2  335   1.274   0.908   3.483
    1TCM     h1  336   1.206   0.772   3.667
    1TCM    cl3  337   1.003   0.847   3.566
    1TCM     c1  338   0.704   5.187   4.149
    1TCM    cl1  339   0.765   5.059   4.257
    1TCM    cl2  340   0.679   5.120   3.987
    1TCM     h1  341   0.608   5.226   4.189
    1TCM    cl3  342   0.822   5.319   4.141
    1TCM     c1  343   2.786   3.674   3.480
    1TCM    cl1  344   2.914   3.576   3.555
    1TCM    cl2  345   2.754   3.614   3.316
    1TCM     h1  346   2.693   3.667   3.541
    1TCM    cl3  347   2.839   3.844   3.473
    1TCM     c1  348   0.476   0.922   2.494
    1TCM    cl1  349   0.546   1.026   2.620
    1TCM    cl2  350   0.444   1.019   2.348
    1TCM     h1  351   0.547   0.841   2.469
    1TCM    cl3  352   0.324   0.852   2.552
    1TCM     c1  353   4.978   1.998   2.157
    1TCM    cl1  354   5.069   1.857   2.214
    1TCM    cl2  355   4.916   1.967   1.993
    1TCM     h1  356   4.893   2.017   2.226
    1TCM    cl3  357   5.085   2.141   2.154
    1TCM     c1  358   1.278   3.553   2.285
    1TCM    cl1  359   1.291   3.388   2.351
    1TCM    cl2  360   1.206   3.660   2.407
    1TCM     h1  361   1.378   3.590   2.258
    1TCM    cl3  362   1.174   3.550   2.140
    1TCM     c1  363   3.945   1.405   2.046
    1TCM    cl1  364   3.868   1.544   2.125
    1TCM    cl2  365   3.861   1.369   1.894
    1TCM     h1  366   4.052   1.429   2.025
    1TCM    cl3  367   3.937   1.263   2.153
    1TCM     c1  368   0.799   2.359   2.231
    1TCM    cl1  369   0.901   2.470   2.326
    1TCM    cl2  370   0.839   2.375   2.059
    1TCM     h1  371   0.818   2.255   2.264
    1TCM    cl3  372   0.628   2.400   2.257
    1TCM     c1  373   2.202   3.770   1.761
    1TCM    cl1  374   2.102   3.885   1.668
    1TCM    cl2  375   2.132   3.747   1.923
    1TCM     h1  376   2.205   3.673   1.708
    1TCM    cl3  377   2.367   3.835   1.776
    1TCM     c1  378   1.051   4.529   1.184
    1TCM    cl1  379   0.893   4.605   1.215
    1TCM    cl2  380   1.180   4.648   1.210
    1TCM     h1  381   1.065   4.444   1.255
    1TCM    cl3  382   1.058   4.470   1.017
    1TCM     c1  383   0.388   1.248   4.975
    1TCM    cl1  384   0.373   1.425   4.991
    1TCM    cl2  385   0.386   1.174   5.137
    1TCM     h1  386   0.304   1.209   4.915
    1TCM    cl3  387   0.542   1.209   4.894
    1TCM     c1  388   1.331   3.877   4.781
    1TCM    cl1  389   1.418   3.833   4.930
    1TCM    cl2  390   1.393   3.780   4.645
    1TCM     h1  391   1.223   3.857   4.794
    1TCM    cl3  392   1.356   4.049   4.747
    1TCM     c1  393   0.492   0.832   4.926
    1TCM    cl1  394   0.356   0.794   5.034
    1TCM    cl2  395   0.478   0.999   4.868
    1TCM     h1  396   0.587   0.820   4.981
    1TCM    cl3  397   0.489   0.721   4.787
    1TCM     c1  398   1.075   4.282   2.238
    1TCM    cl1  399   1.180   4.151   2.180
    1TCM    cl2  400   1.130   4.336   2.398
    1TCM     h1  401   1.080   4.368   2.167
    1TCM    cl3  402   0.907   4.225   2.249
    1TCM     c1  403   3.693   4.094   0.203
    1TCM    cl1  404   3.789   4.198   0.310
    1TCM    cl2  405   3.762   4.097   0.039
    1TCM     h1  406   3.694   3.990   0.241
    1TCM    cl3  407   3.525   4.154   0.197
    1TCM     c1  408   1.590   1.459   1.441
    1TCM    cl1  409   1.515   1.335   1.337
    1TCM    cl2  410   1.708   1.382   1.549
    1TCM     h1  411   1.641   1.534   1.377
    1TCM    cl3  412   1.464   1.539   1.537
    1TCM     c1  413   3.470   0.654   2.330
    1TCM    cl1  414   3.352   0.602   2.453
    1TCM    cl2  415   3.546   0.806   2.381
    1TCM     h1  416   3.548   0.576   2.318
    1TCM    cl3  417   3.386   0.678   2.175
    1TCM     c1  418   0.150   0.628   2.007
    1TCM    cl1  419   0.233   0.528   2.128
    1TCM    cl2  420   0.268   0.733   1.926
    1TCM     h1  421   0.102   0.562   1.931
    1TCM    cl3  422   0.025   0.727   2.086
    1TCM     c1  423   3.899   2.611   1.145
    1TCM    cl1  424   3.755   2.618   1.042
    1TCM    cl2  425   4.033   2.698   1.067
    1TCM     h1  426   3.877   2.658   1.243
    1TCM    cl3  427   3.946   2.441   1.171
    1TCM     c1  428   4.956   1.740   3.401
    1TCM    cl1  429   4.830   1.768   3.279
    1TCM    cl2  430   4.884   1.661   3.543
    1TCM     h1  431   5.035   1.675   3.359
    1TCM    cl3  432   5.026   1.896   3.450
    1TCM     c1  433   2.004   3.574   2.412
    1TCM    cl1  434   2.096   3.489   2.287
    1TCM    cl2  435   1.928   3.719   2.342
    1TCM     h1  436   1.925   3.507   2.453
    1TCM    cl3  437   2.113   3.623   2.544
    1TCM     c1  438   0.615   0.250   4.875
    1TCM    cl1  439   0.504   0.280   5.010
    1TCM    cl2  440   0.591   0.084   4.815
    1TCM     h1  441   0.595   0.322   4.793
    1TCM    cl3  442   0.783   0.269   4.931
    1TCM     c1  443   4.601   0.658   4.529
    1TCM    cl1  444   4.718   0.756   4.438
    1TCM    cl2  445   4.604   0.704   4.700
    1TCM     h1  446   4.499   0.675   4.488
    1TCM    cl3  447   4.642   0.486   4.513
    1TCM     c1  448   3.907   4.656   1.615
    1TCM    cl1  449   3.829   4.807   1.665
    1TCM    cl2  450   3.960   4.670   1.446
    1TCM     h1  451   3.994   4.636   1.680
    1TCM    cl3  452   3.790   4.522   1.629
    1TCM     c1  453   4.497   4.554   4.894
    1TCM    cl1  454   4.332   4.512   4.947
    1TCM    cl2  455   4.610   4.427   4.945
    1TCM     h1  456   4.499   4.563   4.783
    1TCM    cl3  457   4.544   4.709   4.966
    1TCM     c1  458   3.984   4.329   1.784
    1TCM    cl1  459   3.867   4.248   1.677
    1TCM    cl2  460   4.099   4.209   1.847
    1TCM     h1  461   4.038   4.407   1.728
    1TCM    cl3  462   3.896   4.404   1.920
    1TCM     c1  463   3.898   4.095   3.381
    1TCM    cl1  464   3.783   3.968   3.333
    1TCM    cl2  465   3.946   4.071   3.550
    1TCM     h1  466   3.988   4.090   3.316
    1TCM    cl3  467   3.821   4.254   3.363
    1TCM     c1  468   0.381   0.895   3.413
    1TCM    cl1  469   0.289   1.045   3.390
    1TCM    cl2  470   0.423   0.878   3.585
    1TCM     h1  471   0.320   0.809   3.381
    1TCM    cl3  472   0.530   0.902   3.317
    1TCM     c1  473   3.059   2.647   2.861
    1TCM    cl1  474   3.101   2.661   3.033
    1TCM    cl2  475   2.992   2.802   2.803
    1TCM     h1  476   3.150   2.623   2.802
    1TCM    cl3  477   2.938   2.519   2.839
    1TCM     c1  478   3.725   2.413   2.465
    1TCM    cl1  479   3.592   2.405   2.346
    1TCM    cl2  480   3.665   2.357   2.623
    1TCM     h1  481   3.808   2.347   2.431
    1TCM    cl3  482   3.783   2.580   2.479
    1TCM     c1  483   5.013   0.662   2.446
    1TCM    cl1  484   5.119   0.618   2.582
    1TCM    cl2  485   5.105   0.652   2.294
    1TCM     h1  486   4.927   0.593   2.442
    1TCM    cl3  487   4.955   0.829   2.468
    1TCM     c1  488   0.376   0.097   3.048
    1TCM    cl1  489   0.547   0.048   3.046
    1TCM    cl2  490   0.285   0.000   2.929
    1TCM     h1  491   0.333   0.079   3.149
    1TCM    cl3  492   0.362   0.269   3.007
    1TCM     c1  493   5.232   3.715   1.396
    1TCM    cl1  494   5.064   3.657   1.385
    1TCM    cl2  495   5.267   3.763   1.564
    1TCM     h1  496   5.301   3.634   1.365
    1TCM    cl3  497   5.253   3.855   1.289
    1TCM     c1  498   1.568   3.290   0.973
    1TCM    cl1  499   1.529   3.463   0.989
    1TCM    cl2  500   1.688   3.268   0.843
    1TCM     h1  501   1.610   3.252   1.068
    1TCM    cl3  502   1.420   3.199   0.933
    1TCM     c1  503   2.693   4.455   4.219
    1TCM    cl1  504   2.529   4.523   4.208
    1TCM    cl2  505   2.798   4.533   4.098
    1TCM     h1  506   2.734   4.473   4.320
    1TCM    cl3  507   2.687   4.280   4.188
    1TCM     c1  508   4.689   1.707   0.357
    1TCM    cl1  509   4.567   1.580   0.369
    1TCM    cl2  510   4.628   1.856   0.433
    1TCM     h1  511   4.782   1.675   0.409
    1TCM    cl3  512   4.725   1.739   0.186
    1TCM     c1  513   2.920   4.705   4.437
    1TCM    cl1  514   2.993   4.574   4.341
    1TCM    cl2  515   2.788   4.780   4.343
    1TCM     h1  516   2.879   4.664   4.531
    1TCM    cl3  517   3.043   4.827   4.474
    1TCM     c1  518   3.853   4.163   2.059
    1TCM    cl1  519   3.741   4.226   1.936
    1TCM    cl2  520   3.763   4.125   2.207
    1TCM     h1  521   3.902   4.071   2.021
    1TCM    cl3  522   3.977   4.286   2.095
    1TCM     c1  523   0.999   0.233   3.423
    1TCM    cl1  524   0.880   0.302   3.535
    1TCM    cl2  525   0.975   0.301   3.261
    1TCM     h1  526   1.102   0.257   3.459
    1TCM    cl3  527   0.979   0.056   3.417
    1TCM     c1  528   0.977   1.346   2.602
    1TCM    cl1  529   0.900   1.455   2.484
    1TCM    cl2  530   0.879   1.342   2.751
    1TCM     h1  531   0.984   1.244   2.559
    1TCM    cl3  532   1.140   1.406   2.640
    1TCM     c1  533   1.158   0.797   2.325
    1TCM    cl1  534   1.137   0.764   2.151
    1TCM    cl2  535   1.136   0.971   2.354
    1TCM     h1  536   1.082   0.740   2.382
    1TCM    cl3  537   1.321   0.749   2.375
    1TCM     c1  538   2.892   1.142   3.963
    1TCM    cl1  539   2.734   1.150   4.045
    1TCM    cl2  540   2.888   1.244   3.817
    1TCM     h1  541   2.971   1.178   4.031
    1TCM    cl3  542   2.925   0.974   3.916
    1TCM     c1  543   4.621   5.111   1.289
    1TCM    cl1  544   4.750   5.226   1.246
    1TCM    cl2  545   4.615   5.092   1.465
    1TCM     h1  546   4.523   5.149   1.252
    1TCM    cl3  547   4.655   4.953   1.214
    1TCM     c1  548   0.551   4.415   0.355
    1TCM    cl1  549   0.407   4.505   0.408
    1TCM    cl2  550   0.552   4.405   0.178
    1TCM     h1  551   0.642   4.468   0.390
    1TCM    cl3  552   0.547   4.251   0.424
    1TCM     c1  553   2.407   3.413   2.244
    1TCM    cl1  554   2.518   3.537   2.182
    1TCM    cl2  555   2.428   3.398   2.420
    1TCM     h1  556   2.303   3.442   2.222
    1TCM    cl3  557   2.443   3.257   2.167
    1TCM     c1  558   0.360   3.142   1.141
    1TCM    cl1  559   0.523   3.208   1.111
    1TCM    cl2  560   0.290   3.221   1.284
    1TCM     h1  561   0.295   3.162   1.053
    1TCM    cl3  562   0.370   2.967   1.169
    1TCM     c1  563   3.381   3.617   1.069
    1TCM    cl1  564   3.291   3.537   1.199
    1TCM    cl2  565   3.327   3.786   1.055
    1TCM     h1  566   3.490   3.615   1.092
    1TCM    cl3  567   3.352   3.532   0.915
    1TCM     c1  568   3.193   3.031   4.923
    1TCM    cl1  569   3.344   2.976   4.847
    1TCM    cl2  570   3.226   3.085   5.089
    1TCM     h1  571   3.151   3.116   4.864
    1TCM    cl3  572   3.076   2.898   4.926
    1TCM     c1  573   1.120   1.250   1.916
    1TCM    cl1  574   1.280   1.174   1.908
    1TCM    cl2  575   1.078   1.282   2.086
    1TCM     h1  576   1.121   1.346   1.860
    1TCM    cl3  577   0.999   1.142   1.844
    1TCM     c1  578   1.992   2.665   4.756
    1TCM    cl1  579   1.936   2.616   4.594
    1TCM    cl2  580   2.125   2.559   4.808
    1TCM     h1  581   2.027   2.770   4.753
    1TCM    cl3  582   1.857   2.652   4.871
    1TCM     c1  583   2.228   4.099   4.236
    1TCM    cl1  584   2.204   4.063   4.063
    1TCM    cl2  585   2.365   4.005   4.297
    1TCM     h1  586   2.248   4.207   4.248
    1TCM    cl3  587   2.081   4.056   4.327
    1TCM     c1  588   0.782   0.352   0.169
    1TCM    cl1  589   0.907   0.453   0.094
    1TCM    cl2  590   0.807   0.347   0.345
    1TCM     h1  591   0.682   0.395   0.147
    1TCM    cl3  592   0.791   0.187   0.103
    1TCM     c1  593   1.093   0.617   2.960
    1TCM    cl1  594   1.238   0.719   2.949
    1TCM    cl2  595   0.974   0.695   3.066
    1TCM     h1  596   1.049   0.604   2.859
    1TCM    cl3  597   1.137   0.458   3.028
    1TCM     c1  598   4.508   3.228   3.254
    1TCM    cl1  599   4.497   3.162   3.089
    1TCM    cl2  600   4.649   3.337   3.265
    1TCM     h1  601   4.416   3.284   3.277
    1TCM    cl3  602   4.528   3.094   3.369
    1TCM     c1  603   3.255   4.773   5.204
    1TCM    cl1  604   3.111   4.876   5.191
    1TCM    cl2  605   3.321   4.743   5.041
    1TCM     h1  606   3.332   4.823   5.266
    1TCM    cl3  607   3.210   4.618   5.279
    1TCM     c1  608   1.980   0.111   3.634
    1TCM    cl1  609   1.946   0.002   3.497
    1TCM    cl2  610   1.865   0.247   3.632
    1TCM     h1  611   1.970   0.055   3.729
    1TCM    cl3  612   2.146   0.174   3.619
    1TCM     c1  613   0.990   0.819   4.129
    1TCM    cl1  614   1.047   0.834   4.297
    1TCM    cl2  615   0.845   0.919   4.107
    1TCM     h1  616   1.070   0.853   4.060
    1TCM    cl3  617   0.951   0.649   4.096
    1TCM     c1  618   2.070   5.133   2.422
    1TCM    cl1  619   1.951   5.210   2.529
    1TCM    cl2  620   2.043   5.187   2.255
    1TCM     h1  621   2.172   5.161   2.454
    1TCM    cl3  622   2.051   4.956   2.431
    1TCM     c1  623   1.260   1.264   2.409
    1TCM    cl1  624   1.345   1.148   2.305
    1TCM    cl2  625   1.121   1.332   2.321
    1TCM     h1  626   1.224   1.213   2.500
    1TCM    cl3  627   1.371   1.395   2.455
    1TCM     c1  628   1.618   1.631   0.212
    1TCM    cl1  629   1.583   1.800   0.168
    1TCM    cl2  630   1.792   1.615   0.248
    1TCM     h1  631   1.560   1.603   0.302
    1TCM    cl3  632   1.575   1.524   0.077
    1TCM     c1  633   4.231   3.107   2.480
    1TCM    cl1  634   4.400   3.163   2.472
    1TCM    cl2  635   4.155   3.171   2.627
    1TCM     h1  636   4.176   3.144   2.391
    1TCM    cl3  637   4.227   2.930   2.483
    1TCM     c1  638   2.972   4.868   1.401
    1TCM    cl1  639   2.932   5.022   1.321
    1TCM    cl2  640   2.836   4.755   1.383
    1TCM     h1  641   3.063   4.825   1.355
    1TCM    cl3  642   3.001   4.898   1.574
    1TCM     c1  643   0.148   1.178   0.469
    1TCM    cl1  644   0.264   1.257   0.579
    1TCM    cl2  645   0.007   1.122   0.562
    1TCM     h1  646   0.115   1.251   0.393
    1TCM    cl3  647   0.226   1.040   0.390
    1TCM     c1  648   4.323   2.461   3.351
    1TCM    cl1  649   4.369   2.323   3.454
    1TCM    cl2  650   4.298   2.403   3.184
    1TCM     h1  651   4.229   2.506   3.389
    1TCM    cl3  652   4.452   2.582   3.352
    1TCM     c1  653   4.323   0.742   3.694
    1TCM    cl1  654   4.210   0.682   3.570
    1TCM    cl2  655   4.300   0.649   3.844
    1TCM     h1  656   4.427   0.729   3.659
    1TCM    cl3  657   4.291   0.914   3.726
    1TCM     c1  658   4.252   0.996   3.329
    1TCM    cl1  659   4.135   0.880   3.262
    1TCM    cl2  660   4.329   1.086   3.197
    1TCM     h1  661   4.200   1.066   3.397
    1TCM    cl3  662   4.377   0.908   3.420
    1TCM     c1  663   1.986   0.318   3.319
    1TCM    cl1  664   2.042   0.404   3.464
    1TCM    cl2  665   1.825   0.249   3.350
    1TCM     h1  666   1.980   0.389   3.234
    1TCM    cl3  667   2.099   0.187   3.280
    1TCM     c1  668   0.528   4.470   3.685
    1TCM    cl1  669   0.596   4.328   3.767
    1TCM    cl2  670   0.498   4.431   3.514
    1TCM     h1  671   0.433   4.499   3.734
    1TCM    cl3  672   0.643   4.606   3.696
    1TCM     c1  673   0.324   1.936   4.789
    1TCM    cl1  674   0.469   2.019   4.849
    1TCM    cl2  675   0.336   1.914   4.613
    1TCM     h1  676   0.315   1.837   4.838
    1TCM    cl3  677   0.180   2.034   4.826
    1TCM     c1  678   1.114   5.061   5.189
    1TCM    cl1  679   0.985   4.938   5.183
    1TCM    cl2  680   1.226   5.023   5.322
    1TCM     h1  681   1.169   5.062   5.093
    1TCM    cl3  682   1.041   5.221   5.216
    1TCM     c1  683   0.848   2.189   1.170
    1TCM    cl1  684   0.982   2.293   1.118
    1TCM    cl2  685   0.849   2.174   1.347
    1TCM     h1  686   0.752   2.233   1.137
    1TCM    cl3  687   0.867   2.027   1.098
    1TCM     c1  688   4.818   1.717   2.326
    1TCM    cl1  689   4.679   1.711   2.436
    1TCM    cl2  690   4.761   1.730   2.158
    1TCM     h1  691   4.880   1.806   2.351
    1TCM    cl3  692   4.916   1.570   2.345
    1TCM     c1  693   2.946   1.330   2.612
    1TCM    cl1  694   2.819   1.328   2.736
    1TCM    cl2  695   2.946   1.488   2.529
    1TCM     h1  696   3.045   1.314   2.660
    1TCM    cl3  697   2.916   1.201   2.493
    1TCM     c1  698   3.168   0.544   2.664
    1TCM    cl1  699   3.121   0.672   2.779
    1TCM    cl2  700   3.132   0.597   2.499
    1TCM     h1  701   3.276   0.524   2.674
    1TCM    cl3  702   3.076   0.396   2.700
    1TCM     c1  703   2.413   4.642   1.112
    1TCM    cl1  704   2.318   4.789   1.142
    1TCM    cl2  705   2.420   4.611   0.937
    1TCM     h1  706   2.515   4.655   1.151
    1TCM    cl3  707   2.335   4.504   1.193
    1TCM     c1  708   0.562   3.430   4.074
    1TCM    cl1  709   0.543   3.561   4.194
    1TCM    cl2  710   0.527   3.274   4.152
    1TCM     h1  711   0.491   3.447   3.990
    1TCM    cl3  712   0.729   3.430   4.013
    1TCM     c1  713   2.550   0.075   1.684
    1TCM    cl1  714   2.409   0.040   1.582
    1TCM    cl2  715   2.517   0.023   1.851
    1TCM     h1  716   2.639   0.021   1.645
    1TCM    cl3  717   2.582   0.250   1.682
    1TCM     c1  718   2.609   4.932   3.679
    1TCM    cl1  719   2.467   5.011   3.751
    1TCM    cl2  720   2.662   5.023   3.536
    1TCM     h1  721   2.691   4.929   3.754
    1TCM    cl3  722   2.566   4.766   3.632
    1TCM     c1  723   3.606   3.556   4.920
    1TCM    cl1  724   3.539   3.595   5.080
    1TCM    cl2  725   3.599   3.700   4.816
    1TCM     h1  726   3.712   3.524   4.931
    1TCM    cl3  727   3.512   3.425   4.846
    1TCM     c1  728   1.737   0.243   4.809
    1TCM    cl1  729   1.743   0.093   4.904
    1TCM    cl2  730   1.828   0.370   4.894
    1TCM     h1  731   1.783   0.225   4.709
    1TCM    cl3  732   1.568   0.294   4.788
    1TCM     c1  733   3.429   3.744   1.932
    1TCM    cl1  734   3.421   3.612   2.050
    1TCM    cl2  735   3.410   3.679   1.768
    1TCM     h1  736   3.348   3.817   1.953
    1TCM    cl3  737   3.586   3.826   1.946
    1TCM     c1  738   0.201   2.723   2.171
    1TCM    cl1  739   0.229   2.675   2.002
    1TCM    cl2  740   0.232   2.583   2.278
    1TCM     h1  741   0.269   2.806   2.198
    1TCM    cl3  742   0.033   2.776   2.191
    1TCM     c1  743   1.876   0.931   3.609
    1TCM    cl1  744   1.698   0.920   3.610
    1TCM    cl2  745   1.936   0.895   3.446
    1TCM     h1  746   1.906   1.034   3.638
    1TCM    cl3  747   1.944   0.815   3.725
    1TCM     c1  748   1.465   4.542   3.688
    1TCM    cl1  749   1.459   4.676   3.805
    1TCM    cl2  750   1.560   4.592   3.546
    1TCM     h1  751   1.513   4.454   3.736
    1TCM    cl3  752   1.300   4.500   3.638
    1TCM     c1  753   1.272   3.221   3.588
    1TCM    cl1  754   1.342   3.347   3.483
    1TCM    cl2  755   1.249   3.287   3.752
    1TCM     h1  756   1.175   3.189   3.547
    1TCM    cl3  757   1.383   3.082   3.595
    1TCM     c1  758   4.871   2.323   2.499
    1TCM    cl1  759   4.748   2.255   2.608
    1TCM    cl2  760   4.915   2.487   2.555
    1TCM     h1  761   4.961   2.259   2.500
    1TCM    cl3  762   4.807   2.333   2.334
    1TCM     c1  763   2.408   1.404   1.896
    1TCM    cl1  764   2.550   1.441   1.995
    1TCM    cl2  765   2.459   1.368   1.729
    1TCM     h1  766   2.355   1.316   1.938
    1TCM    cl3  767   2.298   1.544   1.895
    1TCM     c1  768   1.198   0.148   3.730
    1TCM    cl1  769   1.306   0.287   3.758
    1TCM    cl2  770   1.195   0.045   3.875
    1TCM     h1  771   1.096   0.185   3.708
    1TCM    cl3  772   1.258   0.054   3.592
    1TCM     c1  773   4.327   3.761   2.754
    1TCM    cl1  774   4.499   3.801   2.777
    1TCM    cl2  775   4.227   3.882   2.836
    1TCM     h1  776   4.304   3.761   2.645
    1TCM    cl3  777   4.294   3.600   2.822
    1TCM     c1  778   4.451   1.288   4.036
    1TCM    cl1  779   4.360   1.267   4.188
    1TCM    cl2  780   4.425   1.146   3.931
    1TCM     h1  781   4.415   1.379   3.984
    1TCM    cl3  782   4.624   1.304   4.072
    1TCM     c1  783   3.765   1.997   2.626
    1TCM    cl1  784   3.721   1.877   2.503
    1TCM    cl2  785   3.908   2.087   2.572
    1TCM     h1  786   3.681   2.067   2.641
    1TCM    cl3  787   3.801   1.914   2.779
    1TCM     c1  788   5.003   4.063   3.276
    1TCM    cl1  789   4.989   3.894   3.223
    1TCM    cl2  790   4.909   4.087   3.425
    1TCM     h1  791   5.110   4.087   3.296
    1TCM    cl3  792   4.941   4.170   3.149
    1TCM     c1  793   0.495   1.803   0.678
    1TCM    cl1  794   0.414   1.926   0.778
    1TCM    cl2  795   0.514   1.865   0.512
    1TCM     h1  796   0.595   1.781   0.720
    1TCM    cl3  797   0.398   1.655   0.675
    1TCM     c1  798   3.663   1.783   3.631
    1TCM    cl1  799   3.566   1.872   3.512
    1TCM    cl2  800   3.560   1.736   3.768
    1TCM     h1  801   3.705   1.692   3.584
    1TCM    cl3  802   3.795   1.887   3.689
    1TCM     c1  803   1.413   2.414   3.004
    1TCM    cl1  804   1.464   2.567   3.081
    1TCM    cl2  805   1.548   2.299   3.007
    1TCM     h1  806   1.327   2.372   3.060
    1TCM    cl3  807   1.365   2.446   2.836
    1TCM     c1  808   0.842   4.655   5.026
    1TCM    cl1  809   0.714   4.608   5.140
    1TCM    cl2  810   0.773   4.759   4.899
    1TCM     h1  811   0.922   4.711   5.080
    1TCM    cl3  812   0.912   4.510   4.952
    1TCM     c1  813   4.761   4.763   0.239
    1TCM    cl1  814   4.828   4.654   0.116
    1TCM    cl2  815   4.741   4.675   0.392
    1TCM     h1  816   4.831   4.848   0.254
    1TCM    cl3  817   4.603   4.824   0.185
    1TCM     c1  818   0.845   1.620   0.613
    1TCM    cl1  819   0.945   1.761   0.657
    1TCM    cl2  820   0.951   1.488   0.557
    1TCM     h1  821   0.788   1.586   0.701
    1TCM    cl3  822   0.733   1.665   0.483
    1TCM     c1  823   2.440   0.341   3.549
    1TCM    cl1  824   2.580   0.319   3.656
    1TCM    cl2  825   2.479   0.283   3.386
    1TCM     h1  826   2.354   0.283   3.589
    1TCM    cl3  827   2.397   0.513   3.542
    1TCM     c1  828   0.808   1.383   3.390
    1TCM    cl1  829   0.982   1.415   3.372
    1TCM    cl2  830   0.739   1.339   3.231
    1TCM     h1  831   0.792   1.300   3.461
    1TCM    cl3  832   0.727   1.529   3.451
    1TCM     c1  833   0.326   4.412   4.970
    1TCM    cl1  834   0.304   4.250   4.899
    1TCM    cl2  835   0.342   4.397   5.146
    1TCM     h1  836   0.418   4.458   4.928
    1TCM    cl3  837   0.186   4.514   4.931
    1TCM     c1  838   4.301   1.431   2.211
    1TCM    cl1  839   4.466   1.487   2.244
    1TCM    cl2  840   4.190   1.497   2.334
    1TCM     h1  841   4.269   1.466   2.110
    1TCM    cl3  842   4.296   1.253   2.216
    1TCM     c1  843   1.497   0.669   1.825
    1TCM    cl1  844   1.462   0.542   1.944
    1TCM    cl2  845   1.431   0.622   1.666
    1TCM     h1  846   1.450   0.765   1.857
    1TCM    cl3  847   1.673   0.692   1.811
    1TCM     c1  848   0.131   5.053   3.593
    1TCM    cl1  849   0.129   5.205   3.501
    1TCM    cl2  850   0.092   5.086   3.763
    1TCM     h1  851   0.056   4.983   3.551
    1TCM    cl3  852   0.293   4.980   3.583
    1TCM     c1  853   2.102   1.843   3.533
    1TCM    cl1  854   2.258   1.919   3.497
    1TCM    cl2  855   2.076   1.843   3.709
    1TCM     h1  856   2.020   1.901   3.484
    1TCM    cl3  857   2.101   1.676   3.473
    1TCM     c1  858   2.688   3.559   3.819
    1TCM    cl1  859   2.658   3.482   3.661
    1TCM    cl2  860   2.553   3.524   3.929
    1TCM     h1  861   2.782   3.520   3.862
    1TCM    cl3  862   2.703   3.735   3.796
    1TCM     c1  863   1.003   1.414   3.703
    1TCM    cl1  864   1.028   1.278   3.591
    1TCM    cl2  865   0.965   1.352   3.865
    1TCM     h1  866   1.096   1.475   3.707
    1TCM    cl3  867   0.868   1.515   3.645
    1TCM     c1  868   0.802   4.413   1.960
    1TCM    cl1  869   0.928   4.425   1.835
    1TCM    cl2  870   0.736   4.248   1.962
    1TCM     h1  871   0.847   4.436   2.059
    1TCM    cl3  872   0.672   4.529   1.925
    1TCM     c1  873   3.699   4.147   2.633
    1TCM    cl1  874   3.794   4.201   2.492
    1TCM    cl2  875   3.720   3.972   2.655
    1TCM     h1  876   3.735   4.200   2.724
    1TCM    cl3  877   3.527   4.184   2.607
    1TCM     c1  878   0.697   2.569   3.597
    1TCM    cl1  879   0.748   2.400   3.620
    1TCM    cl2  880   0.823   2.678   3.659
    1TCM     h1  881   0.681   2.588   3.489
    1TCM    cl3  882   0.545   2.597   3.685
    1TCM     c1  883   1.821   3.906   1.792
    1TCM    cl1  884   1.795   4.050   1.894
    1TCM    cl2  885   1.852   3.957   1.625
    1TCM     h1  886   1.908   3.849   1.830
    1TCM    cl3  887   1.676   3.803   1.798
    1TCM     c1  888   1.713   1.634   2.656
    1TCM    cl1  889   1.664   1.526   2.524
    1TCM    cl2  890   1.824   1.548   2.764
    1TCM     h1  891   1.765   1.723   2.614
    1TCM    cl3  892   1.570   1.686   2.747
    1TCM     c1  893   0.176   4.527   4.574
    1TCM    cl1  894   0.324   4.605   4.514
    1TCM    cl2  895   0.070   4.650   4.646
    1TCM     h1  896   0.124   4.478   4.489
    1TCM    cl3  897   0.218   4.406   4.696
    1TCM     c1  898   1.106   1.712   0.872
    1TCM    cl1  899   1.153   1.833   0.750
    1TCM    cl2  900   1.103   1.551   0.797
    1TCM     h1  901   1.180   1.713   0.955
    1TCM    cl3  902   0.945   1.751   0.935
    1TCM     c1  903   2.715   2.853   0.343
    1TCM    cl1  904   2.657   2.967   0.219
    1TCM    cl2  905   2.690   2.686   0.286
    1TCM     h1  906   2.823   2.870   0.360
    1TCM    cl3  907   2.626   2.879   0.494
    1TCM     c1  908   3.661   1.406   3.501
    1TCM    cl1  909   3.559   1.354   3.364
    1TCM    cl2  910   3.779   1.526   3.444
    1TCM     h1  911   3.597   1.451   3.579
    1TCM    cl3  912   3.747   1.265   3.567
    1TCM     c1  913   3.517   0.320   1.974
    1TCM    cl1  914   3.509   0.461   2.082
    1TCM    cl2  915   3.628   0.355   1.840
    1TCM     h1  916   3.553   0.232   2.030
    1TCM    cl3  917   3.355   0.287   1.908
    1TCM     c1  918   4.131   2.678   1.525
    1TCM    cl1  919   4.089   2.763   1.675
    1TCM    cl2  920   4.112   2.503   1.548
    1TCM     h1  921   4.064   2.712   1.443
    1TCM    cl3  922   4.300   2.714   1.482
    1TCM     c1  923   3.006   4.235   2.675
    1TCM    cl1  924   2.874   4.117   2.658
    1TCM    cl2  925   3.076   4.222   2.837
    1TCM     h1  926   3.084   4.214   2.599
    1TCM    cl3  927   2.942   4.399   2.650
    1TCM     c1  928   4.442   1.112   2.789
    1TCM    cl1  929   4.532   1.005   2.898
    1TCM    cl2  930   4.440   1.042   2.625
    1TCM     h1  931   4.337   1.122   2.825
    1TCM    cl3  932   4.519   1.271   2.784
    1TCM     c1  933   1.004   2.074   4.883
    1TCM    cl1  934   1.135   2.005   4.784
    1TCM    cl2  935   1.036   2.041   5.055
    1TCM     h1  936   0.999   2.183   4.866
    1TCM    cl3  937   0.849   1.999   4.836
    1TCM     c1  938   2.429   4.599   4.574
    1TCM    cl1  939   2.584   4.674   4.617
    1TCM    cl2  940   2.399   4.460   4.682
    1TCM     h1  941   2.347   4.673   4.586
    1TCM    cl3  942   2.434   4.543   4.405
    1TCM     c1  943   2.353   5.059   5.095
    1TCM    cl1  944   2.313   5.152   5.242
    1TCM    cl2  945   2.513   5.110   5.035
    1TCM     h1  946   2.356   4.951   5.120
    1TCM    cl3  947   2.230   5.089   4.971
    1TCM     c1  948   2.049   1.281   3.032
    1TCM    cl1  949   2.076   1.306   3.206
    1TCM    cl2  950   1.963   1.127   3.007
    1TCM     h1  951   1.988   1.364   2.991
    1TCM    cl3  952   2.206   1.275   2.947
    1TCM     c1  953   1.955   2.205   5.154
    1TCM    cl1  954   1.879   2.349   5.225
    1TCM    cl2  955   2.035   2.250   5.002
    1TCM     h1  956   2.031   2.165   5.225
    1TCM    cl3  957   1.832   2.082   5.123
    1TCM     c1  958   2.293   1.846   1.678
    1TCM    cl1  959   2.278   1.811   1.852
    1TCM    cl2  960   2.465   1.858   1.634
    1TCM     h1  961   2.245   1.765   1.620
    1TCM    cl3  962   2.212   2.000   1.642
    1TCM     c1  963   2.760   2.712   0.825
    1TCM    cl1  964   2.711   2.542   0.850
    1TCM    cl2  965   2.903   2.718   0.720
    1TCM     h1  966   2.676   2.768   0.778
    1TCM    cl3  967   2.798   2.786   0.983
    1TCM     c1  968   3.081   1.876   2.028
    1TCM    cl1  969   2.986   2.011   1.962
    1TCM    cl2  970   3.136   1.772   1.895
    1TCM     h1  971   3.169   1.915   2.083
    1TCM    cl3  972   2.979   1.781   2.139
    1TCM     c1  973   4.620   4.631   2.747
    1TCM    cl1  974   4.638   4.565   2.912
    1TCM    cl2  975   4.725   4.773   2.729
    1TCM     h1  976   4.649   4.553   2.673
    1TCM    cl3  977   4.451   4.678   2.720
    1TCM     c1  978   3.316   0.435   4.882
    1TCM    cl1  979   3.400   0.566   4.966
    1TCM    cl2  980   3.183   0.502   4.784
    1TCM     h1  981   3.387   0.381   4.815
    1TCM    cl3  982   3.250   0.321   5.001
    1TCM     c1  983   3.970   3.986   4.142
    1TCM    cl1  984   3.959   3.809   4.136
    1TCM    cl2  985   4.050   4.036   4.293
    1TCM     h1  986   4.029   4.023   4.056
    1TCM    cl3  987   3.807   4.056   4.136
    1TCM     c1  988   2.011   1.396   2.654
    1TCM    cl1  989   1.849   1.328   2.683
    1TCM    cl2  990   2.084   1.443   2.809
    1TCM     h1  991   2.074   1.319   2.605
    1TCM    cl3  992   1.997   1.538   2.548
    1TCM     c1  993   2.684   0.496   0.161
    1TCM    cl1  994   2.839   0.409   0.167
    1TCM    cl2  995   2.648   0.564   0.322
    1TCM     h1  996   2.691   0.578   0.087
    1TCM    cl3  997   2.555   0.384   0.114
    1TCM     c1  998   2.448   2.912   2.066
    1TCM    cl1  999   2.359   3.025   2.171
    1TCM    cl2 1000   2.436   2.967   1.898
    1TCM     h1 1001   2.554   2.909   2.097
    1TCM    cl3 1002   2.377   2.750   2.081
    1TCM     c1 1003   1.125   4.920   1.660
    1TCM    cl1 1004   1.114   5.097   1.652
    1TCM    cl2 1005   1.290   4.873   1.707
    1TCM     h1 1006   1.053   4.882   1.736
    1TCM    cl3 1007   1.087   4.851   1.501
    1TCM     c1 1008   4.254   2.311   4.406
    1TCM    cl1 1009   4.129   2.430   4.447
    1TCM    cl2 1010   4.187   2.147   4.419
    1TCM     h1 1011   4.289   2.328   4.302
    1TCM    cl3 1012   4.391   2.327   4.518
    1TCM     c1 1013   1.942   5.107   5.143
    1TCM    cl1 1014   1.846   5.000   5.040
    1TCM    cl2 1015   1.871   5.111   5.306
    1TCM     h1 1016   2.046   5.069   5.150
    1TCM    cl3 1017   1.943   5.271   5.075
    1TCM     c1 1018   3.421   3.828   0.696
    1TCM    cl1 1019   3.435   3.685   0.591
    1TCM    cl2 1020   3.492   3.792   0.855
    1TCM     h1 1021   3.476   3.913   0.650
    1TCM    cl3 1022   3.250   3.872   0.716
    1TCM     c1 1023   4.670   0.981   1.095
    1TCM    cl1 1024   4.706   1.032   1.261
    1TCM    cl2 1025   4.577   1.108   1.013
    1TCM     h1 1026   4.765   0.964   1.040
    1TCM    cl3 1027   4.576   0.831   1.098
    1TCM     c1 1028   4.153   1.829   1.967
    1TCM    cl1 1029   4.190   1.866   1.797
    1TCM    cl2 1030   4.029   1.943   2.026
    1TCM     h1 1031   4.114   1.726   1.975
    1TCM    cl3 1032   4.300   1.846   2.065
    1TCM     c1 1033   4.141   1.738   0.166
    1TCM    cl1 1034   4.200   1.577   0.211
    1TCM    cl2 1035   3.963   1.740   0.169
    1TCM     h1 1036   4.179   1.813   0.239
    1TCM    cl3 1037   4.198   1.780   0.003
    1TCM     c1 1038   3.995   3.231   4.820
    1TCM    cl1 1039   3.944   3.387   4.751
    1TCM    cl2 1040   4.157   3.249   4.891
    1TCM     h1 1041   3.923   3.200   4.898
    1TCM    cl3 1042   4.000   3.108   4.691
    1TCM     c1 1043   1.340   0.569   3.842
    1TCM    cl1 1044   1.435   0.470   3.956
    1TCM    cl2 1045   1.360   0.741   3.884
    1TCM     h1 1046   1.376   0.552   3.739
    1TCM    cl3 1047   1.168   0.525   3.854
    1TCM     c1 1048   3.558   0.374   1.476
    1TCM    cl1 1049   3.438   0.346   1.604
    1TCM    cl2 1050   3.475   0.418   1.326
    1TCM     h1 1051   3.626   0.456   1.506
    1TCM    cl3 1052   3.652   0.225   1.450
    1TCM     c1 1053   1.198   0.373   4.110
    1TCM    cl1 1054   1.175   0.549   4.095
    1TCM    cl2 1055   1.051   0.300   4.179
    1TCM     h1 1056   1.218   0.330   4.010
    1TCM    cl3 1057   1.336   0.340   4.218
    1TCM     c1 1058   3.173   5.260   3.676
    1TCM    cl1 1059   3.221   5.340   3.525
    1TCM    cl2 1060   3.009   5.313   3.722
    1TCM     h1 1061   3.173   5.150   3.662
    1TCM    cl3 1062   3.287   5.303   3.805
    1TCM     c1 1063   2.277   1.109   4.293
    1TCM    cl1 1064   2.298   1.132   4.117
    1TCM    cl2 1065   2.435   1.073   4.367
    1TCM     h1 1066   2.236   1.202   4.337
    1TCM    cl3 1067   2.165   0.975   4.322
    1TCM     c1 1068   3.307   0.771   0.382
    1TCM    cl1 1069   3.408   0.756   0.528
    1TCM    cl2 1070   3.209   0.624   0.363
    1TCM     h1 1071   3.241   0.859   0.393
    1TCM    cl3 1072   3.411   0.792   0.240
    1TCM     c1 1073   1.821   2.065   2.765
    1TCM    cl1 1074   1.687   2.180   2.758
    1TCM    cl2 1075   1.915   2.091   2.914
    1TCM     h1 1076   1.781   1.961   2.764
    1TCM    cl3 1077   1.927   2.088   2.624
    1TCM     c1 1078   5.006   3.995   4.693
    1TCM    cl1 1079   5.134   3.926   4.591
    1TCM    cl2 1080   4.933   4.135   4.611
    1TCM     h1 1081   4.928   3.918   4.711
    1TCM    cl3 1082   5.075   4.047   4.848
    1TCM     c1 1083   0.922   0.935   2.752
    1TCM    cl1 1084   0.866   1.098   2.795
    1TCM    cl2 1085   0.865   0.893   2.589
    1TCM     h1 1086   1.033   0.932   2.754
    1TCM    cl3 1087   0.858   0.817   2.870
    1TCM     c1 1088   4.723   0.985   3.659
    1TCM    cl1 1089   4.787   0.855   3.762
    1TCM    cl2 1090   4.787   0.968   3.494
    1TCM     h1 1091   4.612   0.979   3.657
    1TCM    cl3 1092   4.772   1.143   3.725
    1TCM     c1 1093   5.088   4.808   0.692
    1TCM    cl1 1094   5.017   4.936   0.793
    1TCM    cl2 1095   5.104   4.867   0.525
    1TCM     h1 1096   5.188   4.781   0.731
    1TCM    cl3 1097   4.982   4.666   0.695
    1TCM     c1 1098   0.732   3.396   0.375
    1TCM    cl1 1099   0.866   3.454   0.477
    1TCM    cl2 1100   0.580   3.402   0.467
    1TCM     h1 1101   0.724   3.460   0.285
    1TCM    cl3 1102   0.764   3.228   0.325
    1TCM     c1 1103   1.228   2.452   4.718
    1TCM    cl1 1104   1.180   2.326   4.834
    1TCM    cl2 1105   1.226   2.384   4.554
    1TCM     h1 1106   1.156   2.537   4.723
    1TCM    cl3 1107   1.391   2.509   4.757
    1TCM     c1 1108   1.630   4.103   0.164
    1TCM    cl1 1109   1.591   3.972   0.278
    1TCM    cl2 1110   1.583   4.054   0.000
    1TCM     h1 1111   1.574   4.195   0.193
    1TCM    cl3 1112   1.805   4.136   0.168
    1TCM     c1 1113   0.759   3.215   0.663
    1TCM    cl1 1114   0.824   3.379   0.680
    1TCM    cl2 1115   0.696   3.160   0.820
    1TCM     h1 1116   0.677   3.214   0.588
    1TCM    cl3 1117   0.888   3.105   0.610
    1TCM     c1 1118   4.255   1.622   2.619
    1TCM    cl1 1119   4.365   1.621   2.480
    1TCM    cl2 1120   4.187   1.785   2.640
    1TCM     h1 1121   4.173   1.549   2.602
    1TCM    cl3 1122   4.345   1.576   2.766
    1TCM     c1 1123   2.182   0.583   4.385
    1TCM    cl1 1124   2.132   0.514   4.541
    1TCM    cl2 1125   2.303   0.711   4.413
    1TCM     h1 1126   2.227   0.503   4.323
    1TCM    cl3 1127   2.041   0.651   4.302
    1TCM     c1 1128   0.445   0.236   2.650
    1TCM    cl1 1129   0.400   0.094   2.553
    1TCM    cl2 1130   0.567   0.190   2.771
    1TCM     h1 1131   0.487   0.315   2.584
    1TCM    cl3 1132   0.301   0.300   2.733
    1TCM     c1 1133   1.884   4.525   4.446
    1TCM    cl1 1134   1.887   4.377   4.545
    1TCM    cl2 1135   1.878   4.482   4.274
    1TCM     h1 1136   1.794   4.585   4.473
    1TCM    cl3 1137   2.030   4.621   4.478
    1TCM     c1 1138   4.263   4.573   1.590
    1TCM    cl1 1139   4.380   4.498   1.701
    1TCM    cl2 1140   4.340   4.597   1.431
    1TCM     h1 1141   4.175   4.506   1.579
    1TCM    cl3 1142   4.211   4.730   1.656
    1TCM     c1 1143   1.040   2.609   0.594
    1TCM    cl1 1144   0.980   2.511   0.729
    1TCM    cl2 1145   0.927   2.598   0.458
    1TCM     h1 1146   1.049   2.715   0.626
    1TCM    cl3 1147   1.200   2.549   0.543
    1TCM     c1 1148   1.344   0.908   4.300
    1TCM    cl1 1149   1.450   1.032   4.229
    1TCM    cl2 1150   1.395   0.875   4.467
    1TCM     h1 1151   1.240   0.944   4.299
    1TCM    cl3 1152   1.356   0.759   4.204
    1TCM     c1 1153   1.884   1.537   0.912
    1TCM    cl1 1154   1.812   1.386   0.852
    1TCM    cl2 1155   1.926   1.641   0.775
    1TCM     h1 1156   1.811   1.589   0.977
    1TCM    cl3 1157   2.030   1.499   1.005
    1TCM     c1 1158   1.238   4.588   1.452
    1TCM    cl1 1159   1.277   4.543   1.619
    1TCM    cl2 1160   1.291   4.458   1.342
    1TCM     h1 1161   1.128   4.602   1.442
    1TCM    cl3 1162   1.321   4.739   1.409
    1TCM     c1 1163   5.080   2.728   2.607
    1TCM    cl1 1164   5.053   2.746   2.432
    1TCM    cl2 1165   5.088   2.889   2.682
    1TCM     h1 1166   4.997   2.670   2.651
    1TCM    cl3 1167   5.234   2.642   2.634
    1TCM     c1 1168   0.982   2.478   0.240
    1TCM    cl1 1169   0.965   2.378   0.094
    1TCM    cl2 1170   0.990   2.372   0.383
    1TCM     h1 1171   1.076   2.538   0.234
    1TCM    cl3 1172   0.842   2.587   0.255
    1TCM     c1 1173   3.678   4.685   3.405
    1TCM    cl1 1174   3.834   4.730   3.333
    1TCM    cl2 1175   3.557   4.809   3.366
    1TCM     h1 1176   3.645   4.587   3.364
    1TCM    cl3 1177   3.696   4.672   3.582
    1TCM     c1 1178   2.143   1.067   2.437
    1TCM    cl1 1179   2.135   1.003   2.603
    1TCM    cl2 1180   2.019   0.988   2.337
    1TCM     h1 1181   2.125   1.176   2.439
    1TCM    cl3 1182   2.303   1.034   2.369
    1TCM     c1 1183   0.700   4.552   4.509
    1TCM    cl1 1184   0.744   4.669   4.635
    1TCM    cl2 1185   0.828   4.545   4.386
    1TCM     h1 1186   0.688   4.451   4.555
    1TCM    cl3 1187   0.547   4.601   4.433
    1TCM     c1 1188   2.071   4.843   3.933
    1TCM    cl1 1189   2.158   4.688   3.931
    1TCM    cl2 1190   2.004   4.871   4.095
    1TCM     h1 1191   2.141   4.925   3.907
    1TCM    cl3 1192   1.939   4.838   3.814
    1TCM     c1 1193   1.197   0.270   1.272
    1TCM    cl1 1194   1.052   0.370   1.292
    1TCM    cl2 1195   1.340   0.362   1.325
    1TCM     h1 1196   1.188   0.178   1.333
    1TCM    cl3 1197   1.216   0.226   1.101
    1TCM     c1 1198   2.569   3.138   1.111
    1TCM    cl1 1199   2.471   3.244   1.006
    1TCM    cl2 1200   2.498   2.975   1.112
    1TCM     h1 1201   2.672   3.133   1.072
    1TCM    cl3 1202   2.569   3.203   1.276
    1TCM     c1 1203   1.013   3.619   1.127
    1TCM    cl1 1204   1.132   3.742   1.175
    1TCM    cl2 1205   1.052   3.465   1.207
    1TCM     h1 1206   0.911   3.651   1.158
    1TCM    cl3 1207   1.017   3.597   0.951
    1TCM     c1 1208   3.782   2.365   2.102
    1TCM    cl1 1209   3.745   2.374   1.929
    1TCM    cl2 1210   3.752   2.524   2.177
    1TCM     h1 1211   3.717   2.289   2.150
    1TCM    cl3 1212   3.952   2.321   2.124
    1TCM     c1 1213   2.753   2.480   1.275
    1TCM    cl1 1214   2.701   2.576   1.135
    1TCM    cl2 1215   2.914   2.411   1.243
    1TCM     h1 1216   2.758   2.546   1.365
    1TCM    cl3 1217   2.637   2.349   1.304
    1TCM     c1 1218   2.763   3.499   4.281
    1TCM    cl1 1219   2.880   3.516   4.414
    1TCM    cl2 1220   2.598   3.519   4.345
    1TCM     h1 1221   2.782   3.576   4.204
    1TCM    cl3 1222   2.779   3.337   4.208
    1TCM     c1 1223   1.208   2.811   4.189
    1TCM    cl1 1224   1.257   2.649   4.243
    1TCM    cl2 1225   1.107   2.798   4.043
    1TCM     h1 1226   1.151   2.861   4.270
    1TCM    cl3 1227   1.353   2.907   4.152
    1TCM     c1 1228   1.557   2.907   3.455
    1TCM    cl1 1229   1.412   2.989   3.393
    1TCM    cl2 1230   1.561   2.920   3.632
    1TCM     h1 1231   1.554   2.800   3.426
    1TCM    cl3 1232   1.702   2.984   3.387
    1TCM     c1 1233   3.792   4.711   3.902
    1TCM    cl1 1234   3.870   4.792   4.039
    1TCM    cl2 1235   3.830   4.538   3.905
    1TCM     h1 1236   3.682   4.725   3.909
    1TCM    cl3 1237   3.850   4.782   3.749
    1TCM     c1 1238   0.190   3.213   0.527
    1TCM    cl1 1239   0.231   3.044   0.561
    1TCM    cl2 1240   0.279   3.319   0.638
    1TCM     h1 1241   0.218   3.238   0.422
    1TCM    cl3 1242   0.015   3.237   0.549
    1TCM     c1 1243   1.434   2.293   5.126
    1TCM    cl1 1244   1.463   2.217   4.967
    1TCM    cl2 1245   1.475   2.466   5.117
    1TCM     h1 1246   1.327   2.281   5.153
    1TCM    cl3 1247   1.535   2.214   5.248
    1TCM     c1 1248   0.323   2.037   2.972
    1TCM    cl1 1249   0.246   2.117   2.833
    1TCM    cl2 1250   0.232   1.891   3.015
    1TCM     h1 1251   0.427   2.009   2.946
    1TCM    cl3 1252   0.326   2.149   3.111
    1TCM     c1 1253   3.615   0.224   4.990
    1TCM    cl1 1254   3.472   0.247   5.093
    1TCM    cl2 1255   3.640   0.369   4.890
    1TCM     h1 1256   3.704   0.207   5.054
    1TCM    cl3 1257   3.590   0.083   4.884
    1TCM     c1 1258   1.791   2.852   2.187
    1TCM    cl1 1259   1.824   2.839   2.013
    1TCM    cl2 1260   1.757   2.690   2.253
    1TCM     h1 1261   1.880   2.895   2.239
    1TCM    cl3 1262   1.650   2.957   2.213
    1TCM     c1 1263   4.187   0.705   4.253
    1TCM    cl1 1264   4.352   0.693   4.319
    1TCM    cl2 1265   4.124   0.869   4.281
    1TCM     h1 1266   4.189   0.685   4.144
    1TCM    cl3 1267   4.082   0.587   4.333
    1TCM     c1 1268   0.303   3.805   1.571
    1TCM    cl1 1269   0.179   3.718   1.664
    1TCM    cl2 1270   0.435   3.854   1.679
    1TCM     h1 1271   0.343   3.739   1.491
    1TCM    cl3 1272   0.230   3.950   1.497
    1TCM     c1 1273   0.287   1.605   0.947
    1TCM    cl1 1274   0.213   1.767   0.956
    1TCM    cl2 1275   0.178   1.496   0.860
    1TCM     h1 1276   0.384   1.612   0.894
    1TCM    cl3 1277   0.314   1.544   1.112
    1TCM     c1 1278   3.711   2.589   2.855
    1TCM    cl1 1279   3.679   2.580   2.680
    1TCM    cl2 1280   3.567   2.534   2.944
    1TCM     h1 1281   3.797   2.524   2.880
    1TCM    cl3 1282   3.748   2.757   2.900
    1TCM     c1 1283   0.287   4.812   2.862
    1TCM    cl1 1284   0.342   4.854   3.026
    1TCM    cl2 1285   0.415   4.853   2.745
    1TCM     h1 1286   0.265   4.704   2.857
    1TCM    cl3 1287   0.140   4.904   2.824
    1TCM     c1 1288   0.095   4.646   2.509
    1TCM    cl1 1289   0.045   4.550   2.368
    1TCM    cl2 1290   0.265   4.695   2.490
    1TCM     h1 1291   0.032   4.737   2.517
    1TCM    cl3 1292   0.078   4.549   2.657
    1TCM     c1 1293   0.544   2.559   2.421
    1TCM    cl1 1294   0.486   2.694   2.521
    1TCM    cl2 1295   0.562   2.613   2.253
    1TCM     h1 1296   0.643   2.525   2.459
    1TCM    cl3 1297   0.429   2.424   2.428
    1TCM     c1 1298   0.617   4.001   2.896
    1TCM    cl1 1299   0.651   4.051   3.063
    1TCM    cl2 1300   0.449   4.040   2.855
    1TCM     h1 1301   0.685   4.055   2.826
    1TCM    cl3 1302   0.643   3.826   2.880
    1TCM     c1 1303   2.387   0.712   4.031
    1TCM    cl1 1304   2.559   0.757   4.031
    1TCM    cl2 1305   2.289   0.855   3.990
    1TCM     h1 1306   2.369   0.632   3.957
    1TCM    cl3 1307   2.341   0.654   4.193
    1TCM     c1 1308   1.806   1.890   2.228
    1TCM    cl1 1309   1.920   1.870   2.363
    1TCM    cl2 1310   1.737   2.054   2.232
    1TCM     h1 1311   1.860   1.875   2.132
    1TCM    cl3 1312   1.675   1.770   2.241
    1TCM     c1 1313   0.971   3.245   2.378
    1TCM    cl1 1314   0.871   3.352   2.278
    1TCM    cl2 1315   0.909   3.079   2.369
    1TCM     h1 1316   1.076   3.247   2.341
    1TCM    cl3 1317   0.967   3.300   2.547
    1TCM     c1 1318   4.747   3.689   3.189
    1TCM    cl1 1319   4.588   3.671   3.266
    1TCM    cl2 1320   4.734   3.644   3.017
    1TCM     h1 1321   4.780   3.795   3.197
    1TCM    cl3 1322   4.865   3.583   3.269
    1TCM     c1 1323   4.287   1.012   4.520
    1TCM    cl1 1324   4.306   1.186   4.488
    1TCM    cl2 1325   4.153   0.987   4.635
    1TCM     h1 1326   4.264   0.959   4.425
    1TCM    cl3 1327   4.438   0.948   4.589
    1TCM     c1 1328   0.172   3.109   4.618
    1TCM    cl1 1329   0.289   3.006   4.705
    1TCM    cl2 1330   0.210   3.280   4.649
    1TCM     h1 1331   0.179   3.089   4.509
    1TCM    cl3 1332   0.008   3.074   4.675
    1TCM     c1 1333   1.038   1.883   0.345
    1TCM    cl1 1334   1.031   2.046   0.414
    1TCM    cl2 1335   0.878   1.839   0.281
    1TCM     h1 1336   1.112   1.880   0.263
    1TCM    cl3 1337   1.085   1.767   0.471
    1TCM     c1 1338   2.027   2.110   1.824
    1TCM    cl1 1339   1.968   2.242   1.928
    1TCM    cl2 1340   2.042   2.168   1.657
    1TCM     h1 1341   2.126   2.076   1.860
    1TCM    cl3 1342   1.913   1.974   1.830
    1TCM     c1 1343   2.571   4.399   3.843
    1TCM    cl1 1344   2.604   4.573   3.825
    1TCM    cl2 1345   2.563   4.322   3.683
    1TCM     h1 1346   2.653   4.352   3.903
    1TCM    cl3 1347   2.416   4.377   3.928
    1TCM     c1 1348   3.270   0.578   1.800
    1TCM    cl1 1349   3.204   0.413   1.794
    1TCM    cl2 1350   3.410   0.590   1.691
    1TCM     h1 1351   3.192   0.650   1.768
    1TCM    cl3 1352   3.321   0.616   1.966
    1TCM     c1 1353   2.471   4.807   4.935
    1TCM    cl1 1354   2.539   4.829   5.098
    1TCM    cl2 1355   2.346   4.681   4.939
    1TCM     h1 1356   2.426   4.903   4.901
    1TCM    cl3 1357   2.601   4.760   4.823
    1TCM     c1 1358   2.644   1.866   3.416
    1TCM    cl1 1359   2.505   1.861   3.526
    1TCM    cl2 1360   2.784   1.788   3.493
    1TCM     h1 1361   2.619   1.813   3.322
    1TCM    cl3 1362   2.684   2.035   3.379
    1TCM     c1 1363   0.897   1.796   5.034
    1TCM    cl1 1364   0.858   1.644   5.118
    1TCM    cl2 1365   1.073   1.823   5.040
    1TCM     h1 1366   0.864   1.789   4.928
    1TCM    cl3 1367   0.814   1.931   5.114
    1TCM     c1 1368   3.148   1.155   3.132
    1TCM    cl1 1369   3.284   1.126   3.021
    1TCM    cl2 1370   3.147   1.326   3.181
    1TCM     h1 1371   3.053   1.130   3.080
    1TCM    cl3 1372   3.166   1.052   3.275
    1TCM     c1 1373   3.696   0.790   1.655
    1TCM    cl1 1374   3.799   0.842   1.790
    1TCM    cl2 1375   3.551   0.893   1.647
    1TCM     h1 1376   3.752   0.798   1.560
    1TCM    cl3 1377   3.646   0.621   1.680
    1TCM     c1 1378   0.481   0.393   0.672
    1TCM    cl1 1379   0.520   0.556   0.613
    1TCM    cl2 1380   0.477   0.394   0.850
    1TCM     h1 1381   0.382   0.362   0.633
    1TCM    cl3 1382   0.606   0.278   0.617
    1TCM     c1 1383   0.874   3.807   3.749
    1TCM    cl1 1384   0.973   3.883   3.875
    1TCM    cl2 1385   0.949   3.835   3.590
    1TCM     h1 1386   0.866   3.698   3.768
    1TCM    cl3 1387   0.711   3.879   3.750
    1TCM     c1 1388   5.178   4.209   4.444
    1TCM    cl1 1389   5.083   4.357   4.418
    1TCM    cl2 1390   5.246   4.211   4.608
    1TCM     h1 1391   5.112   4.121   4.432
    1TCM    cl3 1392   5.310   4.202   4.326
    1TCM     c1 1393   3.751   1.795   0.967
    1TCM    cl1 1394   3.895   1.757   1.065
    1TCM    cl2 1395   3.753   1.697   0.819
    1TCM     h1 1396   3.660   1.771   1.026
    1TCM    cl3 1397   3.753   1.967   0.925
    1TCM     c1 1398   3.425   4.576   3.787
    1TCM    cl1 1399   3.525   4.548   3.643
    1TCM    cl2 1400   3.456   4.740   3.850
    1TCM     h1 1401   3.318   4.567   3.760
    1TCM    cl3 1402   3.465   4.457   3.912
    1TCM     c1 1403   1.713   4.686   3.217
    1TCM    cl1 1404   1.737   4.822   3.328
    1TCM    cl2 1405   1.672   4.748   3.055
    1TCM     h1 1406   1.806   4.626   3.211
    1TCM    cl3 1407   1.580   4.583   3.276
    1TCM     c1 1408   2.628   0.512   2.626
    1TCM    cl1 1409   2.605   0.398   2.760
    1TCM    cl2 1410   2.796   0.572   2.627
    1TCM     h1 1411   2.609   0.460   2.530
    1TCM    cl3 1412   2.516   0.648   2.643
    1TCM     c1 1413   3.330   2.125   4.249
    1TCM    cl1 1414   3.268   2.281   4.192
    1TCM    cl2 1415   3.507   2.134   4.265
    1TCM     h1 1416   3.285   2.101   4.347
    1TCM    cl3 1417   3.287   1.998   4.132
    1TCM     c1 1418   2.969   2.410   0.634
    1TCM    cl1 1419   2.834   2.507   0.571
    1TCM    cl2 1420   2.955   2.398   0.811
    1TCM     h1 1421   2.965   2.308   0.589
    1TCM    cl3 1422   3.123   2.487   0.591
    1TCM     c1 1423   1.597   0.540   4.942
    1TCM    cl1 1424   1.435   0.613   4.955
    1TCM    cl2 1425   1.610   0.404   5.056
    1TCM     h1 1426   1.613   0.503   4.839
    1TCM    cl3 1427   1.720   0.662   4.981
    1TCM     c1 1428   0.817   1.626   1.700
    1TCM    cl1 1429   0.823   1.473   1.609
    1TCM    cl2 1430   0.648   1.668   1.734
    1TCM     h1 1431   0.873   1.614   1.796
    1TCM    cl3 1432   0.892   1.755   1.604
    1TCM     c1 1433   4.991   3.157   0.337
    1TCM    cl1 1434   5.130   3.104   0.433
    1TCM    cl2 1435   4.912   3.295   0.417
    1TCM     h1 1436   5.025   3.188   0.236
    1TCM    cl3 1437   4.875   3.023   0.321
    1TCM     c1 1438   0.689   1.710   4.005
    1TCM    cl1 1439   0.515   1.744   4.026
    1TCM    cl2 1440   0.713   1.535   3.986
    1TCM     h1 1441   0.726   1.763   3.915
    1TCM    cl3 1442   0.778   1.768   4.148
    1TCM     c1 1443   0.959   0.799   0.461
    1TCM    cl1 1444   0.952   0.785   0.638
    1TCM    cl2 1445   1.062   0.670   0.395
    1TCM     h1 1446   0.857   0.790   0.419
    1TCM    cl3 1447   1.028   0.957   0.417
    1TCM     c1 1448   3.536   4.898   4.943
    1TCM    cl1 1449   3.364   4.944   4.940
    1TCM    cl2 1450   3.604   4.909   4.779
    1TCM     h1 1451   3.592   4.967   5.010
    1TCM    cl3 1452   3.552   4.732   5.003
    1TCM     c1 1453   3.125   3.835   3.595
    1TCM    cl1 1454   3.135   4.011   3.617
    1TCM    cl2 1455   2.986   3.771   3.687
    1TCM     h1 1456   3.112   3.811   3.488
    1TCM    cl3 1457   3.275   3.759   3.655
    1TCM     c1 1458   2.886   4.269   3.300
    1TCM    cl1 1459   2.757   4.352   3.390
    1TCM    cl2 1460   2.967   4.153   3.407
    1TCM     h1 1461   2.842   4.215   3.213
    1TCM    cl3 1462   3.004   4.389   3.242
    1TCM     c1 1463   3.484   1.357   2.728
    1TCM    cl1 1464   3.643   1.393   2.799
    1TCM    cl2 1465   3.459   1.181   2.721
    1TCM     h1 1466   3.404   1.403   2.791
    1TCM    cl3 1467   3.476   1.425   2.564
    1TCM     c1 1468   4.562   2.071   5.159
    1TCM    cl1 1469   4.598   2.098   4.987
    1TCM    cl2 1470   4.605   2.217   5.252
    1TCM     h1 1471   4.453   2.051   5.172
    1TCM    cl3 1472   4.656   1.933   5.219
    1TCM     c1 1473   3.225   2.221   0.818
    1TCM    cl1 1474   3.150   2.141   0.678
    1TCM    cl2 1475   3.099   2.265   0.936
    1TCM     h1 1476   3.297   2.152   0.866
    1TCM    cl3 1477   3.309   2.368   0.764
    1TCM     c1 1478   4.554   4.815   1.555
    1TCM    cl1 1479   4.516   4.649   1.605
    1TCM    cl2 1480   4.495   4.842   1.389
    1TCM     h1 1481   4.505   4.887   1.623
    1TCM    cl3 1482   4.730   4.839   1.559
    1TCM     c1 1483   4.631   0.716   3.272
    1TCM    cl1 1484   4.748   0.850   3.261
    1TCM    cl2 1485   4.713   0.572   3.336
    1TCM     h1 1486   4.548   0.745   3.340
    1TCM    cl3 1487   4.566   0.681   3.110
    1TCM     c1 1488   3.575   2.191   0.466
    1TCM    cl1 1489   3.474   2.258   0.595
    1TCM    cl2 1490   3.724   2.287   0.452
    1TCM     h1 1491   3.601   2.086   0.490
    1TCM    cl3 1492   3.486   2.197   0.312
    1TCM     c1 1493   1.262   4.700   5.072
    1TCM    cl1 1494   1.384   4.576   5.037
    1TCM    cl2 1495   1.193   4.673   5.234
    1TCM     h1 1496   1.309   4.801   5.068
    1TCM    cl3 1497   1.132   4.691   4.950
    1TCM     c1 1498   5.131   0.297   4.516
    1TCM    cl1 1499   5.186   0.216   4.368
    1TCM    cl2 1500   5.165   0.193   4.657
    1TCM     h1 1501   5.185   0.394   4.528
    1TCM    cl3 1502   4.957   0.328   4.506
    1TCM     c1 1503   4.346   4.846   0.276
    1TCM    cl1 1504   4.196   4.900   0.356
    1TCM    cl2 1505   4.472   4.819   0.399
    1TCM     h1 1506   4.327   4.752   0.221
    1TCM    cl3 1507   4.401   4.972   0.163
    1TCM     c1 1508   0.626   2.486   3.927
    1TCM    cl1 1509   0.656   2.652   3.869
    1TCM    cl2 1510   0.608   2.488   4.104
    1TCM     h1 1511   0.533   2.447   3.880
    1TCM    cl3 1512   0.763   2.382   3.882
    1TCM     c1 1513   4.055   1.327   1.704
    1TCM    cl1 1514   4.116   1.319   1.537
    1TCM    cl2 1515   3.993   1.491   1.737
    1TCM     h1 1516   3.973   1.254   1.717
    1TCM    cl3 1517   4.186   1.290   1.818
    1TCM     c1 1518   1.458   4.913   0.452
    1TCM    cl1 1519   1.610   4.970   0.378
    1TCM    cl2 1520   1.472   4.920   0.629
    1TCM     h1 1521   1.375   4.978   0.419
    1TCM    cl3 1522   1.427   4.745   0.402
    1TCM     c1 1523   3.307   1.120   4.009
    1TCM    cl1 1524   3.239   1.120   3.845
    1TCM    cl2 1525   3.443   1.007   4.017
    1TCM     h1 1526   3.342   1.222   4.034
    1TCM    cl3 1527   3.181   1.071   4.125
    1TCM     c1 1528   4.659   3.539   3.726
    1TCM    cl1 1529   4.767   3.473   3.601
    1TCM    cl2 1530   4.557   3.409   3.792
    1TCM     h1 1531   4.719   3.584   3.807
    1TCM    cl3 1532   4.555   3.665   3.654
    1TCM     c1 1533   1.396   0.826   0.670
    1TCM    cl1 1534   1.319   0.949   0.772
    1TCM    cl2 1535   1.491   0.715   0.772
    1TCM     h1 1536   1.318   0.768   0.616
    1TCM    cl3 1537   1.504   0.905   0.553
    1TCM     c1 1538   1.226   2.068   1.114
    1TCM    cl1 1539   1.191   1.951   1.244
    1TCM    cl2 1540   1.094   2.066   0.996
    1TCM     h1 1541   1.236   2.169   1.158
    1TCM    cl3 1542   1.378   2.023   1.034
    1TCM     c1 1543   3.527   3.101   2.454
    1TCM    cl1 1544   3.684   3.128   2.375
    1TCM    cl2 1545   3.484   3.244   2.550
    1TCM     h1 1546   3.449   3.084   2.377
    1TCM    cl3 1547   3.538   2.959   2.560
    1TCM     c1 1548   3.259   3.548   2.846
    1TCM    cl1 1549   3.136   3.676   2.838
    1TCM    cl2 1550   3.180   3.390   2.864
    1TCM     h1 1551   3.320   3.549   2.753
    1TCM    cl3 1552   3.365   3.578   2.986
    1TCM     c1 1553   1.300   1.175   0.317
    1TCM    cl1 1554   1.327   1.027   0.413
    1TCM    cl2 1555   1.202   1.136   0.174
    1TCM     h1 1556   1.247   1.250   0.379
    1TCM    cl3 1557   1.457   1.241   0.266
    1TCM     c1 1558   3.061   0.248   0.895
    1TCM    cl1 1559   3.132   0.294   1.051
    1TCM    cl2 1560   2.934   0.125   0.921
    1TCM     h1 1561   3.016   0.337   0.847
    1TCM    cl3 1562   3.187   0.181   0.789
    1TCM     c1 1563   1.928   3.333   1.054
    1TCM    cl1 1564   1.814   3.465   1.017
    1TCM    cl2 1565   1.962   3.332   1.228
    1TCM     h1 1566   1.883   3.236   1.024
    1TCM    cl3 1567   2.079   3.358   0.964
    1TCM     c1 1568   2.967   3.790   2.009
    1TCM    cl1 1569   3.131   3.854   1.983
    1TCM    cl2 1570   2.932   3.786   2.183
    1TCM     h1 1571   2.893   3.856   1.958
    1TCM    cl3 1572   2.956   3.626   1.942
    1TCM     c1 1573   4.608   0.504   4.161
    1TCM    cl1 1574   4.649   0.332   4.142
    1TCM    cl2 1575   4.757   0.601   4.162
    1TCM     h1 1576   4.544   0.536   4.076
    1TCM    cl3 1577   4.520   0.528   4.314
    1TCM     c1 1578   4.643   3.006   4.786
    1TCM    cl1 1579   4.781   2.940   4.695
    1TCM    cl2 1580   4.633   2.926   4.945
    1TCM     h1 1581   4.657   3.115   4.801
    1TCM    cl3 1582   4.493   2.977   4.695
    1TCM     c1 1583   1.120   4.679   2.423
    1TCM    cl1 1584   1.008   4.755   2.308
    1TCM    cl2 1585   1.167   4.797   2.547
    1TCM     h1 1586   1.070   4.592   2.472
    1TCM    cl3 1587   1.265   4.623   2.336
    1TCM     c1 1588   5.137   0.240   0.393
    1TCM    cl1 1589   4.965   0.206   0.367
    1TCM    cl2 1590   5.211   0.292   0.240
    1TCM     h1 1591   5.148   0.320   0.468
    1TCM    cl3 1592   5.219   0.093   0.450
    1TCM     c1 1593   4.572   0.485   3.677
    1TCM    cl1 1594   4.556   0.376   3.538
    1TCM    cl2 1595   4.630   0.644   3.622
    1TCM     h1 1596   4.473   0.496   3.727
    1TCM    cl3 1597   4.688   0.417   3.793
    1TCM     c1 1598   3.616   5.083   4.459
    1TCM    cl1 1599   3.573   5.207   4.580
    1TCM    cl2 1600   3.793   5.063   4.455
    1TCM     h1 1601   3.569   4.987   4.486
    1TCM    cl3 1602   3.559   5.134   4.299
    1TCM     c1 1603   1.462   1.824   1.496
    1TCM    cl1 1604   1.569   1.935   1.408
    1TCM    cl2 1605   1.342   1.918   1.588
    1TCM     h1 1606   1.410   1.758   1.424
    1TCM    cl3 1607   1.558   1.725   1.608
    1TCM     c1 1608   5.268   0.237   1.513
    1TCM    cl1 1609   5.253   0.153   1.669
    1TCM    cl2 1610   5.109   0.300   1.464
    1TCM     h1 1611   5.340   0.320   1.522
    1TCM    cl3 1612   5.326   0.122   1.390
    1TCM     c1 1613   3.324   1.746   2.806
    1TCM    cl1 1614   3.207   1.762   2.672
    1TCM    cl2 1615   3.250   1.806   2.956
    1TCM     h1 1616   3.351   1.639   2.818
    1TCM    cl3 1617   3.470   1.841   2.768
    1TCM     c1 1618   3.624   0.412   0.565
    1TCM    cl1 1619   3.730   0.553   0.543
    1TCM    cl2 1620   3.673   0.283   0.453
    1TCM     h1 1621   3.632   0.376   0.669
    1TCM    cl3 1622   3.456   0.458   0.531
    1TCM     c1 1623   0.808   1.400   1.919
    1TCM    cl1 1624   0.700   1.462   1.792
    1TCM    cl2 1625   0.776   1.227   1.945
    1TCM     h1 1626   0.913   1.414   1.888
    1TCM    cl3 1627   0.778   1.489   2.070
    1TCM     c1 1628   2.832   3.882   1.371
    1TCM    cl1 1629   2.747   3.823   1.226
    1TCM    cl2 1630   2.726   3.863   1.513
    1TCM     h1 1631   2.924   3.822   1.386
    1TCM    cl3 1632   2.873   4.053   1.350
    1TCM     c1 1633   2.458   2.573   4.446
    1TCM    cl1 1634   2.562   2.483   4.334
    1TCM    cl2 1635   2.511   2.544   4.613
    1TCM     h1 1636   2.464   2.682   4.423
    1TCM    cl3 1637   2.289   2.519   4.428
    1TCM     c1 1638   0.614   2.328   0.939
    1TCM    cl1 1639   0.762   2.368   0.847
    1TCM    cl2 1640   0.471   2.377   0.845
    1TCM     h1 1641   0.611   2.218   0.957
    1TCM    cl3 1642   0.616   2.414   1.094
    1TCM     c1 1643   2.569   0.484   1.686
    1TCM    cl1 1644   2.733   0.418   1.664
    1TCM    cl2 1645   2.501   0.424   1.839
    1TCM     h1 1646   2.573   0.595   1.688
    1TCM    cl3 1647   2.465   0.431   1.551
    1TCM     c1 1648   2.472   3.615   0.180
    1TCM    cl1 1649   2.378   3.534   0.052
    1TCM    cl2 1650   2.440   3.535   0.336
    1TCM     h1 1651   2.580   3.608   0.156
    1TCM    cl3 1652   2.424   3.785   0.190
    1TCM     c1 1653   0.163   3.437   4.977
    1TCM    cl1 1654   0.266   3.296   5.009
    1TCM    cl2 1655   0.152   3.464   4.801
    1TCM     h1 1656   0.062   3.419   5.018
    1TCM    cl3 1657   0.234   3.580   5.055
    1TCM     c1 1658   3.859   1.852   1.797
    1TCM    cl1 1659   3.713   1.752   1.782
    1TCM    cl2 1660   3.834   1.976   1.923
    1TCM     h1 1661   3.946   1.789   1.824
    1TCM    cl3 1662   3.892   1.932   1.641
    1TCM     c1 1663   2.260   2.801   2.761
    1TCM    cl1 1664   2.137   2.929   2.775
    1TCM    cl2 1665   2.295   2.771   2.589
    1TCM     h1 1666   2.352   2.833   2.813
    1TCM    cl3 1667   2.198   2.652   2.836
    1TCM     c1 1668   4.468   2.776   0.779
    1TCM    cl1 1669   4.491   2.918   0.674
    1TCM    cl2 1670   4.409   2.828   0.938
    1TCM     h1 1671   4.394   2.708   0.732
    1TCM    cl3 1672   4.623   2.691   0.798
    1TCM     c1 1673   5.114   4.266   1.800
    1TCM    cl1 1674   4.975   4.219   1.900
    1TCM    cl2 1675   5.060   4.293   1.633
    1TCM     h1 1676   5.158   4.360   1.840
    1TCM    cl3 1677   5.236   4.137   1.802
    1TCM     c1 1678   3.306   1.645   3.779
    1TCM    cl1 1679   3.134   1.602   3.763
    1TCM    cl2 1680   3.371   1.572   3.927
    1TCM     h1 1681   3.362   1.606   3.691
    1TCM    cl3 1682   3.322   1.822   3.786
    1TCM     c1 1683   0.947   3.778   2.448
    1TCM    cl1 1684   0.994   3.657   2.326
    1TCM    cl2 1685   1.001   3.723   2.609
    1TCM     h1 1686   0.996   3.875   2.424
    1TCM    cl3 1687   0.771   3.797   2.448
    1TCM     c1 1688   3.050   4.147   2.302
    1TCM    cl1 1689   3.109   4.119   2.137
    1TCM    cl2 1690   3.173   4.093   2.419
    1TCM     h1 1691   3.030   4.255   2.316
    1TCM    cl3 1692   2.900   4.056   2.328
    1TCM     c1 1693   1.347   3.007   2.335
    1TCM    cl1 1694   1.339   3.154   2.434
    1TCM    cl2 1695   1.193   2.920   2.346
    1TCM     h1 1696   1.367   3.035   2.229
    1TCM    cl3 1697   1.479   2.903   2.394
    1TCM     c1 1698   4.612   0.156   5.168
    1TCM    cl1 1699   4.745   0.246   5.091
    1TCM    cl2 1700   4.536   0.258   5.292
    1TCM     h1 1701   4.536   0.129   5.091
    1TCM    cl3 1702   4.676   0.008   5.243
    1TCM     c1 1703   4.218   4.912   2.446
    1TCM    cl1 1704   4.068   4.990   2.500
    1TCM    cl2 1705   4.269   4.982   2.291
    1TCM     h1 1706   4.298   4.928   2.522
    1TCM    cl3 1707   4.190   4.738   2.426
    1TCM     c1 1708   1.446   5.033   3.152
    1TCM    cl1 1709   1.305   5.140   3.165
    1TCM    cl2 1710   1.566   5.078   3.275
    1TCM     h1 1711   1.414   4.928   3.168
    1TCM    cl3 1712   1.518   5.050   2.990
    1TCM     c1 1713   3.444   4.999   3.756
    1TCM    cl1 1714   3.398   5.156   3.684
    1TCM    cl2 1715   3.471   5.019   3.930
    1TCM     h1 1716   3.362   4.926   3.739
    1TCM    cl3 1717   3.593   4.940   3.679
    1TCM     c1 1718   3.644   2.210   4.866
    1TCM    cl1 1719   3.800   2.149   4.805
    1TCM    cl2 1720   3.664   2.265   5.034
    1TCM     h1 1721   3.610   2.295   4.803
    1TCM    cl3 1722   3.523   2.079   4.860
    1TCM     c1 1723   4.867   4.211   2.590
    1TCM    cl1 1724   4.816   4.380   2.573
    1TCM    cl2 1725   4.786   4.112   2.467
    1TCM     h1 1726   4.977   4.204   2.577
    1TCM    cl3 1727   4.823   4.152   2.752
    1TCM     c1 1728   5.015   3.096   2.504
    1TCM    cl1 1729   5.154   2.994   2.462
    1TCM    cl2 1730   5.031   3.152   2.672
    1TCM     h1 1731   5.012   3.184   2.436
    1TCM    cl3 1732   4.865   3.003   2.486
    1TCM     c1 1733   1.454   2.336   0.932
    1TCM    cl1 1734   1.528   2.255   1.072
    1TCM    cl2 1735   1.474   2.234   0.788
    1TCM     h1 1736   1.346   2.352   0.951
    1TCM    cl3 1737   1.534   2.493   0.905
    1TCM     c1 1738   1.126   1.975   4.079
    1TCM    cl1 1739   1.213   1.820   4.076
    1TCM    cl2 1740   1.220   2.097   3.990
    1TCM     h1 1741   1.027   1.963   4.031
    1TCM    cl3 1742   1.105   2.028   4.248
    1TCM     c1 1743   4.156   3.553   1.341
    1TCM    cl1 1744   4.118   3.724   1.368
    1TCM    cl2 1745   4.027   3.479   1.242
    1TCM     h1 1746   4.253   3.544   1.288
    1TCM    cl3 1747   4.166   3.468   1.497
    1TCM     c1 1748   0.276   5.157   2.147
    1TCM    cl1 1749   0.327   5.002   2.078
    1TCM    cl2 1750   0.324   5.165   2.318
    1TCM     h1 1751   0.325   5.240   2.091
    1TCM    cl3 1752   0.099   5.173   2.134
    1TCM     c1 1753   1.345   2.550   1.768
    1TCM    cl1 1754   1.410   2.664   1.648
    1TCM    cl2 1755   1.406   2.594   1.930
    1TCM     h1 1756   1.234   2.555   1.768
    1TCM    cl3 1757   1.397   2.385   1.728
    1TCM     c1 1758   0.854   2.382   4.135
    1TCM    cl1 1759   0.817   2.556   4.140
    1TCM    cl2 1760   0.952   2.347   3.991
    1TCM     h1 1761   0.910   2.353   4.226
    1TCM    cl3 1762   0.702   2.289   4.126
    1TCM     c1 1763   1.119   0.888   5.167
    1TCM    cl1 1764   0.946   0.920   5.143
    1TCM    cl2 1765   1.158   0.895   5.340
    1TCM     h1 1766   1.144   0.787   5.127
    1TCM    cl3 1767   1.214   1.010   5.080
    1TCM     c1 1768   3.674   2.954   1.045
    1TCM    cl1 1769   3.543   3.009   1.153
    1TCM    cl2 1770   3.714   3.083   0.930
    1TCM     h1 1771   3.763   2.928   1.106
    1TCM    cl3 1772   3.619   2.810   0.956
    1TCM     c1 1773   3.690   4.996   3.038
    1TCM    cl1 1774   3.671   5.169   3.072
    1TCM    cl2 1775   3.770   4.975   2.881
    1TCM     h1 1776   3.751   4.949   3.118
    1TCM    cl3 1777   3.530   4.918   3.034
    1TCM     c1 1778   4.626   3.186   5.179
    1TCM    cl1 1779   4.516   3.289   5.086
    1TCM    cl2 1780   4.557   3.155   5.340
    1TCM     h1 1781   4.641   3.090   5.126
    1TCM    cl3 1782   4.783   3.269   5.197
    1TCM     c1 1783   4.470   2.799   2.975
    1TCM    cl1 1784   4.387   2.880   2.841
    1TCM    cl2 1785   4.354   2.767   3.106
    1TCM     h1 1786   4.514   2.703   2.940
    1TCM    cl3 1787   4.600   2.904   3.036
    1TCM     c1 1788   2.316   4.522   3.648
    1TCM    cl1 1789   2.309   4.553   3.473
    1TCM    cl2 1790   2.150   4.511   3.713
    1TCM     h1 1791   2.369   4.427   3.667
    1TCM    cl3 1792   2.402   4.656   3.728
    1TCM     c1 1793   3.585   2.236   0.988
    1TCM    cl1 1794   3.540   2.345   1.121
    1TCM    cl2 1795   3.575   2.324   0.834
    1TCM     h1 1796   3.689   2.201   1.003
    1TCM    cl3 1797   3.474   2.098   0.985
    1TCM     c1 1798   2.388   2.102   2.768
    1TCM    cl1 1799   2.425   1.969   2.879
    1TCM    cl2 1800   2.353   2.037   2.606
    1TCM     h1 1801   2.299   2.158   2.805
    1TCM    cl3 1802   2.527   2.213   2.759
    1TCM     c1 1803   2.949   2.907   3.480
    1TCM    cl1 1804   2.852   3.050   3.442
    1TCM    cl2 1805   2.852   2.760   3.452
    1TCM     h1 1806   3.039   2.905   3.415
    1TCM    cl3 1807   3.000   2.912   3.650
    1TCM     c1 1808   5.022   1.902   1.701
    1TCM    cl1 1809   4.894   1.932   1.582
    1TCM    cl2 1810   4.986   1.752   1.790
    1TCM     h1 1811   5.120   1.891   1.649
    1TCM    cl3 1812   5.031   2.038   1.815
    1TCM     c1 1813   1.665   1.362   3.593
    1TCM    cl1 1814   1.554   1.262   3.688
    1TCM    cl2 1815   1.827   1.356   3.664
    1TCM     h1 1816   1.669   1.324   3.489
    1TCM    cl3 1817   1.607   1.531   3.592
    1TCM     c1 1818   3.438   4.185   2.257
    1TCM    cl1 1819   3.422   4.111   2.418
    1TCM    cl2 1820   3.307   4.303   2.234
    1TCM     h1 1821   3.536   4.236   2.250
    1TCM    cl3 1822   3.427   4.059   2.133
    1TCM     c1 1823   2.074   3.562   0.495
    1TCM    cl1 1824   2.224   3.560   0.400
    1TCM    cl2 1825   2.044   3.726   0.556
    1TCM     h1 1826   1.989   3.530   0.431
    1TCM    cl3 1827   2.089   3.449   0.632
    1TCM     c1 1828   4.610   2.134   3.274
    1TCM    cl1 1829   4.759   2.150   3.178
    1TCM    cl2 1830   4.469   2.131   3.167
    1TCM     h1 1831   4.614   2.039   3.332
    1TCM    cl3 1832   4.597   2.271   3.387
    1TCM     c1 1833   2.448   3.864   1.457
    1TCM    cl1 1834   2.523   3.934   1.602
    1TCM    cl2 1835   2.567   3.761   1.373
    1TCM     h1 1836   2.361   3.803   1.486
    1TCM    cl3 1837   2.397   3.995   1.348
    1TCM     c1 1838   1.067   4.912   4.776
    1TCM    cl1 1839   1.225   4.922   4.857
    1TCM    cl2 1840   0.939   4.958   4.890
    1TCM     h1 1841   1.066   4.982   4.689
    1TCM    cl3 1842   1.039   4.746   4.719
    1TCM     c1 1843   3.659   3.222   3.733
    1TCM    cl1 1844   3.559   3.116   3.834
    1TCM    cl2 1845   3.597   3.220   3.566
    1TCM     h1 1846   3.654   3.326   3.772
    1TCM    cl3 1847   3.827   3.165   3.734
    1TCM     c1 1848   3.769   3.805   1.238
    1TCM    cl1 1849   3.945   3.819   1.218
    1TCM    cl2 1850   3.730   3.783   1.410
    1TCM     h1 1851   3.720   3.898   1.201
    1TCM    cl3 1852   3.710   3.666   1.145
    1TCM     c1 1853   2.542   1.271   3.902
    1TCM    cl1 1854   2.418   1.293   4.027
    1TCM    cl2 1855   2.485   1.340   3.749
    1TCM     h1 1856   2.636   1.322   3.933
    1TCM    cl3 1857   2.575   1.097   3.880
    1TCM     c1 1858   2.169   3.598   4.846
    1TCM    cl1 1859   2.080   3.518   4.978
    1TCM    cl2 1860   2.336   3.631   4.898
    1TCM     h1 1861   2.170   3.532   4.757
    1TCM    cl3 1862   2.089   3.751   4.805
    1TCM     c1 1863   4.337   3.806   3.184
    1TCM    cl1 1864   4.232   3.884   3.064
    1TCM    cl2 1865   4.238   3.734   3.312
    1TCM     h1 1866   4.397   3.727   3.134
    1TCM    cl3 1867   4.447   3.927   3.255
    1TCM     c1 1868   2.469   5.209   4.732
    1TCM    cl1 1869   2.641   5.162   4.742
    1TCM    cl2 1870   2.435   5.272   4.569
    1TCM     h1 1871   2.405   5.121   4.752
    1TCM    cl3 1872   2.435   5.336   4.852
    1TCM     c1 1873   3.096   1.575   5.007
    1TCM    cl1 1874   3.055   1.435   4.905
    1TCM    cl2 1875   2.963   1.694   5.001
    1TCM     h1 1876   3.111   1.542   5.111
    1TCM    cl3 1877   3.245   1.650   4.946
    1TCM     c1 1878   2.539   3.997   5.242
    1TCM    cl1 1879   2.453   3.870   5.331
    1TCM    cl2 1880   2.476   4.006   5.076
    1TCM     h1 1881   2.525   4.095   5.293
    1TCM    cl3 1882   2.713   3.959   5.237
    1TCM     c1 1883   0.651   0.602   4.103
    1TCM    cl1 1884   0.729   0.720   3.995
    1TCM    cl2 1885   0.632   0.674   4.265
    1TCM     h1 1886   0.551   0.575   4.063
    1TCM    cl3 1887   0.752   0.456   4.115
    1TCM     c1 1888   3.624   0.888   2.050
    1TCM    cl1 1889   3.715   1.039   2.028
    1TCM    cl2 1890   3.578   0.823   1.891
    1TCM     h1 1891   3.686   0.814   2.104
    1TCM    cl3 1892   3.477   0.921   2.145
    1TCM     c1 1893   2.868   0.125   2.593
    1TCM    cl1 1894   2.814   0.101   2.761
    1TCM    cl2 1895   2.738   0.076   2.481
    1TCM     h1 1896   2.892   0.232   2.577
    1TCM    cl3 1897   3.012   0.026   2.562
    1TCM     c1 1898   2.722   4.543   2.512
    1TCM    cl1 1899   2.895   4.526   2.474
    1TCM    cl2 1900   2.626   4.461   2.386
    1TCM     h1 1901   2.701   4.497   2.611
    1TCM    cl3 1902   2.678   4.715   2.516
    1TCM     c1 1903   0.892   1.007   2.236
    1TCM    cl1 1904   0.875   1.172   2.300
    1TCM    cl2 1905   1.045   0.995   2.146
    1TCM     h1 1906   0.893   0.934   2.319
    1TCM    cl3 1907   0.757   0.971   2.127
    1TCM     c1 1908   2.337   4.326   3.118
    1TCM    cl1 1909   2.388   4.158   3.095
    1TCM    cl2 1910   2.167   4.344   3.068
    1TCM     h1 1911   2.347   4.354   3.225
    1TCM    cl3 1912   2.439   4.434   3.019
    1TCM     c1 1913   4.245   1.838   4.785
    1TCM    cl1 1914   4.208   2.001   4.848
    1TCM    cl2 1915   4.417   1.803   4.809
    1TCM     h1 1916   4.184   1.763   4.840
    1TCM    cl3 1917   4.206   1.831   4.612
    1TCM     c1 1918   0.395   0.582   0.298
    1TCM    cl1 1919   0.412   0.483   0.151
    1TCM    cl2 1920   0.405   0.477   0.441
    1TCM     h1 1921   0.477   0.657   0.302
    1TCM    cl3 1922   0.238   0.665   0.296
    1TCM     c1 1923   3.936   3.845   5.143
    1TCM    cl1 1924   4.073   3.921   5.060
    1TCM    cl2 1925   3.798   3.958   5.145
    1TCM     h1 1926   3.907   3.753   5.089
    1TCM    cl3 1927   3.982   3.805   5.310
    1TCM     c1 1928   1.925   2.392   2.781
    1TCM    cl1 1929   1.829   2.404   2.632
    1TCM    cl2 1930   2.006   2.547   2.812
    1TCM     h1 1931   1.858   2.367   2.866
    1TCM    cl3 1932   2.047   2.264   2.762
    1TCM     c1 1933   2.152   4.119   1.602
    1TCM    cl1 1934   2.314   4.051   1.628
    1TCM    cl2 1935   2.167   4.284   1.538
    1TCM     h1 1936   2.097   4.056   1.529
    1TCM    cl3 1937   2.064   4.122   1.756
    1TCM     c1 1938   4.145   3.607   1.898
    1TCM    cl1 1939   3.976   3.634   1.851
    1TCM    cl2 1940   4.154   3.574   2.072
    1TCM     h1 1941   4.186   3.521   1.841
    1TCM    cl3 1942   4.241   3.753   1.860
    1TCM     c1 1943   2.583   4.605   0.612
    1TCM    cl1 1944   2.574   4.503   0.466
    1TCM    cl2 1945   2.550   4.774   0.568
    1TCM     h1 1946   2.508   4.570   0.685
    1TCM    cl3 1947   2.746   4.592   0.683
    1TCM     c1 1948   2.864   2.371   4.677
    1TCM    cl1 1949   2.823   2.213   4.607
    1TCM    cl2 1950   2.918   2.349   4.845
    1TCM     h1 1951   2.946   2.418   4.618
    1TCM    cl3 1952   2.721   2.477   4.674
    1TCM     c1 1953   1.547   3.337   2.697
    1TCM    cl1 1954   1.619   3.330   2.860
    1TCM    cl2 1955   1.595   3.194   2.605
    1TCM     h1 1956   1.436   3.340   2.706
    1TCM    cl3 1957   1.603   3.484   2.614
    1TCM     c1 1958   0.742   4.183   4.969
    1TCM    cl1 1959   0.699   4.302   5.094
    1TCM    cl2 1960   0.792   4.269   4.821
    1TCM     h1 1961   0.825   4.120   5.005
    1TCM    cl3 1962   0.601   4.081   4.933
    1TCM     c1 1963   0.257   2.401   1.774
    1TCM    cl1 1964   0.228   2.566   1.715
    1TCM    cl2 1965   0.183   2.381   1.935
    1TCM     h1 1966   0.213   2.327   1.704
    1TCM    cl3 1967   0.433   2.373   1.786
    1TCM     c1 1968   4.510   0.910   4.214
    1TCM    cl1 1969   4.508   0.760   4.118
    1TCM    cl2 1970   4.534   0.870   4.385
    1TCM     h1 1971   4.594   0.974   4.179
    1TCM    cl3 1972   4.356   0.995   4.193
    1TCM     c1 1973   4.021   1.109   0.465
    1TCM    cl1 1974   4.121   1.223   0.556
    1TCM    cl2 1975   4.005   1.165   0.297
    1TCM     h1 1976   4.069   1.009   0.465
    1TCM    cl3 1977   3.860   1.097   0.539
    1TCM     c1 1978   1.889   1.769   3.910
    1TCM    cl1 1979   2.047   1.689   3.908
    1TCM    cl2 1980   1.823   1.767   4.075
    1TCM     h1 1981   1.900   1.874   3.876
    1TCM    cl3 1982   1.778   1.683   3.801
    1TCM     c1 1983   0.198   1.850   2.028
    1TCM    cl1 1984   0.326   1.954   1.960
    1TCM    cl2 1985   0.202   1.860   2.206
    1TCM     h1 1986   0.099   1.885   1.992
    1TCM    cl3 1987   0.225   1.682   1.978
    1TCM     c1 1988   1.684   0.615   3.447
    1TCM    cl1 1989   1.801   0.635   3.314
    1TCM    cl2 1990   1.563   0.494   3.401
    1TCM     h1 1991   1.738   0.581   3.538
    1TCM    cl3 1992   1.604   0.770   3.480
    1TCM     c1 1993   2.257   4.214   1.218
    1TCM    cl1 1994   2.194   4.347   1.319
    1TCM    cl2 1995   2.257   4.264   1.048
    1TCM     h1 1996   2.360   4.189   1.250
    1TCM    cl3 1997   2.153   4.071   1.238
    1TCM     c1 1998   3.487   1.775   4.371
    1TCM    cl1 1999   3.548   1.612   4.408
    1TCM    cl2 2000   3.540   1.888   4.498
    1TCM     h1 2001   3.527   1.808   4.273
    1TCM    cl3 2002   3.309   1.771   4.365
    1TCM     c1 2003   2.261   3.755   4.154
    1TCM    cl1 2004   2.408   3.672   4.097
    1TCM    cl2 2005   2.223   3.703   4.320
    1TCM     h1 2006   2.277   3.865   4.152
    1TCM    cl3 2007   2.125   3.714   4.047
    1TCM     c1 2008   3.184   0.971   4.954
    1TCM    cl1 2009   3.210   1.105   5.069
    1TCM    cl2 2010   3.192   1.034   4.788
    1TCM     h1 2011   3.263   0.895   4.968
    1TCM    cl3 2012   3.025   0.899   4.982
    1TCM     c1 2013   3.136   2.733   2.500
    1TCM    cl1 2014   3.237   2.724   2.355
    1TCM    cl2 2015   3.201   2.855   2.611
    1TCM     h1 2016   3.032   2.761   2.471
    1TCM    cl3 2017   3.134   2.575   2.581
    1TCM     c1 2018   4.735   4.236   0.921
    1TCM    cl1 2019   4.802   4.256   0.757
    1TCM    cl2 2020   4.869   4.219   1.038
    1TCM     h1 2021   4.674   4.325   0.947
    1TCM    cl3 2022   4.634   4.090   0.925
    1TCM     c1 2023   2.109   2.853   4.456
    1TCM    cl1 2024   2.223   2.951   4.360
    1TCM    cl2 2025   2.198   2.724   4.539
    1TCM     h1 2026   2.059   2.918   4.531
    1TCM    cl3 2027   1.987   2.782   4.349
    1TCM     c1 2028   2.642   4.045   4.447
    1TCM    cl1 2029   2.750   4.182   4.410
    1TCM    cl2 2030   2.512   4.101   4.555
    1TCM     h1 2031   2.598   4.006   4.353
    1TCM    cl3 2032   2.735   3.917   4.527
    1TCM     c1 2033   4.379   5.172   2.649
    1TCM    cl1 2034   4.377   5.156   2.472
    1TCM    cl2 2035   4.547   5.163   2.708
    1TCM     h1 2036   4.335   5.270   2.678
    1TCM    cl3 2037   4.284   5.041   2.722
    1TCM     c1 2038   1.874   3.663   2.047
    1TCM    cl1 2039   1.941   3.812   2.117
    1TCM    cl2 2040   1.702   3.687   2.009
    1TCM     h1 2041   1.929   3.638   1.954
    1TCM    cl3 2042   1.891   3.530   2.164
    1TCM     c1 2043   3.530   0.785   1.027
    1TCM    cl1 2044   3.357   0.821   1.016
    1TCM    cl2 2045   3.553   0.625   1.103
    1TCM     h1 2046   3.574   0.784   0.925
    1TCM    cl3 2047   3.611   0.909   1.125
    1TCM     c1 2048   0.352   3.763   3.024
    1TCM    cl1 2049   0.427   3.707   3.175
    1TCM    cl2 2050   0.176   3.747   3.035
    1TCM     h1 2051   0.379   3.869   3.006
    1TCM    cl3 2052   0.412   3.663   2.889
    1TCM     c1 2053   2.900   2.678   4.922
    1TCM    cl1 2054   2.973   2.758   5.063
    1TCM    cl2 2055   2.927   2.778   4.777
    1TCM     h1 2056   2.947   2.579   4.907
    1TCM    cl3 2057   2.725   2.659   4.949
    1TCM     c1 2058   2.290   0.674   0.723
    1TCM    cl1 2059   2.363   0.663   0.561
    1TCM    cl2 2060   2.266   0.511   0.789
    1TCM     h1 2061   2.357   0.732   0.789
    1TCM    cl3 2062   2.132   0.756   0.711
    1TCM     c1 2063   2.888   0.290   2.247
    1TCM    cl1 2064   2.850   0.263   2.075
    1TCM    cl2 2065   2.746   0.252   2.346
    1TCM     h1 2066   2.973   0.225   2.277
    1TCM    cl3 2067   2.934   0.460   2.271
    1TCM     c1 2068   1.808   3.561   4.666
    1TCM    cl1 2069   1.804   3.585   4.842
    1TCM    cl2 2070   1.654   3.489   4.613
    1TCM     h1 2071   1.821   3.659   4.616
    1TCM    cl3 2072   1.942   3.453   4.623
    1TCM     c1 2073   0.813   2.846   0.808
    1TCM    cl1 2074   0.874   3.001   0.869
    1TCM    cl2 2075   0.940   2.723   0.822
    1TCM     h1 2076   0.724   2.815   0.867
    1TCM    cl3 2077   0.767   2.864   0.637
    1TCM     c1 2078   3.000   0.217   3.439
    1TCM    cl1 2079   3.171   0.173   3.425
    1TCM    cl2 2080   2.986   0.383   3.503
    1TCM     h1 2081   2.952   0.212   3.339
    1TCM    cl3 2082   2.918   0.104   3.550
    1TCM     c1 2083   2.109   3.025   1.138
    1TCM    cl1 2084   2.074   3.126   1.280
    1TCM    cl2 2085   2.110   2.854   1.186
    1TCM     h1 2086   2.031   3.042   1.061
    1TCM    cl3 2087   2.268   3.069   1.072
    1TCM     c1 2088   3.096   5.147   4.038
    1TCM    cl1 2089   3.249   5.057   4.037
    1TCM    cl2 2090   3.052   5.187   4.206
    1TCM     h1 2091   3.107   5.241   3.980
    1TCM    cl3 2092   2.968   5.047   3.966
    1TCM     c1 2093   2.985   3.288   0.145
    1TCM    cl1 2094   3.153   3.279   0.204
    1TCM    cl2 2095   2.965   3.179   0.006
    1TCM     h1 2096   2.916   3.259   0.226
    1TCM    cl3 2097   2.950   3.455   0.094
    1TCM     c1 2098   0.273   0.354   4.205
    1TCM    cl1 2099   0.176   0.488   4.140
    1TCM    cl2 2100   0.428   0.344   4.118
    1TCM     h1 2101   0.293   0.371   4.313
    1TCM    cl3 2102   0.184   0.201   4.185
    1TCM     c1 2103   2.456   2.629   3.943
    1TCM    cl1 2104   2.513   2.465   3.982
    1TCM    cl2 2105   2.487   2.737   4.081
    1TCM     h1 2106   2.510   2.666   3.853
    1TCM    cl3 2107   2.282   2.624   3.909
    1TCM     c1 2108   0.809   1.413   0.277
    1TCM    cl1 2109   0.685   1.459   0.159
    1TCM    cl2 2110   0.731   1.379   0.434
    1TCM     h1 2111   0.862   1.322   0.242
    1TCM    cl3 2112   0.925   1.546   0.296
    1TCM     c1 2113   4.678   2.992   1.957
    1TCM    cl1 2114   4.524   3.037   2.033
    1TCM    cl2 2115   4.649   2.943   1.789
    1TCM     h1 2116   4.747   3.079   1.959
    1TCM    cl3 2117   4.751   2.857   2.046
    1TCM     c1 2118   3.137   3.237   0.630
    1TCM    cl1 2119   3.226   3.263   0.478
    1TCM    cl2 2120   3.031   3.095   0.612
    1TCM     h1 2121   3.209   3.219   0.712
    1TCM    cl3 2122   3.039   3.380   0.667
    1TCM     c1 2123   2.569   4.840   1.607
    1TCM    cl1 2124   2.548   5.016   1.611
    1TCM    cl2 2125   2.735   4.800   1.656
    1TCM     h1 2126   2.497   4.793   1.677
    1TCM    cl3 2127   2.540   4.780   1.442
    1TCM     c1 2128   2.713   4.074   4.808
    1TCM    cl1 2129   2.595   3.968   4.888
    1TCM    cl2 2130   2.840   4.120   4.924
    1TCM     h1 2131   2.759   4.021   4.722
    1TCM    cl3 2132   2.631   4.221   4.750
    1TCM     c1 2133   4.033   4.053   2.750
    1TCM    cl1 2134   4.059   3.892   2.680
    1TCM    cl2 2135   3.880   4.054   2.842
    1TCM     h1 2136   4.117   4.078   2.819
    1TCM    cl3 2137   4.024   4.174   2.620
    1TCM     c1 2138   2.383   1.482   2.453
    1TCM    cl1 2139   2.362   1.479   2.630
    1TCM    cl2 2140   2.344   1.644   2.392
    1TCM     h1 2141   2.488   1.457   2.428
    1TCM    cl3 2142   2.274   1.363   2.379
    1TCM     c1 2143   4.904   2.399   0.701
    1TCM    cl1 2144   4.925   2.226   0.733
    1TCM    cl2 2145   4.739   2.428   0.641
    1TCM     h1 2146   4.920   2.456   0.794
    1TCM    cl3 2147   5.021   2.452   0.578
    1TCM     c1 2148   4.239   0.571   3.251
    1TCM    cl1 2149   4.063   0.548   3.247
    1TCM    cl2 2150   4.281   0.724   3.171
    1TCM     h1 2151   4.274   0.575   3.357
    1TCM    cl3 2152   4.319   0.436   3.168
    1TCM     c1 2153   4.841   2.294   0.172
    1TCM    cl1 2154   4.708   2.253   0.062
    1TCM    cl2 2155   4.788   2.272   0.340
    1TCM     h1 2156   4.928   2.228   0.152
    1TCM    cl3 2157   4.889   2.463   0.147
    1TCM     c1 2158   3.347   1.247   1.105
    1TCM    cl1 2159   3.487   1.167   1.178
    1TCM    cl2 2160   3.208   1.135   1.105
    1TCM     h1 2161   3.321   1.338   1.164
    1TCM    cl3 2162   3.385   1.294   0.938
    1TCM     c1 2163   2.815   4.413   4.733
    1TCM    cl1 2164   2.938   4.363   4.851
    1TCM    cl2 2165   2.658   4.433   4.816
    1TCM     h1 2166   2.845   4.509   4.687
    1TCM    cl3 2167   2.799   4.288   4.607
    1TCM     c1 2168   1.544   5.246   0.591
    1TCM    cl1 2169   1.419   5.282   0.713
    1TCM    cl2 2170   1.467   5.175   0.447
    1TCM     h1 2171   1.596   5.340   0.563
    1TCM    cl3 2172   1.661   5.131   0.659
    1TCM     c1 2173   1.444   3.309   4.513
    1TCM    cl1 2174   1.389   3.469   4.459
    1TCM    cl2 2175   1.560   3.244   4.395
    1TCM     h1 2176   1.493   3.318   4.612
    1TCM    cl3 2177   1.305   3.199   4.526
    1TCM     c1 2178   1.295   2.371   2.580
    1TCM    cl1 2179   1.160   2.349   2.694
    1TCM    cl2 2180   1.230   2.415   2.420
    1TCM     h1 2181   1.361   2.452   2.616
    1TCM    cl3 2182   1.387   2.220   2.567
    1TCM     c1 2183   1.382   1.358   0.664
    1TCM    cl1 2184   1.463   1.481   0.762
    1TCM    cl2 2185   1.447   1.362   0.498
    1TCM     h1 2186   1.399   1.258   0.708
    1TCM    cl3 2187   1.207   1.391   0.659
    1TCM     c1 2188   0.350   5.171   3.270
    1TCM    cl1 2189   0.427   5.270   3.396
    1TCM    cl2 2190   0.475   5.079   3.183
    1TCM     h1 2191   0.278   5.101   3.317
    1TCM    cl3 2192   0.264   5.277   3.156
    1TCM     c1 2193   2.821   3.981   0.348
    1TCM    cl1 2194   2.698   3.913   0.238
    1TCM    cl2 2195   2.971   4.011   0.257
    1TCM     h1 2196   2.783   4.077   0.389
    1TCM    cl3 2197   2.852   3.867   0.480
    1TCM     c1 2198   5.105   1.822   0.939
    1TCM    cl1 2199   4.987   1.704   1.000
    1TCM    cl2 2200   5.049   1.885   0.782
    1TCM     h1 2201   5.114   1.906   1.011
    1TCM    cl3 2202   5.263   1.744   0.919
    1TCM     c1 2203   3.221   4.745   4.127
    1TCM    cl1 2204   3.340   4.825   4.233
    1TCM    cl2 2205   3.305   4.637   4.014
    1TCM     h1 2206   3.150   4.686   4.189
    1TCM    cl3 2207   3.131   4.869   4.036
    1TCM     c1 2208   0.460   3.251   3.435
    1TCM    cl1 2209   0.489   3.377   3.313
    1TCM    cl2 2210   0.385   3.110   3.358
    1TCM     h1 2211   0.557   3.221   3.481
    1TCM    cl3 2212   0.351   3.315   3.561
    1TCM     c1 2213   2.942   0.525   1.944
    1TCM    cl1 2214   3.059   0.658   1.963
    1TCM    cl2 2215   2.969   0.444   1.788
    1TCM     h1 2216   2.955   0.452   2.027
    1TCM    cl3 2217   2.776   0.591   1.949
    1TCM     c1 2218   4.836   4.996   4.337
    1TCM    cl1 2219   4.845   5.132   4.452
    1TCM    cl2 2220   4.753   4.859   4.414
    1TCM     h1 2221   4.780   5.028   4.247
    1TCM    cl3 2222   5.001   4.947   4.291
    1TCM     c1 2223   4.072   1.025   2.063
    1TCM    cl1 2224   3.981   1.044   2.215
    1TCM    cl2 2225   3.979   0.923   1.951
    1TCM     h1 2226   4.089   1.125   2.017
    1TCM    cl3 2227   4.229   0.948   2.097
    1TCM     c1 2228   2.344   4.752   2.435
    1TCM    cl1 2229   2.352   4.622   2.556
    1TCM    cl2 2230   2.349   4.910   2.517
    1TCM     h1 2231   2.431   4.744   2.366
    1TCM    cl3 2232   2.193   4.738   2.342
    1TCM     c1 2233   2.302   2.634   0.927
    1TCM    cl1 2234   2.352   2.482   0.850
    1TCM    cl2 2235   2.245   2.601   1.092
    1TCM     h1 2236   2.388   2.704   0.930
    1TCM    cl3 2237   2.170   2.707   0.832
    1TCM     c1 2238   2.236   4.709   0.489
    1TCM    cl1 2239   2.254   4.554   0.403
    1TCM    cl2 2240   2.226   4.678   0.664
    1TCM     h1 2241   2.324   4.773   0.468
    1TCM    cl3 2242   2.088   4.790   0.435
    1TCM     c1 2243   3.635   1.107   2.374
    1TCM    cl1 2244   3.597   1.250   2.473
    1TCM    cl2 2245   3.811   1.094   2.354
    1TCM     h1 2246   3.596   1.016   2.425
    1TCM    cl3 2247   3.558   1.122   2.215
    1TCM     c1 2248   3.730   4.022   0.840
    1TCM    cl1 2249   3.883   4.000   0.926
    1TCM    cl2 2250   3.745   3.958   0.674
    1TCM     h1 2251   3.649   3.968   0.893
    1TCM    cl3 2252   3.690   4.195   0.832
    1TCM     c1 2253   1.720   4.290   2.214
    1TCM    cl1 2254   1.774   4.404   2.088
    1TCM    cl2 2255   1.731   4.124   2.151
    1TCM     h1 2256   1.786   4.300   2.303
    1TCM    cl3 2257   1.553   4.326   2.259
    1TCM     c1 2258   4.995   2.843   3.029
    1TCM    cl1 2259   5.129   2.922   2.943
    1TCM    cl2 2260   4.976   2.918   3.189
    1TCM     h1 2261   4.902   2.855   2.970
    1TCM    cl3 2262   5.031   2.670   3.048
    1TCM     c1 2263   1.614   1.301   2.272
    1TCM    cl1 2264   1.464   1.326   2.178
    1TCM    cl2 2265   1.574   1.230   2.430
    1TCM     h1 2266   1.681   1.233   2.216
    1TCM    cl3 2267   1.695   1.458   2.296
    1TCM     c1 2268   0.155   0.514   1.499
    1TCM    cl1 2269   0.255   0.632   1.586
    1TCM    cl2 2270   0.044   0.600   1.390
    1TCM     h1 2271   0.220   0.447   1.440
    1TCM    cl3 2272   0.061   0.418   1.616
    1TCM     c1 2273   1.080   4.335   0.289
    1TCM    cl1 2274   1.089   4.294   0.116
    1TCM    cl2 2275   1.122   4.193   0.386
    1TCM     h1 2276   1.151   4.418   0.311
    1TCM    cl3 2277   0.915   4.387   0.328
    1TCM     c1 2278   3.073   2.653   0.965
    1TCM    cl1 2279   3.174   2.729   1.090
    1TCM    cl2 2280   2.948   2.552   1.043
    1TCM     h1 2281   3.024   2.731   0.904
    1TCM    cl3 2282   3.175   2.550   0.861
    1TCM     c1 2283   0.533   2.022   2.589
    1TCM    cl1 2284   0.424   2.041   2.728
    1TCM    cl2 2285   0.702   2.022   2.646
    1TCM     h1 2286   0.512   1.926   2.537
    1TCM    cl3 2287   0.509   2.158   2.476
    1TCM     c1 2288   2.620   0.778   4.998
    1TCM    cl1 2289   2.629   0.830   4.829
    1TCM    cl2 2290   2.745   0.863   5.093
    1TCM     h1 2291   2.520   0.803   5.040
    1TCM    cl3 2292   2.647   0.603   5.008
    1TCM     c1 2293   0.437   4.304   4.223
    1TCM    cl1 2294   0.532   4.442   4.163
    1TCM    cl2 2295   0.266   4.352   4.236
    1TCM     h1 2296   0.446   4.219   4.153
    1TCM    cl3 2297   0.497   4.256   4.383
    1TCM     c1 2298   5.048   3.991   1.542
    1TCM    cl1 2299   5.047   4.046   1.711
    1TCM    cl2 2300   5.036   3.814   1.537
    1TCM     h1 2301   4.961   4.036   1.488
    1TCM    cl3 2302   5.199   4.043   1.464
    1TCM     c1 2303   2.619   2.312   0.479
    1TCM    cl1 2304   2.553   2.226   0.619
    1TCM    cl2 2305   2.519   2.278   0.335
    1TCM     h1 2306   2.618   2.421   0.498
    1TCM    cl3 2307   2.786   2.259   0.449
    1TCM     c1 2308   3.338   2.470   2.214
    1TCM    cl1 2309   3.276   2.595   2.103
    1TCM    cl2 2310   3.368   2.542   2.374
    1TCM     h1 2311   3.263   2.389   2.223
    1TCM    cl3 2312   3.490   2.404   2.149
    1TCM     c1 2313   4.062   1.287   5.206
    1TCM    cl1 2314   4.093   1.418   5.321
    1TCM    cl2 2315   3.887   1.279   5.171
    1TCM     h1 2316   4.117   1.306   5.112
    1TCM    cl3 2317   4.115   1.132   5.276
    1TCM     c1 2318   1.202   2.098   4.508
    1TCM    cl1 2319   1.319   2.104   4.373
    1TCM    cl2 2320   1.276   2.171   4.653
    1TCM     h1 2321   1.111   2.155   4.480
    1TCM    cl3 2322   1.159   1.929   4.542
    1TCM     c1 2323   0.446   0.378   2.158
    1TCM    cl1 2324   0.506   0.541   2.198
    1TCM    cl2 2325   0.576   0.259   2.185
    1TCM     h1 2326   0.359   0.354   2.222
    1TCM    cl3 2327   0.397   0.374   1.987
    1TCM     c1 2328   3.880   0.421   1.109
    1TCM    cl1 2329   3.732   0.475   1.191
    1TCM    cl2 2330   3.852   0.415   0.934
    1TCM     h1 2331   3.963   0.491   1.131
    1TCM    cl3 2332   3.924   0.258   1.167
    1TCM     c1 2333   3.176   2.261   3.628
    1TCM    cl1 2334   3.136   2.088   3.646
    1TCM    cl2 2335   3.169   2.306   3.457
    1TCM     h1 2336   3.103   2.322   3.685
    1TCM    cl3 2337   3.339   2.291   3.691
    1TCM     c1 2338   3.730   2.897   3.566
    1TCM    cl1 2339   3.898   2.875   3.618
    1TCM    cl2 2340   3.651   2.738   3.553
    1TCM     h1 2341   3.676   2.959   3.641
    1TCM    cl3 2342   3.726   2.978   3.408
    1TCM     c1 2343   3.234   4.457   1.842
    1TCM    cl1 2344   3.343   4.363   1.738
    1TCM    cl2 2345   3.220   4.623   1.778
    1TCM     h1 2346   3.133   4.410   1.843
    1TCM    cl3 2347   3.299   4.463   2.007
    1TCM     c1 2348   0.818   1.309   4.133
    1TCM    cl1 2349   0.807   1.209   4.280
    1TCM    cl2 2350   0.864   1.207   3.995
    1TCM     h1 2351   0.719   1.356   4.113
    1TCM    cl3 2352   0.940   1.435   4.157
    1TCM     c1 2353   0.386   1.865   1.646
    1TCM    cl1 2354   0.303   2.008   1.709
    1TCM    cl2 2355   0.430   1.757   1.781
    1TCM     h1 2356   0.319   1.811   1.576
    1TCM    cl3 2357   0.533   1.915   1.560
    1TCM     c1 2358   0.134   2.928   1.361
    1TCM    cl1 2359   0.007   2.814   1.411
    1TCM    cl2 2360   0.255   2.942   1.491
    1TCM     h1 2361   0.183   2.890   1.269
    1TCM    cl3 2362   0.062   3.087   1.329
    1TCM     c1 2363   0.897   3.584   0.084
    1TCM    cl1 2364   0.838   3.749   0.052
    1TCM    cl2 2365   1.064   3.569   0.023
    1TCM     h1 2366   0.895   3.565   0.193
    1TCM    cl3 2367   0.793   3.467   0.000
    1TCM     c1 2368   3.634   1.376   1.505
    1TCM    cl1 2369   3.729   1.270   1.398
    1TCM    cl2 2370   3.642   1.315   1.672
    1TCM     h1 2371   3.675   1.479   1.501
    1TCM    cl3 2372   3.464   1.378   1.451
    1TCM     c1 2373   3.481   1.707   4.737
    1TCM    cl1 2374   3.474   1.542   4.802
    1TCM    cl2 2375   3.637   1.732   4.655
    1TCM     h1 2376   3.398   1.722   4.664
    1TCM    cl3 2377   3.464   1.824   4.870
    1TCM     c1 2378   0.707   3.978   4.299
    1TCM    cl1 2379   0.587   3.998   4.428
    1TCM    cl2 2380   0.868   4.022   4.360
    1TCM     h1 2381   0.708   3.872   4.265
    1TCM    cl3 2382   0.666   4.083   4.162
    1TCM     c1 2383   3.623   3.203   5.169
    1TCM    cl1 2384   3.456   3.254   5.137
    1TCM    cl2 2385   3.629   3.111   5.321
    1TCM     h1 2386   3.659   3.139   5.086
    1TCM    cl3 2387   3.728   3.346   5.183
    1TCM     c1 2388   0.978   2.730   1.569
    1TCM    cl1 2389   0.925   2.799   1.414
    1TCM    cl2 2390   1.041   2.860   1.672
    1TCM     h1 2391   0.891   2.682   1.620
    1TCM    cl3 2392   1.105   2.609   1.541
    1TCM     c1 2393   4.414   5.064   5.214
    1TCM    cl1 2394   4.462   5.234   5.190
    1TCM    cl2 2395   4.432   4.975   5.062
    1TCM     h1 2396   4.478   5.018   5.292
    1TCM    cl3 2397   4.244   5.058   5.266
    1TCM     c1 2398   4.376   1.133   0.361
    1TCM    cl1 2399   4.280   0.983   0.360
    1TCM    cl2 2400   4.293   1.257   0.264
    1TCM     h1 2401   4.387   1.169   0.465
    1TCM    cl3 2402   4.537   1.102   0.291
    1TCM     c1 2403   3.120   0.839   3.502
    1TCM    cl1 2404   2.970   0.861   3.408
    1TCM    cl2 2405   3.159   0.666   3.512
    1TCM     h1 2406   3.203   0.893   3.452
    1TCM    cl3 2407   3.097   0.904   3.665
    1TCM     c1 2408   4.328   1.429   4.882
    1TCM    cl1 2409   4.165   1.370   4.842
    1TCM    cl2 2410   4.428   1.432   4.735
    1TCM     h1 2411   4.322   1.531   4.925
    1TCM    cl3 2412   4.403   1.319   5.002
    1TCM     c1 2413   4.760   2.145   3.813
    1TCM    cl1 2414   4.870   2.265   3.742
    1TCM    cl2 2415   4.742   2.177   3.987
    1TCM     h1 2416   4.661   2.152   3.763
    1TCM    cl3 2417   4.827   1.982   3.790
    1TCM     c1 2418   3.372   0.756   3.832
    1TCM    cl1 2419   3.492   0.637   3.885
    1TCM    cl2 2420   3.233   0.672   3.760
    1TCM     h1 2421   3.338   0.816   3.919
    1TCM    cl3 2422   3.444   0.864   3.710
    1TCM     c1 2423   3.830   3.824   1.654
    1TCM    cl1 2424   3.898   3.696   1.552
    1TCM    cl2 2425   3.761   3.952   1.551
    1TCM     h1 2426   3.750   3.782   1.719
    1TCM    cl3 2427   3.958   3.894   1.756
    1TCM     c1 2428   0.556   0.156   1.383
    1TCM    cl1 2429   0.582   0.132   1.557
    1TCM    cl2 2430   0.690   0.250   1.315
    1TCM     h1 2431   0.550   0.058   1.332
    1TCM    cl3 2432   0.403   0.244   1.359
    1TCM     c1 2433   2.185   3.958   3.681
    1TCM    cl1 2434   2.021   4.016   3.720
    1TCM    cl2 2435   2.215   3.804   3.765
    1TCM     h1 2436   2.194   3.943   3.572
    1TCM    cl3 2437   2.305   4.079   3.734
    1TCM     c1 2438   4.536   3.963   1.360
    1TCM    cl1 2439   4.399   4.069   1.396
    1TCM    cl2 2440   4.508   3.880   1.205
    1TCM     h1 2441   4.629   4.023   1.354
    1TCM    cl3 2442   4.553   3.842   1.489
    1TCM     c1 2443   3.132   4.368   4.589
    1TCM    cl1 2444   3.089   4.530   4.646
    1TCM    cl2 2445   3.146   4.258   4.728
    1TCM     h1 2446   3.053   4.331   4.521
    1TCM    cl3 2447   3.287   4.374   4.503
    1TCM     c1 2448   2.066   1.848   4.798
    1TCM    cl1 2449   2.201   1.848   4.914
    1TCM    cl2 2450   2.128   1.823   4.634
    1TCM     h1 2451   1.995   1.766   4.824
    1TCM    cl3 2452   1.981   2.004   4.806
    1TCM     c1 2453   1.565   3.466   2.068
    1TCM    cl1 2454   1.393   3.422   2.056
    1TCM    cl2 2455   1.657   3.328   2.131
    1TCM     h1 2456   1.604   3.493   1.968
    1TCM    cl3 2457   1.583   3.604   2.178
    1TCM     c1 2458   1.843   0.140   1.552
    1TCM    cl1 2459   1.795   0.074   1.394
    1TCM    cl2 2460   1.810   0.020   1.679
    1TCM     h1 2461   1.951   0.164   1.551
    1TCM    cl3 2462   1.750   0.288   1.585
    1TCM     c1 2463   4.241   4.354   3.746
    1TCM    cl1 2464   4.390   4.261   3.719
    1TCM    cl2 2465   4.248   4.430   3.907
    1TCM     h1 2466   4.232   4.432   3.668
    1TCM    cl3 2467   4.101   4.245   3.738
    1TCM     c1 2468   0.933   0.983   3.794
    1TCM    cl1 2469   0.791   0.955   3.897
    1TCM    cl2 2470   0.880   1.019   3.628
    1TCM     h1 2471   0.991   1.069   3.833
    1TCM    cl3 2472   1.035   0.837   3.793
    1TCM     c1 2473   1.699   4.456   0.741
    1TCM    cl1 2474   1.682   4.444   0.564
    1TCM    cl2 2475   1.872   4.456   0.783
    1TCM     h1 2476   1.653   4.550   0.777
    1TCM    cl3 2477   1.620   4.317   0.818
    1TCM     c1 2478   3.301   0.408   0.134
    1TCM    cl1 2479   3.312   0.240   0.078
    1TCM    cl2 2480   3.405   0.430   0.277
    1TCM     h1 2481   3.334   0.476   0.053
    1TCM    cl3 2482   3.132   0.445   0.177
    1TCM     c1 2483   3.843   0.956   3.316
    1TCM    cl1 2484   3.778   1.082   3.423
    1TCM    cl2 2485   3.883   1.028   3.158
    1TCM     h1 2486   3.935   0.913   3.361
    1TCM    cl3 2487   3.722   0.828   3.294
    1TCM     c1 2488   0.198   4.601   3.995
    1TCM    cl1 2489   0.198   4.673   3.832
    1TCM    cl2 2490   0.059   4.490   4.010
    1TCM     h1 2491   0.292   4.544   4.010
    1TCM    cl3 2492   0.185   4.729   4.117
    1TCM     c1 2493   4.478   1.664   5.228
    1TCM    cl1 2494   4.527   1.493   5.225
    1TCM    cl2 2495   4.486   1.732   5.064
    1TCM     h1 2496   4.374   1.672   5.267
    1TCM    cl3 2497   4.587   1.755   5.335
    1TCM     c1 2498   0.389   0.656   2.764
    1TCM    cl1 2499   0.237   0.621   2.679
    1TCM    cl2 2500   0.512   0.707   2.646
    1TCM     h1 2501   0.372   0.737   2.838
    1TCM    cl3 2502   0.445   0.510   2.849
    1TCM     c1 2503   0.485   2.123   2.110
    1TCM    cl1 2504   0.542   2.211   1.967
    1TCM    cl2 2505   0.578   2.174   2.253
    1TCM     h1 2506   0.377   2.145   2.127
    1TCM    cl3 2507   0.507   1.948   2.085
    1TCM     c1 2508   3.726   2.181   1.690
    1TCM    cl1 2509   3.630   2.331   1.687
    1TCM    cl2 2510   3.644   2.061   1.792
    1TCM     h1 2511   3.736   2.141   1.587
    1TCM    cl3 2512   3.887   2.215   1.757
    1TCM     c1 2513   2.678   0.969   4.349
    1TCM    cl1 2514   2.631   0.967   4.178
    1TCM    cl2 2515   2.686   1.137   4.407
    1TCM     h1 2516   2.602   0.913   4.409
    1TCM    cl3 2517   2.837   0.891   4.368
    1TCM     c1 2518   4.637   2.526   4.945
    1TCM    cl1 2519   4.628   2.470   4.777
    1TCM    cl2 2520   4.675   2.700   4.948
    1TCM     h1 2521   4.540   2.509   4.996
    1TCM    cl3 2522   4.764   2.436   5.031
    1TCM     c1 2523   3.808   0.756   2.833
    1TCM    cl1 2524   3.956   0.820   2.759
    1TCM    cl2 2525   3.786   0.829   2.994
    1TCM     h1 2526   3.721   0.780   2.769
    1TCM    cl3 2527   3.822   0.580   2.850
    1TCM     c1 2528   3.291   2.082   3.322
    1TCM    cl1 2529   3.119   2.071   3.365
    1TCM    cl2 2530   3.347   1.926   3.258
    1TCM     h1 2531   3.305   2.161   3.245
    1TCM    cl3 2532   3.386   2.124   3.467
    1TCM     c1 2533   3.878   1.664   1.457
    1TCM    cl1 2534   3.783   1.640   1.606
    1TCM    cl2 2535   3.824   1.814   1.377
    1TCM     h1 2536   3.985   1.673   1.483
    1TCM    cl3 2537   3.854   1.526   1.348
    1TCM     c1 2538   0.472   3.418   1.672
    1TCM    cl1 2539   0.554   3.268   1.622
    1TCM    cl2 2540   0.366   3.473   1.540
    1TCM     h1 2541   0.411   3.399   1.762
    1TCM    cl3 2542   0.593   3.543   1.707
    1TCM     c1 2543   2.478   3.783   4.615
    1TCM    cl1 2544   2.580   3.697   4.497
    1TCM    cl2 2545   2.501   3.711   4.776
    1TCM     h1 2546   2.507   3.890   4.617
    1TCM    cl3 2547   2.307   3.768   4.567
    1TCM     c1 2548   1.930   1.539   1.948
    1TCM    cl1 2549   1.765   1.604   1.957
    1TCM    cl2 2550   1.932   1.396   1.843
    1TCM     h1 2551   1.997   1.617   1.905
    1TCM    cl3 2552   1.986   1.494   2.110
    1TCM     c1 2553   4.566   2.536   0.320
    1TCM    cl1 2554   4.633   2.392   0.240
    1TCM    cl2 2555   4.405   2.572   0.253
    1TCM     h1 2556   4.557   2.517   0.429
    1TCM    cl3 2557   4.674   2.674   0.293
    1TCM     c1 2558   3.105   4.584   3.563
    1TCM    cl1 2559   3.067   4.444   3.667
    1TCM    cl2 2560   2.997   4.582   3.421
    1TCM     h1 2561   3.089   4.678   3.621
    1TCM    cl3 2562   3.274   4.575   3.510
    1TCM     c1 2563   5.067   3.864   5.212
    1TCM    cl1 2564   5.024   3.963   5.071
    1TCM    cl2 2565   5.071   3.693   5.165
    1TCM     h1 2566   5.166   3.895   5.250
    1TCM    cl3 2567   4.945   3.888   5.339
    1TCM     c1 2568   1.214   2.663   3.359
    1TCM    cl1 2569   1.346   2.665   3.239
    1TCM    cl2 2570   1.082   2.561   3.299
    1TCM     h1 2571   1.252   2.622   3.455
    1TCM    cl3 2572   1.155   2.829   3.384
    1TCM     c1 2573   2.528   2.781   1.358
    1TCM    cl1 2574   2.701   2.781   1.402
    1TCM    cl2 2575   2.431   2.746   1.502
    1TCM     h1 2576   2.500   2.880   1.318
    1TCM    cl3 2577   2.499   2.656   1.235
    1TCM     c1 2578   0.105   3.531   3.556
    1TCM    cl1 2579   0.275   3.536   3.503
    1TCM    cl2 2580   0.049   3.696   3.592
    1TCM     h1 2581   0.042   3.488   3.474
    1TCM    cl3 2582   0.090   3.430   3.701
    1TCM     c1 2583   2.546   4.828   3.331
    1TCM    cl1 2584   2.475   4.696   3.426
    1TCM    cl2 2585   2.495   4.814   3.162
    1TCM     h1 2586   2.512   4.926   3.372
    1TCM    cl3 2587   2.724   4.819   3.341
    1TCM     c1 2588   5.015   2.715   4.196
    1TCM    cl1 2589   5.074   2.629   4.341
    1TCM    cl2 2590   5.050   2.888   4.212
    1TCM     h1 2591   5.065   2.674   4.106
    1TCM    cl3 2592   4.839   2.691   4.181
    1TCM     c1 2593   2.610   2.273   3.588
    1TCM    cl1 2594   2.586   2.396   3.713
    1TCM    cl2 2595   2.659   2.351   3.436
    1TCM     h1 2596   2.689   2.202   3.620
    1TCM    cl3 2597   2.458   2.184   3.562
    1TCM     c1 2598   1.953   0.964   3.988
    1TCM    cl1 2599   1.878   1.059   3.858
    1TCM    cl2 2600   1.861   0.985   4.138
    1TCM     h1 2601   1.954   0.856   3.959
    1TCM    cl3 2602   2.120   1.019   4.013
    1TCM     c1 2603   0.942   0.382   0.897
    1TCM    cl1 2604   1.038   0.237   0.933
    1TCM    cl2 2605   0.784   0.370   0.978
    1TCM     h1 2606   0.995   0.472   0.934
    1TCM    cl3 2607   0.917   0.395   0.722
    1TCM     c1 2608   4.173   1.429   3.687
    1TCM    cl1 2609   4.079   1.320   3.582
    1TCM    cl2 2610   4.066   1.556   3.751
    1TCM     h1 2611   4.217   1.371   3.771
    1TCM    cl3 2612   4.304   1.504   3.592
    1TCM     c1 2613   3.239   4.894   3.390
    1TCM    cl1 2614   3.354   5.028   3.375
    1TCM    cl2 2615   3.076   4.950   3.345
    1TCM     h1 2616   3.269   4.811   3.323
    1TCM    cl3 2617   3.237   4.836   3.558
    1TCM     c1 2618   2.227   2.551   3.116
    1TCM    cl1 2619   2.340   2.689   3.111
    1TCM    cl2 2620   2.167   2.530   3.282
    1TCM     h1 2621   2.142   2.571   3.048
    1TCM    cl3 2622   2.312   2.404   3.064
    1TCM     c1 2623   1.555   0.657   5.184
    1TCM    cl1 2624   1.546   0.776   5.053
    1TCM    cl2 2625   1.429   0.533   5.160
    1TCM     h1 2626   1.655   0.609   5.185
    1TCM    cl3 2627   1.528   0.738   5.340
    1TCM     c1 2628   2.224   4.396   4.454
    1TCM    cl1 2629   2.220   4.542   4.352
    1TCM    cl2 2630   2.181   4.440   4.621
    1TCM     h1 2631   2.152   4.322   4.415
    1TCM    cl3 2632   2.388   4.327   4.452
    1TCM     c1 2633   0.797   3.751   5.063
    1TCM    cl1 2634   0.822   3.911   5.136
    1TCM    cl2 2635   0.808   3.764   4.886
    1TCM     h1 2636   0.875   3.681   5.100
    1TCM    cl3 2637   0.636   3.690   5.108
    1TCM     c1 2638   5.106   3.065   1.887
    1TCM    cl1 2639   5.270   3.013   1.931
    1TCM    cl2 2640   5.001   3.058   2.031
    1TCM     h1 2641   5.109   3.169   1.849
    1TCM    cl3 2642   5.041   2.958   1.761
    1TCM     c1 2643   3.332   1.231   3.607
    1TCM    cl1 2644   3.222   1.092   3.627
    1TCM    cl2 2645   3.440   1.201   3.469
    1TCM     h1 2646   3.272   1.322   3.588
    1TCM    cl3 2647   3.428   1.252   3.754
    1TCM     c1 2648   1.542   0.116   1.309
    1TCM    cl1 2649   1.569   0.003   1.174
    1TCM    cl2 2650   1.646   0.259   1.288
    1TCM     h1 2651   1.436   0.147   1.311
    1TCM    cl3 2652   1.583   0.035   1.462
    1TCM     c1 2653   2.785   2.923   3.898
    1TCM    cl1 2654   2.701   2.990   3.756
    1TCM    cl2 2655   2.665   2.859   4.013
    1TCM     h1 2656   2.852   2.841   3.865
    1TCM    cl3 2657   2.881   3.050   3.977
    1TCM     c1 2658   5.119   3.346   1.256
    1TCM    cl1 2659   4.990   3.224   1.268
    1TCM    cl2 2660   5.245   3.287   1.145
    1TCM     h1 2661   5.076   3.441   1.216
    1TCM    cl3 2662   5.189   3.375   1.416
    1TCM     c1 2663   1.903   0.285   0.206
    1TCM    cl1 2664   1.863   0.114   0.178
    1TCM    cl2 2665   2.065   0.297   0.277
    1TCM     h1 2666   1.900   0.340   0.110
    1TCM    cl3 2667   1.784   0.356   0.318
    1TCM     c1 2668   1.342   1.844   3.024
    1TCM    cl1 2669   1.504   1.776   3.000
    1TCM    cl2 2670   1.354   1.997   3.115
    1TCM     h1 2671   1.295   1.864   2.925
    1TCM    cl3 2672   1.242   1.729   3.115
    1TCM     c1 2673   2.693   3.843   2.494
    1TCM    cl1 2674   2.667   3.998   2.411
    1TCM    cl2 2675   2.666   3.864   2.669
    1TCM     h1 2676   2.622   3.767   2.454
    1TCM    cl3 2677   2.860   3.788   2.466
    1TCM     c1 2678   1.530   0.615   2.944
    1TCM    cl1 2679   1.509   0.687   2.783
    1TCM    cl2 2680   1.429   0.470   2.958
    1TCM     h1 2681   1.637   0.588   2.959
    1TCM    cl3 2682   1.482   0.734   3.068
    1TCM     c1 2683   5.127   4.981   2.807
    1TCM    cl1 2684   5.041   4.858   2.903
    1TCM    cl2 2685   5.062   4.981   2.641
    1TCM     h1 2686   5.112   5.081   2.852
    1TCM    cl3 2687   5.300   4.942   2.803
    1TCM     c1 2688   2.656   3.862   3.234
    1TCM    cl1 2689   2.597   4.001   3.139
    1TCM    cl2 2690   2.643   3.714   3.136
    1TCM     h1 2691   2.762   3.879   3.262
    1TCM    cl3 2692   2.557   3.845   3.381
    1TCM     c1 2693   5.025   5.064   0.220
    1TCM    cl1 2694   4.998   5.015   0.051
    1TCM    cl2 2695   5.089   4.927   0.313
    1TCM     h1 2696   5.097   5.148   0.223
    1TCM    cl3 2697   4.871   5.117   0.291
    1TCM     c1 2698   1.556   4.038   5.176
    1TCM    cl1 2699   1.463   4.088   5.033
    1TCM    cl2 2700   1.465   3.914   5.265
    1TCM     h1 2701   1.654   3.996   5.144
    1TCM    cl3 2702   1.583   4.179   5.281
    1TCM     c1 2703   0.504   2.075   3.548
    1TCM    cl1 2704   0.596   2.142   3.684
    1TCM    cl2 2705   0.540   2.167   3.400
    1TCM     h1 2706   0.531   1.968   3.533
    1TCM    cl3 2707   0.330   2.086   3.583
    1TCM     c1 2708   4.565   0.433   4.788
    1TCM    cl1 2709   4.542   0.320   4.923
    1TCM    cl2 2710   4.710   0.531   4.817
    1TCM     h1 2711   4.578   0.375   4.694
    1TCM    cl3 2712   4.424   0.539   4.773
    1TCM     c1 2713   4.316   2.430   2.536
    1TCM    cl1 2714   4.259   2.286   2.449
    1TCM    cl2 2715   4.466   2.489   2.460
    1TCM     h1 2716   4.239   2.509   2.532
    1TCM    cl3 2717   4.349   2.388   2.706
    1TCM     c1 2718   3.495   4.651   1.622
    1TCM    cl1 2719   3.438   4.801   1.700
    1TCM    cl2 2720   3.378   4.601   1.499
    1TCM     h1 2721   3.593   4.670   1.575
    1TCM    cl3 2722   3.511   4.523   1.745
    1TCM     c1 2723   5.200   5.181   0.748
    1TCM    cl1 2724   5.248   5.106   0.902
    1TCM    cl2 2725   5.340   5.261   0.675
    1TCM     h1 2726   5.162   5.102   0.679
    1TCM    cl3 2727   5.071   5.300   0.777
    1TCM     c1 2728   4.000   5.140   0.289
    1TCM    cl1 2729   3.901   5.250   0.389
    1TCM    cl2 2730   3.975   5.179   0.117
    1TCM     h1 2731   4.107   5.153   0.315
    1TCM    cl3 2732   3.950   4.972   0.320
    1TCM     c1 2733   0.716   5.084   2.555
    1TCM    cl1 2734   0.650   5.175   2.417
    1TCM    cl2 2735   0.792   4.935   2.496
    1TCM     h1 2736   0.791   5.146   2.608
    1TCM    cl3 2737   0.584   5.043   2.667
    1TCM     c1 2738   2.878   5.127   4.390
    1TCM    cl1 2739   2.733   5.122   4.287
    1TCM    cl2 2740   2.831   5.091   4.558
    1TCM     h1 2741   2.951   5.051   4.355
    1TCM    cl3 2742   2.951   5.289   4.382
    1TCM     c1 2743   4.420   4.198   1.860
    1TCM    cl1 2744   4.467   4.051   1.948
    1TCM    cl2 2745   4.382   4.157   1.691
    1TCM     h1 2746   4.331   4.243   1.908
    1TCM    cl3 2747   4.555   4.314   1.863
    1TCM     c1 2748   3.304   3.700   4.829
    1TCM    cl1 2749   3.402   3.776   4.956
    1TCM    cl2 2750   3.400   3.686   4.680
    1TCM     h1 2751   3.272   3.599   4.862
    1TCM    cl3 2752   3.160   3.800   4.797
    1TCM     c1 2753   2.745   0.502   4.356
    1TCM    cl1 2754   2.813   0.640   4.267
    1TCM    cl2 2755   2.717   0.549   4.525
    1TCM     h1 2756   2.649   0.471   4.310
    1TCM    cl3 2757   2.860   0.366   4.351
    1TCM     c1 2758   3.368   3.347   1.830
    1TCM    cl1 2759   3.448   3.198   1.776
    1TCM    cl2 2760   3.391   3.367   2.006
    1TCM     h1 2761   3.412   3.434   1.777
    1TCM    cl3 2762   3.194   3.338   1.794
    1TCM     c1 2763   0.151   3.039   3.535
    1TCM    cl1 2764   0.285   2.945   3.605
    1TCM    cl2 2765   0.135   3.193   3.622
    1TCM     h1 2766   0.172   3.059   3.428
    1TCM    cl3 2767   0.000   2.946   3.550
    1TCM     c1 2768   1.521   3.845   3.107
    1TCM    cl1 2769   1.385   3.731   3.090
    1TCM    cl2 2770   1.574   3.849   3.277
    1TCM     h1 2771   1.606   3.811   3.044
    1TCM    cl3 2772   1.470   4.007   3.056
    1TCM     c1 2773   2.839   4.250   1.800
    1TCM    cl1 2774   2.691   4.255   1.701
    1TCM    cl2 2775   2.978   4.211   1.696
    1TCM     h1 2776   2.855   4.348   1.848
    1TCM    cl3 2777   2.822   4.124   1.925
    1TCM     c1 2778   5.155   1.669   2.974
    1TCM    cl1 2779   5.237   1.513   2.989
    1TCM    cl2 2780   5.005   1.667   3.070
    1TCM     h1 2781   5.221   1.750   3.011
    1TCM    cl3 2782   5.114   1.700   2.803
    1TCM     c1 2783   4.436   3.435   3.068
    1TCM    cl1 2784   4.586   3.354   3.015
    1TCM    cl2 2785   4.458   3.496   3.234
    1TCM     h1 2786   4.414   3.520   3.000
    1TCM    cl3 2787   4.302   3.319   3.065
    1TCM     c1 2788   2.752   4.907   2.686
    1TCM    cl1 2789   2.578   4.908   2.649
    1TCM    cl2 2790   2.844   4.898   2.534
    1TCM     h1 2791   2.779   5.001   2.740
    1TCM    cl3 2792   2.791   4.767   2.788
    1TCM     c1 2793   2.957   3.257   2.395
    1TCM    cl1 2794   2.991   3.393   2.286
    1TCM    cl2 2795   3.080   3.253   2.524
    1TCM     h1 2796   2.857   3.269   2.440
    1TCM    cl3 2797   2.964   3.104   2.304
    1TCM     c1 2798   1.950   3.505   4.167
    1TCM    cl1 2799   1.965   3.456   3.997
    1TCM    cl2 2800   1.839   3.394   4.251
    1TCM     h1 2801   2.050   3.500   4.216
    1TCM    cl3 2802   1.887   3.670   4.176
    1TCM     c1 2803   4.909   1.876   0.575
    1TCM    cl1 2804   4.873   1.998   0.699
    1TCM    cl2 2805   4.841   1.928   0.419
    1TCM     h1 2806   5.018   1.864   0.566
    1TCM    cl3 2807   4.836   1.721   0.623
    1TCM     c1 2808   2.105   3.036   2.099
    1TCM    cl1 2809   2.209   3.178   2.116
    1TCM    cl2 2810   2.200   2.901   2.033
    1TCM     h1 2811   2.064   3.007   2.198
    1TCM    cl3 2812   1.971   3.073   1.989
    1TCM     c1 2813   2.002   0.937   4.958
    1TCM    cl1 2814   2.132   1.000   5.062
    1TCM    cl2 2815   2.034   0.984   4.790
    1TCM     h1 2816   1.999   0.826   4.966
    1TCM    cl3 2817   1.847   1.004   5.011
    1TCM     c1 2818   0.293   5.063   3.993
    1TCM    cl1 2819   0.310   5.207   3.891
    1TCM    cl2 2820   0.451   4.984   4.011
    1TCM     h1 2821   0.255   5.092   4.093
    1TCM    cl3 2822   0.179   4.950   3.917
    1TCM     c1 2823   1.676   4.488   1.740
    1TCM    cl1 2824   1.586   4.348   1.802
    1TCM    cl2 2825   1.635   4.512   1.568
    1TCM     h1 2826   1.648   4.578   1.797
    1TCM    cl3 2827   1.850   4.458   1.756
    1TCM     c1 2828   4.863   1.071   4.238
    1TCM    cl1 2829   4.985   1.015   4.122
    1TCM    cl2 2830   4.928   1.209   4.330
    1TCM     h1 2831   4.772   1.104   4.183
    1TCM    cl3 2832   4.821   0.939   4.349
    1TCM     c1 2833   2.372   3.217   0.284
    1TCM    cl1 2834   2.438   3.321   0.156
    1TCM    cl2 2835   2.205   3.173   0.245
    1TCM     h1 2836   2.434   3.125   0.292
    1TCM    cl3 2837   2.376   3.305   0.439
    1TCM     c1 2838   2.668   4.192   1.384
    1TCM    cl1 2839   2.519   4.286   1.413
    1TCM    cl2 2840   2.779   4.286   1.283
    1TCM     h1 2841   2.716   4.169   1.481
    1TCM    cl3 2842   2.626   4.040   1.301
    1TCM     c1 2843   1.618   0.860   4.011
    1TCM    cl1 2844   1.745   0.868   3.887
    1TCM    cl2 2845   1.521   1.009   4.005
    1TCM     h1 2846   1.553   0.773   3.993
    1TCM    cl3 2847   1.694   0.845   4.172
    1TCM     c1 2848   1.613   1.111   2.836
    1TCM    cl1 2849   1.537   1.190   2.695
    1TCM    cl2 2850   1.554   1.186   2.985
    1TCM     h1 2851   1.587   1.003   2.836
    1TCM    cl3 2852   1.790   1.130   2.826
    1TCM     c1 2853   2.030   3.184   3.491
    1TCM    cl1 2854   2.027   3.341   3.574
    1TCM    cl2 2855   2.061   3.210   3.318
    1TCM     h1 2856   2.110   3.121   3.534
    1TCM    cl3 2857   1.873   3.103   3.511
    1TCM     c1 2858   3.822   4.235   3.046
    1TCM    cl1 2859   3.858   4.075   3.116
    1TCM    cl2 2860   3.873   4.361   3.161
    1TCM     h1 2861   3.878   4.247   2.951
    1TCM    cl3 2862   3.648   4.249   3.016
    1TCM     c1 2863   2.715   5.135   0.529
    1TCM    cl1 2864   2.876   5.209   0.534
    1TCM    cl2 2865   2.717   4.981   0.618
    1TCM     h1 2866   2.641   5.203   0.576
    1TCM    cl3 2867   2.669   5.105   0.360
    1TCM     c1 2868   1.677   3.780   4.105
    1TCM    cl1 2869   1.817   3.885   4.138
    1TCM    cl2 2870   1.541   3.879   4.047
    1TCM     h1 2871   1.704   3.705   4.028
    1TCM    cl3 2872   1.630   3.697   4.255
    1TCM     c1 2873   2.385   2.234   1.349
    1TCM    cl1 2874   2.442   2.291   1.507
    1TCM    cl2 2875   2.323   2.372   1.255
    1TCM     h1 2876   2.468   2.186   1.294
    1TCM    cl3 2877   2.254   2.116   1.373
    1TCM     c1 2878   2.099   1.291   2.156
    1TCM    cl1 2879   2.194   1.414   2.070
    1TCM    cl2 2880   2.025   1.363   2.301
    1TCM     h1 2881   2.020   1.251   2.089
    1TCM    cl3 2882   2.207   1.157   2.205
    1TCM     c1 2883   2.359   2.786   0.398
    1TCM    cl1 2884   2.360   2.949   0.468
    1TCM    cl2 2885   2.279   2.790   0.239
    1TCM     h1 2886   2.464   2.751   0.386
    1TCM    cl3 2887   2.271   2.675   0.505
    1TCM     c1 2888   3.582   2.512   4.391
    1TCM    cl1 2889   3.672   2.660   4.427
    1TCM    cl2 2890   3.693   2.390   4.324
    1TCM     h1 2891   3.536   2.473   4.484
    1TCM    cl3 2892   3.454   2.547   4.272
    1TCM     c1 2893   0.779   0.370   2.009
    1TCM    cl1 2894   0.666   0.288   1.899
    1TCM    cl2 2895   0.827   0.259   2.139
    1TCM     h1 2896   0.869   0.402   1.952
    1TCM    cl3 2897   0.700   0.513   2.079
    1TCM     c1 2898   0.081   2.916   3.886
    1TCM    cl1 2899   0.077   3.091   3.916
    1TCM    cl2 2900   0.000   2.831   4.019
    1TCM     h1 2901   0.029   2.893   3.790
    1TCM    cl3 2902   0.250   2.862   3.875
    1TCM     c1 2903   4.298   4.860   0.817
    1TCM    cl1 2904   4.323   4.850   0.993
    1TCM    cl2 2905   4.318   5.029   0.764
    1TCM     h1 2906   4.372   4.796   0.766
    1TCM    cl3 2907   4.134   4.805   0.778
    1TCM     c1 2908   0.312   4.293   1.122
    1TCM    cl1 2909   0.255   4.125   1.123
    1TCM    cl2 2910   0.185   4.398   1.055
    1TCM     h1 2911   0.335   4.325   1.225
    1TCM    cl3 2912   0.458   4.306   1.021
    1TCM     c1 2913   2.212   2.351   3.784
    1TCM    cl1 2914   2.279   2.313   3.623
    1TCM    cl2 2915   2.335   2.318   3.908
    1TCM     h1 2916   2.183   2.458   3.788
    1TCM    cl3 2917   2.069   2.249   3.814
    1TCM     c1 2918   0.592   4.078   1.313
    1TCM    cl1 2919   0.485   4.109   1.174
    1TCM    cl2 2920   0.530   4.164   1.456
    1TCM     h1 2921   0.595   3.969   1.334
    1TCM    cl3 2922   0.756   4.135   1.275
    1TCM     c1 2923   1.374   3.912   0.449
    1TCM    cl1 2924   1.427   3.751   0.394
    1TCM    cl2 2925   1.516   4.009   0.492
    1TCM     h1 2926   1.317   3.962   0.368
    1TCM    cl3 2927   1.269   3.893   0.592
    1TCM     c1 2928   3.187   2.121   2.562
    1TCM    cl1 2929   3.326   2.013   2.542
    1TCM    cl2 2930   3.184   2.239   2.430
    1TCM     h1 2931   3.093   2.062   2.561
    1TCM    cl3 2932   3.201   2.207   2.718
    1TCM     c1 2933   1.919   2.726   2.517
    1TCM    cl1 2934   2.008   2.799   2.653
    1TCM    cl2 2935   1.744   2.739   2.547
    1TCM     h1 2936   1.945   2.778   2.423
    1TCM    cl3 2937   1.963   2.554   2.504
    1TCM     c1 2938   3.421   5.109   2.111
    1TCM    cl1 2939   3.355   5.227   1.995
    1TCM    cl2 2940   3.286   5.024   2.191
    1TCM     h1 2941   3.484   5.036   2.057
    1TCM    cl3 2942   3.518   5.194   2.234
    1TCM     c1 2943   1.019   2.514   4.407
    1TCM    cl1 2944   1.126   2.610   4.512
    1TCM    cl2 2945   1.076   2.523   4.239
    1TCM     h1 2946   1.019   2.409   4.441
    1TCM    cl3 2947   0.854   2.579   4.417
    1TCM     c1 2948   4.619   3.887   4.938
    1TCM    cl1 2949   4.685   3.749   5.029
    1TCM    cl2 2950   4.700   3.898   4.780
    1TCM     h1 2951   4.510   3.873   4.923
    1TCM    cl3 2952   4.648   4.037   5.030
    1TCM     c1 2953   4.923   1.875   4.169
    1TCM    cl1 2954   5.090   1.817   4.190
    1TCM    cl2 2955   4.873   1.850   4.000
    1TCM     h1 2956   4.855   1.820   4.236
    1TCM    cl3 2957   4.916   2.049   4.207
    1TCM     c1 2958   4.136   2.293   2.844
    1TCM    cl1 2959   4.014   2.202   2.936
    1TCM    cl2 2960   4.155   2.220   2.683
    1TCM     h1 2961   4.104   2.398   2.834
    1TCM    cl3 2962   4.291   2.286   2.931
    1TCM     c1 2963   1.479   2.821   5.169
    1TCM    cl1 2964   1.462   2.990   5.221
    1TCM    cl2 2965   1.322   2.738   5.185
    1TCM     h1 2966   1.512   2.818   5.063
    1TCM    cl3 2967   1.600   2.739   5.271
    1TCM     c1 2968   3.671   2.141   3.142
    1TCM    cl1 2969   3.517   2.225   3.117
    1TCM    cl2 2970   3.730   2.173   3.307
    1TCM     h1 2971   3.656   2.032   3.130
    1TCM    cl3 2972   3.791   2.198   3.025
    1TCM     c1 2973   2.759   4.858   1.071
    1TCM    cl1 2974   2.726   5.025   1.122
    1TCM    cl2 2975   2.668   4.822   0.923
    1TCM     h1 2976   2.868   4.846   1.051
    1TCM    cl3 2977   2.710   4.746   1.200
    1TCM     c1 2978   1.669   3.833   0.911
    1TCM    cl1 2979   1.832   3.779   0.957
    1TCM    cl2 2980   1.630   3.772   0.748
    1TCM     h1 2981   1.595   3.794   0.984
    1TCM    cl3 2982   1.664   4.011   0.910
    1TCM     c1 2983   5.075   3.210   5.125
    1TCM    cl1 2984   5.007   3.333   5.235
    1TCM    cl2 2985   4.959   3.076   5.108
    1TCM     h1 2986   5.093   3.256   5.026
    1TCM    cl3 2987   5.227   3.149   5.192
    1TCM     c1 2988   2.946   5.003   3.108
    1TCM    cl1 2989   3.089   5.108   3.098
    1TCM    cl2 2990   2.882   4.974   2.945
    1TCM     h1 2991   2.974   4.907   3.155
    1TCM    cl3 2992   2.821   5.083   3.207
    1TCM     c1 2993   4.777   3.850   3.701
    1TCM    cl1 2994   4.699   3.802   3.853
    1TCM    cl2 2995   4.656   3.851   3.570
    1TCM     h1 2996   4.820   3.952   3.711
    1TCM    cl3 2997   4.906   3.735   3.661
    1TCM     c1 2998   1.660   0.974   3.184
    1TCM    cl1 2999   1.820   1.051   3.186
    1TCM    cl2 3000   1.553   1.054   3.301
    1TCM     h1 3001   1.616   0.982   3.082
    1TCM    cl3 3002   1.676   0.802   3.227
    1TCM     c1 3003   3.337   2.716   4.594
    1TCM    cl1 3004   3.400   2.877   4.637
    1TCM    cl2 3005   3.363   2.687   4.420
    1TCM     h1 3006   3.391   2.639   4.653
    1TCM    cl3 3007   3.163   2.709   4.630
    1TCM     c1 3008   2.392   4.282   0.646
    1TCM    cl1 3009   2.309   4.162   0.544
    1TCM    cl2 3010   2.393   4.225   0.814
    1TCM     h1 3011   2.497   4.295   0.610
    1TCM    cl3 3012   2.307   4.438   0.636
    1TCM     c1 3013   3.247   1.589   0.322
    1TCM    cl1 3014   3.362   1.683   0.224
    1TCM    cl2 3015   3.164   1.471   0.218
    1TCM     h1 3016   3.302   1.535   0.402
    1TCM    cl3 3017   3.128   1.698   0.394
    1TCM     c1 3018   2.375   1.793   4.119
    1TCM    cl1 3019   2.494   1.852   4.236
    1TCM    cl2 3020   2.220   1.761   4.201
    1TCM     h1 3021   2.360   1.869   4.039
    1TCM    cl3 3022   2.434   1.642   4.045
    1TCM     c1 3023   1.304   0.932   2.728
    1TCM    cl1 3024   1.467   0.946   2.659
    1TCM    cl2 3025   1.204   1.068   2.672
    1TCM     h1 3026   1.258   0.836   2.696
    1TCM    cl3 3027   1.315   0.935   2.906
    1TCM     c1 3028   2.823   4.348   5.144
    1TCM    cl1 3029   2.798   4.256   5.294
    1TCM    cl2 3030   2.675   4.342   5.046
    1TCM     h1 3031   2.846   4.454   5.170
    1TCM    cl3 3032   2.958   4.278   5.053
    1TCM     c1 3033   2.314   4.516   1.609
    1TCM    cl1 3034   2.143   4.488   1.648
    1TCM    cl2 3035   2.325   4.604   1.454
    1TCM     h1 3036   2.361   4.576   1.689
    1TCM    cl3 3037   2.398   4.360   1.594
    1TCM     c1 3038   0.987   2.533   5.139
    1TCM    cl1 3039   0.830   2.511   5.219
    1TCM    cl2 3040   1.012   2.402   5.021
    1TCM     h1 3041   0.988   2.631   5.087
    1TCM    cl3 3042   1.117   2.528   5.260
    1TCM     c1 3043   1.707   1.175   1.851
    1TCM    cl1 3044   1.670   1.324   1.762
    1TCM    cl2 3045   1.560   1.076   1.865
    1TCM     h1 3046   1.785   1.117   1.796
    1TCM    cl3 3047   1.768   1.215   2.013
    1TCM     c1 3048   0.556   3.613   3.688
    1TCM    cl1 3049   0.489   3.776   3.716
    1TCM    cl2 3050   0.606   3.598   3.518
    1TCM     h1 3051   0.643   3.598   3.754
    1TCM    cl3 3052   0.432   3.491   3.724
    1TCM     c1 3053   0.302   0.154   3.799
    1TCM    cl1 3054   0.265   0.320   3.749
    1TCM    cl2 3055   0.467   0.111   3.746
    1TCM     h1 3056   0.295   0.146   3.909
    1TCM    cl3 3057   0.186   0.042   3.724
    1TCM     c1 3058   4.267   5.181   3.320
    1TCM    cl1 3059   4.412   5.204   3.420
    1TCM    cl2 3060   4.292   5.043   3.211
    1TCM     h1 3061   4.180   5.161   3.385
    1TCM    cl3 3062   4.237   5.327   3.224
    1TCM     c1 3063   3.249   4.043   1.556
    1TCM    cl1 3064   3.378   4.165   1.574
    1TCM    cl2 3065   3.281   3.906   1.665
    1TCM     h1 3066   3.151   4.089   1.581
    1TCM    cl3 3067   3.246   3.985   1.388
    1TCM     c1 3068   4.621   4.315   3.896
    1TCM    cl1 3069   4.496   4.388   4.000
    1TCM    cl2 3070   4.766   4.282   3.993
    1TCM     h1 3071   4.583   4.221   3.853
    1TCM    cl3 3072   4.661   4.428   3.765
    1TCM     c1 3073   0.968   3.763   0.421
    1TCM    cl1 3074   0.954   3.796   0.247
    1TCM    cl2 3075   0.941   3.914   0.512
    1TCM     h1 3076   0.892   3.688   0.451
    1TCM    cl3 3077   1.130   3.700   0.457
    1TCM     c1 3078   5.124   2.329   5.089
    1TCM    cl1 3079   5.056   2.274   5.244
    1TCM    cl2 3080   5.299   2.359   5.108
    1TCM     h1 3081   5.109   2.251   5.012
    1TCM    cl3 3082   5.044   2.479   5.039
    1TCM     c1 3083   0.981   5.166   2.387
    1TCM    cl1 3084   1.015   5.023   2.486
    1TCM    cl2 3085   1.060   5.149   2.228
    1TCM     h1 3086   0.871   5.176   2.372
    1TCM    cl3 3087   1.043   5.311   2.469
    1TCM     c1 3088   1.074   1.216   4.234
    1TCM    cl1 3089   0.983   1.324   4.342
    1TCM    cl2 3090   1.061   1.275   4.067
    1TCM     h1 3091   1.181   1.215   4.264
    1TCM    cl3 3092   1.007   1.052   4.244
    1TCM     c1 3093   3.918   2.691   4.218
    1TCM    cl1 3094   3.795   2.620   4.111
    1TCM    cl2 3095   3.911   2.612   4.377
    1TCM     h1 3096   4.019   2.677   4.173
    1TCM    cl3 3097   3.886   2.865   4.237
    1TCM     c1 3098   2.306   3.507   5.207
    1TCM    cl1 3099   2.459   3.502   5.118
    1TCM    cl2 3100   2.189   3.396   5.132
    1TCM     h1 3101   2.323   3.476   5.313
    1TCM    cl3 3102   2.240   3.672   5.204
    1TCM     c1 3103   1.292   0.597   0.996
    1TCM    cl1 3104   1.295   0.617   0.819
    1TCM    cl2 3105   1.269   0.755   1.073
    1TCM     h1 3106   1.209   0.529   1.024
    1TCM    cl3 3107   1.446   0.527   1.049
    1TCM     c1 3108   0.426   3.650   0.585
    1TCM    cl1 3109   0.487   3.621   0.421
    1TCM    cl2 3110   0.419   3.495   0.674
    1TCM     h1 3111   0.495   3.719   0.638
    1TCM    cl3 3112   0.264   3.721   0.577
    1TCM     c1 3113   3.236   1.735   3.438
    1TCM    cl1 3114   3.381   1.703   3.340
    1TCM    cl2 3115   3.198   1.592   3.537
    1TCM     h1 3116   3.255   1.822   3.505
    1TCM    cl3 3117   3.099   1.771   3.331
    1TCM     c1 3118   2.840   4.739   0.353
    1TCM    cl1 3119   2.745   4.881   0.304
    1TCM    cl2 3120   2.878   4.641   0.209
    1TCM     h1 3121   2.934   4.772   0.401
    1TCM    cl3 3122   2.746   4.641   0.468
    1TCM     c1 3123   3.742   3.495   3.407
    1TCM    cl1 3124   3.904   3.541   3.464
    1TCM    cl2 3125   3.676   3.625   3.305
    1TCM     h1 3126   3.748   3.402   3.349
    1TCM    cl3 3127   3.635   3.471   3.547
    1TCM     c1 3128   2.974   3.956   1.034
    1TCM    cl1 3129   2.914   4.123   1.032
    1TCM    cl2 3130   2.843   3.845   0.988
    1TCM     h1 3131   3.058   3.947   0.961
    1TCM    cl3 3132   3.032   3.915   1.197
    1TCM     c1 3133   4.472   4.321   1.199
    1TCM    cl1 3134   4.424   4.431   1.067
    1TCM    cl2 3135   4.616   4.229   1.151
    1TCM     h1 3136   4.495   4.380   1.290
    1TCM    cl3 3137   4.338   4.209   1.234
    1TCM     c1 3138   4.586   3.122   0.305
    1TCM    cl1 3139   4.570   3.297   0.333
    1TCM    cl2 3140   4.653   3.045   0.451
    1TCM     h1 3141   4.486   3.078   0.283
    1TCM    cl3 3142   4.695   3.093   0.168
    1TCM     c1 3143   2.889   1.005   2.259
    1TCM    cl1 3144   2.745   0.990   2.362
    1TCM    cl2 3145   2.852   1.109   2.120
    1TCM     h1 3146   2.972   1.049   2.317
    1TCM    cl3 3147   2.936   0.844   2.200
    1TCM     c1 3148   3.451   4.569   3.006
    1TCM    cl1 3149   3.471   4.710   2.900
    1TCM    cl2 3150   3.362   4.617   3.152
    1TCM     h1 3151   3.393   4.490   2.952
    1TCM    cl3 3152   3.610   4.504   3.051
    1TCM     c1 3153   3.732   3.472   3.944
    1TCM    cl1 3154   3.822   3.563   4.068
    1TCM    cl2 3155   3.744   3.298   3.979
    1TCM     h1 3156   3.625   3.503   3.946
    1TCM    cl3 3157   3.801   3.505   3.784
    1TCM     c1 3158   4.175   0.316   0.238
    1TCM    cl1 3159   4.324   0.305   0.335
    1TCM    cl2 3160   4.205   0.249   0.076
    1TCM     h1 3161   4.094   0.258   0.288
    1TCM    cl3 3162   4.126   0.486   0.225
    1TCM     c1 3163   3.271   3.165   3.474
    1TCM    cl1 3164   3.390   3.116   3.596
    1TCM    cl2 3165   3.342   3.148   3.312
    1TCM     h1 3166   3.181   3.101   3.481
    1TCM    cl3 3167   3.225   3.335   3.501
    1TCM     c1 3168   0.667   2.553   1.924
    1TCM    cl1 3169   0.648   2.698   1.824
    1TCM    cl2 3170   0.717   2.416   1.822
    1TCM     h1 3171   0.744   2.571   2.002
    1TCM    cl3 3172   0.512   2.514   2.002
    1TCM     c1 3173   5.208   4.296   3.017
    1TCM    cl1 3174   5.242   4.447   2.930
    1TCM    cl2 3175   5.244   4.318   3.190
    1TCM     h1 3176   5.101   4.270   3.005
    1TCM    cl3 3177   5.308   4.165   2.951
    1TCM     c1 3178   2.341   3.501   1.568
    1TCM    cl1 3179   2.484   3.431   1.488
    1TCM    cl2 3180   2.382   3.545   1.735
    1TCM     h1 3181   2.308   3.591   1.513
    1TCM    cl3 3182   2.209   3.381   1.570
    1TCM     c1 3183   5.084   1.368   2.460
    1TCM    cl1 3184   5.132   1.495   2.345
    1TCM    cl2 3185   5.227   1.273   2.507
    1TCM     h1 3186   5.040   1.416   2.551
    1TCM    cl3 3187   4.964   1.262   2.385
    1TCM     c1 3188   4.197   3.111   4.005
    1TCM    cl1 3189   4.040   3.052   4.065
    1TCM    cl2 3190   4.319   2.984   4.025
    1TCM     h1 3191   4.188   3.137   3.897
    1TCM    cl3 3192   4.245   3.255   4.097
    1TCM     c1 3193   1.615   3.546   3.476
    1TCM    cl1 3194   1.740   3.577   3.354
    1TCM    cl2 3195   1.570   3.374   3.473
    1TCM     h1 3196   1.653   3.573   3.576
    1TCM    cl3 3197   1.471   3.645   3.440
    1TCM     c1 3198   2.561   3.257   2.642
    1TCM    cl1 3199   2.463   3.174   2.765
    1TCM    cl2 3200   2.732   3.255   2.692
    1TCM     h1 3201   2.551   3.205   2.545
    1TCM    cl3 3202   2.506   3.425   2.626
    1TCM     c1 3203   1.903   2.885   0.173
    1TCM    cl1 3204   1.798   2.778   0.268
    1TCM    cl2 3205   1.889   2.844   0.001
    1TCM     h1 3206   1.872   2.990   0.189
    1TCM    cl3 3207   2.072   2.865   0.225
    1TCM     c1 3208   4.825   0.836   2.902
    1TCM    cl1 3209   4.779   0.670   2.950
    1TCM    cl2 3210   4.725   0.887   2.764
    1TCM     h1 3211   4.809   0.905   2.988
    1TCM    cl3 3212   4.997   0.838   2.855
    1TCM     c1 3213   4.891   2.043   1.295
    1TCM    cl1 3214   4.764   2.013   1.174
    1TCM    cl2 3215   4.846   2.184   1.393
    1TCM     h1 3216   4.901   1.954   1.361
    1TCM    cl3 3217   5.045   2.074   1.213
    1TCM     c1 3218   3.232   4.088   0.430
    1TCM    cl1 3219   3.302   3.947   0.513
    1TCM    cl2 3220   3.239   4.062   0.254
    1TCM     h1 3221   3.126   4.100   0.461
    1TCM    cl3 3222   3.324   4.234   0.473
    1TCM     c1 3223   2.759   4.095   3.661
    1TCM    cl1 3224   2.660   4.071   3.806
    1TCM    cl2 3225   2.901   3.988   3.669
    1TCM     h1 3226   2.700   4.070   3.571
    1TCM    cl3 3227   2.813   4.264   3.653
    1TCM     c1 3228   2.094   4.516   2.194
    1TCM    cl1 3229   2.147   4.359   2.131
    1TCM    cl2 3230   2.075   4.506   2.371
    1TCM     h1 3231   2.170   4.593   2.170
    1TCM    cl3 3232   1.939   4.561   2.120
    1TCM     c1 3233   1.624   1.740   0.689
    1TCM    cl1 3234   1.494   1.720   0.808
    1TCM    cl2 3235   1.715   1.889   0.725
    1TCM     h1 3236   1.693   1.653   0.694
    1TCM    cl3 3237   1.555   1.752   0.526
    1TCM     c1 3238   0.279   2.801   4.396
    1TCM    cl1 3239   0.352   2.957   4.352
    1TCM    cl2 3240   0.322   2.679   4.274
    1TCM     h1 3241   0.317   2.769   4.495
    1TCM    cl3 3242   0.102   2.818   4.402
    1TCM     c1 3243   0.914   1.573   4.577
    1TCM    cl1 3244   0.802   1.694   4.644
    1TCM    cl2 3245   1.081   1.633   4.590
    1TCM     h1 3246   0.904   1.478   4.635
    1TCM    cl3 3247   0.875   1.543   4.406
    1TCM     c1 3248   5.025   2.947   0.679
    1TCM    cl1 3249   5.004   2.996   0.848
    1TCM    cl2 3250   4.973   2.779   0.658
    1TCM     h1 3251   4.965   3.013   0.613
    1TCM    cl3 3252   5.197   2.961   0.634
    1TCM     c1 3253   2.252   4.213   4.808
    1TCM    cl1 3254   2.318   4.056   4.862
    1TCM    cl2 3255   2.256   4.328   4.944
    1TCM     h1 3256   2.312   4.252   4.725
    1TCM    cl3 3257   2.084   4.190   4.755
    1TCM     c1 3258   3.080   3.453   3.269
    1TCM    cl1 3259   2.928   3.447   3.177
    1TCM    cl2 3260   3.160   3.609   3.240
    1TCM     h1 3261   3.058   3.442   3.377
    1TCM    cl3 3262   3.187   3.321   3.216
    1TCM     c1 3263   2.961   4.346   0.407
    1TCM    cl1 3264   2.933   4.200   0.505
    1TCM    cl2 3265   3.110   4.327   0.313
    1TCM     h1 3266   2.875   4.362   0.338
    1TCM    cl3 3267   2.977   4.487   0.515
    1TCM     c1 3268   3.453   4.465   0.495
    1TCM    cl1 3269   3.484   4.344   0.370
    1TCM    cl2 3270   3.514   4.406   0.652
    1TCM     h1 3271   3.504   4.560   0.469
    1TCM    cl3 3272   3.278   4.494   0.508
    1TCM     c1 3273   2.339   3.753   1.059
    1TCM    cl1 3274   2.489   3.849   1.061
    1TCM    cl2 3275   2.300   3.701   1.224
    1TCM     h1 3276   2.256   3.815   1.019
    1TCM    cl3 3277   2.361   3.610   0.956
    1TCM     c1 3278   4.105   3.922   3.758
    1TCM    cl1 3279   4.168   3.868   3.600
    1TCM    cl2 3280   4.241   3.957   3.867
    1TCM     h1 3281   4.045   4.014   3.744
    1TCM    cl3 3282   4.003   3.794   3.828
    1TCM     c1 3283   5.220   4.766   4.207
    1TCM    cl1 3284   5.066   4.728   4.127
    1TCM    cl2 3285   5.188   4.825   4.372
    1TCM     h1 3286   5.283   4.675   4.212
    1TCM    cl3 3287   5.305   4.892   4.114
    1TCM     c1 3288   4.211   0.371   3.545
    1TCM    cl1 3289   4.252   0.217   3.623
    1TCM    cl2 3290   4.054   0.428   3.604
    1TCM     h1 3291   4.289   0.446   3.569
    1TCM    cl3 3292   4.203   0.348   3.368
    1TCM     c1 3293   2.451   2.657   3.459
    1TCM    cl1 3294   2.398   2.791   3.356
    1TCM    cl2 3295   2.396   2.684   3.625
    1TCM     h1 3296   2.409   2.562   3.421
    1TCM    cl3 3297   2.629   2.647   3.456
    1TCM     c1 3298   5.039   4.593   2.641
    1TCM    cl1 3299   4.980   4.734   2.732
    1TCM    cl2 3300   5.023   4.448   2.742
    1TCM     h1 3301   4.980   4.581   2.549
    1TCM    cl3 3302   5.210   4.618   2.599
    1TCM     c1 3303   2.394   0.839   2.081
    1TCM    cl1 3304   2.301   0.726   1.981
    1TCM    cl2 3305   2.399   0.781   2.249
    1TCM     h1 3306   2.497   0.847   2.042
    1TCM    cl3 3307   2.316   0.999   2.076
    1TCM     c1 3308   0.310   2.390   3.049
    1TCM    cl1 3309   0.161   2.380   2.952
    1TCM    cl2 3310   0.435   2.285   2.976
    1TCM     h1 3311   0.347   2.495   3.050
    1TCM    cl3 3312   0.277   2.337   3.215
    1TCM     c1 3313   1.111   4.044   1.134
    1TCM    cl1 3314   1.113   4.045   0.956
    1TCM    cl2 3315   1.244   3.943   1.195
    1TCM     h1 3316   1.123   4.148   1.171
    1TCM    cl3 3317   0.955   3.978   1.191
    1TCM     c1 3318   2.598   3.036   0.721
    1TCM    cl1 3319   2.751   2.982   0.648
    1TCM    cl2 3320   2.574   3.209   0.685
    1TCM     h1 3321   2.514   2.977   0.679
    1TCM    cl3 3322   2.605   3.013   0.897
    1TCM     c1 3323   0.657   0.665   0.922
    1TCM    cl1 3324   0.772   0.574   0.821
    1TCM    cl2 3325   0.621   0.570   1.068
    1TCM     h1 3326   0.702   0.762   0.951
    1TCM    cl3 3327   0.507   0.693   0.831
    1TCM     c1 3328   5.078   2.172   3.253
    1TCM    cl1 3329   4.997   2.296   3.352
    1TCM    cl2 3330   5.092   2.231   3.085
    1TCM     h1 3331   5.179   2.153   3.293
    1TCM    cl3 3332   4.983   2.022   3.255
    1TCM     c1 3333   2.570   1.029   3.525
    1TCM    cl1 3334   2.546   0.889   3.418
    1TCM    cl2 3335   2.665   0.980   3.667
    1TCM     h1 3336   2.624   1.109   3.470
    1TCM    cl3 3337   2.412   1.090   3.579
    1TCM     c1 3338   5.077   1.024   2.269
    1TCM    cl1 3339   5.194   1.148   2.220
    1TCM    cl2 3340   5.136   0.864   2.219
    1TCM     h1 3341   5.064   1.026   2.379
    1TCM    cl3 3342   4.920   1.057   2.190
    1TCM     c1 3343   3.957   0.504   4.539
    1TCM    cl1 3344   3.850   0.431   4.661
    1TCM    cl2 3345   3.983   0.676   4.577
    1TCM     h1 3346   4.055   0.451   4.539
    1TCM    cl3 3347   3.882   0.490   4.378
    1TCM     c1 3348   5.111   0.884   5.067
    1TCM    cl1 3349   5.206   0.802   4.941
    1TCM    cl2 3350   5.189   0.860   5.225
    1TCM     h1 3351   5.106   0.992   5.044
    1TCM    cl3 3352   4.947   0.816   5.071
    1TCM     c1 3353   2.862   0.533   1.479
    1TCM    cl1 3354   2.942   0.648   1.369
    1TCM    cl2 3355   2.864   0.598   1.644
    1TCM     h1 3356   2.758   0.517   1.446
    1TCM    cl3 3357   2.950   0.378   1.475
    1TCM     c1 3358   2.117   1.414   3.852
    1TCM    cl1 3359   2.145   1.448   4.024
    1TCM    cl2 3360   2.093   1.240   3.829
    1TCM     h1 3361   2.027   1.469   3.818
    1TCM    cl3 3362   2.258   1.467   3.757
    1TCM     c1 3363   3.503   1.457   2.189
    1TCM    cl1 3364   3.535   1.496   2.018
    1TCM    cl2 3365   3.649   1.385   2.261
    1TCM     h1 3366   3.477   1.551   2.243
    1TCM    cl3 3367   3.368   1.343   2.200
   5.54000   5.54000   5.54000
