Guyana Rwanda Oman Macau Angola Cameroon Senegal
 3367
    1POM     C1    1   1.951   1.307   1.087
    1POM     O2    2   1.822   1.281   1.141
    1POM     C3    3   1.715   1.288   1.055
    1POM     C4    4   1.722   1.314   0.919
    1POM     C5    5   1.605   1.313   0.841
    1POM     C6    6   1.480   1.288   0.899
    1POM     C7    7   1.361   1.278   0.812
    1POM     C8    8   1.283   1.161   0.812
    1POM     C9    9   1.162   1.155   0.743
    1POM    C10   10   1.119   1.267   0.673
    1POM    C11   11   1.202   1.378   0.656
    1POM    C12   12   1.167   1.491   0.565
    1POM    O13   13   1.228   1.597   0.567
    1POM    C14   14   1.322   1.385   0.729
    1POM    C15   15   1.472   1.268   1.040
    1POM    C16   16   1.344   1.245   1.109
    1POM    C17   17   1.323   1.124   1.174
    1POM    C18   18   1.199   1.095   1.231
    1POM    C19   19   1.096   1.190   1.236
    1POM    C20   20   0.966   1.162   1.307
    1POM    C21   21   0.888   1.047   1.242
    1POM    N22   22   0.978   1.139   1.452
    1POM    C23   23   1.117   1.311   1.167
    1POM    C24   24   1.239   1.338   1.104
    1POM    C25   25   1.592   1.266   1.114
    1POM    H26   26   2.023   1.298   1.168
    1POM    H27   27   1.977   1.234   1.010
    1POM    H28   28   1.958   1.409   1.047
    1POM    H29   29   1.816   1.332   0.868
    1POM    H30   30   1.613   1.329   0.734
    1POM    H31   31   1.312   1.075   0.871
    1POM    H32   32   1.101   1.066   0.747
    1POM    H33   33   1.019   1.263   0.631
    1POM    H34   34   1.382   1.475   0.725
    1POM    H35   35   1.401   1.049   1.182
    1POM    H36   36   1.185   0.997   1.273
    1POM    H37   37   0.904   1.250   1.299
    1POM    H38   38   0.790   1.036   1.289
    1POM    H39   39   0.941   0.951   1.253
    1POM    H40   40   0.873   1.065   1.135
    1POM    H41   41   0.894   1.167   1.499
    1POM    H42   42   1.037   1.385   1.160
    1POM    H43   43   1.250   1.430   1.048
    1POM    H44   44   1.587   1.247   1.222
    2POM    C45   45   1.208   0.100   1.691
    2POM    O46   46   1.166   0.189   1.793
    2POM    C47   47   1.118   0.312   1.753
    2POM    C48   48   1.107   0.359   1.624
    2POM    C49   49   1.054   0.486   1.599
    2POM    C50   50   1.012   0.571   1.703
    2POM    C51   51   0.948   0.701   1.671
    2POM    C52   52   0.819   0.733   1.717
    2POM    C53   53   0.761   0.858   1.694
    2POM    C54   54   0.831   0.955   1.623
    2POM    C55   55   0.960   0.928   1.578
    2POM    C56   56   1.042   1.027   1.503
    2POM    O57   57   1.161   1.003   1.490
    2POM    C58   58   1.017   0.801   1.600
    2POM    C59   59   1.030   0.526   1.835
    2POM    C60   60   0.994   0.609   1.952
    2POM    C61   61   0.896   0.564   2.040
    2POM    C62   62   0.851   0.648   2.142
    2POM    C63   63   0.911   0.771   2.168
    2POM    C64   64   0.870   0.854   2.289
    2POM    C65   65   0.726   0.905   2.279
    2POM    N66   66   0.893   0.790   2.419
    2POM    C67   67   1.010   0.816   2.081
    2POM    C68   68   1.049   0.736   1.973
    2POM    C69   69   1.081   0.395   1.859
    2POM    H70   70   1.239   0.007   1.739
    2POM    H71   71   1.126   0.075   1.622
    2POM    H72   72   1.294   0.139   1.637
    2POM    H73   73   1.138   0.298   1.537
    2POM    H74   74   1.045   0.520   1.495
    2POM    H75   75   0.764   0.660   1.776
    2POM    H76   76   0.662   0.880   1.732
    2POM    H77   77   0.782   1.050   1.606
    2POM    H78   78   1.118   0.779   1.565
    2POM    H79   79   0.851   0.467   2.030
    2POM    H80   80   0.768   0.612   2.202
    2POM    H81   81   0.935   0.942   2.292
    2POM    H82   82   0.705   0.974   2.361
    2POM    H83   83   0.654   0.823   2.285
    2POM    H84   84   0.709   0.958   2.185
    2POM    H85   85   0.909   0.859   2.490
    2POM    H86   86   1.056   0.914   2.092
    2POM    H87   87   1.124   0.774   1.903
    2POM    H88   88   1.091   0.358   1.960
    3POM    C89   89   0.056   0.155   2.712
    3POM    O90   90   0.154   0.193   2.808
    3POM    C91   91   0.245   0.288   2.771
    3POM    C92   92   0.251   0.354   2.649
    3POM    C93   93   0.349   0.452   2.627
    3POM    C94   94   0.445   0.485   2.726
    3POM    C95   95   0.541   0.595   2.700
    3POM    C96   96   0.549   0.706   2.788
    3POM    C97   97   0.642   0.807   2.768
    3POM    C98   98   0.729   0.803   2.660
    3POM    C99   99   0.725   0.693   2.573
    3POM   C100  100   0.821   0.678   2.459
    3POM   O101  101   0.828   0.568   2.407
    3POM   C102  102   0.630   0.592   2.592
    3POM   C103  103   0.443   0.412   2.847
    3POM   C104  104   0.542   0.436   2.953
    3POM   C105  105   0.499   0.480   3.078
    3POM   C106  106   0.592   0.516   3.176
    3POM   C107  107   0.729   0.495   3.158
    3POM   C108  108   0.827   0.523   3.271
    3POM   C109  109   0.831   0.671   3.310
    3POM   N110  110   0.808   0.439   3.390
    3POM   C111  111   0.772   0.450   3.033
    3POM   C112  112   0.680   0.421   2.932
    3POM   C113  113   0.341   0.317   2.869
    3POM   H114  114  -0.006   0.077   2.757
    3POM   H115  115  -0.009   0.238   2.685
    3POM   H116  116   0.104   0.112   2.623
    3POM   H117  117   0.179   0.334   2.570
    3POM   H118  118   0.349   0.505   2.532
    3POM   H119  119   0.484   0.711   2.875
    3POM   H120  120   0.648   0.890   2.837
    3POM   H121  121   0.800   0.885   2.648
    3POM   H122  122   0.626   0.507   2.523
    3POM   H123  123   0.394   0.491   3.101
    3POM   H124  124   0.553   0.557   3.268
    3POM   H125  125   0.926   0.497   3.235
    3POM   H126  126   0.911   0.688   3.384
    3POM   H127  127   0.738   0.703   3.356
    3POM   H128  128   0.850   0.735   3.224
    3POM   H129  129   0.897   0.426   3.437
    3POM   H130  130   0.879   0.438   3.012
    3POM   H131  131   0.717   0.390   2.834
    3POM   H132  132   0.336   0.264   2.964
    4POM   C133  133   0.081   0.875   4.076
    4POM   O134  134   0.167   0.770   4.120
    4POM   C135  135   0.269   0.733   4.036
    4POM   C136  136   0.300   0.790   3.913
    4POM   C137  137   0.410   0.744   3.841
    4POM   C138  138   0.493   0.640   3.888
    4POM   C139  139   0.614   0.601   3.811
    4POM   C140  140   0.742   0.605   3.869
    4POM   C141  141   0.856   0.563   3.799
    4POM   C142  142   0.844   0.515   3.668
    4POM   C143  143   0.718   0.508   3.609
    4POM   C144  144   0.697   0.453   3.473
    4POM   O145  145   0.584   0.424   3.440
    4POM   C146  146   0.605   0.553   3.679
    4POM   C147  147   0.458   0.577   4.010
    4POM   C148  148   0.534   0.464   4.066
    4POM   C149  149   0.598   0.478   4.190
    4POM   C150  150   0.678   0.376   4.239
    4POM   C151  151   0.689   0.252   4.176
    4POM   C152  152   0.772   0.139   4.237
    4POM   C153  153   0.921   0.175   4.242
    4POM   N154  154   0.730   0.089   4.370
    4POM   C155  155   0.628   0.238   4.052
    4POM   C156  156   0.553   0.343   3.996
    4POM   C157  157   0.348   0.628   4.083
    4POM   H158  158   0.005   0.891   4.154
    4POM   H159  159   0.137   0.968   4.064
    4POM   H160  160   0.029   0.848   3.984
    4POM   H161  161   0.241   0.871   3.871
    4POM   H162  162   0.434   0.792   3.745
    4POM   H163  163   0.754   0.638   3.972
    4POM   H164  164   0.952   0.565   3.847
    4POM   H165  165   0.934   0.484   3.618
    4POM   H166  166   0.506   0.549   3.631
    4POM   H167  167   0.587   0.570   4.247
    4POM   H168  168   0.732   0.397   4.331
    4POM   H169  169   0.762   0.052   4.172
    4POM   H170  170   0.979   0.088   4.275
    4POM   H171  171   0.940   0.255   4.315
    4POM   H172  172   0.959   0.207   4.145
    4POM   H173  173   0.772   0.000   4.391
    4POM   H174  174   0.639   0.147   3.993
    4POM   H175  175   0.508   0.331   3.898
    4POM   H176  176   0.322   0.582   4.179
    5CAP   C177  177   1.053   1.368   0.392
    5CAP   O178  178   1.054   1.473   0.491
    5CAP   H179  179   1.142   1.370   0.330
    5CAP   H180  180   0.964   1.384   0.329
    5CAP   H181  181   1.041   1.270   0.436
    6CAP   C182  182   0.940   0.125   4.777
    6CAP   C183  183   0.852   0.212   4.685
    6CAP   C184  184   0.731   0.259   4.766
    6CAP   C185  185   0.936   0.334   4.640
    6CAP   O186  186   0.818   0.126   4.573
    6CAP   C187  187   0.729   0.172   4.480
    6CAP   O188  188   0.661   0.271   4.494
    6CAP   H189  189   0.972   0.180   4.867
    6CAP   H190  190   0.887   0.035   4.807
    6CAP   H191  191   1.031   0.092   4.724
    6CAP   H192  192   0.667   0.175   4.792
    6CAP   H193  193   0.669   0.332   4.712
    6CAP   H194  194   0.761   0.310   4.859
    6CAP   H195  195   1.020   0.302   4.577
    6CAP   H196  196   0.876   0.404   4.579
    6CAP   H197  197   0.975   0.389   4.725
    1TCM     c1  198   4.335   0.347   2.671
    1TCM    cl1  199   4.447   0.470   2.607
    1TCM    cl2  200   4.325   0.363   2.848
    1TCM     h1  201   4.235   0.362   2.626
    1TCM    cl3  202   4.396   0.185   2.630
    1TCM     c1  203   1.834   2.522   4.302
    1TCM    cl1  204   1.792   2.377   4.208
    1TCM    cl2  205   1.885   2.474   4.465
    1TCM     h1  206   1.916   2.576   4.251
    1TCM    cl3  207   1.691   2.628   4.313
    1TCM     c1  208   1.877   2.395   0.963
    1TCM    cl1  209   1.879   2.472   0.803
    1TCM    cl2  210   1.733   2.293   0.977
    1TCM     h1  211   1.968   2.332   0.975
    1TCM    cl3  212   1.875   2.520   1.089
    1TCM     c1  213   2.650   0.582   3.801
    1TCM    cl1  214   2.719   0.427   3.747
    1TCM    cl2  215   2.485   0.556   3.861
    1TCM     h1  216   2.713   0.624   3.882
    1TCM    cl3  217   2.646   0.696   3.664
    1TCM     c1  218   2.111   1.920   2.785
    1TCM    cl1  219   2.244   2.026   2.839
    1TCM    cl2  220   2.179   1.766   2.727
    1TCM     h1  221   2.043   1.901   2.869
    1TCM    cl3  222   2.022   1.999   2.653
    1TCM     c1  223   5.037   1.264   0.558
    1TCM    cl1  224   5.016   1.327   0.723
    1TCM    cl2  225   5.210   1.257   0.519
    1TCM     h1  226   4.993   1.163   0.552
    1TCM    cl3  227   4.955   1.372   0.443
    1TCM     c1  228   2.889   0.896   2.560
    1TCM    cl1  229   2.754   0.998   2.506
    1TCM    cl2  230   2.899   0.752   2.456
    1TCM     h1  231   2.984   0.954   2.553
    1TCM    cl3  232   2.862   0.846   2.728
    1TCM     c1  233   3.790   4.107   4.716
    1TCM    cl1  234   3.681   4.221   4.798
    1TCM    cl2  235   3.898   4.196   4.606
    1TCM     h1  236   3.851   4.053   4.791
    1TCM    cl3  237   3.694   3.990   4.622
    1TCM     c1  238   0.777   4.170   3.470
    1TCM    cl1  239   0.603   4.160   3.438
    1TCM    cl2  240   0.858   4.027   3.400
    1TCM     h1  241   0.818   4.262   3.424
    1TCM    cl3  242   0.806   4.174   3.645
    1TCM     c1  243   3.957   1.321   2.592
    1TCM    cl1  244   4.100   1.285   2.691
    1TCM    cl2  245   3.971   1.240   2.434
    1TCM     h1  246   3.866   1.284   2.644
    1TCM    cl3  247   3.944   1.497   2.567
    1TCM     c1  248   4.934   3.088   4.434
    1TCM    cl1  249   5.014   2.964   4.532
    1TCM    cl2  250   5.024   3.241   4.448
    1TCM     h1  251   4.932   3.056   4.328
    1TCM    cl3  252   4.767   3.112   4.492
    1TCM     c1  253   0.473   2.911   1.416
    1TCM    cl1  254   0.509   2.818   1.269
    1TCM    cl2  255   0.476   2.803   1.557
    1TCM     h1  256   0.550   2.991   1.428
    1TCM    cl3  257   0.312   2.986   1.402
    1TCM     c1  258   1.439   1.935   2.377
    1TCM    cl1  259   1.581   2.035   2.416
    1TCM    cl2  260   1.464   1.856   2.219
    1TCM     h1  261   1.427   1.857   2.455
    1TCM    cl3  262   1.294   2.037   2.371
    1TCM     c1  263   4.300   4.437   0.711
    1TCM    cl1  264   4.213   4.504   0.572
    1TCM    cl2  265   4.188   4.339   0.809
    1TCM     h1  266   4.383   4.372   0.676
    1TCM    cl3  267   4.365   4.569   0.810
    1TCM     c1  268   2.581   5.256   3.780
    1TCM    cl1  269   2.424   5.340   3.775
    1TCM    cl2  270   2.689   5.340   3.893
    1TCM     h1  271   2.566   5.152   3.813
    1TCM    cl3  272   2.654   5.257   3.617
    1TCM     c1  273   2.881   1.909   3.055
    1TCM    cl1  274   2.724   1.858   3.122
    1TCM    cl2  275   2.878   1.893   2.878
    1TCM     h1  276   2.899   2.015   3.082
    1TCM    cl3  277   3.010   1.807   3.122
    1TCM     c1  278   0.680   3.118   5.016
    1TCM    cl1  279   0.648   2.944   5.035
    1TCM    cl2  280   0.575   3.184   4.890
    1TCM     h1  281   0.661   3.170   5.112
    1TCM    cl3  282   0.850   3.141   4.970
    1TCM     c1  283   4.596   3.548   2.164
    1TCM    cl1  284   4.680   3.650   2.044
    1TCM    cl2  285   4.625   3.377   2.126
    1TCM     h1  286   4.635   3.571   2.265
    1TCM    cl3  287   4.422   3.581   2.158
    1TCM     c1  288   5.223   3.658   4.851
    1TCM    cl1  289   5.165   3.684   4.685
    1TCM    cl2  290   5.303   3.806   4.910
    1TCM     h1  291   5.137   3.634   4.917
    1TCM    cl3  292   5.338   3.523   4.853
    1TCM     c1  293   2.149   1.125   3.400
    1TCM    cl1  294   2.227   1.147   3.558
    1TCM    cl2  295   2.249   1.200   3.273
    1TCM     h1  296   2.138   1.016   3.379
    1TCM    cl3  297   1.988   1.201   3.401
    1TCM     c1  298   1.311   2.043   2.694
    1TCM    cl1  299   1.399   2.138   2.572
    1TCM    cl2  300   1.324   2.124   2.852
    1TCM     h1  301   1.205   2.035   2.665
    1TCM    cl3  302   1.383   1.880   2.706
    1TCM     c1  303   3.069   4.778   4.808
    1TCM    cl1  304   3.116   4.654   4.690
    1TCM    cl2  305   2.967   4.705   4.934
    1TCM     h1  306   3.160   4.821   4.854
    1TCM    cl3  307   2.978   4.907   4.726
    1TCM     c1  308   2.719   2.484   2.008
    1TCM    cl1  309   2.747   2.313   1.969
    1TCM    cl2  310   2.728   2.507   2.184
    1TCM     h1  311   2.797   2.546   1.959
    1TCM    cl3  312   2.559   2.533   1.949
    1TCM     c1  313   2.755   2.031   5.066
    1TCM    cl1  314   2.632   1.955   4.962
    1TCM    cl2  315   2.744   1.964   5.230
    1TCM     h1  316   2.856   2.012   5.024
    1TCM    cl3  317   2.726   2.207   5.073
    1TCM     c1  318   4.886   0.306   1.322
    1TCM    cl1  319   4.729   0.377   1.366
    1TCM    cl2  320   5.005   0.341   1.449
    1TCM     h1  321   4.874   0.196   1.310
    1TCM    cl3  322   4.941   0.376   1.168
    1TCM     c1  323   3.057   0.852   1.253
    1TCM    cl1  324   3.177   0.768   1.353
    1TCM    cl2  325   3.074   0.801   1.084
    1TCM     h1  326   2.955   0.828   1.290
    1TCM    cl3  327   3.083   1.028   1.265
    1TCM     c1  328   3.954   3.273   1.898
    1TCM    cl1  329   3.806   3.228   1.987
    1TCM    cl2  330   3.949   3.201   1.735
    1TCM     h1  331   3.960   3.384   1.889
    1TCM    cl3  332   4.096   3.213   1.985
    1TCM     c1  333   1.119   0.934   3.603
    1TCM    cl1  334   1.107   1.041   3.746
    1TCM    cl2  335   0.972   0.953   3.504
    1TCM     h1  336   1.208   0.962   3.544
    1TCM    cl3  337   1.133   0.765   3.657
    1TCM     c1  338   0.696   5.197   4.109
    1TCM    cl1  339   0.763   5.062   4.203
    1TCM    cl2  340   0.669   5.145   3.941
    1TCM     h1  341   0.599   5.229   4.154
    1TCM    cl3  342   0.810   5.333   4.111
    1TCM     c1  343   2.779   3.601   3.458
    1TCM    cl1  344   2.822   3.436   3.510
    1TCM    cl2  345   2.796   3.712   3.596
    1TCM     h1  346   2.846   3.633   3.376
    1TCM    cl3  347   2.610   3.603   3.401
    1TCM     c1  348   0.413   0.860   2.380
    1TCM    cl1  349   0.240   0.843   2.418
    1TCM    cl2  350   0.432   0.963   2.236
    1TCM     h1  351   0.465   0.906   2.466
    1TCM    cl3  352   0.482   0.699   2.348
    1TCM     c1  353   4.990   1.984   2.104
    1TCM    cl1  354   5.092   2.075   1.991
    1TCM    cl2  355   4.820   1.994   2.053
    1TCM     h1  356   5.022   1.877   2.105
    1TCM    cl3  357   5.007   2.052   2.267
    1TCM     c1  358   1.252   3.556   2.285
    1TCM    cl1  359   1.179   3.487   2.138
    1TCM    cl2  360   1.337   3.427   2.375
    1TCM     h1  361   1.325   3.635   2.257
    1TCM    cl3  362   1.125   3.626   2.388
    1TCM     c1  363   3.931   1.438   2.079
    1TCM    cl1  364   3.830   1.584   2.063
    1TCM    cl2  365   4.054   1.436   1.952
    1TCM     h1  366   3.980   1.439   2.179
    1TCM    cl3  367   3.828   1.294   2.065
    1TCM     c1  368   0.831   2.329   2.227
    1TCM    cl1  369   0.950   2.221   2.304
    1TCM    cl2  370   0.687   2.235   2.182
    1TCM     h1  371   0.802   2.409   2.297
    1TCM    cl3  372   0.903   2.401   2.081
    1TCM     c1  373   2.189   3.785   1.726
    1TCM    cl1  374   2.074   3.760   1.859
    1TCM    cl2  375   2.112   3.742   1.571
    1TCM     h1  376   2.221   3.891   1.723
    1TCM    cl3  377   2.332   3.682   1.751
    1TCM     c1  378   1.032   4.539   1.124
    1TCM    cl1  379   0.972   4.495   1.285
    1TCM    cl2  380   1.032   4.716   1.107
    1TCM     h1  381   1.135   4.500   1.111
    1TCM    cl3  382   0.926   4.468   1.000
    1TCM     c1  383   0.226   1.297   4.806
    1TCM    cl1  384   0.369   1.260   4.707
    1TCM    cl2  385   0.276   1.335   4.972
    1TCM     h1  386   0.173   1.384   4.762
    1TCM    cl3  387   0.117   1.156   4.808
    1TCM     c1  388   1.326   3.856   4.754
    1TCM    cl1  389   1.473   3.916   4.835
    1TCM    cl2  390   1.356   3.842   4.580
    1TCM     h1  391   1.299   3.757   4.796
    1TCM    cl3  392   1.193   3.970   4.782
    1TCM     c1  393   0.327   0.756   4.835
    1TCM    cl1  394   0.253   0.616   4.753
    1TCM    cl2  395   0.469   0.701   4.927
    1TCM     h1  396   0.359   0.830   4.759
    1TCM    cl3  397   0.210   0.830   4.946
    1TCM     c1  398   1.105   4.287   2.253
    1TCM    cl1  399   1.025   4.334   2.405
    1TCM    cl2  400   1.261   4.372   2.240
    1TCM     h1  401   1.122   4.178   2.252
    1TCM    cl3  402   1.002   4.332   2.116
    1TCM     c1  403   3.691   4.096   0.156
    1TCM    cl1  404   3.813   3.986   0.223
    1TCM    cl2  405   3.770   4.245   0.100
    1TCM     h1  406   3.640   4.047   0.071
    1TCM    cl3  407   3.571   4.136   0.282
    1TCM     c1  408   1.704   1.517   1.428
    1TCM    cl1  409   1.530   1.514   1.393
    1TCM    cl2  410   1.769   1.679   1.394
    1TCM     h1  411   1.721   1.491   1.534
    1TCM    cl3  412   1.787   1.398   1.324
    1TCM     c1  413   3.482   0.679   2.286
    1TCM    cl1  414   3.362   0.740   2.170
    1TCM    cl2  415   3.398   0.608   2.426
    1TCM     h1  416   3.545   0.602   2.238
    1TCM    cl3  417   3.585   0.814   2.341
    1TCM     c1  418   0.146   0.631   1.988
    1TCM    cl1  419   0.301   0.559   1.937
    1TCM    cl2  420   0.060   0.692   1.845
    1TCM     h1  421   0.084   0.553   2.038
    1TCM    cl3  422   0.176   0.765   2.100
    1TCM     c1  423   3.872   2.590   1.146
    1TCM    cl1  424   3.803   2.586   1.310
    1TCM    cl2  425   3.883   2.424   1.082
    1TCM     h1  426   3.807   2.651   1.081
    1TCM    cl3  427   4.035   2.662   1.152
    1TCM     c1  428   4.177   0.100   0.776
    1TCM    cl1  429   4.308   0.026   0.681
    1TCM    cl2  430   4.219   0.096   0.948
    1TCM     h1  431   4.162   0.205   0.743
    1TCM    cl3  432   4.027   0.009   0.750
    1TCM     c1  433   4.944   1.783   3.414
    1TCM    cl1  434   4.974   1.946   3.480
    1TCM    cl2  435   5.013   1.772   3.251
    1TCM     h1  436   4.991   1.707   3.480
    1TCM    cl3  437   4.769   1.754   3.406
    1TCM     c1  438   2.033   3.548   2.437
    1TCM    cl1  439   1.856   3.561   2.451
    1TCM    cl2  440   2.094   3.436   2.561
    1TCM     h1  441   2.059   3.509   2.336
    1TCM    cl3  442   2.106   3.708   2.460
    1TCM     c1  443   0.498   0.305   4.936
    1TCM    cl1  444   0.427   0.205   4.808
    1TCM    cl2  445   0.619   0.210   5.026
    1TCM     h1  446   0.548   0.394   4.891
    1TCM    cl3  447   0.371   0.359   5.048
    1TCM     c1  448   4.698   0.703   4.508
    1TCM    cl1  449   4.549   0.606   4.511
    1TCM    cl2  450   4.779   0.692   4.666
    1TCM     h1  451   4.766   0.664   4.429
    1TCM    cl3  452   4.658   0.873   4.474
    1TCM     c1  453   3.836   4.749   1.605
    1TCM    cl1  454   3.817   4.924   1.631
    1TCM    cl2  455   3.938   4.680   1.733
    1TCM     h1  456   3.736   4.700   1.607
    1TCM    cl3  457   3.912   4.721   1.446
    1TCM     c1  458   4.505   4.564   4.898
    1TCM    cl1  459   4.547   4.578   5.070
    1TCM    cl2  460   4.438   4.718   4.840
    1TCM     h1  461   4.596   4.539   4.839
    1TCM    cl3  462   4.384   4.435   4.877
    1TCM     c1  463   4.076   4.323   1.754
    1TCM    cl1  464   4.224   4.341   1.658
    1TCM    cl2  465   3.939   4.396   1.667
    1TCM     h1  466   4.055   4.215   1.771
    1TCM    cl3  467   4.096   4.404   1.911
    1TCM     c1  468   3.894   4.069   3.397
    1TCM    cl1  469   3.992   4.119   3.537
    1TCM    cl2  470   3.988   4.094   3.248
    1TCM     h1  471   3.868   3.961   3.407
    1TCM    cl3  472   3.745   4.166   3.391
    1TCM     c1  473   0.369   0.903   3.419
    1TCM    cl1  474   0.537   0.844   3.416
    1TCM    cl2  475   0.280   0.836   3.281
    1TCM     h1  476   0.321   0.872   3.514
    1TCM    cl3  477   0.369   1.081   3.408
    1TCM     c1  478   3.046   2.667   2.871
    1TCM    cl1  479   2.967   2.513   2.830
    1TCM    cl2  480   3.058   2.682   3.048
    1TCM     h1  481   3.148   2.669   2.827
    1TCM    cl3  482   2.950   2.802   2.806
    1TCM     c1  483   3.745   2.418   2.426
    1TCM    cl1  484   3.685   2.562   2.341
    1TCM    cl2  485   3.868   2.467   2.545
    1TCM     h1  486   3.661   2.368   2.477
    1TCM    cl3  487   3.818   2.306   2.308
    1TCM     c1  488   4.996   0.663   2.453
    1TCM    cl1  489   4.950   0.544   2.576
    1TCM    cl2  490   4.927   0.615   2.296
    1TCM     h1  491   4.956   0.763   2.481
    1TCM    cl3  492   5.173   0.670   2.440
    1TCM     c1  493   0.490   0.087   3.073
    1TCM    cl1  494   0.389  -0.000   3.190
    1TCM    cl2  495   0.421   0.068   2.910
    1TCM     h1  496   0.493   0.195   3.100
    1TCM    cl3  497   0.655   0.021   3.076
    1TCM     c1  498   5.239   3.753   1.338
    1TCM    cl1  499   5.102   3.705   1.440
    1TCM    cl2  500   5.179   3.841   1.195
    1TCM     h1  501   5.307   3.819   1.396
    1TCM    cl3  502   5.327   3.608   1.285
    1TCM     c1  503   1.518   3.268   0.957
    1TCM    cl1  504   1.426   3.325   0.816
    1TCM    cl2  505   1.404   3.215   1.083
    1TCM     h1  506   1.582   3.182   0.927
    1TCM    cl3  507   1.619   3.400   1.020
    1TCM     c1  508   2.805   4.404   4.156
    1TCM    cl1  509   2.855   4.260   4.248
    1TCM    cl2  510   2.868   4.393   3.990
    1TCM     h1  511   2.695   4.409   4.154
    1TCM    cl3  512   2.871   4.549   4.235
    1TCM     c1  513   4.643   1.683   0.351
    1TCM    cl1  514   4.787   1.756   0.277
    1TCM    cl2  515   4.583   1.789   0.481
    1TCM     h1  516   4.564   1.671   0.274
    1TCM    cl3  517   4.685   1.524   0.418
    1TCM     c1  518   2.929   4.720   4.406
    1TCM    cl1  519   2.782   4.794   4.338
    1TCM    cl2  520   3.005   4.833   4.520
    1TCM     h1  521   2.902   4.626   4.459
    1TCM    cl3  522   3.043   4.683   4.274
    1TCM     c1  523   3.773   4.149   2.079
    1TCM    cl1  524   3.673   4.070   2.202
    1TCM    cl2  525   3.707   4.114   1.917
    1TCM     h1  526   3.772   4.259   2.096
    1TCM    cl3  527   3.940   4.089   2.090
    1TCM     c1  528   0.785   0.154   3.562
    1TCM    cl1  529   0.679   0.191   3.700
    1TCM    cl2  530   0.733   0.001   3.487
    1TCM     h1  531   0.779   0.235   3.487
    1TCM    cl3  532   0.953   0.138   3.619
    1TCM     c1  533   0.978   1.455   2.617
    1TCM    cl1  534   1.030   1.309   2.704
    1TCM    cl2  535   0.912   1.409   2.458
    1TCM     h1  536   0.900   1.507   2.676
    1TCM    cl3  537   1.117   1.564   2.594
    1TCM     c1  538   1.210   0.746   2.421
    1TCM    cl1  539   1.306   0.876   2.346
    1TCM    cl2  540   1.309   0.662   2.543
    1TCM     h1  541   1.120   0.790   2.470
    1TCM    cl3  542   1.159   0.631   2.296
    1TCM     c1  543   2.884   1.172   3.817
    1TCM    cl1  544   2.734   1.164   3.723
    1TCM    cl2  545   2.847   1.145   3.989
    1TCM     h1  546   2.954   1.094   3.782
    1TCM    cl3  547   2.959   1.332   3.797
    1TCM     c1  548   4.639   5.129   1.269
    1TCM    cl1  549   4.530   5.098   1.406
    1TCM    cl2  550   4.611   5.294   1.208
    1TCM     h1  551   4.744   5.120   1.303
    1TCM    cl3  552   4.608   5.012   1.140
    1TCM     c1  553   0.519   4.431   0.322
    1TCM    cl1  554   0.661   4.426   0.216
    1TCM    cl2  555   0.569   4.468   0.488
    1TCM     h1  556   0.449   4.510   0.286
    1TCM    cl3  557   0.437   4.274   0.318
    1TCM     c1  558   2.408   3.459   2.204
    1TCM    cl1  559   2.551   3.445   2.309
    1TCM    cl2  560   2.281   3.550   2.288
    1TCM     h1  561   2.436   3.512   2.110
    1TCM    cl3  562   2.348   3.296   2.164
    1TCM     c1  563   0.357   3.162   1.131
    1TCM    cl1  564   0.332   3.112   0.962
    1TCM    cl2  565   0.495   3.073   1.200
    1TCM     h1  566   0.377   3.271   1.135
    1TCM    cl3  567   0.210   3.126   1.225
    1TCM     c1  568   3.366   3.637   1.042
    1TCM    cl1  569   3.438   3.689   0.888
    1TCM    cl2  570   3.468   3.693   1.177
    1TCM     h1  571   3.264   3.681   1.052
    1TCM    cl3  572   3.355   3.460   1.046
    1TCM     c1  573   3.277   2.999   4.946
    1TCM    cl1  574   3.228   2.983   4.775
    1TCM    cl2  575   3.133   2.994   5.050
    1TCM     h1  576   3.344   2.915   4.973
    1TCM    cl3  577   3.362   3.153   4.969
    1TCM     c1  578   1.140   1.245   1.865
    1TCM    cl1  579   1.281   1.247   1.756
    1TCM    cl2  580   1.193   1.285   2.030
    1TCM     h1  581   1.066   1.320   1.830
    1TCM    cl3  582   1.066   1.084   1.863
    1TCM     c1  583   1.963   2.648   4.800
    1TCM    cl1  584   2.011   2.737   4.654
    1TCM    cl2  585   1.994   2.748   4.943
    1TCM     h1  586   1.855   2.624   4.794
    1TCM    cl3  587   2.057   2.497   4.810
    1TCM     c1  588   2.210   4.142   4.090
    1TCM    cl1  589   2.258   3.976   4.132
    1TCM    cl2  590   2.349   4.251   4.111
    1TCM     h1  591   2.176   4.145   3.984
    1TCM    cl3  592   2.078   4.194   4.197
    1TCM     c1  593   0.807   0.333   0.148
    1TCM    cl1  594   0.701   0.267   0.021
    1TCM    cl2  595   0.708   0.384   0.287
    1TCM     h1  596   0.878   0.255   0.180
    1TCM    cl3  597   0.895   0.473   0.083
    1TCM     c1  598   1.146   0.655   2.954
    1TCM    cl1  599   1.082   0.573   3.099
    1TCM    cl2  600   1.179   0.825   2.992
    1TCM     h1  601   1.239   0.605   2.922
    1TCM    cl3  602   1.026   0.646   2.823
    1TCM     c1  603   4.537   3.187   3.256
    1TCM    cl1  604   4.448   3.282   3.377
    1TCM    cl2  605   4.459   3.205   3.098
    1TCM     h1  606   4.642   3.224   3.250
    1TCM    cl3  607   4.537   3.016   3.303
    1TCM     c1  608   3.161   4.745   5.275
    1TCM    cl1  609   3.167   4.579   5.340
    1TCM    cl2  610   3.094   4.741   5.110
    1TCM     h1  611   3.097   4.807   5.340
    1TCM    cl3  612   3.325   4.813   5.271
    1TCM     c1  613   1.837   0.129   3.600
    1TCM    cl1  614   1.926   0.280   3.627
    1TCM    cl2  615   1.950   0.000   3.553
    1TCM     h1  616   1.785   0.100   3.694
    1TCM    cl3  617   1.717   0.152   3.471
    1TCM     c1  618   0.951   0.909   4.050
    1TCM    cl1  619   0.955   0.777   3.932
    1TCM    cl2  620   1.011   0.851   4.207
    1TCM     h1  621   1.015   0.993   4.015
    1TCM    cl3  622   0.783   0.967   4.069
    1TCM     c1  623   2.059   5.154   2.400
    1TCM    cl1  624   1.905   5.244   2.397
    1TCM    cl2  625   2.050   5.018   2.285
    1TCM     h1  626   2.142   5.221   2.372
    1TCM    cl3  627   2.087   5.090   2.564
    1TCM     c1  628   1.201   1.260   2.375
    1TCM    cl1  629   1.338   1.330   2.464
    1TCM    cl2  630   1.088   1.184   2.490
    1TCM     h1  631   1.148   1.341   2.320
    1TCM    cl3  632   1.260   1.138   2.261
    1TCM     c1  633   1.604   1.643   0.180
    1TCM    cl1  634   1.651   1.506   0.284
    1TCM    cl2  635   1.579   1.586   0.014
    1TCM     h1  636   1.510   1.688   0.218
    1TCM    cl3  637   1.734   1.765   0.182
    1TCM     c1  638   4.244   3.103   2.471
    1TCM    cl1  639   4.132   3.166   2.347
    1TCM    cl2  640   4.150   3.020   2.598
    1TCM     h1  641   4.314   3.031   2.424
    1TCM    cl3  642   4.335   3.237   2.542
    1TCM     c1  643   2.930   4.862   1.428
    1TCM    cl1  644   2.793   4.976   1.421
    1TCM    cl2  645   3.041   4.894   1.293
    1TCM     h1  646   2.984   4.876   1.524
    1TCM    cl3  647   2.869   4.696   1.417
    1TCM     c1  648   4.316   2.481   3.332
    1TCM    cl1  649   4.342   2.637   3.414
    1TCM    cl2  650   4.221   2.374   3.438
    1TCM     h1  651   4.260   2.497   3.238
    1TCM    cl3  652   4.473   2.405   3.297
    1TCM     c1  653   4.296   0.814   3.685
    1TCM    cl1  654   4.327   0.669   3.784
    1TCM    cl2  655   4.263   0.765   3.517
    1TCM     h1  656   4.208   0.868   3.726
    1TCM    cl3  657   4.439   0.919   3.688
    1TCM     c1  658   4.215   0.966   3.311
    1TCM    cl1  659   4.374   0.891   3.339
    1TCM    cl2  660   4.162   0.934   3.145
    1TCM     h1  661   4.141   0.924   3.383
    1TCM    cl3  662   4.227   1.142   3.337
    1TCM     c1  663   2.105   0.278   3.336
    1TCM    cl1  664   2.218   0.188   3.232
    1TCM    cl2  665   2.163   0.272   3.504
    1TCM     h1  666   2.100   0.383   3.302
    1TCM    cl3  667   1.944   0.204   3.326
    1TCM     c1  668   0.520   4.484   3.682
    1TCM    cl1  669   0.662   4.589   3.663
    1TCM    cl2  670   0.573   4.316   3.706
    1TCM     h1  671   0.460   4.517   3.770
    1TCM    cl3  672   0.419   4.494   3.535
    1TCM     c1  673   0.272   1.968   4.827
    1TCM    cl1  674   0.259   2.112   4.932
    1TCM    cl2  675   0.317   2.019   4.663
    1TCM     h1  676   0.350   1.900   4.867
    1TCM    cl3  677   0.116   1.884   4.822
    1TCM     c1  678   1.086   5.224   5.172
    1TCM    cl1  679   0.947   5.113   5.171
    1TCM    cl2  680   1.069   5.340   5.305
    1TCM     h1  681   1.180   5.166   5.185
    1TCM    cl3  682   1.093   5.312   5.017
    1TCM     c1  683   0.809   2.252   1.257
    1TCM    cl1  684   0.945   2.263   1.371
    1TCM    cl2  685   0.867   2.189   1.101
    1TCM     h1  686   0.731   2.185   1.298
    1TCM    cl3  687   0.739   2.414   1.232
    1TCM     c1  688   4.800   1.694   2.378
    1TCM    cl1  689   4.714   1.778   2.509
    1TCM    cl2  690   4.801   1.797   2.233
    1TCM     h1  691   4.905   1.674   2.410
    1TCM    cl3  692   4.718   1.541   2.342
    1TCM     c1  693   2.919   1.334   2.582
    1TCM    cl1  694   2.900   1.464   2.702
    1TCM    cl2  695   2.884   1.177   2.660
    1TCM     h1  696   2.848   1.350   2.498
    1TCM    cl3  697   3.085   1.333   2.521
    1TCM     c1  698   3.172   0.524   2.688
    1TCM    cl1  699   3.247   0.447   2.546
    1TCM    cl2  700   3.299   0.560   2.809
    1TCM     h1  701   3.123   0.618   2.658
    1TCM    cl3  702   3.053   0.414   2.760
    1TCM     c1  703   2.375   4.694   1.087
    1TCM    cl1  704   2.489   4.780   1.194
    1TCM    cl2  705   2.451   4.670   0.928
    1TCM     h1  706   2.350   4.596   1.131
    1TCM    cl3  707   2.227   4.791   1.068
    1TCM     c1  708   0.583   3.441   4.133
    1TCM    cl1  709   0.471   3.543   4.227
    1TCM    cl2  710   0.580   3.492   3.963
    1TCM     h1  711   0.686   3.453   4.173
    1TCM    cl3  712   0.534   3.271   4.146
    1TCM     c1  713   2.537   0.067   1.657
    1TCM    cl1  714   2.471   0.232   1.665
    1TCM    cl2  715   2.568   0.008   1.822
    1TCM     h1  716   2.465   0.000   1.607
    1TCM    cl3  717   2.690   0.069   1.566
    1TCM     c1  718   2.635   4.949   3.672
    1TCM    cl1  719   2.576   4.876   3.823
    1TCM    cl2  720   2.675   4.821   3.555
    1TCM     h1  721   2.557   5.015   3.629
    1TCM    cl3  722   2.781   5.045   3.705
    1TCM     c1  723   3.643   3.503   4.911
    1TCM    cl1  724   3.788   3.579   4.843
    1TCM    cl2  725   3.587   3.599   5.051
    1TCM     h1  726   3.563   3.499   4.835
    1TCM    cl3  727   3.682   3.338   4.965
    1TCM     c1  728   1.734   0.197   4.692
    1TCM    cl1  729   1.706   0.029   4.641
    1TCM    cl2  730   1.903   0.242   4.660
    1TCM     h1  731   1.667   0.265   4.636
    1TCM    cl3  732   1.702   0.212   4.867
    1TCM     c1  733   3.416   3.765   1.907
    1TCM    cl1  734   3.409   3.900   2.022
    1TCM    cl2  735   3.501   3.816   1.760
    1TCM     h1  736   3.470   3.680   1.954
    1TCM    cl3  737   3.251   3.714   1.865
    1TCM     c1  738   0.140   2.720   2.136
    1TCM    cl1  739   0.000   2.797   2.058
    1TCM    cl2  740   0.110   2.708   2.311
    1TCM     h1  741   0.155   2.618   2.094
    1TCM    cl3  742   0.285   2.818   2.108
    1TCM     c1  743   1.871   0.936   3.565
    1TCM    cl1  744   1.740   1.026   3.485
    1TCM    cl2  745   1.804   0.841   3.700
    1TCM     h1  746   1.919   0.868   3.492
    1TCM    cl3  747   1.992   1.051   3.628
    1TCM     c1  748   1.438   4.574   3.672
    1TCM    cl1  749   1.403   4.425   3.764
    1TCM    cl2  750   1.508   4.531   3.515
    1TCM     h1  751   1.344   4.630   3.657
    1TCM    cl3  752   1.553   4.674   3.763
    1TCM     c1  753   1.265   3.278   3.569
    1TCM    cl1  754   1.314   3.438   3.628
    1TCM    cl2  755   1.258   3.164   3.705
    1TCM     h1  756   1.164   3.286   3.522
    1TCM    cl3  757   1.382   3.221   3.448
    1TCM     c1  758   4.850   2.335   2.481
    1TCM    cl1  759   4.990   2.420   2.413
    1TCM    cl2  760   4.790   2.423   2.624
    1TCM     h1  761   4.769   2.329   2.405
    1TCM    cl3  762   4.897   2.170   2.529
    1TCM     c1  763   2.437   1.325   1.931
    1TCM    cl1  764   2.472   1.421   2.076
    1TCM    cl2  765   2.546   1.184   1.925
    1TCM     h1  766   2.332   1.290   1.934
    1TCM    cl3  767   2.463   1.425   1.786
    1TCM     c1  768   1.353   0.120   3.664
    1TCM    cl1  769   1.477   0.000   3.707
    1TCM    cl2  770   1.417   0.228   3.538
    1TCM     h1  771   1.263   0.068   3.625
    1TCM    cl3  772   1.310   0.216   3.807
    1TCM     c1  773   4.375   3.823   2.712
    1TCM    cl1  774   4.267   3.942   2.788
    1TCM    cl2  775   4.538   3.836   2.782
    1TCM     h1  776   4.335   3.721   2.730
    1TCM    cl3  777   4.382   3.852   2.537
    1TCM     c1  778   4.494   1.367   4.047
    1TCM    cl1  779   4.531   1.247   4.173
    1TCM    cl2  780   4.470   1.284   3.892
    1TCM     h1  781   4.402   1.422   4.075
    1TCM    cl3  782   4.630   1.481   4.033
    1TCM     c1  783   3.772   1.964   2.660
    1TCM    cl1  784   3.935   2.013   2.607
    1TCM    cl2  785   3.720   2.066   2.795
    1TCM     h1  786   3.701   1.975   2.575
    1TCM    cl3  787   3.775   1.794   2.712
    1TCM     c1  788   5.015   4.016   3.395
    1TCM    cl1  789   4.984   4.174   3.469
    1TCM    cl2  790   5.135   3.928   3.494
    1TCM     h1  791   4.921   3.957   3.391
    1TCM    cl3  792   5.079   4.038   3.231
    1TCM     c1  793   0.430   1.869   0.628
    1TCM    cl1  794   0.352   2.024   0.587
    1TCM    cl2  795   0.391   1.749   0.502
    1TCM     h1  796   0.539   1.883   0.633
    1TCM    cl3  797   0.369   1.812   0.785
    1TCM     c1  798   3.692   1.818   3.642
    1TCM    cl1  799   3.727   1.742   3.485
    1TCM    cl2  800   3.551   1.738   3.716
    1TCM     h1  801   3.780   1.808   3.709
    1TCM    cl3  802   3.655   1.990   3.616
    1TCM     c1  803   1.432   2.415   2.981
    1TCM    cl1  804   1.501   2.508   3.115
    1TCM    cl2  805   1.350   2.525   2.868
    1TCM     h1  806   1.513   2.361   2.928
    1TCM    cl3  807   1.314   2.297   3.044
    1TCM     c1  808   0.306   3.044   0.183
    1TCM    cl1  809   0.445   3.026   0.292
    1TCM    cl2  810   0.347   2.983   0.022
    1TCM     h1  811   0.220   2.987   0.224
    1TCM    cl3  812   0.262   3.216   0.172
    1TCM     c1  813   0.753   4.609   5.074
    1TCM    cl1  814   0.612   4.563   5.172
    1TCM    cl2  815   0.743   4.782   5.034
    1TCM     h1  816   0.845   4.590   5.132
    1TCM    cl3  817   0.755   4.514   4.924
    1TCM     c1  818   4.756   4.745   0.200
    1TCM    cl1  819   4.700   4.580   0.165
    1TCM    cl2  820   4.733   4.780   0.373
    1TCM     h1  821   4.864   4.753   0.174
    1TCM    cl3  822   4.662   4.861   0.103
    1TCM     c1  823   0.829   1.566   0.657
    1TCM    cl1  824   0.834   1.389   0.641
    1TCM    cl2  825   0.757   1.609   0.814
    1TCM     h1  826   0.932   1.606   0.651
    1TCM    cl3  827   0.731   1.635   0.526
    1TCM     c1  828   2.432   0.392   3.528
    1TCM    cl1  829   2.453   0.255   3.639
    1TCM    cl2  830   2.390   0.331   3.366
    1TCM     h1  831   2.350   0.458   3.565
    1TCM    cl3  832   2.583   0.485   3.519
    1TCM     c1  833   0.574   1.457   3.316
    1TCM    cl1  834   0.557   1.501   3.144
    1TCM    cl2  835   0.478   1.569   3.415
    1TCM     h1  836   0.538   1.353   3.331
    1TCM    cl3  837   0.745   1.467   3.363
    1TCM     c1  838   0.277   4.499   5.014
    1TCM    cl1  839   0.347   4.634   5.106
    1TCM    cl2  840   0.264   4.356   5.119
    1TCM     h1  841   0.177   4.528   4.978
    1TCM    cl3  842   0.382   4.461   4.876
    1TCM     c1  843   4.314   1.426   2.213
    1TCM    cl1  844   4.295   1.349   2.053
    1TCM    cl2  845   4.186   1.368   2.322
    1TCM     h1  846   4.413   1.401   2.255
    1TCM    cl3  847   4.301   1.603   2.195
    1TCM     c1  848   1.512   0.651   1.791
    1TCM    cl1  849   1.372   0.634   1.683
    1TCM    cl2  850   1.463   0.609   1.957
    1TCM     h1  851   1.592   0.583   1.758
    1TCM    cl3  852   1.570   0.819   1.787
    1TCM     c1  853   2.061   1.929   3.536
    1TCM    cl1  854   2.177   2.050   3.477
    1TCM    cl2  855   2.119   1.766   3.494
    1TCM     h1  856   2.051   1.938   3.646
    1TCM    cl3  857   1.903   1.956   3.459
    1TCM     c1  858   2.594   3.552   3.816
    1TCM    cl1  859   2.498   3.543   3.666
    1TCM    cl2  860   2.766   3.573   3.775
    1TCM     h1  861   2.559   3.638   3.877
    1TCM    cl3  862   2.573   3.401   3.909
    1TCM     c1  863   0.872   1.425   3.679
    1TCM    cl1  864   0.718   1.346   3.638
    1TCM    cl2  865   0.918   1.383   3.845
    1TCM     h1  866   0.951   1.390   3.609
    1TCM    cl3  867   0.854   1.601   3.664
    1TCM     c1  868   0.785   4.425   1.925
    1TCM    cl1  869   0.649   4.477   2.027
    1TCM    cl2  870   0.761   4.485   1.759
    1TCM     h1  871   0.880   4.466   1.965
    1TCM    cl3  872   0.794   4.247   1.923
    1TCM     c1  873   3.747   4.189   2.561
    1TCM    cl1  874   3.839   4.159   2.412
    1TCM    cl2  875   3.859   4.234   2.692
    1TCM     h1  876   3.675   4.272   2.545
    1TCM    cl3  877   3.658   4.042   2.607
    1TCM     c1  878   0.592   2.468   3.526
    1TCM    cl1  879   0.549   2.324   3.620
    1TCM    cl2  880   0.565   2.614   3.625
    1TCM     h1  881   0.699   2.463   3.497
    1TCM    cl3  882   0.491   2.477   3.380
    1TCM     c1  883   1.687   4.011   1.772
    1TCM    cl1  884   1.833   4.095   1.828
    1TCM    cl2  885   1.714   3.835   1.776
    1TCM     h1  886   1.602   4.037   1.838
    1TCM    cl3  887   1.650   4.061   1.606
    1TCM     c1  888   1.757   1.649   2.704
    1TCM    cl1  889   1.735   1.712   2.539
    1TCM    cl2  890   1.737   1.472   2.704
    1TCM     h1  891   1.858   1.675   2.741
    1TCM    cl3  892   1.635   1.721   2.812
    1TCM     c1  893   3.954   0.125   4.046
    1TCM    cl1  894   3.803   0.052   3.987
    1TCM    cl2  895   4.051   0.179   3.907
    1TCM     h1  896   3.930   0.213   4.110
    1TCM    cl3  897   4.046   0.006   4.140
    1TCM     c1  898   0.173   4.537   4.600
    1TCM    cl1  899   0.165   4.678   4.709
    1TCM    cl2  900   0.285   4.572   4.466
    1TCM     h1  901   0.209   4.449   4.657
    1TCM    cl3  902   0.011   4.504   4.535
    1TCM     c1  903   1.072   1.733   0.839
    1TCM    cl1  904   1.059   1.772   1.012
    1TCM    cl2  905   1.076   1.557   0.818
    1TCM     h1  906   0.984   1.775   0.785
    1TCM    cl3  907   1.221   1.804   0.773
    1TCM     c1  908   2.694   2.812   0.194
    1TCM    cl1  909   2.610   2.782   0.040
    1TCM    cl2  910   2.610   2.725   0.325
    1TCM     h1  911   2.799   2.776   0.187
    1TCM    cl3  912   2.693   2.986   0.229
    1TCM     c1  913   3.677   1.356   3.468
    1TCM    cl1  914   3.727   1.247   3.599
    1TCM    cl2  915   3.664   1.265   3.316
    1TCM     h1  916   3.578   1.401   3.493
    1TCM    cl3  917   3.797   1.486   3.449
    1TCM     c1  918   3.513   0.290   1.964
    1TCM    cl1  919   3.663   0.356   1.896
    1TCM    cl2  920   3.530   0.271   2.140
    1TCM     h1  921   3.429   0.359   1.942
    1TCM    cl3  922   3.480   0.131   1.890
    1TCM     c1  923   4.133   2.692   1.558
    1TCM    cl1  924   4.259   2.765   1.457
    1TCM    cl2  925   4.189   2.535   1.619
    1TCM     h1  926   4.110   2.759   1.643
    1TCM    cl3  927   3.986   2.669   1.460
    1TCM     c1  928   2.993   4.256   2.688
    1TCM    cl1  929   2.982   4.341   2.844
    1TCM    cl2  930   3.118   4.130   2.698
    1TCM     h1  931   2.895   4.210   2.663
    1TCM    cl3  932   3.037   4.373   2.560
    1TCM     c1  933   4.440   1.118   2.772
    1TCM    cl1  934   4.541   1.167   2.910
    1TCM    cl2  935   4.424   0.941   2.771
    1TCM     h1  936   4.339   1.164   2.782
    1TCM    cl3  937   4.515   1.171   2.621
    1TCM     c1  938   1.128   2.159   4.916
    1TCM    cl1  939   1.199   2.306   4.988
    1TCM    cl2  940   1.254   2.034   4.902
    1TCM     h1  941   1.046   2.122   4.980
    1TCM    cl3  942   1.065   2.197   4.754
    1TCM     c1  943   2.377   4.661   4.629
    1TCM    cl1  944   2.356   4.547   4.764
    1TCM    cl2  945   2.544   4.722   4.630
    1TCM     h1  946   2.357   4.609   4.534
    1TCM    cl3  947   2.264   4.797   4.648
    1TCM     c1  948   2.350   5.144   5.106
    1TCM    cl1  949   2.447   5.055   5.226
    1TCM    cl2  950   2.435   5.144   4.950
    1TCM     h1  951   2.251   5.095   5.095
    1TCM    cl3  952   2.327   5.311   5.161
    1TCM     c1  953   2.050   1.303   2.974
    1TCM    cl1  954   1.965   1.417   2.867
    1TCM    cl2  955   2.092   1.156   2.883
    1TCM     h1  956   2.143   1.350   3.013
    1TCM    cl3  957   1.945   1.259   3.111
    1TCM     c1  958   1.928   2.218   5.135
    1TCM    cl1  959   1.850   2.195   5.294
    1TCM    cl2  960   2.020   2.072   5.094
    1TCM     h1  961   1.850   2.236   5.058
    1TCM    cl3  962   2.038   2.357   5.142
    1TCM     c1  963   2.282   1.958   1.625
    1TCM    cl1  964   2.374   1.935   1.776
    1TCM    cl2  965   2.269   2.132   1.590
    1TCM     h1  966   2.333   1.907   1.542
    1TCM    cl3  967   2.119   1.889   1.645
    1TCM     c1  968   2.729   2.707   0.907
    1TCM    cl1  969   2.818   2.759   0.762
    1TCM    cl2  970   2.801   2.557   0.970
    1TCM     h1  971   2.735   2.786   0.985
    1TCM    cl3  972   2.559   2.678   0.865
    1TCM     c1  973   3.065   1.862   2.001
    1TCM    cl1  974   2.903   1.929   1.969
    1TCM    cl2  975   3.099   1.873   2.175
    1TCM     h1  976   3.068   1.756   1.969
    1TCM    cl3  977   3.186   1.955   1.911
    1TCM     c1  978   4.653   4.505   2.743
    1TCM    cl1  979   4.810   4.464   2.816
    1TCM    cl2  980   4.558   4.602   2.858
    1TCM     h1  981   4.670   4.564   2.650
    1TCM    cl3  982   4.565   4.356   2.704
    1TCM     c1  983   3.228   0.486   4.939
    1TCM    cl1  984   3.095   0.406   5.025
    1TCM    cl2  985   3.177   0.522   4.772
    1TCM     h1  986   3.254   0.581   4.991
    1TCM    cl3  987   3.370   0.379   4.935
    1TCM     c1  988   3.962   3.986   4.146
    1TCM    cl1  989   4.059   4.122   4.207
    1TCM    cl2  990   4.070   3.855   4.094
    1TCM     h1  991   3.895   3.950   4.226
    1TCM    cl3  992   3.865   4.041   4.007
    1TCM     c1  993   2.082   1.349   2.628
    1TCM    cl1  994   1.996   1.500   2.664
    1TCM    cl2  995   1.978   1.211   2.666
    1TCM     h1  996   2.109   1.346   2.520
    1TCM    cl3  997   2.230   1.340   2.726
    1TCM     c1  998   2.681   0.473   0.144
    1TCM    cl1  999   2.560   0.495   0.015
    1TCM    cl2 1000   2.607   0.512   0.301
    1TCM     h1 1001   2.715   0.368   0.145
    1TCM    cl3 1002   2.819   0.581   0.115
    1TCM     c1 1003   2.453   2.935   2.039
    1TCM    cl1 1004   2.297   2.876   1.977
    1TCM    cl2 1005   2.499   2.839   2.182
    1TCM     h1 1006   2.531   2.925   1.961
    1TCM    cl3 1007   2.438   3.106   2.085
    1TCM     c1 1008   1.151   4.919   1.690
    1TCM    cl1 1009   1.101   5.003   1.839
    1TCM    cl2 1010   1.087   5.006   1.549
    1TCM     h1 1011   1.262   4.916   1.685
    1TCM    cl3 1012   1.086   4.753   1.692
    1TCM     c1 1013   4.253   2.324   4.429
    1TCM    cl1 1014   4.343   2.365   4.281
    1TCM    cl2 1015   4.193   2.473   4.505
    1TCM     h1 1016   4.168   2.258   4.403
    1TCM    cl3 1017   4.362   2.239   4.541
    1TCM     c1 1018   1.907   5.084   5.118
    1TCM    cl1 1019   1.974   4.974   4.996
    1TCM    cl2 1020   1.867   4.992   5.265
    1TCM     h1 1021   1.981   5.162   5.143
    1TCM    cl3 1022   1.759   5.161   5.055
    1TCM     c1 1023   3.462   3.889   0.631
    1TCM    cl1 1024   3.526   4.031   0.545
    1TCM    cl2 1025   3.593   3.809   0.720
    1TCM     h1 1026   3.383   3.921   0.701
    1TCM    cl3 1027   3.394   3.775   0.512
    1TCM     c1 1028   4.663   0.984   1.068
    1TCM    cl1 1029   4.637   0.817   1.123
    1TCM    cl2 1030   4.768   1.068   1.184
    1TCM     h1 1031   4.711   0.983   0.968
    1TCM    cl3 1032   4.507   1.068   1.058
    1TCM     c1 1033   4.188   1.886   1.985
    1TCM    cl1 1034   4.104   1.950   2.128
    1TCM    cl2 1035   4.145   1.983   1.843
    1TCM     h1 1036   4.298   1.890   2.002
    1TCM    cl3 1037   4.139   1.717   1.959
    1TCM     c1 1038   4.130   1.736   0.107
    1TCM    cl1 1039   4.186   1.885   0.187
    1TCM    cl2 1040   3.983   1.677   0.188
    1TCM     h1 1041   4.108   1.757   0.001
    1TCM    cl3 1042   4.257   1.611   0.118
    1TCM     c1 1043   3.995   3.234   4.803
    1TCM    cl1 1044   4.089   3.280   4.660
    1TCM    cl2 1045   3.888   3.368   4.851
    1TCM     h1 1046   3.933   3.144   4.780
    1TCM    cl3 1047   4.106   3.196   4.937
    1TCM     c1 1048   1.329   0.528   3.811
    1TCM    cl1 1049   1.258   0.429   3.682
    1TCM    cl2 1050   1.408   0.670   3.739
    1TCM     h1 1051   1.249   0.561   3.880
    1TCM    cl3 1052   1.449   0.432   3.900
    1TCM     c1 1053   3.569   0.362   1.446
    1TCM    cl1 1054   3.719   0.402   1.533
    1TCM    cl2 1055   3.509   0.205   1.502
    1TCM     h1 1056   3.493   0.440   1.465
    1TCM    cl3 1057   3.603   0.353   1.271
    1TCM     c1 1058   1.256   0.348   4.215
    1TCM    cl1 1059   1.124   0.442   4.289
    1TCM    cl2 1060   1.409   0.386   4.298
    1TCM     h1 1061   1.235   0.240   4.225
    1TCM    cl3 1062   1.270   0.390   4.043
    1TCM     c1 1063   3.119   5.281   3.652
    1TCM    cl1 1064   3.118   5.103   3.652
    1TCM    cl2 1065   3.105   5.340   3.484
    1TCM     h1 1066   3.034   5.319   3.711
    1TCM    cl3 1067   3.271   5.340   3.722
    1TCM     c1 1068   2.281   1.215   4.286
    1TCM    cl1 1069   2.274   1.049   4.350
    1TCM    cl2 1070   2.193   1.223   4.132
    1TCM     h1 1071   2.234   1.284   4.359
    1TCM    cl3 1072   2.451   1.261   4.261
    1TCM     c1 1073   3.296   0.857   0.382
    1TCM    cl1 1074   3.313   0.704   0.471
    1TCM    cl2 1075   3.457   0.913   0.330
    1TCM     h1 1076   3.231   0.841   0.294
    1TCM    cl3 1077   3.222   0.979   0.488
    1TCM     c1 1078   1.720   2.195   2.886
    1TCM    cl1 1079   1.859   2.138   2.791
    1TCM    cl2 1080   1.755   2.357   2.951
    1TCM     h1 1081   1.630   2.201   2.821
    1TCM    cl3 1082   1.689   2.083   3.020
    1TCM     c1 1083   4.967   4.033   4.711
    1TCM    cl1 1084   5.129   4.105   4.703
    1TCM    cl2 1085   4.890   4.078   4.865
    1TCM     h1 1086   4.905   4.071   4.627
    1TCM    cl3 1087   4.980   3.856   4.701
    1TCM     c1 1088   0.856   1.060   2.793
    1TCM    cl1 1089   0.867   0.895   2.859
    1TCM    cl2 1090   0.705   1.077   2.702
    1TCM     h1 1091   0.858   1.133   2.876
    1TCM    cl3 1092   0.994   1.090   2.685
    1TCM     c1 1093   4.723   0.999   3.674
    1TCM    cl1 1094   4.652   0.896   3.801
    1TCM    cl2 1095   4.671   0.942   3.514
    1TCM     h1 1096   4.690   1.104   3.689
    1TCM    cl3 1097   4.901   0.992   3.685
    1TCM     c1 1098   5.113   4.778   0.630
    1TCM    cl1 1099   5.224   4.884   0.541
    1TCM    cl2 1100   5.108   4.828   0.801
    1TCM     h1 1101   5.011   4.786   0.587
    1TCM    cl3 1102   5.170   4.610   0.619
    1TCM     c1 1103   0.734   3.388   0.380
    1TCM    cl1 1104   0.705   3.393   0.205
    1TCM    cl2 1105   0.641   3.518   0.459
    1TCM     h1 1106   0.701   3.290   0.420
    1TCM    cl3 1107   0.907   3.411   0.413
    1TCM     c1 1108   1.225   2.475   4.758
    1TCM    cl1 1109   1.261   2.301   4.746
    1TCM    cl2 1110   1.316   2.545   4.894
    1TCM     h1 1111   1.256   2.526   4.663
    1TCM    cl3 1112   1.051   2.498   4.784
    1TCM     c1 1113   0.766   3.244   0.661
    1TCM    cl1 1114   0.607   3.310   0.618
    1TCM    cl2 1115   0.752   3.150   0.812
    1TCM     h1 1116   0.802   3.178   0.580
    1TCM    cl3 1117   0.882   3.377   0.686
    1TCM     c1 1118   4.276   1.671   2.607
    1TCM    cl1 1119   4.145   1.558   2.649
    1TCM    cl2 1120   4.329   1.640   2.440
    1TCM     h1 1121   4.239   1.775   2.615
    1TCM    cl3 1122   4.413   1.648   2.718
    1TCM     c1 1123   2.124   0.590   4.389
    1TCM    cl1 1124   2.290   0.554   4.441
    1TCM    cl2 1125   2.042   0.438   4.345
    1TCM     h1 1126   2.069   0.639   4.471
    1TCM    cl3 1127   2.128   0.697   4.247
    1TCM     c1 1128   0.416   0.145   2.540
    1TCM    cl1 1129   0.467  -0.001   2.628
    1TCM    cl2 1130   0.463   0.131   2.370
    1TCM     h1 1131   0.306   0.155   2.547
    1TCM    cl3 1132   0.494   0.287   2.612
    1TCM     c1 1133   1.826   4.527   4.451
    1TCM    cl1 1134   1.871   4.698   4.433
    1TCM    cl2 1135   1.906   4.459   4.595
    1TCM     h1 1136   1.715   4.518   4.463
    1TCM    cl3 1137   1.877   4.436   4.307
    1TCM     c1 1138   4.245   4.579   1.539
    1TCM    cl1 1139   4.119   4.459   1.502
    1TCM    cl2 1140   4.268   4.686   1.399
    1TCM     h1 1141   4.213   4.639   1.627
    1TCM    cl3 1142   4.397   4.495   1.577
    1TCM     c1 1143   1.143   2.577   0.601
    1TCM    cl1 1144   1.064   2.658   0.738
    1TCM    cl2 1145   1.312   2.542   0.642
    1TCM     h1 1146   1.090   2.482   0.578
    1TCM    cl3 1147   1.137   2.683   0.458
    1TCM     c1 1148   1.390   0.920   4.312
    1TCM    cl1 1149   1.372   0.773   4.214
    1TCM    cl2 1150   1.251   0.934   4.422
    1TCM     h1 1151   1.483   0.914   4.371
    1TCM    cl3 1152   1.396   1.062   4.205
    1TCM     c1 1153   1.881   1.610   0.890
    1TCM    cl1 1154   1.968   1.480   0.806
    1TCM    cl2 1155   1.946   1.628   1.055
    1TCM     h1 1156   1.894   1.705   0.835
    1TCM    cl3 1157   1.708   1.569   0.899
    1TCM     c1 1158   1.236   4.619   1.409
    1TCM    cl1 1159   1.329   4.671   1.551
    1TCM    cl2 1160   1.348   4.575   1.278
    1TCM     h1 1161   1.174   4.531   1.435
    1TCM    cl3 1162   1.131   4.752   1.354
    1TCM     c1 1163   5.001   2.743   2.552
    1TCM    cl1 1164   4.849   2.664   2.597
    1TCM    cl2 1165   4.992   2.795   2.381
    1TCM     h1 1166   5.018   2.832   2.616
    1TCM    cl3 1167   5.136   2.629   2.572
    1TCM     c1 1168   0.864   2.470   0.169
    1TCM    cl1 1169   0.993   2.469   0.291
    1TCM    cl2 1170   0.929   2.409   0.014
    1TCM     h1 1171   0.781   2.405   0.202
    1TCM    cl3 1172   0.804   2.636   0.146
    1TCM     c1 1173   3.649   4.780   3.418
    1TCM    cl1 1174   3.707   4.638   3.508
    1TCM    cl2 1175   3.567   4.891   3.530
    1TCM     h1 1176   3.736   4.832   3.372
    1TCM    cl3 1177   3.536   4.729   3.292
    1TCM     c1 1178   2.183   1.032   2.423
    1TCM    cl1 1179   2.014   1.082   2.398
    1TCM    cl2 1180   2.276   1.169   2.489
    1TCM     h1 1181   2.187   0.947   2.495
    1TCM    cl3 1182   2.253   0.981   2.268
    1TCM     c1 1183   0.702   4.575   4.506
    1TCM    cl1 1184   0.746   4.694   4.381
    1TCM    cl2 1185   0.605   4.446   4.433
    1TCM     h1 1186   0.794   4.532   4.549
    1TCM    cl3 1187   0.608   4.655   4.634
    1TCM     c1 1188   2.042   4.849   3.929
    1TCM    cl1 1189   2.161   4.972   3.976
    1TCM    cl2 1190   2.081   4.695   4.009
    1TCM     h1 1191   1.941   4.881   3.959
    1TCM    cl3 1192   2.047   4.827   3.752
    1TCM     c1 1193   1.159   0.264   1.233
    1TCM    cl1 1194   1.075   0.273   1.076
    1TCM    cl2 1195   1.172   0.427   1.302
    1TCM     h1 1196   1.101   0.199   1.302
    1TCM    cl3 1197   1.321   0.196   1.209
    1TCM     c1 1198   2.508   3.140   1.112
    1TCM    cl1 1199   2.525   3.262   0.985
    1TCM    cl2 1200   2.656   3.135   1.211
    1TCM     h1 1201   2.421   3.166   1.177
    1TCM    cl3 1202   2.480   2.980   1.039
    1TCM     c1 1203   1.016   3.635   1.093
    1TCM    cl1 1204   1.133   3.651   1.226
    1TCM    cl2 1205   0.851   3.655   1.157
    1TCM     h1 1206   1.036   3.712   1.016
    1TCM    cl3 1207   1.032   3.473   1.020
    1TCM     c1 1208   3.743   2.398   2.044
    1TCM    cl1 1209   3.595   2.381   2.143
    1TCM    cl2 1210   3.698   2.402   1.872
    1TCM     h1 1211   3.794   2.492   2.071
    1TCM    cl3 1212   3.851   2.260   2.074
    1TCM     c1 1213   2.799   2.448   1.245
    1TCM    cl1 1214   2.665   2.542   1.175
    1TCM    cl2 1215   2.794   2.461   1.422
    1TCM     h1 1216   2.789   2.342   1.215
    1TCM    cl3 1217   2.954   2.512   1.186
    1TCM     c1 1218   2.741   3.504   4.286
    1TCM    cl1 1219   2.819   3.516   4.445
    1TCM    cl2 1220   2.733   3.334   4.237
    1TCM     h1 1221   2.638   3.546   4.292
    1TCM    cl3 1222   2.836   3.596   4.167
    1TCM     c1 1223   1.222   2.798   4.105
    1TCM    cl1 1224   1.390   2.766   4.057
    1TCM    cl2 1225   1.219   2.888   4.258
    1TCM     h1 1226   1.172   2.858   4.026
    1TCM    cl3 1227   1.135   2.644   4.125
    1TCM     c1 1228   1.521   2.920   3.457
    1TCM    cl1 1229   1.485   2.755   3.404
    1TCM    cl2 1230   1.655   2.986   3.360
    1TCM     h1 1231   1.432   2.984   3.444
    1TCM    cl3 1232   1.568   2.918   3.629
    1TCM     c1 1233   3.866   4.823   3.954
    1TCM    cl1 1234   3.861   4.984   3.879
    1TCM    cl2 1235   3.718   4.733   3.914
    1TCM     h1 1236   3.955   4.767   3.917
    1TCM    cl3 1237   3.878   4.840   4.131
    1TCM     c1 1238   0.184   3.218   0.522
    1TCM    cl1 1239   0.062   3.286   0.631
    1TCM    cl2 1240   0.204   3.325   0.381
    1TCM     h1 1241   0.281   3.210   0.576
    1TCM    cl3 1242   0.132   3.057   0.468
    1TCM     c1 1243   1.454   2.316   5.094
    1TCM    cl1 1244   1.434   2.237   4.936
    1TCM    cl2 1245   1.337   2.250   5.209
    1TCM     h1 1246   1.557   2.298   5.131
    1TCM    cl3 1247   1.428   2.491   5.077
    1TCM     c1 1248   0.249   1.907   3.010
    1TCM    cl1 1249   0.408   1.837   2.971
    1TCM    cl2 1250   0.266   2.019   3.148
    1TCM     h1 1251   0.211   1.962   2.922
    1TCM    cl3 1252   0.136   1.777   3.053
    1TCM     c1 1253   3.684   0.180   4.934
    1TCM    cl1 1254   3.517   0.122   4.950
    1TCM    cl2 1255   3.728   0.275   5.078
    1TCM     h1 1256   3.753   0.093   4.925
    1TCM    cl3 1257   3.698   0.282   4.789
    1TCM     c1 1258   1.816   2.765   2.106
    1TCM    cl1 1259   1.767   2.922   2.175
    1TCM    cl2 1260   1.678   2.653   2.111
    1TCM     h1 1261   1.848   2.780   2.001
    1TCM    cl3 1262   1.951   2.699   2.201
    1TCM     c1 1263   4.223   0.603   4.298
    1TCM    cl1 1264   4.233   0.655   4.128
    1TCM    cl2 1265   4.161   0.736   4.398
    1TCM     h1 1266   4.154   0.516   4.306
    1TCM    cl3 1267   4.385   0.556   4.355
    1TCM     c1 1268   0.249   3.825   1.550
    1TCM    cl1 1269   0.248   3.767   1.718
    1TCM    cl2 1270   0.417   3.836   1.493
    1TCM     h1 1271   0.193   3.753   1.486
    1TCM    cl3 1272   0.173   3.985   1.541
    1TCM     c1 1273   0.256   1.633   0.924
    1TCM    cl1 1274   0.256   1.585   0.753
    1TCM    cl2 1275   0.423   1.646   0.982
    1TCM     h1 1276   0.205   1.731   0.935
    1TCM    cl3 1277   0.169   1.510   1.019
    1TCM     c1 1278   3.707   2.639   2.847
    1TCM    cl1 1279   3.643   2.602   3.009
    1TCM    cl2 1280   3.662   2.804   2.801
    1TCM     h1 1281   3.818   2.629   2.848
    1TCM    cl3 1282   3.640   2.524   2.730
    1TCM     c1 1283   0.240   4.863   2.880
    1TCM    cl1 1284   0.284   4.851   3.052
    1TCM    cl2 1285   0.063   4.858   2.865
    1TCM     h1 1286   0.278   4.959   2.839
    1TCM    cl3 1287   0.311   4.727   2.791
    1TCM     c1 1288   0.188   4.626   2.453
    1TCM    cl1 1289   0.044   4.731   2.458
    1TCM    cl2 1290   0.238   4.586   2.618
    1TCM     h1 1291   0.164   4.533   2.398
    1TCM    cl3 1292   0.320   4.712   2.370
    1TCM     c1 1293   0.589   2.518   2.495
    1TCM    cl1 1294   0.669   2.553   2.650
    1TCM    cl2 1295   0.629   2.645   2.377
    1TCM     h1 1296   0.623   2.420   2.457
    1TCM    cl3 1297   0.413   2.515   2.520
    1TCM     c1 1298   0.650   4.015   2.859
    1TCM    cl1 1299   0.516   4.012   2.742
    1TCM    cl2 1300   0.726   3.855   2.866
    1TCM     h1 1301   0.724   4.091   2.829
    1TCM    cl3 1302   0.586   4.057   3.020
    1TCM     c1 1303   2.369   0.694   4.100
    1TCM    cl1 1304   2.397   0.618   4.258
    1TCM    cl2 1305   2.525   0.738   4.026
    1TCM     h1 1306   2.316   0.622   4.033
    1TCM    cl3 1307   2.270   0.840   4.121
    1TCM     c1 1308   1.695   1.861   2.100
    1TCM    cl1 1309   1.685   1.702   2.020
    1TCM    cl2 1310   1.690   1.839   2.276
    1TCM     h1 1311   1.790   1.910   2.072
    1TCM    cl3 1312   1.558   1.962   2.049
    1TCM     c1 1313   0.872   3.301   2.300
    1TCM    cl1 1314   1.008   3.300   2.414
    1TCM    cl2 1315   0.821   3.469   2.270
    1TCM     h1 1316   0.903   3.254   2.204
    1TCM    cl3 1317   0.736   3.210   2.369
    1TCM     c1 1318   4.718   3.774   3.079
    1TCM    cl1 1319   4.670   3.847   3.234
    1TCM    cl2 1320   4.680   3.600   3.081
    1TCM     h1 1321   4.663   3.823   2.997
    1TCM    cl3 1322   4.893   3.796   3.055
    1TCM     c1 1323   4.232   1.059   4.581
    1TCM    cl1 1324   4.298   1.195   4.676
    1TCM    cl2 1325   4.185   1.117   4.420
    1TCM     h1 1326   4.309   0.980   4.571
    1TCM    cl3 1327   4.090   0.993   4.665
    1TCM     c1 1328   0.152   3.120   4.653
    1TCM    cl1 1329   0.156   3.291   4.703
    1TCM    cl2 1330   0.129   3.110   4.477
    1TCM     h1 1331   0.248   3.071   4.681
    1TCM    cl3 1332   0.018   3.037   4.735
    1TCM     c1 1333   1.073   1.929   0.409
    1TCM    cl1 1334   1.081   2.016   0.564
    1TCM    cl2 1335   1.119   2.039   0.277
    1TCM     h1 1336   1.143   1.843   0.412
    1TCM    cl3 1337   0.908   1.870   0.382
    1TCM     c1 1338   1.931   2.145   1.783
    1TCM    cl1 1339   2.002   2.141   1.946
    1TCM    cl2 1340   1.873   1.982   1.740
    1TCM     h1 1341   1.847   2.216   1.781
    1TCM    cl3 1342   2.055   2.196   1.665
    1TCM     c1 1343   2.588   4.469   3.832
    1TCM    cl1 1344   2.549   4.370   3.975
    1TCM    cl2 1345   2.743   4.416   3.764
    1TCM     h1 1346   2.508   4.457   3.756
    1TCM    cl3 1347   2.599   4.640   3.880
    1TCM     c1 1348   3.316   0.576   1.769
    1TCM    cl1 1349   3.411   0.660   1.894
    1TCM    cl2 1350   3.355   0.645   1.610
    1TCM     h1 1351   3.341   0.468   1.770
    1TCM    cl3 1352   3.143   0.597   1.802
    1TCM     c1 1353   2.484   4.826   4.929
    1TCM    cl1 1354   2.533   4.671   5.001
    1TCM    cl2 1355   2.622   4.938   4.929
    1TCM     h1 1356   2.450   4.809   4.824
    1TCM    cl3 1357   2.350   4.895   5.024
    1TCM     c1 1358   2.663   1.911   3.389
    1TCM    cl1 1359   2.812   1.996   3.437
    1TCM    cl2 1360   2.544   1.924   3.520
    1TCM     h1 1361   2.622   1.957   3.297
    1TCM    cl3 1362   2.700   1.740   3.358
    1TCM     c1 1363   0.874   1.752   5.040
    1TCM    cl1 1364   0.925   1.913   5.095
    1TCM    cl2 1365   0.818   1.657   5.180
    1TCM     h1 1366   0.792   1.763   4.967
    1TCM    cl3 1367   1.012   1.669   4.964
    1TCM     c1 1368   3.151   1.147   3.129
    1TCM    cl1 1369   3.261   1.203   3.256
    1TCM    cl2 1370   3.229   1.166   2.970
    1TCM     h1 1371   3.127   1.040   3.145
    1TCM    cl3 1372   3.001   1.243   3.133
    1TCM     c1 1373   3.700   0.708   1.647
    1TCM    cl1 1374   3.582   0.840   1.656
    1TCM    cl2 1375   3.761   0.671   1.810
    1TCM     h1 1376   3.651   0.618   1.605
    1TCM    cl3 1377   3.835   0.756   1.542
    1TCM     c1 1378   0.479   0.326   0.726
    1TCM    cl1 1379   0.641   0.304   0.797
    1TCM    cl2 1380   0.400   0.168   0.707
    1TCM     h1 1381   0.418   0.390   0.794
    1TCM    cl3 1382   0.493   0.405   0.568
    1TCM     c1 1383   0.864   3.853   3.726
    1TCM    cl1 1384   0.885   3.687   3.667
    1TCM    cl2 1385   1.006   3.951   3.681
    1TCM     h1 1386   0.773   3.897   3.680
    1TCM    cl3 1387   0.847   3.852   3.903
    1TCM     c1 1388   5.248   4.257   4.394
    1TCM    cl1 1389   5.280   4.295   4.565
    1TCM    cl2 1390   5.078   4.296   4.355
    1TCM     h1 1391   5.315   4.317   4.329
    1TCM    cl3 1392   5.277   4.084   4.366
    1TCM     c1 1393   3.758   1.794   0.927
    1TCM    cl1 1394   3.779   1.683   1.064
    1TCM    cl2 1395   3.892   1.911   0.925
    1TCM     h1 1396   3.758   1.737   0.832
    1TCM    cl3 1397   3.604   1.881   0.943
    1TCM     c1 1398   3.457   4.440   3.717
    1TCM    cl1 1399   3.531   4.581   3.638
    1TCM    cl2 1400   3.584   4.322   3.758
    1TCM     h1 1401   3.405   4.472   3.809
    1TCM    cl3 1402   3.340   4.364   3.606
    1TCM     c1 1403   1.712   4.725   3.245
    1TCM    cl1 1404   1.862   4.733   3.151
    1TCM    cl2 1405   1.686   4.879   3.329
    1TCM     h1 1406   1.627   4.705   3.177
    1TCM    cl3 1407   1.725   4.594   3.365
    1TCM     c1 1408   2.646   0.504   2.627
    1TCM    cl1 1409   2.727   0.648   2.692
    1TCM    cl2 1410   2.532   0.441   2.748
    1TCM     h1 1411   2.592   0.530   2.535
    1TCM    cl3 1412   2.768   0.379   2.591
    1TCM     c1 1413   3.331   2.149   4.222
    1TCM    cl1 1414   3.326   2.003   4.121
    1TCM    cl2 1415   3.169   2.182   4.287
    1TCM     h1 1416   3.402   2.133   4.306
    1TCM    cl3 1417   3.385   2.287   4.124
    1TCM     c1 1418   2.968   2.444   0.593
    1TCM    cl1 1419   2.801   2.418   0.649
    1TCM    cl2 1420   2.965   2.546   0.447
    1TCM     h1 1421   3.026   2.495   0.672
    1TCM    cl3 1422   3.043   2.288   0.554
    1TCM     c1 1423   1.642   0.567   4.915
    1TCM    cl1 1424   1.527   0.693   4.865
    1TCM    cl2 1425   1.574   0.475   5.052
    1TCM     h1 1426   1.661   0.498   4.831
    1TCM    cl3 1427   1.795   0.643   4.966
    1TCM     c1 1428   0.768   1.647   1.668
    1TCM    cl1 1429   0.657   1.681   1.803
    1TCM    cl2 1430   0.744   1.480   1.612
    1TCM     h1 1431   0.746   1.717   1.584
    1TCM    cl3 1432   0.936   1.669   1.722
    1TCM     c1 1433   5.049   3.199   0.317
    1TCM    cl1 1434   4.896   3.189   0.405
    1TCM    cl2 1435   5.017   3.234   0.146
    1TCM     h1 1436   5.112   3.280   0.360
    1TCM    cl3 1437   5.135   3.044   0.330
    1TCM     c1 1438   0.658   1.691   4.010
    1TCM    cl1 1439   0.710   1.855   3.965
    1TCM    cl2 1440   0.579   1.695   4.169
    1TCM     h1 1441   0.586   1.653   3.934
    1TCM    cl3 1442   0.799   1.583   4.016
    1TCM     c1 1443   0.933   0.779   0.426
    1TCM    cl1 1444   0.762   0.731   0.436
    1TCM    cl2 1445   1.023   0.707   0.561
    1TCM     h1 1446   0.975   0.743   0.330
    1TCM    cl3 1447   0.945   0.956   0.433
    1TCM     c1 1448   3.593   4.931   4.884
    1TCM    cl1 1449   3.651   5.027   5.022
    1TCM    cl2 1450   3.580   4.760   4.931
    1TCM     h1 1451   3.494   4.968   4.852
    1TCM    cl3 1452   3.708   4.945   4.749
    1TCM     c1 1453   3.229   4.016   3.670
    1TCM    cl1 1454   3.082   3.978   3.578
    1TCM    cl2 1455   3.234   3.916   3.817
    1TCM     h1 1456   3.318   3.995   3.607
    1TCM    cl3 1457   3.228   4.188   3.716
    1TCM     c1 1458   2.879   4.416   3.323
    1TCM    cl1 1459   2.785   4.307   3.219
    1TCM    cl2 1460   2.779   4.466   3.462
    1TCM     h1 1461   2.970   4.364   3.359
    1TCM    cl3 1462   2.926   4.560   3.230
    1TCM     c1 1463   3.456   1.380   2.722
    1TCM    cl1 1464   3.610   1.291   2.713
    1TCM    cl2 1465   3.397   1.412   2.558
    1TCM     h1 1466   3.381   1.319   2.777
    1TCM    cl3 1467   3.481   1.534   2.807
    1TCM     c1 1468   4.556   2.073   5.156
    1TCM    cl1 1469   4.670   2.209   5.145
    1TCM    cl2 1470   4.642   1.930   5.218
    1TCM     h1 1471   4.474   2.100   5.226
    1TCM    cl3 1472   4.490   2.038   4.995
    1TCM     c1 1473   3.213   2.181   0.759
    1TCM    cl1 1474   3.065   2.206   0.854
    1TCM    cl2 1475   3.239   2.320   0.652
    1TCM     h1 1476   3.299   2.170   0.828
    1TCM    cl3 1477   3.197   2.033   0.661
    1TCM     c1 1478   4.636   4.834   1.579
    1TCM    cl1 1479   4.677   4.684   1.492
    1TCM    cl2 1480   4.622   4.799   1.753
    1TCM     h1 1481   4.716   4.909   1.562
    1TCM    cl3 1482   4.482   4.898   1.518
    1TCM     c1 1483   4.689   0.741   3.265
    1TCM    cl1 1484   4.544   0.762   3.164
    1TCM    cl2 1485   4.640   0.706   3.432
    1TCM     h1 1486   4.749   0.656   3.226
    1TCM    cl3 1487   4.787   0.889   3.260
    1TCM     c1 1488   3.567   2.198   0.431
    1TCM    cl1 1489   3.402   2.233   0.487
    1TCM    cl2 1490   3.674   2.178   0.572
    1TCM     h1 1491   3.567   2.105   0.371
    1TCM    cl3 1492   3.626   2.333   0.331
    1TCM     c1 1493   1.763   0.146   2.723
    1TCM    cl1 1494   1.686   0.301   2.684
    1TCM    cl2 1495   1.746   0.114   2.897
    1TCM     h1 1496   1.714   0.065   2.665
    1TCM    cl3 1497   1.936   0.153   2.681
    1TCM     c1 1498   1.347   4.557   5.111
    1TCM    cl1 1499   1.388   4.530   4.940
    1TCM    cl2 1500   1.259   4.711   5.128
    1TCM     h1 1501   1.283   4.474   5.147
    1TCM    cl3 1502   1.496   4.563   5.208
    1TCM     c1 1503   5.119   0.296   4.508
    1TCM    cl1 1504   5.274   0.274   4.422
    1TCM    cl2 1505   5.147   0.288   4.683
    1TCM     h1 1506   5.076   0.395   4.482
    1TCM    cl3 1507   5.006   0.168   4.460
    1TCM     c1 1508   4.340   4.853   0.263
    1TCM    cl1 1509   4.248   4.994   0.204
    1TCM    cl2 1510   4.393   4.755   0.124
    1TCM     h1 1511   4.429   4.888   0.319
    1TCM    cl3 1512   4.237   4.755   0.369
    1TCM     c1 1513   0.679   2.689   3.986
    1TCM    cl1 1514   0.832   2.778   3.961
    1TCM    cl2 1515   0.666   2.559   3.865
    1TCM     h1 1516   0.678   2.645   4.088
    1TCM    cl3 1517   0.542   2.801   3.968
    1TCM     c1 1518   4.098   1.373   1.659
    1TCM    cl1 1519   4.142   1.545   1.648
    1TCM    cl2 1520   4.205   1.292   1.776
    1TCM     h1 1521   3.993   1.364   1.694
    1TCM    cl3 1522   4.115   1.297   1.500
    1TCM     c1 1523   1.452   4.908   0.323
    1TCM    cl1 1524   1.541   4.828   0.455
    1TCM    cl2 1525   1.308   4.812   0.283
    1TCM     h1 1526   1.421   5.009   0.355
    1TCM    cl3 1527   1.557   4.920   0.180
    1TCM     c1 1528   3.306   1.040   4.114
    1TCM    cl1 1529   3.427   1.131   4.021
    1TCM    cl2 1530   3.288   1.113   4.275
    1TCM     h1 1531   3.208   1.044   4.060
    1TCM    cl3 1532   3.358   0.871   4.130
    1TCM     c1 1533   4.654   3.540   3.700
    1TCM    cl1 1534   4.521   3.657   3.695
    1TCM    cl2 1535   4.589   3.376   3.714
    1TCM     h1 1536   4.713   3.548   3.606
    1TCM    cl3 1537   4.759   3.575   3.839
    1TCM     c1 1538   1.414   0.837   0.653
    1TCM    cl1 1539   1.587   0.871   0.630
    1TCM    cl2 1540   1.376   0.676   0.589
    1TCM     h1 1541   1.390   0.841   0.761
    1TCM    cl3 1542   1.317   0.960   0.567
    1TCM     c1 1543   1.285   1.938   1.104
    1TCM    cl1 1544   1.355   2.008   1.252
    1TCM    cl2 1545   1.125   2.010   1.075
    1TCM     h1 1546   1.351   1.960   1.018
    1TCM    cl3 1547   1.269   1.762   1.123
    1TCM     c1 1548   3.547   3.063   2.461
    1TCM    cl1 1549   3.378   3.048   2.408
    1TCM    cl2 1550   3.556   3.042   2.637
    1TCM     h1 1551   3.608   2.985   2.411
    1TCM    cl3 1552   3.609   3.224   2.417
    1TCM     c1 1553   3.239   3.565   2.830
    1TCM    cl1 1554   3.403   3.630   2.807
    1TCM    cl2 1555   3.202   3.558   3.004
    1TCM     h1 1556   3.166   3.631   2.779
    1TCM    cl3 1557   3.230   3.401   2.761
    1TCM     c1 1558   1.332   1.162   0.196
    1TCM    cl1 1559   1.235   1.096   0.330
    1TCM    cl2 1560   1.504   1.152   0.236
    1TCM     h1 1561   1.312   1.104   0.104
    1TCM    cl3 1562   1.287   1.332   0.168
    1TCM     c1 1563   3.057   0.248   0.877
    1TCM    cl1 1564   3.211   0.219   0.794
    1TCM    cl2 1565   3.073   0.206   1.049
    1TCM     h1 1566   3.030   0.356   0.868
    1TCM    cl3 1567   2.930   0.148   0.804
    1TCM     c1 1568   1.956   3.387   1.017
    1TCM    cl1 1569   2.042   3.446   0.872
    1TCM    cl2 1570   2.065   3.396   1.158
    1TCM     h1 1571   1.867   3.451   1.035
    1TCM    cl3 1572   1.906   3.219   0.991
    1TCM     c1 1573   2.971   3.803   2.007
    1TCM    cl1 1574   2.798   3.769   1.982
    1TCM    cl2 1575   3.044   3.855   1.854
    1TCM     h1 1576   2.982   3.883   2.083
    1TCM    cl3 1577   3.052   3.656   2.065
    1TCM     c1 1578   4.695   0.402   4.032
    1TCM    cl1 1579   4.541   0.317   4.058
    1TCM    cl2 1580   4.744   0.386   3.862
    1TCM     h1 1581   4.682   0.510   4.057
    1TCM    cl3 1582   4.820   0.332   4.137
    1TCM     c1 1583   4.643   2.989   4.804
    1TCM    cl1 1584   4.622   3.111   4.931
    1TCM    cl2 1585   4.813   2.984   4.754
    1TCM     h1 1586   4.613   2.889   4.844
    1TCM    cl3 1587   4.541   3.030   4.664
    1TCM     c1 1588   1.083   4.678   2.396
    1TCM    cl1 1589   1.214   4.681   2.276
    1TCM    cl2 1590   0.935   4.743   2.322
    1TCM     h1 1591   1.065   4.574   2.428
    1TCM    cl3 1592   1.128   4.778   2.536
    1TCM     c1 1593   5.142   0.239   0.364
    1TCM    cl1 1594   4.972   0.234   0.417
    1TCM    cl2 1595   5.148   0.246   0.186
    1TCM     h1 1596   5.190   0.330   0.406
    1TCM    cl3 1597   5.227   0.094   0.421
    1TCM     c1 1598   4.570   0.444   3.655
    1TCM    cl1 1599   4.477   0.572   3.574
    1TCM    cl2 1600   4.506   0.419   3.819
    1TCM     h1 1601   4.560   0.349   3.597
    1TCM    cl3 1602   4.741   0.490   3.664
    1TCM     c1 1603   3.612   5.120   4.442
    1TCM    cl1 1604   3.724   5.255   4.415
    1TCM    cl2 1605   3.659   4.982   4.340
    1TCM     h1 1606   3.616   5.090   4.549
    1TCM    cl3 1607   3.447   5.170   4.400
    1TCM     c1 1608   1.352   1.942   1.558
    1TCM    cl1 1609   1.310   2.110   1.599
    1TCM    cl2 1610   1.203   1.847   1.539
    1TCM     h1 1611   1.409   1.941   1.463
    1TCM    cl3 1612   1.450   1.872   1.689
    1TCM     c1 1613   5.266   0.186   1.441
    1TCM    cl1 1614   5.340   0.085   1.314
    1TCM    cl2 1615   5.126   0.099   1.510
    1TCM     h1 1616   5.340   0.206   1.520
    1TCM    cl3 1617   5.211   0.339   1.370
    1TCM     c1 1618   3.329   1.790   2.855
    1TCM    cl1 1619   3.462   1.811   2.738
    1TCM    cl2 1620   3.380   1.676   2.982
    1TCM     h1 1621   3.305   1.888   2.901
    1TCM    cl3 1622   3.186   1.725   2.772
    1TCM     c1 1623   3.655   0.369   0.528
    1TCM    cl1 1624   3.817   0.421   0.580
    1TCM    cl2 1625   3.649   0.362   0.350
    1TCM     h1 1626   3.633   0.268   0.569
    1TCM    cl3 1627   3.534   0.485   0.586
    1TCM     c1 1628   0.662   1.414   2.002
    1TCM    cl1 1629   0.760   1.431   2.150
    1TCM    cl2 1630   0.537   1.290   2.027
    1TCM     h1 1631   0.614   1.511   1.978
    1TCM    cl3 1632   0.768   1.365   1.867
    1TCM     c1 1633   2.877   3.829   1.421
    1TCM    cl1 1634   2.742   3.768   1.323
    1TCM    cl2 1635   2.858   3.774   1.589
    1TCM     h1 1636   2.973   3.791   1.380
    1TCM    cl3 1637   2.877   4.007   1.418
    1TCM     c1 1638   2.388   2.562   4.403
    1TCM    cl1 1639   2.416   2.388   4.383
    1TCM    cl2 1640   2.356   2.636   4.245
    1TCM     h1 1641   2.301   2.578   4.470
    1TCM    cl3 1642   2.533   2.637   4.475
    1TCM     c1 1643   0.572   2.309   0.853
    1TCM    cl1 1644   0.423   2.324   0.758
    1TCM    cl2 1645   0.543   2.368   1.019
    1TCM     h1 1646   0.603   2.202   0.857
    1TCM    cl3 1647   0.701   2.405   0.778
    1TCM     c1 1648   2.548   0.536   1.685
    1TCM    cl1 1649   2.420   0.498   1.567
    1TCM    cl2 1650   2.629   0.386   1.734
    1TCM     h1 1651   2.622   0.604   1.638
    1TCM    cl3 1652   2.477   0.615   1.827
    1TCM     c1 1653   2.432   3.626   0.099
    1TCM    cl1 1654   2.441   3.478   0.001
    1TCM    cl2 1655   2.477   3.588   0.267
    1TCM     h1 1656   2.502   3.702   0.058
    1TCM    cl3 1657   2.266   3.690   0.095
    1TCM     c1 1658   0.163   3.454   4.973
    1TCM    cl1 1659   0.038   3.340   5.028
    1TCM    cl2 1660   0.133   3.497   4.803
    1TCM     h1 1661   0.159   3.546   5.035
    1TCM    cl3 1662   0.323   3.379   4.987
    1TCM     c1 1663   3.828   1.792   1.789
    1TCM    cl1 1664   3.785   1.847   1.953
    1TCM    cl2 1665   3.768   1.626   1.765
    1TCM     h1 1666   3.781   1.860   1.715
    1TCM    cl3 1667   4.004   1.795   1.770
    1TCM     c1 1668   2.267   2.878   2.754
    1TCM    cl1 1669   2.302   2.712   2.699
    1TCM    cl2 1670   2.316   2.894   2.924
    1TCM     h1 1671   2.324   2.950   2.692
    1TCM    cl3 1672   2.093   2.910   2.739
    1TCM     c1 1673   4.431   2.762   0.822
    1TCM    cl1 1674   4.347   2.911   0.774
    1TCM    cl2 1675   4.603   2.799   0.853
    1TCM     h1 1676   4.385   2.721   0.913
    1TCM    cl3 1677   4.420   2.643   0.690
    1TCM     c1 1678   5.149   4.297   1.771
    1TCM    cl1 1679   5.091   4.465   1.782
    1TCM    cl2 1680   5.024   4.187   1.833
    1TCM     h1 1681   5.172   4.272   1.665
    1TCM    cl3 1682   5.297   4.279   1.869
    1TCM     c1 1683   3.233   1.705   3.818
    1TCM    cl1 1684   3.336   1.817   3.727
    1TCM    cl2 1685   3.177   1.784   3.968
    1TCM     h1 1686   3.145   1.677   3.757
    1TCM    cl3 1687   3.325   1.559   3.859
    1TCM     c1 1688   0.909   3.818   2.463
    1TCM    cl1 1689   1.052   3.773   2.560
    1TCM    cl2 1690   0.941   3.783   2.292
    1TCM     h1 1691   0.822   3.759   2.497
    1TCM    cl3 1692   0.876   3.991   2.484
    1TCM     c1 1693   3.005   4.100   2.280
    1TCM    cl1 1694   2.871   4.216   2.267
    1TCM    cl2 1695   3.097   4.133   2.429
    1TCM     h1 1696   2.965   3.997   2.284
    1TCM    cl3 1697   3.112   4.117   2.139
    1TCM     c1 1698   1.400   2.957   2.389
    1TCM    cl1 1699   1.435   3.131   2.392
    1TCM    cl2 1700   1.476   2.879   2.530
    1TCM     h1 1701   1.291   2.941   2.393
    1TCM    cl3 1702   1.465   2.885   2.240
    1TCM     c1 1703   4.606   0.170   5.160
    1TCM    cl1 1704   4.768   0.134   5.099
    1TCM    cl2 1705   4.617   0.231   5.327
    1TCM     h1 1706   4.558   0.247   5.096
    1TCM    cl3 1707   4.507   0.022   5.158
    1TCM     c1 1708   4.189   4.948   2.353
    1TCM    cl1 1709   4.210   5.074   2.230
    1TCM    cl2 1710   4.073   4.827   2.295
    1TCM     h1 1711   4.287   4.900   2.374
    1TCM    cl3 1712   4.128   5.022   2.503
    1TCM     c1 1713   1.407   5.054   3.095
    1TCM    cl1 1714   1.467   5.036   2.928
    1TCM    cl2 1715   1.527   4.990   3.208
    1TCM     h1 1716   1.389   5.162   3.116
    1TCM    cl3 1717   1.254   4.964   3.113
    1TCM     c1 1718   3.484   4.990   3.843
    1TCM    cl1 1719   3.371   4.858   3.809
    1TCM    cl2 1720   3.420   5.142   3.776
    1TCM     h1 1721   3.497   5.001   3.953
    1TCM    cl3 1722   3.642   4.955   3.769
    1TCM     c1 1723   3.630   2.193   4.865
    1TCM    cl1 1724   3.717   2.038   4.861
    1TCM    cl2 1725   3.724   2.315   4.776
    1TCM     h1 1726   3.531   2.181   4.817
    1TCM    cl3 1727   3.609   2.246   5.033
    1TCM     c1 1728   4.857   4.275   2.493
    1TCM    cl1 1729   4.869   4.278   2.316
    1TCM    cl2 1730   4.712   4.184   2.541
    1TCM     h1 1731   4.947   4.226   2.536
    1TCM    cl3 1732   4.845   4.442   2.555
    1TCM     c1 1733   5.070   3.173   2.484
    1TCM    cl1 1734   5.215   3.102   2.557
    1TCM    cl2 1735   5.037   3.331   2.558
    1TCM     h1 1736   5.086   3.186   2.375
    1TCM    cl3 1737   4.931   3.065   2.510
    1TCM     c1 1738   1.410   2.351   0.922
    1TCM    cl1 1739   1.380   2.300   0.754
    1TCM    cl2 1740   1.436   2.208   1.024
    1TCM     h1 1741   1.501   2.416   0.925
    1TCM    cl3 1742   1.270   2.443   0.982
    1TCM     c1 1743   1.122   1.984   4.091
    1TCM    cl1 1744   1.242   2.104   4.035
    1TCM    cl2 1745   1.199   1.824   4.097
    1TCM     h1 1746   1.087   2.013   4.192
    1TCM    cl3 1747   0.985   1.980   3.978
    1TCM     c1 1748   4.180   3.526   1.279
    1TCM    cl1 1749   4.180   3.359   1.219
    1TCM    cl2 1750   4.229   3.527   1.450
    1TCM     h1 1751   4.251   3.587   1.220
    1TCM    cl3 1752   4.016   3.594   1.265
    1TCM     c1 1753   0.266   5.156   2.143
    1TCM    cl1 1754   0.168   5.237   2.267
    1TCM    cl2 1755   0.338   5.278   2.036
    1TCM     h1 1756   0.347   5.098   2.193
    1TCM    cl3 1757   0.163   5.047   2.048
    1TCM     c1 1758   1.350   2.532   1.770
    1TCM    cl1 1759   1.272   2.692   1.774
    1TCM    cl2 1760   1.442   2.514   1.619
    1TCM     h1 1761   1.418   2.522   1.857
    1TCM    cl3 1762   1.225   2.405   1.779
    1TCM     c1 1763   0.871   2.318   4.147
    1TCM    cl1 1764   0.801   2.179   4.061
    1TCM    cl2 1765   0.741   2.434   4.187
    1TCM     h1 1766   0.919   2.283   4.240
    1TCM    cl3 1767   0.991   2.398   4.043
    1TCM     c1 1768   1.114   0.891   5.177
    1TCM    cl1 1769   1.019   0.937   5.034
    1TCM    cl2 1770   1.004   0.829   5.302
    1TCM     h1 1771   1.187   0.812   5.149
    1TCM    cl3 1772   1.200   1.034   5.239
    1TCM     c1 1773   3.666   2.992   0.950
    1TCM    cl1 1774   3.753   3.143   0.984
    1TCM    cl2 1775   3.763   2.853   1.005
    1TCM     h1 1776   3.569   2.993   1.003
    1TCM    cl3 1777   3.637   2.978   0.775
    1TCM     c1 1778   3.692   4.987   3.016
    1TCM    cl1 1779   3.705   5.075   3.170
    1TCM    cl2 1780   3.691   5.103   2.881
    1TCM     h1 1781   3.778   4.918   3.005
    1TCM    cl3 1782   3.540   4.893   3.014
    1TCM     c1 1783   4.628   3.215   5.167
    1TCM    cl1 1784   4.634   3.253   5.340
    1TCM    cl2 1785   4.495   3.306   5.091
    1TCM     h1 1786   4.724   3.243   5.119
    1TCM    cl3 1787   4.601   3.040   5.145
    1TCM     c1 1788   4.469   2.825   2.964
    1TCM    cl1 1789   4.461   3.001   2.944
    1TCM    cl2 1790   4.314   2.753   2.913
    1TCM     h1 1791   4.551   2.784   2.901
    1TCM    cl3 1792   4.499   2.785   3.134
    1TCM     c1 1793   2.270   4.542   3.572
    1TCM    cl1 1794   2.160   4.563   3.433
    1TCM    cl2 1795   2.257   4.375   3.632
    1TCM     h1 1796   2.374   4.562   3.539
    1TCM    cl3 1797   2.224   4.656   3.701
    1TCM     c1 1798   3.565   2.259   0.956
    1TCM    cl1 1799   3.442   2.187   1.062
    1TCM    cl2 1800   3.727   2.212   1.014
    1TCM     h1 1801   3.551   2.222   0.852
    1TCM    cl3 1802   3.550   2.436   0.959
    1TCM     c1 1803   2.498   1.956   2.689
    1TCM    cl1 1804   2.513   1.803   2.600
    1TCM    cl2 1805   2.493   1.923   2.864
    1TCM     h1 1806   2.586   2.021   2.667
    1TCM    cl3 1807   2.349   2.039   2.640
    1TCM     c1 1808   2.915   2.904   3.475
    1TCM    cl1 1809   3.016   2.972   3.345
    1TCM    cl2 1810   2.835   3.036   3.564
    1TCM     h1 1811   2.838   2.837   3.431
    1TCM    cl3 1812   3.017   2.811   3.586
    1TCM     c1 1813   5.038   1.898   1.661
    1TCM    cl1 1814   5.128   1.911   1.508
    1TCM    cl2 1815   4.865   1.878   1.625
    1TCM     h1 1816   5.074   1.809   1.718
    1TCM    cl3 1817   5.062   2.045   1.758
    1TCM     c1 1818   1.641   1.368   3.598
    1TCM    cl1 1819   1.732   1.355   3.750
    1TCM    cl2 1820   1.695   1.241   3.486
    1TCM     h1 1821   1.533   1.355   3.619
    1TCM    cl3 1822   1.669   1.528   3.525
    1TCM     c1 1823   3.424   4.190   2.241
    1TCM    cl1 1824   3.571   4.223   2.335
    1TCM    cl2 1825   3.282   4.249   2.331
    1TCM     h1 1826   3.430   4.242   2.143
    1TCM    cl3 1827   3.408   4.015   2.215
    1TCM     c1 1828   2.074   3.597   0.486
    1TCM    cl1 1829   1.948   3.499   0.565
    1TCM    cl2 1830   2.010   3.665   0.335
    1TCM     h1 1831   2.105   3.679   0.554
    1TCM    cl3 1832   2.215   3.494   0.450
    1TCM     c1 1833   4.631   2.129   3.229
    1TCM    cl1 1834   4.705   2.268   3.146
    1TCM    cl2 1835   4.607   2.168   3.401
    1TCM     h1 1836   4.533   2.106   3.182
    1TCM    cl3 1837   4.738   1.988   3.216
    1TCM     c1 1838   2.457   3.876   1.405
    1TCM    cl1 1839   2.484   3.989   1.540
    1TCM    cl2 1840   2.486   3.960   1.251
    1TCM     h1 1841   2.526   3.790   1.414
    1TCM    cl3 1842   2.289   3.818   1.409
    1TCM     c1 1843   1.052   4.951   4.717
    1TCM    cl1 1844   0.929   4.823   4.706
    1TCM    cl2 1845   1.173   4.906   4.839
    1TCM     h1 1846   1.101   4.963   4.618
    1TCM    cl3 1847   0.974   5.104   4.763
    1TCM     c1 1848   3.601   3.211   3.757
    1TCM    cl1 1849   3.584   3.191   3.581
    1TCM    cl2 1850   3.590   3.051   3.835
    1TCM     h1 1851   3.699   3.256   3.780
    1TCM    cl3 1852   3.470   3.315   3.818
    1TCM     c1 1853   3.741   3.882   1.241
    1TCM    cl1 1854   3.838   3.736   1.208
    1TCM    cl2 1855   3.696   3.959   1.087
    1TCM     h1 1856   3.650   3.853   1.297
    1TCM    cl3 1857   3.837   3.996   1.338
    1TCM     c1 1858   2.590   1.327   3.956
    1TCM    cl1 1859   2.451   1.304   3.847
    1TCM    cl2 1860   2.534   1.399   4.109
    1TCM     h1 1861   2.638   1.230   3.976
    1TCM    cl3 1862   2.707   1.437   3.879
    1TCM     c1 1863   2.127   3.567   4.906
    1TCM    cl1 1864   2.020   3.593   5.047
    1TCM    cl2 1865   2.195   3.403   4.914
    1TCM     h1 1866   2.068   3.578   4.813
    1TCM    cl3 1867   2.259   3.686   4.909
    1TCM     c1 1868   4.317   3.842   3.273
    1TCM    cl1 1869   4.432   3.779   3.153
    1TCM    cl2 1870   4.322   3.740   3.419
    1TCM     h1 1871   4.345   3.946   3.300
    1TCM    cl3 1872   4.153   3.839   3.205
    1TCM     c1 1873   3.087   1.571   4.999
    1TCM    cl1 1874   3.234   1.659   5.046
    1TCM    cl2 1875   3.094   1.533   4.826
    1TCM     h1 1876   3.080   1.477   5.058
    1TCM    cl3 1877   2.944   1.672   5.032
    1TCM     c1 1878   0.730   0.737   4.244
    1TCM    cl1 1879   0.641   0.737   4.398
    1TCM    cl2 1880   0.615   0.739   4.108
    1TCM     h1 1881   0.795   0.827   4.239
    1TCM    cl3 1882   0.830   0.590   4.234
    1TCM     c1 1883   3.547   0.932   2.043
    1TCM    cl1 1884   3.639   1.078   2.087
    1TCM    cl2 1885   3.572   0.896   1.870
    1TCM     h1 1886   3.583   0.846   2.104
    1TCM    cl3 1887   3.374   0.958   2.074
    1TCM     c1 1888   2.688   4.556   2.515
    1TCM    cl1 1889   2.590   4.407   2.517
    1TCM    cl2 1890   2.674   4.633   2.355
    1TCM     h1 1891   2.651   4.626   2.593
    1TCM    cl3 1892   2.858   4.516   2.547
    1TCM     c1 1893   0.864   1.165   2.103
    1TCM    cl1 1894   0.928   1.322   2.052
    1TCM    cl2 1895   0.780   1.088   1.966
    1TCM     h1 1896   0.947   1.100   2.137
    1TCM    cl3 1897   0.749   1.188   2.237
    1TCM     c1 1898   2.412   4.348   3.153
    1TCM    cl1 1899   2.475   4.501   3.087
    1TCM    cl2 1900   2.548   4.242   3.196
    1TCM     h1 1901   2.352   4.370   3.244
    1TCM    cl3 1902   2.310   4.268   3.032
    1TCM     c1 1903   4.262   1.857   4.791
    1TCM    cl1 1904   4.341   1.782   4.651
    1TCM    cl2 1905   4.297   1.762   4.937
    1TCM     h1 1906   4.301   1.960   4.804
    1TCM    cl3 1907   4.087   1.863   4.764
    1TCM     c1 1908   0.278   0.610   0.192
    1TCM    cl1 1909   0.220   0.555   0.033
    1TCM    cl2 1910   0.181   0.748   0.247
    1TCM     h1 1911   0.270   0.527   0.265
    1TCM    cl3 1912   0.449   0.660   0.179
    1TCM     c1 1913   3.892   3.901   5.156
    1TCM    cl1 1914   3.933   4.017   5.027
    1TCM    cl2 1915   3.908   3.980   5.314
    1TCM     h1 1916   3.788   3.866   5.142
    1TCM    cl3 1917   4.003   3.762   5.148
    1TCM     c1 1918   2.083   2.405   2.661
    1TCM    cl1 1919   2.230   2.475   2.591
    1TCM    cl2 1920   1.941   2.463   2.572
    1TCM     h1 1921   2.088   2.294   2.654
    1TCM    cl3 1922   2.069   2.453   2.832
    1TCM     c1 1923   2.103   4.141   1.544
    1TCM    cl1 1924   2.000   4.131   1.689
    1TCM    cl2 1925   2.273   4.154   1.593
    1TCM     h1 1926   2.089   4.050   1.482
    1TCM    cl3 1927   2.058   4.284   1.449
    1TCM     c1 1928   4.107   3.640   1.895
    1TCM    cl1 1929   4.172   3.688   1.737
    1TCM    cl2 1930   4.147   3.765   2.015
    1TCM     h1 1931   3.997   3.628   1.888
    1TCM    cl3 1932   4.180   3.485   1.944
    1TCM     c1 1933   2.648   4.692   0.706
    1TCM    cl1 1934   2.744   4.711   0.558
    1TCM    cl2 1935   2.603   4.521   0.726
    1TCM     h1 1936   2.707   4.724   0.794
    1TCM    cl3 1937   2.501   4.791   0.695
    1TCM     c1 1938   2.830   2.380   4.687
    1TCM    cl1 1939   2.836   2.339   4.860
    1TCM    cl2 1940   2.828   2.230   4.590
    1TCM     h1 1941   2.738   2.439   4.666
    1TCM    cl3 1942   2.973   2.476   4.644
    1TCM     c1 1943   1.561   3.341   2.689
    1TCM    cl1 1944   1.475   3.436   2.812
    1TCM    cl2 1945   1.606   3.447   2.553
    1TCM     h1 1946   1.653   3.297   2.733
    1TCM    cl3 1947   1.455   3.211   2.630
    1TCM     c1 1948   0.731   4.137   4.895
    1TCM    cl1 1949   0.901   4.109   4.939
    1TCM    cl2 1950   0.636   4.169   5.042
    1TCM     h1 1951   0.724   4.224   4.827
    1TCM    cl3 1952   0.667   3.993   4.813
    1TCM     c1 1953   0.168   2.419   1.812
    1TCM    cl1 1954   0.085   2.284   1.730
    1TCM    cl2 1955   0.053   2.501   1.921
    1TCM     h1 1956   0.253   2.380   1.871
    1TCM    cl3 1957   0.227   2.535   1.691
    1TCM     c1 1958   4.350   0.945   4.200
    1TCM    cl1 1959   4.346   1.110   4.267
    1TCM    cl2 1960   4.515   0.906   4.147
    1TCM     h1 1961   4.318   0.873   4.278
    1TCM    cl3 1962   4.239   0.935   4.061
    1TCM     c1 1963   3.964   1.129   0.459
    1TCM    cl1 1964   4.082   1.254   0.412
    1TCM    cl2 1965   3.906   1.161   0.624
    1TCM     h1 1966   3.878   1.131   0.389
    1TCM    cl3 1967   4.042   0.970   0.454
    1TCM     c1 1968   1.904   1.738   3.937
    1TCM    cl1 1969   1.854   1.635   3.800
    1TCM    cl2 1970   1.776   1.857   3.969
    1TCM     h1 1971   1.919   1.675   4.027
    1TCM    cl3 1972   2.055   1.822   3.896
    1TCM     c1 1973   0.309   1.821   2.088
    1TCM    cl1 1974   0.278   1.839   1.914
    1TCM    cl2 1975   0.234   1.671   2.147
    1TCM     h1 1976   0.419   1.816   2.106
    1TCM    cl3 1977   0.241   1.960   2.175
    1TCM     c1 1978   1.628   0.591   3.421
    1TCM    cl1 1979   1.511   0.649   3.541
    1TCM    cl2 1980   1.541   0.523   3.281
    1TCM     h1 1981   1.692   0.675   3.387
    1TCM    cl3 1982   1.730   0.464   3.493
    1TCM     c1 1983   2.266   4.177   1.189
    1TCM    cl1 1984   2.305   4.213   1.359
    1TCM    cl2 1985   2.332   4.306   1.085
    1TCM     h1 1986   2.311   4.080   1.160
    1TCM    cl3 1987   2.090   4.170   1.168
    1TCM     c1 1988   3.472   1.735   4.325
    1TCM    cl1 1989   3.466   1.649   4.169
    1TCM    cl2 1990   3.329   1.694   4.421
    1TCM     h1 1991   3.564   1.705   4.380
    1TCM    cl3 1992   3.475   1.910   4.295
    1TCM     c1 1993   2.304   3.675   4.253
    1TCM    cl1 1994   2.292   3.797   4.382
    1TCM    cl2 1995   2.237   3.742   4.102
    1TCM     h1 1996   2.410   3.647   4.238
    1TCM    cl3 1997   2.211   3.531   4.300
    1TCM     c1 1998   3.157   0.984   4.947
    1TCM    cl1 1999   3.249   0.932   4.804
    1TCM    cl2 2000   3.227   1.134   5.011
    1TCM     h1 2001   3.051   1.002   4.918
    1TCM    cl3 2002   3.164   0.857   5.071
    1TCM     c1 2003   3.087   2.706   2.455
    1TCM    cl1 2004   2.943   2.779   2.381
    1TCM    cl2 2005   3.222   2.821   2.446
    1TCM     h1 2006   3.066   2.682   2.561
    1TCM    cl3 2007   3.130   2.557   2.368
    1TCM     c1 2008   4.759   4.241   0.867
    1TCM    cl1 2009   4.806   4.406   0.822
    1TCM    cl2 2010   4.849   4.191   1.012
    1TCM     h1 2011   4.650   4.238   0.888
    1TCM    cl3 2012   4.797   4.130   0.733
    1TCM     c1 2013   2.109   2.887   4.439
    1TCM    cl1 2014   2.275   2.831   4.472
    1TCM    cl2 2015   2.056   2.995   4.570
    1TCM     h1 2016   2.107   2.942   4.343
    1TCM    cl3 2017   2.000   2.747   4.430
    1TCM     c1 2018   2.594   4.122   4.443
    1TCM    cl1 2019   2.431   4.129   4.512
    1TCM    cl2 2020   2.583   4.124   4.266
    1TCM     h1 2021   2.653   4.209   4.478
    1TCM    cl3 2022   2.675   3.972   4.496
    1TCM     c1 2023   4.400   5.152   2.696
    1TCM    cl1 2024   4.537   5.265   2.707
    1TCM    cl2 2025   4.339   5.118   2.860
    1TCM     h1 2026   4.320   5.198   2.635
    1TCM    cl3 2027   4.454   5.001   2.620
    1TCM     c1 2028   1.881   3.714   2.073
    1TCM    cl1 2029   1.890   3.891   2.074
    1TCM    cl2 2030   1.791   3.659   2.217
    1TCM     h1 2031   1.829   3.679   1.982
    1TCM    cl3 2032   2.045   3.645   2.077
    1TCM     c1 2033   3.470   0.751   1.007
    1TCM    cl1 2034   3.531   0.711   1.169
    1TCM    cl2 2035   3.304   0.689   0.989
    1TCM     h1 2036   3.471   0.861   0.993
    1TCM    cl3 2037   3.575   0.675   0.884
    1TCM     c1 2038   0.305   3.761   3.042
    1TCM    cl1 2039   0.261   3.808   3.207
    1TCM    cl2 2040   0.237   3.878   2.926
    1TCM     h1 2041   0.416   3.760   3.032
    1TCM    cl3 2042   0.241   3.599   3.007
    1TCM     c1 2043   2.793   2.660   4.930
    1TCM    cl1 2044   2.703   2.649   4.777
    1TCM    cl2 2045   2.704   2.574   5.058
    1TCM     h1 2046   2.893   2.613   4.918
    1TCM    cl3 2047   2.813   2.831   4.976
    1TCM     c1 2048   2.280   0.655   0.691
    1TCM    cl1 2049   2.247   0.713   0.526
    1TCM    cl2 2050   2.126   0.641   0.780
    1TCM     h1 2051   2.329   0.556   0.686
    1TCM    cl3 2052   2.385   0.771   0.774
    1TCM     c1 2053   2.941   0.351   2.284
    1TCM    cl1 2054   3.025   0.320   2.438
    1TCM    cl2 2055   2.776   0.408   2.318
    1TCM     h1 2056   2.996   0.429   2.227
    1TCM    cl3 2057   2.934   0.201   2.189
    1TCM     c1 2058   1.764   3.577   4.649
    1TCM    cl1 2059   1.827   3.740   4.685
    1TCM    cl2 2060   1.889   3.456   4.685
    1TCM     h1 2061   1.674   3.557   4.712
    1TCM    cl3 2062   1.719   3.568   4.477
    1TCM     c1 2063   0.732   2.810   0.796
    1TCM    cl1 2064   0.891   2.831   0.719
    1TCM    cl2 2065   0.696   2.953   0.896
    1TCM     h1 2066   0.655   2.799   0.718
    1TCM    cl3 2067   0.735   2.665   0.899
    1TCM     c1 2068   2.971   0.232   3.334
    1TCM    cl1 2069   2.963   0.236   3.512
    1TCM    cl2 2070   2.961   0.064   3.278
    1TCM     h1 2071   2.886   0.290   3.292
    1TCM    cl3 2072   3.124   0.304   3.279
    1TCM     c1 2073   2.115   3.057   1.155
    1TCM    cl1 2074   2.188   3.045   1.316
    1TCM    cl2 2075   1.937   3.057   1.170
    1TCM     h1 2076   2.148   3.152   1.106
    1TCM    cl3 2077   2.166   2.919   1.055
    1TCM     c1 2078   3.112   5.148   4.035
    1TCM    cl1 2079   3.289   5.147   4.013
    1TCM    cl2 2080   3.063   4.999   4.119
    1TCM     h1 2081   3.083   5.236   4.096
    1TCM    cl3 2082   3.032   5.156   3.876
    1TCM     c1 2083   2.984   3.309   0.118
    1TCM    cl1 2084   2.850   3.290   0.003
    1TCM    cl2 2085   3.125   3.378   0.033
    1TCM     h1 2086   2.953   3.378   0.199
    1TCM    cl3 2087   3.027   3.151   0.186
    1TCM     c1 2088   0.320   0.336   4.314
    1TCM    cl1 2089   0.327   0.204   4.433
    1TCM    cl2 2090   0.295   0.491   4.399
    1TCM     h1 2091   0.415   0.340   4.258
    1TCM    cl3 2092   0.185   0.308   4.202
    1TCM     c1 2093   2.469   2.635   3.949
    1TCM    cl1 2094   2.383   2.789   3.928
    1TCM    cl2 2095   2.577   2.647   4.089
    1TCM     h1 2096   2.395   2.554   3.966
    1TCM    cl3 2097   2.564   2.600   3.803
    1TCM     c1 2098   0.739   1.357   0.146
    1TCM    cl1 2099   0.612   1.482   0.148
    1TCM    cl2 2100   0.721   1.256   0.000
    1TCM     h1 2101   0.839   1.406   0.144
    1TCM    cl3 2102   0.725   1.255   0.290
    1TCM     c1 2103   4.677   2.988   1.950
    1TCM    cl1 2104   4.766   3.014   1.798
    1TCM    cl2 2105   4.571   2.846   1.932
    1TCM     h1 2106   4.749   2.970   2.032
    1TCM    cl3 2107   4.579   3.131   1.987
    1TCM     c1 2108   3.113   3.239   0.598
    1TCM    cl1 2109   3.062   3.396   0.664
    1TCM    cl2 2110   3.263   3.187   0.679
    1TCM     h1 2111   3.033   3.164   0.616
    1TCM    cl3 2112   3.142   3.254   0.424
    1TCM     c1 2113   2.595   4.883   1.562
    1TCM    cl1 2114   2.544   4.803   1.712
    1TCM    cl2 2115   2.675   5.037   1.600
    1TCM     h1 2116   2.666   4.817   1.507
    1TCM    cl3 2117   2.452   4.914   1.460
    1TCM     c1 2118   2.723   4.075   4.859
    1TCM    cl1 2119   2.882   4.098   4.783
    1TCM    cl2 2120   2.744   3.997   5.017
    1TCM     h1 2121   2.674   4.174   4.872
    1TCM    cl3 2122   2.622   3.972   4.755
    1TCM     c1 2123   3.906   3.885   2.779
    1TCM    cl1 2124   4.029   3.900   2.907
    1TCM    cl2 2125   3.983   3.911   2.621
    1TCM     h1 2126   3.861   3.784   2.783
    1TCM    cl3 2127   3.780   4.008   2.804
    1TCM     c1 2128   2.312   1.527   2.470
    1TCM    cl1 2129   2.390   1.372   2.514
    1TCM    cl2 2130   2.207   1.503   2.329
    1TCM     h1 2131   2.252   1.563   2.556
    1TCM    cl3 2132   2.438   1.647   2.432
    1TCM     c1 2133   4.902   2.406   0.651
    1TCM    cl1 2134   4.724   2.407   0.643
    1TCM    cl2 2135   4.963   2.572   0.637
    1TCM     h1 2136   4.934   2.362   0.748
    1TCM    cl3 2137   4.967   2.307   0.518
    1TCM     c1 2138   4.188   0.550   3.184
    1TCM    cl1 2139   4.055   0.633   3.100
    1TCM    cl2 2140   4.135   0.502   3.347
    1TCM     h1 2141   4.217   0.459   3.127
    1TCM    cl3 2142   4.327   0.659   3.197
    1TCM     c1 2143   4.820   2.355   0.207
    1TCM    cl1 2144   4.990   2.397   0.237
    1TCM    cl2 2145   4.810   2.187   0.149
    1TCM     h1 2146   4.762   2.365   0.301
    1TCM    cl3 2147   4.752   2.464   0.084
    1TCM     c1 2148   3.394   1.283   1.059
    1TCM    cl1 2149   3.375   1.348   1.223
    1TCM    cl2 2150   3.320   1.122   1.051
    1TCM     h1 2151   3.343   1.351   0.987
    1TCM    cl3 2152   3.567   1.272   1.019
    1TCM     c1 2153   2.817   4.463   4.706
    1TCM    cl1 2154   2.682   4.443   4.820
    1TCM    cl2 2155   2.830   4.317   4.605
    1TCM     h1 2156   2.798   4.551   4.641
    1TCM    cl3 2157   2.968   4.486   4.797
    1TCM     c1 2158   1.535   5.262   0.691
    1TCM    cl1 2159   1.454   5.340   0.553
    1TCM    cl2 2160   1.668   5.161   0.632
    1TCM     h1 2161   1.574   5.340   0.760
    1TCM    cl3 2162   1.417   5.161   0.779
    1TCM     c1 2163   1.428   3.304   4.496
    1TCM    cl1 2164   1.521   3.353   4.639
    1TCM    cl2 2165   1.499   3.379   4.351
    1TCM     h1 2166   1.432   3.193   4.485
    1TCM    cl3 2167   1.259   3.356   4.514
    1TCM     c1 2168   1.153   2.324   2.452
    1TCM    cl1 2169   1.293   2.422   2.501
    1TCM    cl2 2170   1.197   2.225   2.311
    1TCM     h1 2171   1.123   2.258   2.535
    1TCM    cl3 2172   1.018   2.431   2.409
    1TCM     c1 2173   1.426   1.196   0.486
    1TCM    cl1 2174   1.261   1.263   0.479
    1TCM    cl2 2175   1.474   1.177   0.656
    1TCM     h1 2176   1.428   1.098   0.435
    1TCM    cl3 2177   1.538   1.308   0.405
    1TCM     c1 2178   0.340   5.207   3.258
    1TCM    cl1 2179   0.261   5.156   3.108
    1TCM    cl2 2180   0.514   5.230   3.229
    1TCM     h1 2181   0.296   5.302   3.293
    1TCM    cl3 2182   0.317   5.082   3.383
    1TCM     c1 2183   2.786   3.973   0.314
    1TCM    cl1 2184   2.638   3.878   0.289
    1TCM    cl2 2185   2.766   4.135   0.243
    1TCM     h1 2186   2.806   3.983   0.423
    1TCM    cl3 2187   2.923   3.891   0.235
    1TCM     c1 2188   5.088   1.765   0.902
    1TCM    cl1 2189   5.206   1.870   0.984
    1TCM    cl2 2190   5.124   1.595   0.939
    1TCM     h1 2191   4.986   1.790   0.937
    1TCM    cl3 2192   5.098   1.791   0.726
    1TCM     c1 2193   3.227   4.751   4.113
    1TCM    cl1 2194   3.101   4.809   4.002
    1TCM    cl2 2195   3.203   4.578   4.145
    1TCM     h1 2196   3.327   4.766   4.066
    1TCM    cl3 2197   3.218   4.842   4.265
    1TCM     c1 2198   0.416   3.251   3.490
    1TCM    cl1 2199   0.502   3.113   3.560
    1TCM    cl2 2200   0.271   3.193   3.403
    1TCM     h1 2201   0.385   3.321   3.570
    1TCM    cl3 2202   0.522   3.337   3.376
    1TCM     c1 2203   2.806   0.440   1.915
    1TCM    cl1 2204   2.649   0.521   1.936
    1TCM    cl2 2205   2.792   0.270   1.966
    1TCM     h1 2206   2.836   0.444   1.808
    1TCM    cl3 2207   2.929   0.521   2.015
    1TCM     c1 2208   4.837   5.024   4.338
    1TCM    cl1 2209   4.742   5.033   4.488
    1TCM    cl2 2210   4.751   4.922   4.220
    1TCM     h1 2211   4.851   5.126   4.297
    1TCM    cl3 2212   4.996   4.952   4.374
    1TCM     c1 2213   4.129   0.954   2.023
    1TCM    cl1 2214   4.066   0.824   2.128
    1TCM    cl2 2215   4.105   1.111   2.104
    1TCM     h1 2216   4.237   0.937   2.005
    1TCM    cl3 2217   4.042   0.953   1.868
    1TCM     c1 2218   2.337   4.764   2.410
    1TCM    cl1 2219   2.357   4.611   2.321
    1TCM    cl2 2220   2.260   4.732   2.567
    1TCM     h1 2221   2.437   4.810   2.427
    1TCM    cl3 2222   2.236   4.876   2.316
    1TCM     c1 2223   2.271   2.627   0.885
    1TCM    cl1 2224   2.342   2.486   0.803
    1TCM    cl2 2225   2.274   2.601   1.061
    1TCM     h1 2226   2.329   2.718   0.860
    1TCM    cl3 2227   2.103   2.648   0.831
    1TCM     c1 2228   2.131   4.735   0.352
    1TCM    cl1 2229   2.235   4.657   0.230
    1TCM    cl2 2230   2.038   4.866   0.276
    1TCM     h1 2231   2.061   4.660   0.395
    1TCM    cl3 2232   2.232   4.802   0.482
    1TCM     c1 2233   3.671   1.104   2.456
    1TCM    cl1 2234   3.518   1.033   2.512
    1TCM    cl2 2235   3.718   1.031   2.301
    1TCM     h1 2236   3.658   1.214   2.443
    1TCM    cl3 2237   3.798   1.073   2.577
    1TCM     c1 2238   3.740   4.021   0.840
    1TCM    cl1 2239   3.754   4.120   0.693
    1TCM    cl2 2240   3.817   3.862   0.812
    1TCM     h1 2241   3.791   4.072   0.924
    1TCM    cl3 2242   3.569   3.997   0.880
    1TCM     c1 2243   1.728   4.320   2.088
    1TCM    cl1 2244   1.870   4.361   1.989
    1TCM    cl2 2245   1.748   4.389   2.251
    1TCM     h1 2246   1.637   4.362   2.041
    1TCM    cl3 2247   1.712   4.144   2.100
    1TCM     c1 2248   5.052   2.775   3.061
    1TCM    cl1 2249   4.911   2.746   2.958
    1TCM    cl2 2250   5.006   2.757   3.232
    1TCM     h1 2251   5.132   2.701   3.036
    1TCM    cl3 2252   5.113   2.940   3.034
    1TCM     c1 2253   1.631   1.296   2.250
    1TCM    cl1 2254   1.571   1.380   2.395
    1TCM    cl2 2255   1.495   1.265   2.139
    1TCM     h1 2256   1.707   1.358   2.200
    1TCM    cl3 2257   1.704   1.141   2.298
    1TCM     c1 2258   1.056   4.471   0.260
    1TCM    cl1 2259   1.051   4.452   0.083
    1TCM    cl2 2260   1.084   4.313   0.336
    1TCM     h1 2261   1.137   4.541   0.288
    1TCM    cl3 2262   0.900   4.536   0.317
    1TCM     c1 2263   3.124   2.717   0.943
    1TCM    cl1 2264   3.290   2.705   0.882
    1TCM    cl2 2265   3.127   2.747   1.119
    1TCM     h1 2266   3.072   2.801   0.892
    1TCM    cl3 2267   3.037   2.566   0.911
    1TCM     c1 2268   0.611   1.991   2.506
    1TCM    cl1 2269   0.455   1.961   2.586
    1TCM    cl2 2270   0.743   1.975   2.625
    1TCM     h1 2271   0.626   1.917   2.425
    1TCM    cl3 2272   0.612   2.155   2.438
    1TCM     c1 2273   2.613   0.779   4.997
    1TCM    cl1 2274   2.622   0.831   4.827
    1TCM    cl2 2275   2.738   0.863   5.091
    1TCM     h1 2276   2.513   0.803   5.038
    1TCM    cl3 2277   2.640   0.603   5.006
    1TCM     c1 2278   0.421   4.314   4.216
    1TCM    cl1 2279   0.525   4.450   4.166
    1TCM    cl2 2280   0.252   4.370   4.228
    1TCM     h1 2281   0.428   4.233   4.141
    1TCM    cl3 2282   0.474   4.254   4.375
    1TCM     c1 2283   5.023   3.991   1.583
    1TCM    cl1 2284   4.948   3.986   1.744
    1TCM    cl2 2285   5.187   3.924   1.592
    1TCM     h1 2286   4.963   3.932   1.512
    1TCM    cl3 2287   5.032   4.160   1.527
    1TCM     c1 2288   2.582   2.314   0.431
    1TCM    cl1 2289   2.538   2.240   0.586
    1TCM    cl2 2290   2.462   2.270   0.308
    1TCM     h1 2291   2.586   2.424   0.441
    1TCM    cl3 2292   2.743   2.255   0.380
    1TCM     c1 2293   5.187   5.035   3.601
    1TCM    cl1 2294   5.141   5.163   3.487
    1TCM    cl2 2295   5.224   5.107   3.759
    1TCM     h1 2296   5.102   4.964   3.612
    1TCM    cl3 2297   5.330   4.949   3.540
    1TCM     c1 2298   3.332   2.478   2.171
    1TCM    cl1 2299   3.442   2.594   2.248
    1TCM    cl2 2300   3.179   2.559   2.129
    1TCM     h1 2301   3.379   2.439   2.078
    1TCM    cl3 2302   3.299   2.344   2.282
    1TCM     c1 2303   4.063   1.257   5.148
    1TCM    cl1 2304   4.011   1.130   5.036
    1TCM    cl2 2305   4.240   1.258   5.158
    1TCM     h1 2306   4.027   1.355   5.112
    1TCM    cl3 2307   3.995   1.224   5.310
    1TCM     c1 2308   1.062   1.999   4.481
    1TCM    cl1 2309   1.037   1.971   4.655
    1TCM    cl2 2310   0.910   1.971   4.394
    1TCM     h1 2311   1.095   2.104   4.465
    1TCM    cl3 2312   1.187   1.888   4.420
    1TCM     c1 2313   0.389   0.399   2.178
    1TCM    cl1 2314   0.365   0.573   2.204
    1TCM    cl2 2315   0.391   0.364   2.004
    1TCM     h1 2316   0.485   0.368   2.224
    1TCM    cl3 2317   0.255   0.310   2.255
    1TCM     c1 2318   3.814   0.440   1.101
    1TCM    cl1 2319   3.729   0.289   1.063
    1TCM    cl2 2320   3.831   0.538   0.953
    1TCM     h1 2321   3.756   0.497   1.176
    1TCM    cl3 2322   3.975   0.403   1.166
    1TCM     c1 2323   3.182   2.264   3.640
    1TCM    cl1 2324   3.357   2.250   3.671
    1TCM    cl2 2325   3.104   2.108   3.673
    1TCM     h1 2326   3.139   2.342   3.707
    1TCM    cl3 2327   3.155   2.310   3.471
    1TCM     c1 2328   3.747   2.875   3.542
    1TCM    cl1 2329   3.794   2.707   3.578
    1TCM    cl2 2330   3.791   2.914   3.374
    1TCM     h1 2331   3.637   2.886   3.555
    1TCM    cl3 2332   3.831   2.985   3.652
    1TCM     c1 2333   3.185   4.431   1.872
    1TCM    cl1 2334   3.165   4.335   2.020
    1TCM    cl2 2335   3.277   4.337   1.753
    1TCM     h1 2336   3.085   4.457   1.831
    1TCM    cl3 2337   3.274   4.580   1.910
    1TCM     c1 2338   0.536   1.327   4.199
    1TCM    cl1 2339   0.363   1.307   4.232
    1TCM    cl2 2340   0.627   1.199   4.281
    1TCM     h1 2341   0.554   1.321   4.089
    1TCM    cl3 2342   0.590   1.486   4.258
    1TCM     c1 2343   0.381   1.804   1.602
    1TCM    cl1 2344   0.348   1.964   1.670
    1TCM    cl2 2345   0.375   1.682   1.731
    1TCM     h1 2346   0.305   1.780   1.525
    1TCM    cl3 2347   0.543   1.803   1.528
    1TCM     c1 2348   0.891   3.545   0.070
    1TCM    cl1 2349   0.844   3.712   0.033
    1TCM    cl2 2350   1.052   3.512   0.000
    1TCM     h1 2351   0.895   3.530   0.180
    1TCM    cl3 2352   0.773   3.432  -0.001
    1TCM     c1 2353   3.615   1.388   1.509
    1TCM    cl1 2354   3.745   1.319   1.408
    1TCM    cl2 2355   3.664   1.381   1.680
    1TCM     h1 2356   3.597   1.493   1.480
    1TCM    cl3 2357   3.466   1.294   1.486
    1TCM     c1 2358   3.500   1.745   4.820
    1TCM    cl1 2359   3.446   1.585   4.875
    1TCM    cl2 2360   3.612   1.725   4.683
    1TCM     h1 2361   3.412   1.805   4.788
    1TCM    cl3 2362   3.583   1.828   4.953
    1TCM     c1 2363   0.695   3.990   4.293
    1TCM    cl1 2364   0.575   4.010   4.423
    1TCM    cl2 2365   0.856   4.034   4.355
    1TCM     h1 2366   0.696   3.884   4.260
    1TCM    cl3 2367   0.653   4.095   4.156
    1TCM     c1 2368   3.621   3.217   5.179
    1TCM    cl1 2369   3.466   3.303   5.171
    1TCM    cl2 2370   3.625   3.115   5.325
    1TCM     h1 2371   3.633   3.154   5.089
    1TCM    cl3 2372   3.754   3.335   5.187
    1TCM     c1 2373   1.044   2.649   1.563
    1TCM    cl1 2374   0.985   2.726   1.414
    1TCM    cl2 2375   1.063   2.772   1.690
    1TCM     h1 2376   0.971   2.572   1.596
    1TCM    cl3 2377   1.201   2.572   1.531
    1TCM     c1 2378   4.411   5.080   5.214
    1TCM    cl1 2379   4.459   5.249   5.189
    1TCM    cl2 2380   4.430   4.990   5.061
    1TCM     h1 2381   4.476   5.034   5.292
    1TCM    cl3 2382   4.241   5.073   5.265
    1TCM     c1 2383   4.406   1.119   0.308
    1TCM    cl1 2384   4.466   0.984   0.208
    1TCM    cl2 2385   4.261   1.188   0.233
    1TCM     h1 2386   4.382   1.082   0.409
    1TCM    cl3 2387   4.532   1.244   0.320
    1TCM     c1 2388   3.114   0.843   3.493
    1TCM    cl1 2389   2.964   0.866   3.399
    1TCM    cl2 2390   3.157   0.670   3.494
    1TCM     h1 2391   3.196   0.901   3.447
    1TCM    cl3 2392   3.088   0.898   3.660
    1TCM     c1 2393   4.297   1.472   4.899
    1TCM    cl1 2394   4.174   1.344   4.905
    1TCM    cl2 2395   4.457   1.398   4.875
    1TCM     h1 2396   4.275   1.540   4.814
    1TCM    cl3 2397   4.296   1.563   5.051
    1TCM     c1 2398   4.759   2.150   3.806
    1TCM    cl1 2399   4.869   2.270   3.734
    1TCM    cl2 2400   4.740   2.182   3.979
    1TCM     h1 2401   4.660   2.157   3.756
    1TCM    cl3 2402   4.825   1.987   3.782
    1TCM     c1 2403   3.371   0.775   3.817
    1TCM    cl1 2404   3.470   0.646   3.889
    1TCM    cl2 2405   3.216   0.706   3.763
    1TCM     h1 2406   3.352   0.854   3.893
    1TCM    cl3 2407   3.456   0.845   3.678
    1TCM     c1 2408   3.809   3.765   1.648
    1TCM    cl1 2409   3.873   3.605   1.692
    1TCM    cl2 2410   3.771   3.767   1.474
    1TCM     h1 2411   3.717   3.786   1.707
    1TCM    cl3 2412   3.932   3.889   1.683
    1TCM     c1 2413   0.542   0.154   1.363
    1TCM    cl1 2414   0.567   0.129   1.538
    1TCM    cl2 2415   0.677   0.249   1.297
    1TCM     h1 2416   0.537   0.056   1.312
    1TCM    cl3 2417   0.390   0.243   1.338
    1TCM     c1 2418   2.177   3.970   3.673
    1TCM    cl1 2419   2.013   4.027   3.712
    1TCM    cl2 2420   2.207   3.816   3.757
    1TCM     h1 2421   2.185   3.954   3.564
    1TCM    cl3 2422   2.296   4.090   3.726
    1TCM     c1 2423   4.536   3.947   1.352
    1TCM    cl1 2424   4.408   4.064   1.394
    1TCM    cl2 2425   4.507   3.885   1.188
    1TCM     h1 2426   4.635   3.998   1.355
    1TCM    cl3 2427   4.534   3.813   1.468
    1TCM     c1 2428   3.163   4.356   4.607
    1TCM    cl1 2429   3.223   4.365   4.774
    1TCM    cl2 2430   3.182   4.189   4.547
    1TCM     h1 2431   3.055   4.384   4.605
    1TCM    cl3 2432   3.255   4.467   4.504
    1TCM     c1 2433   2.057   1.852   4.795
    1TCM    cl1 2434   2.192   1.852   4.911
    1TCM    cl2 2435   2.120   1.827   4.631
    1TCM     h1 2436   1.987   1.770   4.821
    1TCM    cl3 2437   1.972   2.008   4.804
    1TCM     c1 2438   1.524   3.378   2.034
    1TCM    cl1 2439   1.417   3.250   1.973
    1TCM    cl2 2440   1.676   3.306   2.091
    1TCM     h1 2441   1.545   3.450   1.952
    1TCM    cl3 2442   1.444   3.463   2.169
    1TCM     c1 2443   1.862   0.175   1.554
    1TCM    cl1 2444   1.869   0.171   1.377
    1TCM    cl2 2445   1.815   0.015   1.615
    1TCM     h1 2446   1.962   0.202   1.595
    1TCM    cl3 2447   1.742   0.296   1.606
    1TCM     c1 2448   4.214   4.356   3.723
    1TCM    cl1 2449   4.290   4.197   3.702
    1TCM    cl2 2450   4.244   4.415   3.888
    1TCM     h1 2451   4.257   4.428   3.649
    1TCM    cl3 2452   4.039   4.342   3.695
    1TCM     c1 2453   0.709   1.023   3.738
    1TCM    cl1 2454   0.555   1.033   3.826
    1TCM    cl2 2455   0.677   1.024   3.563
    1TCM     h1 2456   0.772   1.110   3.764
    1TCM    cl3 2457   0.794   0.873   3.782
    1TCM     c1 2458   1.690   4.469   0.718
    1TCM    cl1 2459   1.672   4.458   0.541
    1TCM    cl2 2460   1.863   4.469   0.760
    1TCM     h1 2461   1.643   4.563   0.754
    1TCM    cl3 2462   1.610   4.330   0.795
    1TCM     c1 2463   3.267   0.344   0.085
    1TCM    cl1 2464   3.254   0.188   0.000
    1TCM    cl2 2465   3.333   0.318   0.248
    1TCM     h1 2466   3.333   0.412   0.028
    1TCM    cl3 2467   3.105   0.417   0.098
    1TCM     c1 2468   3.852   0.956   3.328
    1TCM    cl1 2469   3.680   0.946   3.374
    1TCM    cl2 2470   3.880   1.109   3.241
    1TCM     h1 2471   3.914   0.953   3.419
    1TCM    cl3 2472   3.893   0.820   3.222
    1TCM     c1 2473   0.184   4.615   3.988
    1TCM    cl1 2474   0.184   4.687   3.825
    1TCM    cl2 2475   0.045   4.504   4.003
    1TCM     h1 2476   0.278   4.558   4.003
    1TCM    cl3 2477   0.171   4.743   4.110
    1TCM     c1 2478   4.485   1.674   5.233
    1TCM    cl1 2479   4.611   1.556   5.278
    1TCM    cl2 2480   4.508   1.724   5.064
    1TCM     h1 2481   4.385   1.627   5.245
    1TCM    cl3 2482   4.497   1.816   5.340
    1TCM     c1 2483   0.289   0.819   2.906
    1TCM    cl1 2484   0.273   0.645   2.875
    1TCM    cl2 2485   0.391   0.892   2.780
    1TCM     h1 2486   0.188   0.867   2.904
    1TCM    cl3 2487   0.363   0.845   3.065
    1TCM     c1 2488   0.510   2.113   1.947
    1TCM    cl1 2489   0.349   2.105   1.872
    1TCM    cl2 2490   0.492   2.154   2.120
    1TCM     h1 2491   0.560   2.015   1.938
    1TCM    cl3 2492   0.608   2.238   1.867
    1TCM     c1 2493   3.722   2.248   1.600
    1TCM    cl1 2494   3.563   2.258   1.680
    1TCM    cl2 2495   3.776   2.078   1.599
    1TCM     h1 2496   3.713   2.284   1.495
    1TCM    cl3 2497   3.839   2.348   1.688
    1TCM     c1 2498   2.660   0.948   4.362
    1TCM    cl1 2499   2.624   0.851   4.218
    1TCM    cl2 2500   2.585   1.108   4.347
    1TCM     h1 2501   2.620   0.896   4.452
    1TCM    cl3 2502   2.836   0.966   4.379
    1TCM     c1 2503   4.630   2.532   4.943
    1TCM    cl1 2504   4.625   2.478   4.774
    1TCM    cl2 2505   4.678   2.703   4.949
    1TCM     h1 2506   4.530   2.520   4.989
    1TCM    cl3 2507   4.748   2.434   5.033
    1TCM     c1 2508   3.798   0.745   2.810
    1TCM    cl1 2509   3.945   0.819   2.741
    1TCM    cl2 2510   3.763   0.820   2.967
    1TCM     h1 2511   3.713   0.762   2.741
    1TCM    cl3 2512   3.824   0.571   2.832
    1TCM     c1 2513   3.335   2.168   3.296
    1TCM    cl1 2514   3.163   2.130   3.318
    1TCM    cl2 2515   3.419   2.026   3.230
    1TCM     h1 2516   3.346   2.253   3.226
    1TCM    cl3 2517   3.407   2.211   3.453
    1TCM     c1 2518   3.840   1.667   1.466
    1TCM    cl1 2519   3.811   1.512   1.548
    1TCM    cl2 2520   3.685   1.737   1.415
    1TCM     h1 2521   3.891   1.737   1.536
    1TCM    cl3 2522   3.943   1.640   1.323
    1TCM     c1 2523   0.491   3.423   1.659
    1TCM    cl1 2524   0.438   3.262   1.603
    1TCM    cl2 2525   0.408   3.549   1.566
    1TCM     h1 2526   0.467   3.434   1.767
    1TCM    cl3 2527   0.667   3.438   1.636
    1TCM     c1 2528   2.385   3.787   4.656
    1TCM    cl1 2529   2.530   3.777   4.554
    1TCM    cl2 2530   2.431   3.840   4.819
    1TCM     h1 2531   2.313   3.859   4.612
    1TCM    cl3 2532   2.308   3.626   4.664
    1TCM     c1 2533   1.941   1.603   1.937
    1TCM    cl1 2534   1.803   1.493   1.913
    1TCM    cl2 2535   2.092   1.519   1.893
    1TCM     h1 2536   1.928   1.692   1.873
    1TCM    cl3 2537   1.948   1.652   2.107
    1TCM     c1 2538   4.519   2.459   0.350
    1TCM    cl1 2539   4.521   2.286   0.310
    1TCM    cl2 2540   4.361   2.503   0.417
    1TCM     h1 2541   4.599   2.480   0.424
    1TCM    cl3 2542   4.549   2.554   0.202
    1TCM     c1 2543   3.052   4.608   3.591
    1TCM    cl1 2544   2.993   4.466   3.680
    1TCM    cl2 2545   3.132   4.554   3.441
    1TCM     h1 2546   2.967   4.674   3.566
    1TCM    cl3 2547   3.169   4.697   3.691
    1TCM     c1 2548   5.000   3.895   5.228
    1TCM    cl1 2549   4.887   3.893   5.090
    1TCM    cl2 2550   4.992   3.740   5.313
    1TCM     h1 2551   5.103   3.913   5.191
    1TCM    cl3 2552   4.954   4.026   5.340
    1TCM     c1 2553   1.205   2.669   3.347
    1TCM    cl1 2554   1.335   2.668   3.226
    1TCM    cl2 2555   1.070   2.568   3.290
    1TCM     h1 2556   1.243   2.629   3.443
    1TCM    cl3 2557   1.148   2.836   3.371
    1TCM     c1 2558   2.522   2.805   1.353
    1TCM    cl1 2559   2.673   2.723   1.398
    1TCM    cl2 2560   2.401   2.781   1.481
    1TCM     h1 2561   2.540   2.914   1.340
    1TCM    cl3 2562   2.460   2.737   1.201
    1TCM     c1 2563   0.079   3.532   3.538
    1TCM    cl1 2564   0.240   3.527   3.464
    1TCM    cl2 2565   0.042   3.699   3.588
    1TCM     h1 2566   0.003   3.498   3.464
    1TCM    cl3 2567   0.075   3.425   3.680
    1TCM     c1 2568   2.494   4.844   3.328
    1TCM    cl1 2569   2.327   4.809   3.380
    1TCM    cl2 2570   2.494   4.893   3.157
    1TCM     h1 2571   2.536   4.926   3.390
    1TCM    cl3 2572   2.593   4.698   3.348
    1TCM     c1 2573   5.020   2.723   4.189
    1TCM    cl1 2574   5.073   2.636   4.335
    1TCM    cl2 2575   5.077   2.891   4.196
    1TCM     h1 2576   5.063   2.673   4.099
    1TCM    cl3 2577   4.843   2.720   4.179
    1TCM     c1 2578   2.581   2.263   3.593
    1TCM    cl1 2579   2.753   2.295   3.558
    1TCM    cl2 2580   2.507   2.183   3.453
    1TCM     h1 2581   2.574   2.197   3.682
    1TCM    cl3 2582   2.498   2.417   3.626
    1TCM     c1 2583   1.993   0.940   4.001
    1TCM    cl1 2584   1.843   0.886   3.921
    1TCM    cl2 2585   1.991   0.889   4.171
    1TCM     h1 2586   2.080   0.896   3.949
    1TCM    cl3 2587   2.003   1.118   3.992
    1TCM     c1 2588   0.908   0.393   0.898
    1TCM    cl1 2589   0.988   0.238   0.865
    1TCM    cl2 2590   0.793   0.373   1.032
    1TCM     h1 2591   0.984   0.469   0.926
    1TCM    cl3 2592   0.821   0.447   0.753
    1TCM     c1 2593   4.170   1.431   3.678
    1TCM    cl1 2594   4.076   1.322   3.574
    1TCM    cl2 2595   4.063   1.558   3.742
    1TCM     h1 2596   4.214   1.374   3.762
    1TCM    cl3 2597   4.301   1.506   3.583
    1TCM     c1 2598   3.222   4.913   3.307
    1TCM    cl1 2599   3.260   5.056   3.210
    1TCM    cl2 2600   3.057   4.928   3.373
    1TCM     h1 2601   3.228   4.822   3.244
    1TCM    cl3 2602   3.338   4.900   3.441
    1TCM     c1 2603   2.177   2.501   3.105
    1TCM    cl1 2604   2.116   2.626   2.994
    1TCM    cl2 2605   2.120   2.535   3.270
    1TCM     h1 2606   2.139   2.401   3.072
    1TCM    cl3 2607   2.355   2.500   3.102
    1TCM     c1 2608   1.467   0.679   5.283
    1TCM    cl1 2609   1.506   0.677   5.110
    1TCM    cl2 2610   1.310   0.600   5.310
    1TCM     h1 2611   1.546   0.625   5.340
    1TCM    cl3 2612   1.459   0.848   5.340
    1TCM     c1 2613   2.217   4.436   4.374
    1TCM    cl1 2614   2.140   4.420   4.215
    1TCM    cl2 2615   2.186   4.290   4.470
    1TCM     h1 2616   2.326   4.450   4.361
    1TCM    cl3 2617   2.149   4.578   4.458
    1TCM     c1 2618   0.785   3.762   5.062
    1TCM    cl1 2619   0.810   3.922   5.135
    1TCM    cl2 2620   0.796   3.775   4.885
    1TCM     h1 2621   0.862   3.692   5.098
    1TCM    cl3 2622   0.624   3.701   5.106
    1TCM     c1 2623   5.106   3.074   1.870
    1TCM    cl1 2624   5.270   3.021   1.914
    1TCM    cl2 2625   5.001   3.067   2.013
    1TCM     h1 2626   5.109   3.178   1.832
    1TCM    cl3 2627   5.041   2.966   1.744
    1TCM     c1 2628   3.340   1.212   3.553
    1TCM    cl1 2629   3.211   1.099   3.600
    1TCM    cl2 2630   3.468   1.123   3.467
    1TCM     h1 2631   3.299   1.290   3.487
    1TCM    cl3 2632   3.408   1.288   3.699
    1TCM     c1 2633   1.562   0.094   1.319
    1TCM    cl1 2634   1.421   0.000   1.262
    1TCM    cl2 2635   1.670   0.127   1.181
    1TCM     h1 2636   1.527   0.189   1.362
    1TCM    cl3 2637   1.649   0.000   1.442
    1TCM     c1 2638   2.776   2.947   3.887
    1TCM    cl1 2639   2.701   3.037   3.752
    1TCM    cl2 2640   2.652   2.914   4.011
    1TCM     h1 2641   2.817   2.852   3.849
    1TCM    cl3 2642   2.906   3.045   3.958
    1TCM     c1 2643   5.096   3.309   1.214
    1TCM    cl1 2644   5.015   3.158   1.263
    1TCM    cl2 2645   5.231   3.271   1.106
    1TCM     h1 2646   5.023   3.374   1.161
    1TCM    cl3 2647   5.157   3.393   1.358
    1TCM     c1 2648   1.893   0.284   0.180
    1TCM    cl1 2649   1.854   0.112   0.152
    1TCM    cl2 2650   2.056   0.296   0.252
    1TCM     h1 2651   1.891   0.338   0.084
    1TCM    cl3 2652   1.774   0.354   0.292
    1TCM     c1 2653   1.127   1.920   3.017
    1TCM    cl1 2654   1.277   1.844   2.960
    1TCM    cl2 2655   1.166   2.050   3.133
    1TCM     h1 2656   1.072   1.964   2.931
    1TCM    cl3 2657   1.025   1.798   3.098
    1TCM     c1 2658   2.708   3.876   2.465
    1TCM    cl1 2659   2.669   4.035   2.394
    1TCM    cl2 2660   2.690   3.884   2.641
    1TCM     h1 2661   2.638   3.800   2.424
    1TCM    cl3 2662   2.875   3.833   2.424
    1TCM     c1 2663   1.476   0.555   2.944
    1TCM    cl1 2664   1.431   0.704   2.856
    1TCM    cl2 2665   1.644   0.513   2.905
    1TCM     h1 2666   1.466   0.572   3.053
    1TCM    cl3 2667   1.368   0.423   2.894
    1TCM     c1 2668   5.143   5.023   2.830
    1TCM    cl1 2669   5.153   4.884   2.940
    1TCM    cl2 2670   5.112   4.965   2.665
    1TCM     h1 2671   5.060   5.089   2.862
    1TCM    cl3 2672   5.296   5.113   2.834
    1TCM     c1 2673   2.636   3.825   3.185
    1TCM    cl1 2674   2.591   3.951   3.069
    1TCM    cl2 2675   2.599   3.665   3.117
    1TCM     h1 2676   2.745   3.831   3.206
    1TCM    cl3 2677   2.545   3.847   3.336
    1TCM     c1 2678   5.052   5.117   0.199
    1TCM    cl1 2679   4.940   5.232   0.123
    1TCM    cl2 2680   4.986   4.952   0.184
    1TCM     h1 2681   5.151   5.122   0.149
    1TCM    cl3 2682   5.070   5.158   0.371
    1TCM     c1 2683   1.547   4.069   5.197
    1TCM    cl1 2684   1.492   4.204   5.096
    1TCM    cl2 2685   1.406   3.973   5.249
    1TCM     h1 2686   1.616   4.005   5.139
    1TCM    cl3 2687   1.631   4.133   5.340
    1TCM     c1 2688   0.429   2.006   3.532
    1TCM    cl1 2689   0.504   1.915   3.666
    1TCM    cl2 2690   0.554   2.098   3.447
    1TCM     h1 2691   0.381   1.935   3.462
    1TCM    cl3 2692   0.307   2.117   3.597
    1TCM     c1 2693   4.531   0.443   4.835
    1TCM    cl1 2694   4.572   0.273   4.867
    1TCM    cl2 2695   4.639   0.549   4.929
    1TCM     h1 2696   4.543   0.464   4.727
    1TCM    cl3 2697   4.362   0.473   4.882
    1TCM     c1 2698   4.346   2.448   2.505
    1TCM    cl1 2699   4.279   2.284   2.490
    1TCM    cl2 2700   4.424   2.495   2.352
    1TCM     h1 2701   4.264   2.520   2.528
    1TCM    cl3 2702   4.465   2.452   2.637
    1TCM     c1 2703   3.507   4.703   1.515
    1TCM    cl1 2704   3.512   4.843   1.625
    1TCM    cl2 2705   3.345   4.693   1.441
    1TCM     h1 2706   3.583   4.716   1.436
    1TCM    cl3 2707   3.540   4.555   1.607
    1TCM     c1 2708   5.177   5.213   0.762
    1TCM    cl1 2709   5.192   5.077   0.875
    1TCM    cl2 2710   5.208   5.156   0.596
    1TCM     h1 2711   5.074   5.255   0.767
    1TCM    cl3 2712   5.294   5.340   0.804
    1TCM     c1 2713   3.996   5.156   0.264
    1TCM    cl1 2714   3.898   5.266   0.364
    1TCM    cl2 2715   3.972   5.195   0.092
    1TCM     h1 2716   4.103   5.168   0.290
    1TCM    cl3 2717   3.946   4.988   0.294
    1TCM     c1 2718   0.662   5.075   2.573
    1TCM    cl1 2719   0.594   5.217   2.492
    1TCM    cl2 2720   0.732   4.965   2.451
    1TCM     h1 2721   0.741   5.107   2.644
    1TCM    cl3 2722   0.534   4.989   2.662
    1TCM     c1 2723   2.866   5.141   4.369
    1TCM    cl1 2724   2.725   5.167   4.265
    1TCM    cl2 2725   2.813   5.118   4.537
    1TCM     h1 2726   2.922   5.051   4.336
    1TCM    cl3 2727   2.973   5.283   4.360
    1TCM     c1 2728   4.408   4.200   1.838
    1TCM    cl1 2729   4.485   4.069   1.931
    1TCM    cl2 2730   4.387   4.148   1.669
    1TCM     h1 2731   4.309   4.223   1.882
    1TCM    cl3 2732   4.511   4.345   1.842
    1TCM     c1 2733   3.285   3.691   4.854
    1TCM    cl1 2734   3.336   3.787   4.996
    1TCM    cl2 2735   3.412   3.699   4.730
    1TCM     h1 2736   3.269   3.586   4.885
    1TCM    cl3 2737   3.134   3.758   4.789
    1TCM     c1 2738   2.740   0.472   4.352
    1TCM    cl1 2739   2.764   0.617   4.253
    1TCM    cl2 2740   2.704   0.520   4.520
    1TCM     h1 2741   2.656   0.412   4.312
    1TCM    cl3 2742   2.888   0.373   4.350
    1TCM     c1 2743   3.363   3.357   1.813
    1TCM    cl1 2744   3.443   3.207   1.759
    1TCM    cl2 2745   3.386   3.376   1.988
    1TCM     h1 2746   3.407   3.444   1.760
    1TCM    cl3 2747   3.189   3.347   1.777
    1TCM     c1 2748   0.122   3.017   3.610
    1TCM    cl1 2749   0.150   3.103   3.763
    1TCM    cl2 2750   0.000   3.104   3.514
    1TCM     h1 2751   0.217   3.012   3.553
    1TCM    cl3 2752   0.064   2.852   3.644
    1TCM     c1 2753   1.510   3.859   3.095
    1TCM    cl1 2754   1.375   3.744   3.082
    1TCM    cl2 2755   1.564   3.868   3.263
    1TCM     h1 2756   1.594   3.825   3.030
    1TCM    cl3 2757   1.456   4.020   3.041
    1TCM     c1 2758   2.825   4.263   1.783
    1TCM    cl1 2759   2.674   4.266   1.688
    1TCM    cl2 2760   2.962   4.226   1.676
    1TCM     h1 2761   2.840   4.362   1.830
    1TCM    cl3 2762   2.813   4.138   1.909
    1TCM     c1 2763   5.153   1.670   2.959
    1TCM    cl1 2764   5.241   1.516   2.976
    1TCM    cl2 2765   4.999   1.660   3.048
    1TCM     h1 2766   5.215   1.753   3.001
    1TCM    cl3 2767   5.121   1.702   2.787
    1TCM     c1 2768   4.430   3.522   2.973
    1TCM    cl1 2769   4.481   3.397   2.859
    1TCM    cl2 2770   4.489   3.482   3.136
    1TCM     h1 2771   4.471   3.620   2.942
    1TCM    cl3 2772   4.252   3.531   2.976
    1TCM     c1 2773   2.759   4.938   2.636
    1TCM    cl1 2774   2.625   4.929   2.519
    1TCM    cl2 2775   2.914   4.917   2.550
    1TCM     h1 2776   2.758   5.038   2.685
    1TCM    cl3 2777   2.741   4.811   2.758
    1TCM     c1 2778   3.004   3.317   2.384
    1TCM    cl1 2779   3.005   3.467   2.287
    1TCM    cl2 2780   3.057   3.353   2.549
    1TCM     h1 2781   2.901   3.276   2.386
    1TCM    cl3 2782   3.115   3.199   2.310
    1TCM     c1 2783   1.920   3.502   4.146
    1TCM    cl1 2784   1.918   3.467   3.971
    1TCM    cl2 2785   1.794   3.408   4.227
    1TCM     h1 2786   2.020   3.475   4.187
    1TCM    cl3 2787   1.891   3.676   4.171
    1TCM     c1 2788   4.927   1.963   0.531
    1TCM    cl1 2789   4.836   1.918   0.677
    1TCM    cl2 2790   4.822   1.944   0.388
    1TCM     h1 2791   4.960   2.068   0.539
    1TCM    cl3 2792   5.069   1.857   0.514
    1TCM     c1 2793   2.047   3.130   2.075
    1TCM    cl1 2794   2.097   3.010   2.196
    1TCM    cl2 2795   1.906   3.068   1.986
    1TCM     h1 2796   2.020   3.224   2.126
    1TCM    cl3 2797   2.180   3.159   1.962
    1TCM     c1 2798   1.993   0.938   4.956
    1TCM    cl1 2799   2.123   1.000   5.060
    1TCM    cl2 2800   2.025   0.985   4.788
    1TCM     h1 2801   1.990   0.827   4.964
    1TCM    cl3 2802   1.838   1.005   5.009
    1TCM     c1 2803   0.269   5.084   4.016
    1TCM    cl1 2804   0.327   5.206   3.900
    1TCM    cl2 2805   0.400   5.044   4.130
    1TCM     h1 2806   0.183   5.125   4.072
    1TCM    cl3 2807   0.219   4.938   3.929
    1TCM     c1 2808   1.666   4.501   1.722
    1TCM    cl1 2809   1.576   4.361   1.784
    1TCM    cl2 2810   1.625   4.525   1.550
    1TCM     h1 2811   1.638   4.592   1.779
    1TCM    cl3 2812   1.840   4.472   1.738
    1TCM     c1 2813   4.884   1.045   4.302
    1TCM    cl1 2814   4.994   1.067   4.164
    1TCM    cl2 2815   4.846   1.203   4.373
    1TCM     h1 2816   4.791   0.997   4.267
    1TCM    cl3 2817   4.963   0.942   4.424
    1TCM     c1 2818   2.384   3.227   0.320
    1TCM    cl1 2819   2.508   3.352   0.343
    1TCM    cl2 2820   2.294   3.260   0.170
    1TCM     h1 2821   2.433   3.128   0.313
    1TCM    cl3 2822   2.272   3.228   0.458
    1TCM     c1 2823   2.647   4.298   1.357
    1TCM    cl1 2824   2.731   4.425   1.448
    1TCM    cl2 2825   2.760   4.220   1.245
    1TCM     h1 2826   2.607   4.222   1.428
    1TCM    cl3 2827   2.512   4.370   1.265
    1TCM     c1 2828   1.595   0.868   4.023
    1TCM    cl1 2829   1.706   1.005   4.049
    1TCM    cl2 2830   1.429   0.929   4.011
    1TCM     h1 2831   1.622   0.816   3.930
    1TCM    cl3 2832   1.607   0.755   4.160
    1TCM     c1 2833   1.609   1.130   2.823
    1TCM    cl1 2834   1.483   1.142   2.698
    1TCM    cl2 2835   1.538   1.169   2.981
    1TCM     h1 2836   1.650   1.027   2.824
    1TCM    cl3 2837   1.739   1.246   2.786
    1TCM     c1 2838   2.012   3.187   3.476
    1TCM    cl1 2839   2.006   3.338   3.571
    1TCM    cl2 2840   2.048   3.226   3.306
    1TCM     h1 2841   2.092   3.122   3.517
    1TCM    cl3 2842   1.855   3.104   3.486
    1TCM     c1 2843   3.797   4.302   3.017
    1TCM    cl1 2844   3.806   4.125   3.003
    1TCM    cl2 2845   3.838   4.350   3.184
    1TCM     h1 2846   3.868   4.349   2.947
    1TCM    cl3 2847   3.632   4.356   2.980
    1TCM     c1 2848   2.722   5.165   0.476
    1TCM    cl1 2849   2.877   5.220   0.542
    1TCM    cl2 2850   2.709   4.988   0.495
    1TCM     h1 2851   2.639   5.214   0.530
    1TCM    cl3 2852   2.713   5.206   0.303
    1TCM     c1 2853   1.667   3.791   4.099
    1TCM    cl1 2854   1.807   3.896   4.132
    1TCM    cl2 2855   1.531   3.890   4.041
    1TCM     h1 2856   1.694   3.716   4.022
    1TCM    cl3 2857   1.620   3.707   4.249
    1TCM     c1 2858   2.376   2.245   1.302
    1TCM    cl1 2859   2.392   2.278   1.476
    1TCM    cl2 2860   2.310   2.388   1.220
    1TCM     h1 2861   2.475   2.220   1.259
    1TCM    cl3 2862   2.266   2.107   1.278
    1TCM     c1 2863   3.080   0.106   3.794
    1TCM    cl1 2864   3.181   0.223   3.708
    1TCM    cl2 2865   2.966   0.192   3.900
    1TCM     h1 2866   3.023   0.044   3.721
    1TCM    cl3 2867   3.183   0.000   3.894
    1TCM     c1 2868   2.025   1.276   2.157
    1TCM    cl1 2869   2.200   1.293   2.131
    1TCM    cl2 2870   1.939   1.322   2.008
    1TCM     h1 2871   2.001   1.171   2.182
    1TCM    cl3 2872   1.974   1.382   2.290
    1TCM     c1 2873   2.301   2.831   0.466
    1TCM    cl1 2874   2.379   2.879   0.618
    1TCM    cl2 2875   2.248   2.662   0.478
    1TCM     h1 2876   2.214   2.896   0.447
    1TCM    cl3 2877   2.418   2.847   0.332
    1TCM     c1 2878   3.568   2.525   4.359
    1TCM    cl1 2879   3.434   2.469   4.256
    1TCM    cl2 2880   3.540   2.473   4.527
    1TCM     h1 2881   3.663   2.480   4.322
    1TCM    cl3 2882   3.579   2.702   4.352
    1TCM     c1 2883   0.694   0.308   1.961
    1TCM    cl1 2884   0.604   0.436   2.045
    1TCM    cl2 2885   0.825   0.250   2.067
    1TCM     h1 2886   0.626   0.224   1.937
    1TCM    cl3 2887   0.763   0.373   1.811
    1TCM     c1 2888   4.296   4.858   0.793
    1TCM    cl1 2889   4.328   4.857   0.968
    1TCM    cl2 2890   4.334   5.018   0.726
    1TCM     h1 2891   4.359   4.781   0.744
    1TCM    cl3 2892   4.125   4.821   0.763
    1TCM     c1 2893   0.263   4.329   1.072
    1TCM    cl1 2894   0.282   4.158   1.029
    1TCM    cl2 2895   0.100   4.384   1.024
    1TCM     h1 2896   0.275   4.342   1.181
    1TCM    cl3 2897   0.385   4.426   0.986
    1TCM     c1 2898   2.224   2.311   3.778
    1TCM    cl1 2899   2.197   2.244   3.615
    1TCM    cl2 2900   2.304   2.189   3.880
    1TCM     h1 2901   2.287   2.401   3.771
    1TCM    cl3 2902   2.067   2.354   3.850
    1TCM     c1 2903   0.606   4.067   1.324
    1TCM    cl1 2904   0.546   4.124   1.166
    1TCM    cl2 2905   0.588   4.196   1.445
    1TCM     h1 2906   0.547   3.978   1.355
    1TCM    cl3 2907   0.777   4.022   1.309
    1TCM     c1 2908   1.453   3.910   0.435
    1TCM    cl1 2909   1.470   3.741   0.382
    1TCM    cl2 2910   1.604   3.998   0.399
    1TCM     h1 2911   1.369   3.957   0.381
    1TCM    cl3 2912   1.422   3.914   0.610
    1TCM     c1 2913   3.164   2.112   2.493
    1TCM    cl1 2914   3.213   2.064   2.330
    1TCM    cl2 2915   3.151   2.290   2.501
    1TCM     h1 2916   3.065   2.067   2.517
    1TCM    cl3 2917   3.285   2.056   2.611
    1TCM     c1 2918   1.915   2.761   2.532
    1TCM    cl1 2919   2.056   2.719   2.633
    1TCM    cl2 2920   1.769   2.767   2.634
    1TCM     h1 2921   1.931   2.860   2.486
    1TCM    cl3 2922   1.894   2.638   2.405
    1TCM     c1 2923   3.415   5.125   2.095
    1TCM    cl1 2924   3.350   5.243   1.979
    1TCM    cl2 2925   3.281   5.040   2.175
    1TCM     h1 2926   3.479   5.051   2.041
    1TCM    cl3 2927   3.513   5.210   2.217
    1TCM     c1 2928   0.995   2.546   4.438
    1TCM    cl1 2929   1.102   2.640   4.545
    1TCM    cl2 2930   0.964   2.639   4.289
    1TCM     h1 2931   1.044   2.450   4.412
    1TCM    cl3 2932   0.842   2.513   4.521
    1TCM     c1 2933   4.598   3.878   4.947
    1TCM    cl1 2934   4.668   3.749   5.048
    1TCM    cl2 2935   4.618   3.836   4.775
    1TCM     h1 2936   4.490   3.888   4.970
    1TCM    cl3 2937   4.681   4.031   4.981
    1TCM     c1 2938   4.922   1.880   4.163
    1TCM    cl1 2939   5.089   1.821   4.184
    1TCM    cl2 2940   4.872   1.855   3.994
    1TCM     h1 2941   4.854   1.824   4.230
    1TCM    cl3 2942   4.915   2.053   4.201
    1TCM     c1 2943   4.112   2.269   2.869
    1TCM    cl1 2944   4.096   2.110   2.947
    1TCM    cl2 2945   3.994   2.282   2.736
    1TCM     h1 2946   4.092   2.349   2.944
    1TCM    cl3 2947   4.277   2.287   2.805
    1TCM     c1 2948   1.469   2.828   5.168
    1TCM    cl1 2949   1.451   2.997   5.221
    1TCM    cl2 2950   1.312   2.745   5.184
    1TCM     h1 2951   1.501   2.825   5.062
    1TCM    cl3 2952   1.589   2.747   5.270
    1TCM     c1 2953   3.670   2.168   3.120
    1TCM    cl1 2954   3.597   2.314   3.049
    1TCM    cl2 2955   3.710   2.198   3.290
    1TCM     h1 2956   3.597   2.084   3.113
    1TCM    cl3 2957   3.817   2.126   3.030
    1TCM     c1 2958   2.779   4.877   1.038
    1TCM    cl1 2959   2.753   5.036   0.962
    1TCM    cl2 2960   2.642   4.770   1.000
    1TCM     h1 2961   2.873   4.832   1.000
    1TCM    cl3 2962   2.791   4.898   1.214
    1TCM     c1 2963   1.659   3.844   0.888
    1TCM    cl1 2964   1.822   3.790   0.934
    1TCM    cl2 2965   1.620   3.783   0.726
    1TCM     h1 2966   1.586   3.805   0.962
    1TCM    cl3 2967   1.654   4.022   0.888
    1TCM     c1 2968   5.074   3.219   5.124
    1TCM    cl1 2969   5.006   3.342   5.234
    1TCM    cl2 2970   4.959   3.085   5.107
    1TCM     h1 2971   5.093   3.265   5.025
    1TCM    cl3 2972   5.227   3.158   5.191
    1TCM     c1 2973   2.931   5.017   3.085
    1TCM    cl1 2974   3.082   5.109   3.090
    1TCM    cl2 2975   2.876   5.001   2.917
    1TCM     h1 2976   2.948   4.916   3.128
    1TCM    cl3 2977   2.806   5.101   3.180
    1TCM     c1 2978   4.793   3.861   3.627
    1TCM    cl1 2979   4.798   3.846   3.804
    1TCM    cl2 2980   4.625   3.857   3.572
    1TCM     h1 2981   4.840   3.957   3.597
    1TCM    cl3 2982   4.883   3.726   3.554
    1TCM     c1 2983   1.684   0.983   3.211
    1TCM    cl1 2984   1.778   1.130   3.176
    1TCM    cl2 2985   1.559   1.019   3.332
    1TCM     h1 2986   1.635   0.947   3.117
    1TCM    cl3 2987   1.792   0.857   3.273
    1TCM     c1 2988   3.370   2.770   4.558
    1TCM    cl1 2989   3.447   2.895   4.458
    1TCM    cl2 2990   3.346   2.623   4.460
    1TCM     h1 2991   3.434   2.746   4.645
    1TCM    cl3 2992   3.212   2.829   4.615
    1TCM     c1 2993   2.384   4.286   0.660
    1TCM    cl1 2994   2.341   4.161   0.541
    1TCM    cl2 2995   2.521   4.230   0.758
    1TCM     h1 2996   2.412   4.380   0.607
    1TCM    cl3 2997   2.244   4.318   0.766
    1TCM     c1 2998   3.242   1.592   0.296
    1TCM    cl1 2999   3.357   1.686   0.199
    1TCM    cl2 3000   3.159   1.474   0.192
    1TCM     h1 3001   3.296   1.538   0.377
    1TCM    cl3 3002   3.122   1.702   0.369
    1TCM     c1 3003   2.387   1.730   4.100
    1TCM    cl1 3004   2.438   1.790   4.259
    1TCM    cl2 3005   2.227   1.798   4.060
    1TCM     h1 3006   2.460   1.762   4.023
    1TCM    cl3 3007   2.376   1.553   4.104
    1TCM     c1 3008   1.273   0.939   2.704
    1TCM    cl1 3009   1.359   0.881   2.560
    1TCM    cl2 3010   1.215   1.105   2.675
    1TCM     h1 3011   1.186   0.873   2.725
    1TCM    cl3 3012   1.383   0.939   2.843
    1TCM     c1 3013   2.809   4.352   5.181
    1TCM    cl1 3014   2.796   4.253   5.328
    1TCM    cl2 3015   2.657   4.342   5.090
    1TCM     h1 3016   2.828   4.457   5.209
    1TCM    cl3 3017   2.942   4.291   5.080
    1TCM     c1 3018   2.285   4.483   1.639
    1TCM    cl1 3019   2.370   4.379   1.756
    1TCM    cl2 3020   2.282   4.403   1.480
    1TCM     h1 3021   2.181   4.500   1.674
    1TCM    cl3 3022   2.369   4.639   1.625
    1TCM     c1 3023   0.974   2.545   5.130
    1TCM    cl1 3024   0.821   2.515   5.215
    1TCM    cl2 3025   0.987   2.436   4.990
    1TCM     h1 3026   0.976   2.651   5.095
    1TCM    cl3 3027   1.110   2.517   5.241
    1TCM     c1 3028   1.688   1.170   1.842
    1TCM    cl1 3029   1.664   1.331   1.769
    1TCM    cl2 3030   1.545   1.069   1.811
    1TCM     h1 3031   1.778   1.122   1.797
    1TCM    cl3 3032   1.712   1.188   2.017
    1TCM     c1 3033   0.520   3.604   3.639
    1TCM    cl1 3034   0.604   3.687   3.772
    1TCM    cl2 3035   0.579   3.667   3.484
    1TCM     h1 3036   0.539   3.495   3.645
    1TCM    cl3 3037   0.345   3.634   3.652
    1TCM     c1 3038   0.234   0.215   3.688
    1TCM    cl1 3039   0.252   0.353   3.576
    1TCM    cl2 3040   0.367   0.100   3.661
    1TCM     h1 3041   0.238   0.252   3.793
    1TCM    cl3 3042   0.079   0.135   3.659
    1TCM     c1 3043   4.264   5.195   3.310
    1TCM    cl1 3044   4.409   5.222   3.409
    1TCM    cl2 3045   4.290   5.056   3.203
    1TCM     h1 3046   4.177   5.176   3.376
    1TCM    cl3 3047   4.232   5.340   3.211
    1TCM     c1 3048   3.246   4.029   1.554
    1TCM    cl1 3049   3.380   4.142   1.581
    1TCM    cl2 3050   3.267   3.886   1.657
    1TCM     h1 3051   3.150   4.079   1.579
    1TCM    cl3 3052   3.243   3.979   1.383
    1TCM     c1 3053   4.648   4.340   3.904
    1TCM    cl1 3054   4.553   4.382   4.048
    1TCM    cl2 3055   4.812   4.289   3.953
    1TCM     h1 3056   4.598   4.256   3.850
    1TCM    cl3 3057   4.660   4.481   3.797
    1TCM     c1 3058   0.930   3.732   0.435
    1TCM    cl1 3059   0.940   3.731   0.257
    1TCM    cl2 3060   0.907   3.899   0.491
    1TCM     h1 3061   0.844   3.670   0.467
    1TCM    cl3 3062   1.080   3.666   0.503
    1TCM     c1 3063   5.129   2.335   5.088
    1TCM    cl1 3064   5.054   2.282   5.241
    1TCM    cl2 3065   5.304   2.354   5.111
    1TCM     h1 3066   5.110   2.259   5.010
    1TCM    cl3 3067   5.058   2.490   5.039
    1TCM     c1 3068   1.011   5.203   2.344
    1TCM    cl1 3069   1.040   5.060   2.444
    1TCM    cl2 3070   1.060   5.170   2.177
    1TCM     h1 3071   0.903   5.229   2.346
    1TCM    cl3 3072   1.105   5.340   2.407
    1TCM     c1 3073   1.015   1.242   4.208
    1TCM    cl1 3074   0.932   1.333   4.337
    1TCM    cl2 3075   0.939   1.278   4.051
    1TCM     h1 3076   1.122   1.272   4.205
    1TCM    cl3 3077   1.003   1.068   4.241
    1TCM     c1 3078   3.937   2.702   4.218
    1TCM    cl1 3079   3.838   2.605   4.106
    1TCM    cl2 3080   3.956   2.614   4.371
    1TCM     h1 3081   4.036   2.720   4.173
    1TCM    cl3 3082   3.855   2.857   4.248
    1TCM     c1 3083   2.300   3.517   5.191
    1TCM    cl1 3084   2.454   3.462   5.121
    1TCM    cl2 3085   2.170   3.406   5.142
    1TCM     h1 3086   2.308   3.519   5.302
    1TCM    cl3 3087   2.264   3.681   5.132
    1TCM     c1 3088   1.263   0.615   0.980
    1TCM    cl1 3089   1.277   0.547   0.816
    1TCM    cl2 3090   1.255   0.792   0.969
    1TCM     h1 3091   1.172   0.576   1.028
    1TCM    cl3 3092   1.406   0.568   1.076
    1TCM     c1 3093   0.389   3.671   0.558
    1TCM    cl1 3094   0.400   3.656   0.381
    1TCM    cl2 3095   0.371   3.509   0.630
    1TCM     h1 3096   0.481   3.719   0.597
    1TCM    cl3 3097   0.247   3.770   0.600
    1TCM     c1 3098   3.192   1.639   3.461
    1TCM    cl1 3099   3.192   1.616   3.284
    1TCM    cl2 3100   3.028   1.613   3.524
    1TCM     h1 3101   3.261   1.566   3.507
    1TCM    cl3 3102   3.244   1.805   3.499
    1TCM     c1 3103   2.805   4.700   0.284
    1TCM    cl1 3104   2.680   4.586   0.338
    1TCM    cl2 3105   2.899   4.626   0.152
    1TCM     h1 3106   2.757   4.793   0.248
    1TCM    cl3 3107   2.913   4.738   0.420
    1TCM     c1 3108   3.761   3.516   3.379
    1TCM    cl1 3109   3.897   3.507   3.265
    1TCM    cl2 3110   3.724   3.686   3.414
    1TCM     h1 3111   3.672   3.467   3.335
    1TCM    cl3 3112   3.805   3.433   3.530
    1TCM     c1 3113   2.981   3.984   0.943
    1TCM    cl1 3114   2.869   4.122   0.929
    1TCM    cl2 3115   2.965   3.880   0.800
    1TCM     h1 3116   3.085   4.023   0.949
    1TCM    cl3 3117   2.943   3.891   1.089
    1TCM     c1 3118   4.440   4.352   1.207
    1TCM    cl1 3119   4.493   4.388   1.041
    1TCM    cl2 3120   4.559   4.247   1.286
    1TCM     h1 3121   4.431   4.447   1.264
    1TCM    cl3 3122   4.282   4.271   1.203
    1TCM     c1 3123   4.525   3.172   0.175
    1TCM    cl1 3124   4.382   3.265   0.123
    1TCM    cl2 3125   4.599   3.252   0.315
    1TCM     h1 3126   4.495   3.069   0.202
    1TCM    cl3 3127   4.642   3.166   0.041
    1TCM     c1 3128   2.909   1.015   2.220
    1TCM    cl1 3129   2.798   0.882   2.258
    1TCM    cl2 3130   2.819   1.148   2.144
    1TCM     h1 3131   2.958   1.051   2.313
    1TCM    cl3 3132   3.034   0.957   2.107
    1TCM     c1 3133   3.450   4.601   2.995
    1TCM    cl1 3134   3.376   4.710   2.876
    1TCM    cl2 3135   3.348   4.593   3.140
    1TCM     h1 3136   3.461   4.500   2.951
    1TCM    cl3 3137   3.611   4.662   3.040
    1TCM     c1 3138   3.763   3.500   3.937
    1TCM    cl1 3139   3.808   3.633   4.045
    1TCM    cl2 3140   3.887   3.372   3.944
    1TCM     h1 3141   3.665   3.458   3.968
    1TCM    cl3 3142   3.751   3.561   3.770
    1TCM     c1 3143   4.172   0.315   0.213
    1TCM    cl1 3144   4.320   0.303   0.310
    1TCM    cl2 3145   4.202   0.248   0.051
    1TCM     h1 3146   4.091   0.257   0.262
    1TCM    cl3 3147   4.123   0.485   0.199
    1TCM     c1 3148   3.273   3.167   3.470
    1TCM    cl1 3149   3.347   3.262   3.602
    1TCM    cl2 3150   3.346   3.214   3.315
    1TCM     h1 3151   3.291   3.059   3.489
    1TCM    cl3 3152   3.098   3.197   3.466
    1TCM     c1 3153   0.642   2.663   1.846
    1TCM    cl1 3154   0.751   2.606   1.718
    1TCM    cl2 3155   0.572   2.524   1.931
    1TCM     h1 3156   0.700   2.725   1.918
    1TCM    cl3 3157   0.512   2.761   1.774
    1TCM     c1 3158   5.195   4.295   3.021
    1TCM    cl1 3159   5.204   4.454   2.942
    1TCM    cl2 3160   5.246   4.310   3.191
    1TCM     h1 3161   5.090   4.258   3.017
    1TCM    cl3 3162   5.301   4.180   2.936
    1TCM     c1 3163   2.386   3.500   1.529
    1TCM    cl1 3164   2.506   3.427   1.420
    1TCM    cl2 3165   2.451   3.504   1.695
    1TCM     h1 3166   2.364   3.603   1.495
    1TCM    cl3 3167   2.237   3.403   1.527
    1TCM     c1 3168   5.075   1.405   2.448
    1TCM    cl1 3169   5.188   1.505   2.354
    1TCM    cl2 3170   5.136   1.238   2.455
    1TCM     h1 3171   5.067   1.446   2.551
    1TCM    cl3 3172   4.916   1.407   2.370
    1TCM     c1 3173   4.194   3.119   3.998
    1TCM    cl1 3174   4.037   3.060   4.058
    1TCM    cl2 3175   4.317   2.992   4.019
    1TCM     h1 3176   4.185   3.145   3.891
    1TCM    cl3 3177   4.242   3.263   4.090
    1TCM     c1 3178   1.626   3.531   3.473
    1TCM    cl1 3179   1.709   3.621   3.344
    1TCM    cl2 3180   1.648   3.356   3.446
    1TCM     h1 3181   1.669   3.559   3.571
    1TCM    cl3 3182   1.453   3.570   3.471
    1TCM     c1 3183   2.572   3.236   2.637
    1TCM    cl1 3184   2.460   3.182   2.764
    1TCM    cl2 3185   2.738   3.235   2.701
    1TCM     h1 3186   2.566   3.167   2.550
    1TCM    cl3 3187   2.529   3.401   2.586
    1TCM     c1 3188   1.929   2.885   0.177
    1TCM    cl1 3189   1.826   2.780   0.275
    1TCM    cl2 3190   1.895   2.858   0.004
    1TCM     h1 3191   1.908   2.991   0.202
    1TCM    cl3 3192   2.100   2.849   0.210
    1TCM     c1 3193   4.836   0.835   2.861
    1TCM    cl1 3194   4.867   0.662   2.834
    1TCM    cl2 3195   4.707   0.889   2.751
    1TCM     h1 3196   4.805   0.851   2.966
    1TCM    cl3 3197   4.985   0.927   2.828
    1TCM     c1 3198   4.889   2.048   1.275
    1TCM    cl1 3199   4.763   2.017   1.154
    1TCM    cl2 3200   4.845   2.189   1.373
    1TCM     h1 3201   4.899   1.959   1.341
    1TCM    cl3 3202   5.044   2.079   1.193
    1TCM     c1 3203   3.191   4.033   0.453
    1TCM    cl1 3204   3.258   4.135   0.582
    1TCM    cl2 3205   3.172   4.130   0.305
    1TCM     h1 3206   3.260   3.949   0.433
    1TCM    cl3 3207   3.032   3.970   0.503
    1TCM     c1 3208   2.703   3.981   3.615
    1TCM    cl1 3209   2.799   3.954   3.763
    1TCM    cl2 3210   2.786   3.906   3.477
    1TCM     h1 3211   2.603   3.935   3.627
    1TCM    cl3 3212   2.686   4.155   3.586
    1TCM     c1 3213   2.044   4.527   2.289
    1TCM    cl1 3214   2.189   4.465   2.371
    1TCM    cl2 3215   1.919   4.563   2.409
    1TCM     h1 3216   2.070   4.620   2.233
    1TCM    cl3 3217   1.984   4.405   2.175
    1TCM     c1 3218   1.655   1.797   0.649
    1TCM    cl1 3219   1.520   1.868   0.740
    1TCM    cl2 3220   1.809   1.864   0.708
    1TCM     h1 3221   1.655   1.687   0.661
    1TCM    cl3 3222   1.637   1.837   0.476
    1TCM     c1 3223   0.280   2.815   4.374
    1TCM    cl1 3224   0.395   2.899   4.268
    1TCM    cl2 3225   0.285   2.640   4.339
    1TCM     h1 3226   0.308   2.832   4.480
    1TCM    cl3 3227   0.116   2.876   4.344
    1TCM     c1 3228   0.552   1.557   4.696
    1TCM    cl1 3229   0.548   1.730   4.739
    1TCM    cl2 3230   0.659   1.470   4.808
    1TCM     h1 3231   0.449   1.515   4.703
    1TCM    cl3 3232   0.613   1.539   4.530
    1TCM     c1 3233   5.147   2.940   0.646
    1TCM    cl1 3234   5.059   3.095   0.643
    1TCM    cl2 3235   5.031   2.807   0.666
    1TCM     h1 3236   5.201   2.928   0.550
    1TCM    cl3 3237   5.263   2.940   0.780
    1TCM     c1 3238   2.258   4.218   4.804
    1TCM    cl1 3239   2.365   4.076   4.818
    1TCM    cl2 3240   2.263   4.312   4.955
    1TCM     h1 3241   2.293   4.282   4.720
    1TCM    cl3 3242   2.092   4.164   4.772
    1TCM     c1 3243   3.086   3.461   3.227
    1TCM    cl1 3244   2.913   3.482   3.190
    1TCM    cl2 3245   3.164   3.621   3.234
    1TCM     h1 3246   3.096   3.411   3.325
    1TCM    cl3 3247   3.163   3.363   3.101
    1TCM     c1 3248   2.989   4.365   0.359
    1TCM    cl1 3249   3.024   4.310   0.525
    1TCM    cl2 3250   3.088   4.508   0.323
    1TCM     h1 3251   3.014   4.283   0.288
    1TCM    cl3 3252   2.817   4.406   0.345
    1TCM     c1 3253   3.457   4.493   0.482
    1TCM    cl1 3254   3.521   4.412   0.338
    1TCM    cl2 3255   3.543   4.434   0.626
    1TCM     h1 3256   3.471   4.603   0.473
    1TCM    cl3 3257   3.283   4.458   0.499
    1TCM     c1 3258   2.336   3.725   1.044
    1TCM    cl1 3259   2.489   3.815   1.049
    1TCM    cl2 3260   2.312   3.641   1.199
    1TCM     h1 3261   2.253   3.795   1.025
    1TCM    cl3 3262   2.343   3.605   0.913
    1TCM     c1 3263   4.090   3.928   3.777
    1TCM    cl1 3264   4.184   3.907   3.628
    1TCM    cl2 3265   4.198   3.982   3.908
    1TCM     h1 3266   4.011   4.004   3.761
    1TCM    cl3 3267   4.015   3.773   3.823
    1TCM     c1 3268   5.226   4.777   4.200
    1TCM    cl1 3269   5.072   4.740   4.121
    1TCM    cl2 3270   5.196   4.828   4.368
    1TCM     h1 3271   5.291   4.687   4.200
    1TCM    cl3 3272   5.308   4.908   4.112
    1TCM     c1 3273   4.207   0.352   3.559
    1TCM    cl1 3274   4.247   0.224   3.675
    1TCM    cl2 3275   4.059   0.436   3.611
    1TCM     h1 3276   4.291   0.425   3.555
    1TCM    cl3 3277   4.182   0.281   3.398
    1TCM     c1 3278   2.444   2.664   3.449
    1TCM    cl1 3279   2.390   2.798   3.346
    1TCM    cl2 3280   2.388   2.691   3.616
    1TCM     h1 3281   2.401   2.569   3.411
    1TCM    cl3 3282   2.621   2.654   3.447
    1TCM     c1 3283   4.979   4.673   2.677
    1TCM    cl1 3284   5.054   4.767   2.545
    1TCM    cl2 3285   4.977   4.771   2.825
    1TCM     h1 3286   4.875   4.647   2.648
    1TCM    cl3 3287   5.072   4.524   2.705
    1TCM     c1 3288   2.396   0.831   2.050
    1TCM    cl1 3289   2.297   0.718   1.955
    1TCM    cl2 3290   2.401   0.778   2.220
    1TCM     h1 3291   2.499   0.834   2.009
    1TCM    cl3 3292   2.325   0.994   2.042
    1TCM     c1 3293   0.282   2.398   3.076
    1TCM    cl1 3294   0.190   2.344   2.934
    1TCM    cl2 3295   0.373   2.261   3.143
    1TCM     h1 3296   0.352   2.478   3.047
    1TCM    cl3 3297   0.169   2.460   3.200
    1TCM     c1 3298   1.099   4.056   1.113
    1TCM    cl1 3299   1.102   4.057   0.935
    1TCM    cl2 3300   1.233   3.955   1.174
    1TCM     h1 3301   1.111   4.160   1.150
    1TCM    cl3 3302   0.944   3.989   1.169
    1TCM     c1 3303   2.626   3.072   0.665
    1TCM    cl1 3304   2.760   3.045   0.552
    1TCM    cl2 3305   2.630   3.240   0.723
    1TCM     h1 3306   2.529   3.053   0.614
    1TCM    cl3 3307   2.642   2.962   0.804
    1TCM     c1 3308   0.689   0.680   0.895
    1TCM    cl1 3309   0.830   0.726   0.994
    1TCM    cl2 3310   0.620   0.529   0.957
    1TCM     h1 3311   0.613   0.761   0.899
    1TCM    cl3 3312   0.741   0.656   0.726
    1TCM     c1 3313   5.060   2.141   3.249
    1TCM    cl1 3314   4.996   2.257   3.368
    1TCM    cl2 3315   5.054   2.213   3.086
    1TCM     h1 3316   5.165   2.116   3.274
    1TCM    cl3 3317   4.961   1.993   3.251
    1TCM     c1 3318   2.511   1.007   3.491
    1TCM    cl1 3319   2.642   1.079   3.395
    1TCM    cl2 3320   2.526   1.060   3.660
    1TCM     h1 3321   2.413   1.040   3.451
    1TCM    cl3 3322   2.522   0.830   3.483
    1TCM     c1 3323   5.114   1.024   2.232
    1TCM    cl1 3324   5.158   1.195   2.211
    1TCM    cl2 3325   5.221   0.923   2.132
    1TCM     h1 3326   5.125   0.996   2.339
    1TCM    cl3 3327   4.945   1.000   2.181
    1TCM     c1 3328   3.951   0.477   4.519
    1TCM    cl1 3329   3.834   0.444   4.649
    1TCM    cl2 3330   3.990   0.650   4.518
    1TCM     h1 3331   4.043   0.418   4.537
    1TCM    cl3 3332   3.879   0.432   4.363
    1TCM     c1 3333   5.111   0.885   5.065
    1TCM    cl1 3334   5.206   0.802   4.940
    1TCM    cl2 3335   5.189   0.861   5.224
    1TCM     h1 3336   5.105   0.993   5.043
    1TCM    cl3 3337   4.946   0.817   5.070
    1TCM     c1 3338   2.896   0.603   1.433
    1TCM    cl1 3339   2.891   0.607   1.255
    1TCM    cl2 3340   3.065   0.606   1.487
    1TCM     h1 3341   2.842   0.690   1.473
    1TCM    cl3 3342   2.818   0.453   1.490
    1TCM     c1 3343   2.100   1.342   3.833
    1TCM    cl1 3344   2.131   1.399   3.999
    1TCM    cl2 3345   1.932   1.286   3.820
    1TCM     h1 3346   2.117   1.426   3.762
    1TCM    cl3 3347   2.211   1.208   3.795
    1TCM     c1 3348   3.412   1.401   2.105
    1TCM    cl1 3349   3.354   1.453   1.945
    1TCM    cl2 3350   3.579   1.341   2.090
    1TCM     h1 3351   3.409   1.486   2.175
    1TCM    cl3 3352   3.308   1.270   2.165
    1TCM     c1 3353   3.872   2.143   4.320
    1TCM    cl1 3354   3.967   2.059   4.195
    1TCM    cl2 3355   3.957   2.131   4.476
    1TCM     h1 3356   3.860   2.249   4.293
    1TCM    cl3 3357   3.712   2.066   4.334
    1TCM     c1 3358   1.387   2.355   4.332
    1TCM    cl1 3359   1.251   2.292   4.428
    1TCM    cl2 3360   1.330   2.397   4.169
    1TCM     h1 3361   1.429   2.445   4.381
    1TCM    cl3 3362   1.514   2.230   4.320
    1TCM     c1 3363   1.229   0.477   2.153
    1TCM    cl1 3364   1.213   0.419   2.320
    1TCM    cl2 3365   1.291   0.345   2.050
    1TCM     h1 3366   1.130   0.509   2.115
    1TCM    cl3 3367   1.342   0.614   2.148
   5.54000   5.54000   5.54000
