GROup of MAchos and Cynical Suckers
 3367
    1POM     C1    1   2.581   0.175   1.374
    1POM     O2    2   2.455   0.243   1.365
    1POM     C3    3   2.387   0.230   1.248
    1POM     C4    4   2.426   0.155   1.138
    1POM     C5    5   2.343   0.147   1.025
    1POM     C6    6   2.220   0.215   1.020
    1POM     C7    7   2.129   0.196   0.904
    1POM     C8    8   1.998   0.150   0.923
    1POM     C9    9   1.906   0.153   0.821
    1POM    C10   10   1.944   0.197   0.695
    1POM    C11   11   2.078   0.227   0.666
    1POM    C12   12   2.124   0.262   0.529
    1POM    O13   13   2.232   0.315   0.508
    1POM    C14   14   2.170   0.229   0.773
    1POM    C15   15   2.182   0.296   1.131
    1POM    C16   16   2.056   0.373   1.134
    1POM    C17   17   1.959   0.344   1.230
    1POM    C18   18   1.837   0.410   1.230
    1POM    C19   19   1.811   0.515   1.142
    1POM    C20   20   1.681   0.592   1.147
    1POM    C21   21   1.559   0.503   1.115
    1POM    N22   22   1.657   0.670   1.269
    1POM    C23   23   1.906   0.544   1.044
    1POM    C24   24   2.028   0.474   1.040
    1POM    C25   25   2.267   0.300   1.243
    1POM    H26   26   2.623   0.196   1.474
    1POM    H27   27   2.568   0.067   1.366
    1POM    H28   28   2.651   0.213   1.300
    1POM    H29   29   2.519   0.100   1.136
    1POM    H30   30   2.374   0.086   0.941
    1POM    H31   31   1.965   0.119   1.023
    1POM    H32   32   1.802   0.125   0.840
    1POM    H33   33   1.867   0.209   0.619
    1POM    H34   34   2.272   0.262   0.754
    1POM    H35   35   1.977   0.267   1.306
    1POM    H36   36   1.763   0.379   1.305
    1POM    H37   37   1.684   0.668   1.069
    1POM    H38   38   1.468   0.564   1.110
    1POM    H39   39   1.543   0.427   1.191
    1POM    H40   40   1.572   0.453   1.019
    1POM    H41   41   1.595   0.747   1.249
    1POM    H42   42   1.889   0.621   0.970
    1POM    H43   43   2.099   0.497   0.962
    1POM    H44   44   2.238   0.359   1.331
    2POM    C45   45   1.200   0.056   2.046
    2POM    O46   46   1.207   0.197   2.059
    2POM    C47   47   1.247   0.270   1.951
    2POM    C48   48   1.280   0.220   1.825
    2POM    C49   49   1.316   0.308   1.722
    2POM    C50   50   1.320   0.447   1.740
    2POM    C51   51   1.349   0.537   1.627
    2POM    C52   52   1.257   0.633   1.585
    2POM    C53   53   1.286   0.723   1.483
    2POM    C54   54   1.409   0.719   1.419
    2POM    C55   55   1.505   0.624   1.457
    2POM    C56   56   1.638   0.610   1.392
    2POM    O57   57   1.726   0.547   1.451
    2POM    C58   58   1.473   0.534   1.561
    2POM    C59   59   1.291   0.497   1.870
    2POM    C60   60   1.296   0.641   1.901
    2POM    C61   61   1.178   0.706   1.936
    2POM    C62   62   1.176   0.844   1.956
    2POM    C63   63   1.295   0.919   1.953
    2POM    C64   64   1.295   1.067   1.983
    2POM    C65   65   1.213   1.148   1.881
    2POM    N66   66   1.260   1.106   2.120
    2POM    C67   67   1.413   0.854   1.916
    2POM    C68   68   1.413   0.717   1.889
    2POM    C69   69   1.254   0.407   1.972
    2POM    H70   70   1.164   0.015   2.140
    2POM    H71   71   1.128   0.028   1.967
    2POM    H72   72   1.298   0.014   2.026
    2POM    H73   73   1.278   0.114   1.804
    2POM    H74   74   1.339   0.265   1.624
    2POM    H75   75   1.160   0.641   1.635
    2POM    H76   76   1.212   0.799   1.454
    2POM    H77   77   1.428   0.791   1.341
    2POM    H78   78   1.547   0.459   1.592
    2POM    H79   79   1.084   0.652   1.947
    2POM    H80   80   1.081   0.892   1.978
    2POM    H81   81   1.398   1.103   1.972
    2POM    H82   82   1.225   1.255   1.898
    2POM    H83   83   1.106   1.126   1.889
    2POM    H84   84   1.244   1.125   1.778
    2POM    H85   85   1.304   1.192   2.146
    2POM    H86   86   1.507   0.909   1.906
    2POM    H87   87   1.506   0.668   1.859
    2POM    H88   88   1.229   0.446   2.071
    3POM    C89   89   0.184   1.195   2.245
    3POM    O90   90   0.272   1.243   2.347
    3POM    C91   91   0.405   1.247   2.316
    3POM    C92   92   0.464   1.211   2.195
    3POM    C93   93   0.602   1.226   2.177
    3POM    C94   94   0.685   1.275   2.280
    3POM    C95   95   0.830   1.296   2.255
    3POM    C96   96   0.888   1.423   2.268
    3POM    C97   97   1.025   1.442   2.251
    3POM    C98   98   1.107   1.335   2.219
    3POM    C99   99   1.052   1.207   2.206
    3POM   C100  100   1.133   1.086   2.170
    3POM   O101  101   1.081   0.976   2.186
    3POM   C102  102   0.913   1.189   2.222
    3POM   C103  103   0.626   1.305   2.405
    3POM   C104  104   0.705   1.353   2.520
    3POM   C105  105   0.683   1.482   2.568
    3POM   C106  106   0.763   1.533   2.670
    3POM   C107  107   0.860   1.455   2.733
    3POM   C108  108   0.941   1.508   2.849
    3POM   C109  109   1.029   1.627   2.809
    3POM   N110  110   0.866   1.538   2.972
    3POM   C111  111   0.884   1.327   2.683
    3POM   C112  112   0.807   1.276   2.577
    3POM   C113  113   0.486   1.292   2.420
    3POM   H114  114   0.082   1.197   2.286
    3POM   H115  115   0.186   1.260   2.157
    3POM   H116  116   0.207   1.091   2.218
    3POM   H117  117   0.405   1.174   2.112
    3POM   H118  118   0.646   1.199   2.081
    3POM   H119  119   0.826   1.508   2.296
    3POM   H120  120   1.068   1.542   2.265
    3POM   H121  121   1.213   1.354   2.207
    3POM   H122  122   0.871   1.089   2.212
    3POM   H123  123   0.605   1.545   2.527
    3POM   H124  124   0.746   1.636   2.701
    3POM   H125  125   1.010   1.428   2.881
    3POM   H126  126   1.094   1.656   2.893
    3POM   H127  127   0.970   1.715   2.783
    3POM   H128  128   1.093   1.602   2.724
    3POM   H129  129   0.924   1.528   3.053
    3POM   H130  130   0.963   1.264   2.724
    3POM   H131  131   0.829   1.178   2.538
    3POM   H132  132   0.440   1.319   2.515
    4POM   C133  133   0.452   2.543   2.940
    4POM   O134  134   0.452   2.470   3.062
    4POM   C135  135   0.523   2.353   3.064
    4POM   C136  136   0.597   2.298   2.960
    4POM   C137  137   0.667   2.179   2.978
    4POM   C138  138   0.665   2.110   3.102
    4POM   C139  139   0.748   1.990   3.120
    4POM   C140  140   0.847   1.985   3.219
    4POM   C141  141   0.922   1.868   3.243
    4POM   C142  142   0.899   1.755   3.166
    4POM   C143  143   0.801   1.757   3.066
    4POM   C144  144   0.772   1.640   2.977
    4POM   O145  145   0.668   1.642   2.912
    4POM   C146  146   0.727   1.875   3.042
    4POM   C147  147   0.585   2.162   3.206
    4POM   C148  148   0.573   2.096   3.337
    4POM   C149  149   0.622   2.160   3.451
    4POM   C150  150   0.620   2.096   3.575
    4POM   C151  151   0.560   1.971   3.593
    4POM   C152  152   0.552   1.906   3.730
    4POM   C153  153   0.691   1.874   3.785
    4POM   N154  154   0.472   1.974   3.833
    4POM   C155  155   0.514   1.904   3.478
    4POM   C156  156   0.522   1.966   3.352
    4POM   C157  157   0.517   2.284   3.185
    4POM   H158  158   0.391   2.633   2.955
    4POM   H159  159   0.553   2.577   2.914
    4POM   H160  160   0.406   2.486   2.859
    4POM   H161  161   0.604   2.348   2.863
    4POM   H162  162   0.726   2.140   2.895
    4POM   H163  163   0.866   2.071   3.283
    4POM   H164  164   0.996   1.867   3.322
    4POM   H165  165   0.958   1.667   3.187
    4POM   H166  166   0.651   1.876   2.965
    4POM   H167  167   0.663   2.261   3.445
    4POM   H168  168   0.665   2.150   3.658
    4POM   H169  169   0.501   1.809   3.717
    4POM   H170  170   0.683   1.816   3.878
    4POM   H171  171   0.747   1.965   3.809
    4POM   H172  172   0.751   1.816   3.714
    4POM   H173  173   0.455   1.915   3.911
    4POM   H174  174   0.474   1.804   3.484
    4POM   H175  175   0.488   1.911   3.264
    4POM   H176  176   0.457   2.326   3.266
    5CAP   C177  177   1.989   0.109   0.402
    5CAP   O178  178   2.032   0.243   0.431
    5CAP   H179  179   2.071   0.037   0.410
    5CAP   H180  180   1.950   0.108   0.299
    5CAP   H181  181   1.906   0.078   0.466
    6CAP   C182  182   0.608   2.181   4.216
    6CAP   C183  183   0.599   2.213   4.067
    6CAP   C184  184   0.518   2.344   4.051
    6CAP   C185  185   0.742   2.230   4.011
    6CAP   O186  186   0.534   2.098   4.006
    6CAP   C187  187   0.503   2.101   3.875
    6CAP   O188  188   0.506   2.201   3.805
    6CAP   H189  189   0.656   2.263   4.272
    6CAP   H190  190   0.508   2.164   4.258
    6CAP   H191  191   0.666   2.089   4.233
    6CAP   H192  192   0.413   2.328   4.076
    6CAP   H193  193   0.521   2.381   3.948
    6CAP   H194  194   0.559   2.423   4.114
    6CAP   H195  195   0.798   2.136   4.021
    6CAP   H196  196   0.742   2.256   3.905
    6CAP   H197  197   0.796   2.309   4.066
    1TCM     c1  198   4.333   0.347   2.670
    1TCM    cl1  199   4.445   0.470   2.606
    1TCM    cl2  200   4.323   0.363   2.847
    1TCM     h1  201   4.233   0.361   2.626
    1TCM    cl3  202   4.394   0.185   2.629
    1TCM     c1  203   1.847   2.537   4.315
    1TCM    cl1  204   1.834   2.394   4.210
    1TCM    cl2  205   1.874   2.484   4.483
    1TCM     h1  206   1.932   2.600   4.282
    1TCM    cl3  207   1.696   2.631   4.307
    1TCM     c1  208   1.898   2.369   0.922
    1TCM    cl1  209   1.859   2.316   0.757
    1TCM    cl2  210   1.908   2.228   1.030
    1TCM     h1  211   1.995   2.422   0.922
    1TCM    cl3  212   1.771   2.479   0.980
    1TCM     c1  213   2.667   0.597   3.810
    1TCM    cl1  214   2.790   0.469   3.801
    1TCM    cl2  215   2.506   0.525   3.788
    1TCM     h1  216   2.673   0.646   3.909
    1TCM    cl3  217   2.697   0.716   3.681
    1TCM     c1  218   2.196   1.826   2.860
    1TCM    cl1  219   2.306   1.768   2.732
    1TCM    cl2  220   2.160   1.998   2.834
    1TCM     h1  221   2.102   1.767   2.856
    1TCM    cl3  222   2.274   1.804   3.018
    1TCM     c1  223   5.035   1.263   0.557
    1TCM    cl1  224   5.014   1.327   0.722
    1TCM    cl2  225   5.208   1.256   0.518
    1TCM     h1  226   4.991   1.162   0.550
    1TCM    cl3  227   4.952   1.371   0.442
    1TCM     c1  228   2.930   0.873   2.599
    1TCM    cl1  229   2.760   0.891   2.649
    1TCM    cl2  230   2.938   0.765   2.457
    1TCM     h1  231   2.971   0.972   2.572
    1TCM    cl3  232   3.024   0.803   2.732
    1TCM     c1  233   3.789   4.113   4.709
    1TCM    cl1  234   3.674   4.226   4.784
    1TCM    cl2  235   3.906   4.204   4.611
    1TCM     h1  236   3.842   4.057   4.788
    1TCM    cl3  237   3.700   3.999   4.605
    1TCM     c1  238   0.770   4.196   3.454
    1TCM    cl1  239   0.601   4.154   3.418
    1TCM    cl2  240   0.863   4.047   3.481
    1TCM     h1  241   0.813   4.252   3.369
    1TCM    cl3  242   0.776   4.297   3.600
    1TCM     c1  243   3.957   1.335   2.609
    1TCM    cl1  244   4.117   1.350   2.686
    1TCM    cl2  245   3.966   1.213   2.479
    1TCM     h1  246   3.883   1.303   2.684
    1TCM    cl3  247   3.909   1.492   2.540
    1TCM     c1  248   4.898   3.082   4.469
    1TCM    cl1  249   4.969   2.964   4.582
    1TCM    cl2  250   4.997   3.230   4.468
    1TCM     h1  251   4.896   3.038   4.366
    1TCM    cl3  252   4.733   3.121   4.520
    1TCM     c1  253   0.465   2.913   1.413
    1TCM    cl1  254   0.498   2.815   1.269
    1TCM    cl2  255   0.472   2.810   1.558
    1TCM     h1  256   0.540   2.994   1.421
    1TCM    cl3  257   0.302   2.985   1.400
    1TCM     c1  258   1.552   1.806   2.431
    1TCM    cl1  259   1.715   1.755   2.381
    1TCM    cl2  260   1.435   1.764   2.304
    1TCM     h1  261   1.524   1.755   2.525
    1TCM    cl3  262   1.551   1.982   2.456
    1TCM     c1  263   4.298   4.434   0.710
    1TCM    cl1  264   4.210   4.500   0.570
    1TCM    cl2  265   4.187   4.336   0.808
    1TCM     h1  266   4.381   4.371   0.674
    1TCM    cl3  267   4.361   4.568   0.808
    1TCM     c1  268   2.578   5.259   3.775
    1TCM    cl1  269   2.420   5.339   3.777
    1TCM    cl2  270   2.686   5.340   3.891
    1TCM     h1  271   2.566   5.153   3.803
    1TCM    cl3  272   2.648   5.270   3.612
    1TCM     c1  273   2.883   1.937   3.024
    1TCM    cl1  274   2.760   2.057   3.071
    1TCM    cl2  275   2.906   1.942   2.848
    1TCM     h1  276   2.979   1.960   3.075
    1TCM    cl3  277   2.829   1.774   3.072
    1TCM     c1  278   0.680   3.116   5.016
    1TCM    cl1  279   0.647   2.942   5.036
    1TCM    cl2  280   0.574   3.182   4.890
    1TCM     h1  281   0.660   3.168   5.112
    1TCM    cl3  282   0.850   3.139   4.970
    1TCM     c1  283   4.594   3.546   2.163
    1TCM    cl1  284   4.677   3.648   2.043
    1TCM    cl2  285   4.623   3.375   2.125
    1TCM     h1  286   4.633   3.569   2.264
    1TCM    cl3  287   4.420   3.579   2.158
    1TCM     c1  288   5.201   3.662   4.845
    1TCM    cl1  289   5.141   3.698   4.681
    1TCM    cl2  290   5.305   3.795   4.901
    1TCM     h1  291   5.115   3.650   4.914
    1TCM    cl3  292   5.296   3.511   4.841
    1TCM     c1  293   2.141   1.125   3.443
    1TCM    cl1  294   2.184   1.162   3.612
    1TCM    cl2  295   2.235   1.230   3.334
    1TCM     h1  296   2.164   1.019   3.421
    1TCM    cl3  297   1.968   1.155   3.418
    1TCM     c1  298   1.314   2.012   2.687
    1TCM    cl1  299   1.335   2.018   2.510
    1TCM    cl2  300   1.381   2.159   2.759
    1TCM     h1  301   1.206   2.004   2.711
    1TCM    cl3  302   1.398   1.870   2.752
    1TCM     c1  303   3.106   4.756   4.764
    1TCM    cl1  304   3.044   4.636   4.649
    1TCM    cl2  305   3.085   4.696   4.930
    1TCM     h1  306   3.214   4.774   4.745
    1TCM    cl3  307   3.016   4.909   4.744
    1TCM     c1  308   2.718   2.483   2.007
    1TCM    cl1  309   2.746   2.312   1.969
    1TCM    cl2  310   2.726   2.506   2.183
    1TCM     h1  311   2.796   2.545   1.958
    1TCM    cl3  312   2.557   2.532   1.949
    1TCM     c1  313   2.753   2.030   5.066
    1TCM    cl1  314   2.631   1.954   4.963
    1TCM    cl2  315   2.743   1.962   5.230
    1TCM     h1  316   2.854   2.011   5.025
    1TCM    cl3  317   2.725   2.205   5.073
    1TCM     c1  318   5.016   0.250   1.338
    1TCM    cl1  319   4.911   0.389   1.375
    1TCM    cl2  320   5.158   0.253   1.445
    1TCM     h1  321   4.959   0.156   1.354
    1TCM    cl3  322   5.069   0.259   1.169
    1TCM     c1  323   3.063   0.881   1.240
    1TCM    cl1  324   3.128   0.744   1.333
    1TCM    cl2  325   3.055   0.837   1.068
    1TCM     h1  326   2.961   0.906   1.276
    1TCM    cl3  327   3.170   1.022   1.260
    1TCM     c1  328   3.950   3.266   1.897
    1TCM    cl1  329   3.801   3.222   1.984
    1TCM    cl2  330   3.948   3.191   1.735
    1TCM     h1  331   3.955   3.376   1.886
    1TCM    cl3  332   4.091   3.207   1.987
    1TCM     c1  333   1.098   0.898   3.543
    1TCM    cl1  334   1.190   1.029   3.620
    1TCM    cl2  335   0.934   0.956   3.503
    1TCM     h1  336   1.149   0.865   3.451
    1TCM    cl3  337   1.085   0.761   3.656
    1TCM     c1  338   0.697   5.195   4.108
    1TCM    cl1  339   0.764   5.061   4.203
    1TCM    cl2  340   0.671   5.141   3.940
    1TCM     h1  341   0.600   5.227   4.152
    1TCM    cl3  342   0.810   5.332   4.110
    1TCM     c1  343   2.774   3.654   3.421
    1TCM    cl1  344   2.879   3.561   3.530
    1TCM    cl2  345   2.716   3.800   3.504
    1TCM     h1  346   2.831   3.683   3.330
    1TCM    cl3  347   2.635   3.553   3.374
    1TCM     c1  348   0.460   0.885   2.367
    1TCM    cl1  349   0.334   0.760   2.355
    1TCM    cl2  350   0.451   0.992   2.225
    1TCM     h1  351   0.444   0.944   2.459
    1TCM    cl3  352   0.620   0.807   2.373
    1TCM     c1  353   4.996   1.978   2.072
    1TCM    cl1  354   5.150   2.065   2.053
    1TCM    cl2  355   4.885   2.025   1.941
    1TCM     h1  356   5.014   1.868   2.067
    1TCM    cl3  357   4.923   2.019   2.229
    1TCM     c1  358   1.286   3.614   2.275
    1TCM    cl1  359   1.147   3.725   2.273
    1TCM    cl2  360   1.234   3.455   2.335
    1TCM     h1  361   1.326   3.603   2.172
    1TCM    cl3  362   1.412   3.679   2.382
    1TCM     c1  363   3.951   1.482   2.093
    1TCM    cl1  364   3.853   1.620   2.039
    1TCM    cl2  365   4.123   1.516   2.066
    1TCM     h1  366   3.933   1.464   2.201
    1TCM    cl3  367   3.904   1.337   2.001
    1TCM     c1  368   0.835   2.341   2.209
    1TCM    cl1  369   0.949   2.236   2.296
    1TCM    cl2  370   0.720   2.240   2.117
    1TCM     h1  371   0.779   2.403   2.282
    1TCM    cl3  372   0.924   2.446   2.098
    1TCM     c1  373   2.213   3.782   1.720
    1TCM    cl1  374   2.119   3.754   1.868
    1TCM    cl2  375   2.147   3.683   1.588
    1TCM     h1  376   2.208   3.889   1.692
    1TCM    cl3  377   2.383   3.737   1.748
    1TCM     c1  378   1.005   4.523   1.133
    1TCM    cl1  379   0.955   4.516   1.304
    1TCM    cl2  380   1.060   4.687   1.094
    1TCM     h1  381   1.087   4.451   1.116
    1TCM    cl3  382   0.867   4.480   1.029
    1TCM     c1  383   0.224   1.295   4.806
    1TCM    cl1  384   0.368   1.263   4.707
    1TCM    cl2  385   0.272   1.336   4.972
    1TCM     h1  386   0.167   1.380   4.762
    1TCM    cl3  387   0.120   1.151   4.808
    1TCM     c1  388   1.325   3.853   4.753
    1TCM    cl1  389   1.474   3.911   4.833
    1TCM    cl2  390   1.354   3.838   4.578
    1TCM     h1  391   1.297   3.754   4.795
    1TCM    cl3  392   1.194   3.969   4.782
    1TCM     c1  393   0.327   0.755   4.835
    1TCM    cl1  394   0.252   0.616   4.754
    1TCM    cl2  395   0.469   0.701   4.927
    1TCM     h1  396   0.359   0.830   4.759
    1TCM    cl3  397   0.209   0.829   4.946
    1TCM     c1  398   1.097   4.303   2.264
    1TCM    cl1  399   0.975   4.306   2.393
    1TCM    cl2  400   1.209   4.440   2.285
    1TCM     h1  401   1.154   4.208   2.269
    1TCM    cl3  402   1.017   4.315   2.106
    1TCM     c1  403   3.690   4.093   0.154
    1TCM    cl1  404   3.812   3.983   0.221
    1TCM    cl2  405   3.768   4.243   0.100
    1TCM     h1  406   3.639   4.044   0.069
    1TCM    cl3  407   3.570   4.131   0.280
    1TCM     c1  408   1.673   1.489   1.451
    1TCM    cl1  409   1.527   1.452   1.356
    1TCM    cl2  410   1.687   1.665   1.471
    1TCM     h1  411   1.665   1.441   1.551
    1TCM    cl3  412   1.816   1.427   1.367
    1TCM     c1  413   3.473   0.639   2.323
    1TCM    cl1  414   3.407   0.774   2.229
    1TCM    cl2  415   3.357   0.593   2.450
    1TCM     h1  416   3.491   0.552   2.257
    1TCM    cl3  417   3.626   0.689   2.399
    1TCM     c1  418   0.149   0.627   1.988
    1TCM    cl1  419   0.297   0.549   1.927
    1TCM    cl2  420   0.059   0.698   1.852
    1TCM     h1  421   0.085   0.551   2.038
    1TCM    cl3  422   0.192   0.754   2.104
    1TCM     c1  423   3.921   2.552   1.139
    1TCM    cl1  424   3.839   2.555   1.297
    1TCM    cl2  425   3.931   2.384   1.081
    1TCM     h1  426   3.863   2.612   1.066
    1TCM    cl3  427   4.084   2.619   1.156
    1TCM     c1  428   4.175   0.100   0.775
    1TCM    cl1  429   4.306   0.026   0.680
    1TCM    cl2  430   4.217   0.096   0.947
    1TCM     h1  431   4.161   0.205   0.742
    1TCM    cl3  432   4.025   0.008   0.748
    1TCM     c1  433   4.940   1.806   3.414
    1TCM    cl1  434   4.942   1.924   3.547
    1TCM    cl2  435   4.956   1.892   3.259
    1TCM     h1  436   5.025   1.736   3.426
    1TCM    cl3  437   4.787   1.716   3.416
    1TCM     c1  438   2.027   3.548   2.427
    1TCM    cl1  439   1.850   3.551   2.448
    1TCM    cl2  440   2.099   3.435   2.544
    1TCM     h1  441   2.051   3.515   2.324
    1TCM    cl3  442   2.093   3.711   2.454
    1TCM     c1  443   0.580   0.263   4.872
    1TCM    cl1  444   0.469   0.178   4.762
    1TCM    cl2  445   0.710   0.153   4.923
    1TCM     h1  446   0.623   0.351   4.820
    1TCM    cl3  447   0.490   0.318   5.016
    1TCM     c1  448   4.622   0.550   4.503
    1TCM    cl1  449   4.747   0.453   4.584
    1TCM    cl2  450   4.653   0.723   4.531
    1TCM     h1  451   4.624   0.530   4.394
    1TCM    cl3  452   4.462   0.508   4.568
    1TCM     c1  453   3.848   4.710   1.616
    1TCM    cl1  454   3.857   4.885   1.589
    1TCM    cl2  455   3.911   4.671   1.778
    1TCM     h1  456   3.742   4.677   1.610
    1TCM    cl3  457   3.944   4.626   1.492
    1TCM     c1  458   4.503   4.561   4.898
    1TCM    cl1  459   4.545   4.575   5.070
    1TCM    cl2  460   4.436   4.715   4.840
    1TCM     h1  461   4.594   4.536   4.839
    1TCM    cl3  462   4.382   4.432   4.877
    1TCM     c1  463   4.065   4.339   1.756
    1TCM    cl1  464   4.230   4.319   1.692
    1TCM    cl2  465   3.966   4.427   1.638
    1TCM     h1  466   4.021   4.239   1.775
    1TCM    cl3  467   4.071   4.430   1.908
    1TCM     c1  468   3.896   4.064   3.404
    1TCM    cl1  469   3.990   4.114   3.546
    1TCM    cl2  470   3.991   4.093   3.256
    1TCM     h1  471   3.871   3.957   3.412
    1TCM    cl3  472   3.746   4.160   3.396
    1TCM     c1  473   0.369   0.903   3.419
    1TCM    cl1  474   0.537   0.843   3.415
    1TCM    cl2  475   0.280   0.835   3.281
    1TCM     h1  476   0.320   0.871   3.513
    1TCM    cl3  477   0.369   1.080   3.408
    1TCM     c1  478   3.049   2.657   2.860
    1TCM    cl1  479   2.955   2.507   2.845
    1TCM    cl2  480   3.056   2.705   3.031
    1TCM     h1  481   3.151   2.641   2.822
    1TCM    cl3  482   2.970   2.786   2.766
    1TCM     c1  483   3.635   2.466   2.401
    1TCM    cl1  484   3.708   2.621   2.353
    1TCM    cl2  485   3.757   2.367   2.486
    1TCM     h1  486   3.549   2.485   2.469
    1TCM    cl3  487   3.579   2.379   2.257
    1TCM     c1  488   4.992   0.660   2.453
    1TCM    cl1  489   4.950   0.541   2.579
    1TCM    cl2  490   4.923   0.609   2.297
    1TCM     h1  491   4.950   0.759   2.481
    1TCM    cl3  492   5.168   0.671   2.439
    1TCM     c1  493   0.436   0.140   3.064
    1TCM    cl1  494   0.291   0.037   3.075
    1TCM    cl2  495   0.389   0.303   3.013
    1TCM     h1  496   0.484   0.145   3.164
    1TCM    cl3  497   0.549   0.071   2.946
    1TCM     c1  498   5.224   3.722   1.327
    1TCM    cl1  499   5.097   3.634   1.416
    1TCM    cl2  500   5.148   3.828   1.206
    1TCM     h1  501   5.282   3.783   1.398
    1TCM    cl3  502   5.331   3.606   1.246
    1TCM     c1  503   1.504   3.341   0.934
    1TCM    cl1  504   1.465   3.207   0.824
    1TCM    cl2  505   1.528   3.278   1.099
    1TCM     h1  506   1.597   3.391   0.900
    1TCM    cl3  507   1.370   3.458   0.935
    1TCM     c1  508   2.807   4.416   4.134
    1TCM    cl1  509   2.760   4.271   4.225
    1TCM    cl2  510   2.780   4.389   3.961
    1TCM     h1  511   2.746   4.502   4.168
    1TCM    cl3  512   2.979   4.451   4.163
    1TCM     c1  513   4.638   1.680   0.346
    1TCM    cl1  514   4.791   1.738   0.278
    1TCM    cl2  515   4.585   1.791   0.475
    1TCM     h1  516   4.561   1.675   0.267
    1TCM    cl3  517   4.662   1.517   0.414
    1TCM     c1  518   2.931   4.716   4.421
    1TCM    cl1  519   2.782   4.789   4.357
    1TCM    cl2  520   3.004   4.826   4.541
    1TCM     h1  521   2.908   4.619   4.469
    1TCM    cl3  522   3.046   4.691   4.288
    1TCM     c1  523   3.786   4.138   2.089
    1TCM    cl1  524   3.717   4.025   2.208
    1TCM    cl2  525   3.728   4.096   1.926
    1TCM     h1  526   3.753   4.241   2.114
    1TCM    cl3  527   3.963   4.129   2.093
    1TCM     c1  528   0.806   0.256   3.524
    1TCM    cl1  529   0.663   0.299   3.620
    1TCM    cl2  530   0.824   0.079   3.520
    1TCM     h1  531   0.794   0.294   3.420
    1TCM    cl3  532   0.951   0.329   3.597
    1TCM     c1  533   1.143   1.495   2.526
    1TCM    cl1  534   1.212   1.423   2.673
    1TCM    cl2  535   1.169   1.671   2.528
    1TCM     h1  536   1.192   1.451   2.436
    1TCM    cl3  537   0.969   1.461   2.519
    1TCM     c1  538   1.105   0.789   2.409
    1TCM    cl1  539   1.199   0.935   2.447
    1TCM    cl2  540   1.159   0.655   2.513
    1TCM     h1  541   0.997   0.809   2.427
    1TCM    cl3  542   1.129   0.745   2.238
    1TCM     c1  543   2.944   1.224   3.831
    1TCM    cl1  544   2.799   1.168   3.743
    1TCM    cl2  545   2.922   1.193   4.005
    1TCM     h1  546   3.033   1.169   3.794
    1TCM    cl3  547   2.966   1.398   3.804
    1TCM     c1  548   4.649   5.127   1.266
    1TCM    cl1  549   4.551   5.093   1.411
    1TCM    cl2  550   4.617   5.293   1.211
    1TCM     h1  551   4.757   5.117   1.292
    1TCM    cl3  552   4.608   5.012   1.138
    1TCM     c1  553   0.518   4.429   0.320
    1TCM    cl1  554   0.661   4.424   0.215
    1TCM    cl2  555   0.569   4.465   0.487
    1TCM     h1  556   0.449   4.508   0.285
    1TCM    cl3  557   0.436   4.271   0.317
    1TCM     c1  558   2.407   3.467   2.210
    1TCM    cl1  559   2.547   3.477   2.319
    1TCM    cl2  560   2.269   3.553   2.283
    1TCM     h1  561   2.432   3.514   2.113
    1TCM    cl3  562   2.363   3.296   2.184
    1TCM     c1  563   0.356   3.160   1.130
    1TCM    cl1  564   0.332   3.111   0.961
    1TCM    cl2  565   0.494   3.071   1.199
    1TCM     h1  566   0.377   3.269   1.134
    1TCM    cl3  567   0.210   3.124   1.224
    1TCM     c1  568   3.364   3.635   1.041
    1TCM    cl1  569   3.436   3.687   0.887
    1TCM    cl2  570   3.466   3.691   1.176
    1TCM     h1  571   3.263   3.678   1.051
    1TCM    cl3  572   3.353   3.457   1.045
    1TCM     c1  573   3.282   3.005   4.952
    1TCM    cl1  574   3.243   2.973   4.781
    1TCM    cl2  575   3.135   2.988   5.050
    1TCM     h1  576   3.358   2.932   4.987
    1TCM    cl3  577   3.346   3.170   4.968
    1TCM     c1  578   0.976   1.294   1.777
    1TCM    cl1  579   1.123   1.302   1.678
    1TCM    cl2  580   1.015   1.341   1.944
    1TCM     h1  581   0.900   1.364   1.737
    1TCM    cl3  582   0.911   1.129   1.776
    1TCM     c1  583   1.964   2.638   4.797
    1TCM    cl1  584   2.028   2.705   4.646
    1TCM    cl2  585   2.015   2.740   4.934
    1TCM     h1  586   1.853   2.636   4.792
    1TCM    cl3  587   2.026   2.473   4.819
    1TCM     c1  588   2.224   4.168   4.076
    1TCM    cl1  589   2.269   4.017   4.158
    1TCM    cl2  590   2.367   4.272   4.061
    1TCM     h1  591   2.185   4.144   3.974
    1TCM    cl3  592   2.099   4.252   4.170
    1TCM     c1  593   0.807   0.333   0.146
    1TCM    cl1  594   0.700   0.267   0.020
    1TCM    cl2  595   0.709   0.383   0.286
    1TCM     h1  596   0.879   0.255   0.178
    1TCM    cl3  597   0.896   0.473   0.082
    1TCM     c1  598   1.131   0.641   2.962
    1TCM    cl1  599   1.047   0.543   3.084
    1TCM    cl2  600   1.178   0.797   3.034
    1TCM     h1  601   1.221   0.588   2.927
    1TCM    cl3  602   1.022   0.670   2.825
    1TCM     c1  603   4.525   3.192   3.254
    1TCM    cl1  604   4.473   3.319   3.367
    1TCM    cl2  605   4.466   3.230   3.091
    1TCM     h1  606   4.636   3.187   3.253
    1TCM    cl3  607   4.459   3.035   3.306
    1TCM     c1  608   3.222   4.787   5.281
    1TCM    cl1  609   3.380   4.730   5.340
    1TCM    cl2  610   3.203   4.741   5.110
    1TCM     h1  611   3.141   4.741   5.341
    1TCM    cl3  612   3.214   4.964   5.296
    1TCM     c1  613   1.832   0.128   3.604
    1TCM    cl1  614   1.923   0.278   3.634
    1TCM    cl2  615   1.944   0.000   3.551
    1TCM     h1  616   1.782   0.096   3.698
    1TCM    cl3  617   1.710   0.156   3.478
    1TCM     c1  618   0.885   0.819   4.017
    1TCM    cl1  619   0.838   0.768   3.853
    1TCM    cl2  620   0.993   0.698   4.089
    1TCM     h1  621   0.937   0.917   4.012
    1TCM    cl3  622   0.739   0.835   4.118
    1TCM     c1  623   2.057   5.151   2.399
    1TCM    cl1  624   1.904   5.241   2.396
    1TCM    cl2  625   2.049   5.015   2.284
    1TCM     h1  626   2.141   5.218   2.371
    1TCM    cl3  627   2.086   5.087   2.563
    1TCM     c1  628   1.279   1.183   2.470
    1TCM    cl1  629   1.375   1.329   2.501
    1TCM    cl2  630   1.209   1.125   2.624
    1TCM     h1  631   1.197   1.207   2.399
    1TCM    cl3  632   1.383   1.057   2.401
    1TCM     c1  633   1.604   1.642   0.179
    1TCM    cl1  634   1.650   1.505   0.282
    1TCM    cl2  635   1.578   1.585   0.012
    1TCM     h1  636   1.510   1.687   0.217
    1TCM    cl3  637   1.733   1.764   0.180
    1TCM     c1  638   4.242   3.101   2.470
    1TCM    cl1  639   4.130   3.164   2.346
    1TCM    cl2  640   4.148   3.018   2.597
    1TCM     h1  641   4.312   3.029   2.423
    1TCM    cl3  642   4.333   3.236   2.542
    1TCM     c1  643   2.930   4.860   1.431
    1TCM    cl1  644   2.797   4.978   1.425
    1TCM    cl2  645   3.041   4.889   1.295
    1TCM     h1  646   2.984   4.871   1.527
    1TCM    cl3  647   2.863   4.695   1.419
    1TCM     c1  648   4.310   2.489   3.313
    1TCM    cl1  649   4.363   2.628   3.410
    1TCM    cl2  650   4.235   2.367   3.419
    1TCM     h1  651   4.236   2.522   3.237
    1TCM    cl3  652   4.450   2.417   3.230
    1TCM     c1  653   4.287   0.813   3.719
    1TCM    cl1  654   4.261   0.933   3.847
    1TCM    cl2  655   4.454   0.824   3.660
    1TCM     h1  656   4.268   0.711   3.759
    1TCM    cl3  657   4.174   0.845   3.585
    1TCM     c1  658   4.206   0.981   3.316
    1TCM    cl1  659   4.354   0.936   3.404
    1TCM    cl2  660   4.221   0.932   3.146
    1TCM     h1  661   4.119   0.931   3.363
    1TCM    cl3  662   4.184   1.158   3.325
    1TCM     c1  663   2.108   0.278   3.331
    1TCM    cl1  664   2.227   0.198   3.227
    1TCM    cl2  665   2.164   0.273   3.500
    1TCM     h1  666   2.096   0.384   3.299
    1TCM    cl3  667   1.951   0.195   3.318
    1TCM     c1  668   0.519   4.482   3.681
    1TCM    cl1  669   0.661   4.587   3.663
    1TCM    cl2  670   0.572   4.314   3.706
    1TCM     h1  671   0.460   4.515   3.769
    1TCM    cl3  672   0.419   4.491   3.535
    1TCM     c1  673   0.269   1.969   4.828
    1TCM    cl1  674   0.265   2.114   4.932
    1TCM    cl2  675   0.315   2.017   4.663
    1TCM     h1  676   0.344   1.898   4.868
    1TCM    cl3  677   0.109   1.893   4.826
    1TCM     c1  678   1.145   5.106   5.227
    1TCM    cl1  679   1.010   5.037   5.321
    1TCM    cl2  680   1.089   5.253   5.143
    1TCM     h1  681   1.228   5.132   5.296
    1TCM    cl3  682   1.201   4.987   5.108
    1TCM     c1  683   0.798   2.311   1.190
    1TCM    cl1  684   0.906   2.312   1.331
    1TCM    cl2  685   0.860   2.197   1.068
    1TCM     h1  686   0.696   2.280   1.221
    1TCM    cl3  687   0.791   2.474   1.120
    1TCM     c1  688   4.812   1.700   2.375
    1TCM    cl1  689   4.728   1.768   2.516
    1TCM    cl2  690   4.813   1.820   2.243
    1TCM     h1  691   4.917   1.675   2.402
    1TCM    cl3  692   4.728   1.554   2.320
    1TCM     c1  693   2.917   1.333   2.582
    1TCM    cl1  694   2.898   1.463   2.701
    1TCM    cl2  695   2.882   1.177   2.659
    1TCM     h1  696   2.847   1.349   2.498
    1TCM    cl3  697   3.084   1.332   2.520
    1TCM     c1  698   3.164   0.515   2.685
    1TCM    cl1  699   3.207   0.423   2.539
    1TCM    cl2  700   3.311   0.544   2.781
    1TCM     h1  701   3.120   0.612   2.655
    1TCM    cl3  702   3.047   0.423   2.781
    1TCM     c1  703   2.382   4.699   1.064
    1TCM    cl1  704   2.493   4.783   1.174
    1TCM    cl2  705   2.467   4.659   0.913
    1TCM     h1  706   2.346   4.606   1.112
    1TCM    cl3  707   2.243   4.805   1.028
    1TCM     c1  708   0.584   3.439   4.135
    1TCM    cl1  709   0.472   3.541   4.230
    1TCM    cl2  710   0.580   3.490   3.965
    1TCM     h1  711   0.687   3.450   4.175
    1TCM    cl3  712   0.533   3.269   4.147
    1TCM     c1  713   2.460   0.068   1.744
    1TCM    cl1  714   2.295   0.004   1.761
    1TCM    cl2  715   2.533   0.089   1.905
    1TCM     h1  716   2.522  -0.004   1.685
    1TCM    cl3  717   2.455   0.225   1.660
    1TCM     c1  718   2.635   4.942   3.670
    1TCM    cl1  719   2.574   4.865   3.819
    1TCM    cl2  720   2.664   4.817   3.547
    1TCM     h1  721   2.560   5.014   3.633
    1TCM    cl3  722   2.788   5.026   3.705
    1TCM     c1  723   3.635   3.503   4.916
    1TCM    cl1  724   3.778   3.580   4.844
    1TCM    cl2  725   3.583   3.595   5.060
    1TCM     h1  726   3.552   3.501   4.842
    1TCM    cl3  727   3.675   3.336   4.964
    1TCM     c1  728   1.721   0.233   4.731
    1TCM    cl1  729   1.638   0.196   4.578
    1TCM    cl2  730   1.855   0.119   4.756
    1TCM     h1  731   1.761   0.337   4.727
    1TCM    cl3  732   1.605   0.219   4.865
    1TCM     c1  733   3.424   3.764   1.895
    1TCM    cl1  734   3.418   3.899   2.012
    1TCM    cl2  735   3.518   3.815   1.753
    1TCM     h1  736   3.473   3.677   1.943
    1TCM    cl3  737   3.259   3.721   1.845
    1TCM     c1  738   0.104   2.761   2.128
    1TCM    cl1  739   0.083   2.905   2.026
    1TCM    cl2  740   0.058   2.799   2.295
    1TCM     h1  741   0.040   2.679   2.090
    1TCM    cl3  742   0.274   2.710   2.124
    1TCM     c1  743   1.875   0.933   3.565
    1TCM    cl1  744   1.748   1.028   3.483
    1TCM    cl2  745   1.802   0.842   3.699
    1TCM     h1  746   1.920   0.862   3.492
    1TCM    cl3  747   2.000   1.042   3.627
    1TCM     c1  748   1.437   4.571   3.672
    1TCM    cl1  749   1.403   4.422   3.763
    1TCM    cl2  750   1.508   4.528   3.514
    1TCM     h1  751   1.343   4.627   3.657
    1TCM    cl3  752   1.552   4.671   3.763
    1TCM     c1  753   1.281   3.261   3.551
    1TCM    cl1  754   1.456   3.251   3.525
    1TCM    cl2  755   1.237   3.165   3.694
    1TCM     h1  756   1.252   3.367   3.568
    1TCM    cl3  757   1.196   3.198   3.409
    1TCM     c1  758   4.851   2.336   2.469
    1TCM    cl1  759   5.011   2.373   2.402
    1TCM    cl2  760   4.823   2.433   2.615
    1TCM     h1  761   4.773   2.359   2.393
    1TCM    cl3  762   4.843   2.163   2.510
    1TCM     c1  763   2.410   1.301   1.943
    1TCM    cl1  764   2.399   1.394   2.095
    1TCM    cl2  765   2.537   1.178   1.959
    1TCM     h1  766   2.312   1.252   1.923
    1TCM    cl3  767   2.450   1.411   1.809
    1TCM     c1  768   1.360   0.114   3.662
    1TCM    cl1  769   1.489   0.001   3.709
    1TCM    cl2  770   1.423   0.227   3.540
    1TCM     h1  771   1.275   0.058   3.620
    1TCM    cl3  772   1.306   0.205   3.805
    1TCM     c1  773   4.392   3.862   2.756
    1TCM    cl1  774   4.400   3.995   2.874
    1TCM    cl2  775   4.556   3.824   2.698
    1TCM     h1  776   4.348   3.773   2.804
    1TCM    cl3  777   4.291   3.912   2.618
    1TCM     c1  778   4.465   1.311   4.072
    1TCM    cl1  779   4.588   1.225   4.168
    1TCM    cl2  780   4.475   1.259   3.903
    1TCM     h1  781   4.365   1.288   4.112
    1TCM    cl3  782   4.495   1.487   4.082
    1TCM     c1  783   3.799   1.959   2.663
    1TCM    cl1  784   3.966   1.903   2.641
    1TCM    cl2  785   3.790   2.066   2.805
    1TCM     h1  786   3.766   2.014   2.573
    1TCM    cl3  787   3.692   1.819   2.688
    1TCM     c1  788   5.044   3.952   3.344
    1TCM    cl1  789   4.943   4.095   3.319
    1TCM    cl2  790   5.070   3.927   3.518
    1TCM     h1  791   4.994   3.863   3.301
    1TCM    cl3  792   5.201   3.975   3.264
    1TCM     c1  793   0.404   1.909   0.662
    1TCM    cl1  794   0.307   2.023   0.566
    1TCM    cl2  795   0.338   1.745   0.643
    1TCM     h1  796   0.509   1.911   0.626
    1TCM    cl3  797   0.398   1.956   0.833
    1TCM     c1  798   3.654   1.791   3.616
    1TCM    cl1  799   3.816   1.849   3.659
    1TCM    cl2  800   3.655   1.613   3.603
    1TCM     h1  801   3.582   1.822   3.695
    1TCM    cl3  802   3.605   1.861   3.460
    1TCM     c1  803   1.405   2.379   2.979
    1TCM    cl1  804   1.519   2.451   3.095
    1TCM    cl2  805   1.368   2.497   2.851
    1TCM     h1  806   1.449   2.288   2.934
    1TCM    cl3  807   1.254   2.336   3.064
    1TCM     c1  808   0.305   3.043   0.196
    1TCM    cl1  809   0.439   3.037   0.312
    1TCM    cl2  810   0.354   2.964   0.045
    1TCM     h1  811   0.217   2.990   0.238
    1TCM    cl3  812   0.263   3.213   0.164
    1TCM     c1  813   0.765   4.556   5.053
    1TCM    cl1  814   0.851   4.663   5.166
    1TCM    cl2  815   0.837   4.570   4.892
    1TCM     h1  816   0.773   4.451   5.089
    1TCM    cl3  817   0.594   4.603   5.046
    1TCM     c1  818   4.753   4.710   0.184
    1TCM    cl1  819   4.833   4.557   0.228
    1TCM    cl2  820   4.687   4.786   0.331
    1TCM     h1  821   4.827   4.778   0.137
    1TCM    cl3  822   4.622   4.677   0.069
    1TCM     c1  823   0.844   1.561   0.630
    1TCM    cl1  824   0.997   1.578   0.541
    1TCM    cl2  825   0.869   1.605   0.800
    1TCM     h1  826   0.768   1.628   0.585
    1TCM    cl3  827   0.788   1.393   0.620
    1TCM     c1  828   2.423   0.401   3.534
    1TCM    cl1  829   2.464   0.287   3.664
    1TCM    cl2  830   2.375   0.310   3.388
    1TCM     h1  831   2.339   0.466   3.566
    1TCM    cl3  832   2.565   0.502   3.497
    1TCM     c1  833   0.562   1.449   3.298
    1TCM    cl1  834   0.530   1.422   3.125
    1TCM    cl2  835   0.419   1.523   3.374
    1TCM     h1  836   0.584   1.352   3.347
    1TCM    cl3  837   0.701   1.558   3.316
    1TCM     c1  838   0.272   4.502   5.016
    1TCM    cl1  839   0.336   4.637   5.113
    1TCM    cl2  840   0.263   4.356   5.117
    1TCM     h1  841   0.171   4.527   4.979
    1TCM    cl3  842   0.380   4.471   4.878
    1TCM     c1  843   4.311   1.422   2.216
    1TCM    cl1  844   4.291   1.350   2.054
    1TCM    cl2  845   4.183   1.364   2.323
    1TCM     h1  846   4.410   1.394   2.257
    1TCM    cl3  847   4.302   1.599   2.203
    1TCM     c1  848   1.766   0.680   1.704
    1TCM    cl1  849   1.621   0.737   1.617
    1TCM    cl2  850   1.722   0.635   1.870
    1TCM     h1  851   1.808   0.591   1.651
    1TCM    cl3  852   1.888   0.809   1.708
    1TCM     c1  853   2.059   1.932   3.526
    1TCM    cl1  854   2.173   2.057   3.471
    1TCM    cl2  855   2.123   1.772   3.483
    1TCM     h1  856   2.048   1.939   3.637
    1TCM    cl3  857   1.901   1.956   3.448
    1TCM     c1  858   2.587   3.570   3.799
    1TCM    cl1  859   2.437   3.519   3.719
    1TCM    cl2  860   2.703   3.626   3.676
    1TCM     h1  861   2.565   3.652   3.869
    1TCM    cl3  862   2.657   3.433   3.887
    1TCM     c1  863   0.874   1.421   3.680
    1TCM    cl1  864   0.707   1.380   3.636
    1TCM    cl2  865   0.904   1.377   3.849
    1TCM     h1  866   0.944   1.364   3.614
    1TCM    cl3  867   0.900   1.595   3.658
    1TCM     c1  868   0.785   4.422   1.923
    1TCM    cl1  869   0.649   4.476   2.025
    1TCM    cl2  870   0.762   4.483   1.758
    1TCM     h1  871   0.880   4.462   1.965
    1TCM    cl3  872   0.790   4.245   1.920
    1TCM     c1  873   3.747   4.183   2.565
    1TCM    cl1  874   3.835   4.155   2.413
    1TCM    cl2  875   3.862   4.230   2.692
    1TCM     h1  876   3.673   4.264   2.550
    1TCM    cl3  877   3.663   4.034   2.613
    1TCM     c1  878   0.616   2.583   3.545
    1TCM    cl1  879   0.727   2.540   3.678
    1TCM    cl2  880   0.541   2.740   3.580
    1TCM     h1  881   0.673   2.589   3.450
    1TCM    cl3  882   0.490   2.458   3.531
    1TCM     c1  883   1.695   4.011   1.774
    1TCM    cl1  884   1.847   4.041   1.862
    1TCM    cl2  885   1.667   3.835   1.763
    1TCM     h1  886   1.610   4.058   1.829
    1TCM    cl3  887   1.706   4.079   1.611
    1TCM     c1  888   1.696   1.627   2.774
    1TCM    cl1  889   1.524   1.661   2.804
    1TCM    cl2  890   1.719   1.584   2.603
    1TCM     h1  891   1.756   1.717   2.798
    1TCM    cl3  892   1.749   1.492   2.877
    1TCM     c1  893   3.951   0.136   4.045
    1TCM    cl1  894   3.807   0.048   3.989
    1TCM    cl2  895   4.047   0.189   3.905
    1TCM     h1  896   3.920   0.224   4.104
    1TCM    cl3  897   4.050   0.029   4.147
    1TCM     c1  898   0.173   4.534   4.600
    1TCM    cl1  899   0.165   4.675   4.709
    1TCM    cl2  900   0.285   4.569   4.466
    1TCM     h1  901   0.209   4.446   4.657
    1TCM    cl3  902   0.011   4.501   4.535
    1TCM     c1  903   1.026   1.759   0.958
    1TCM    cl1  904   1.022   1.851   1.111
    1TCM    cl2  905   1.006   1.586   0.992
    1TCM     h1  906   0.945   1.794   0.892
    1TCM    cl3  907   1.183   1.785   0.878
    1TCM     c1  908   2.698   2.809   0.187
    1TCM    cl1  909   2.618   2.781   0.031
    1TCM    cl2  910   2.612   2.720   0.315
    1TCM     h1  911   2.803   2.774   0.182
    1TCM    cl3  912   2.696   2.983   0.224
    1TCM     c1  913   3.664   1.346   3.470
    1TCM    cl1  914   3.691   1.251   3.618
    1TCM    cl2  915   3.639   1.235   3.332
    1TCM     h1  916   3.575   1.410   3.482
    1TCM    cl3  917   3.806   1.448   3.438
    1TCM     c1  918   3.501   0.330   1.957
    1TCM    cl1  919   3.659   0.368   1.887
    1TCM    cl2  920   3.519   0.301   2.132
    1TCM     h1  921   3.431   0.414   1.941
    1TCM    cl3  922   3.436   0.184   1.880
    1TCM     c1  923   4.126   2.690   1.540
    1TCM    cl1  924   4.262   2.770   1.459
    1TCM    cl2  925   4.178   2.532   1.601
    1TCM     h1  926   4.091   2.753   1.624
    1TCM    cl3  927   3.993   2.667   1.424
    1TCM     c1  928   2.998   4.288   2.675
    1TCM    cl1  929   2.977   4.319   2.849
    1TCM    cl2  930   3.098   4.143   2.652
    1TCM     h1  931   2.899   4.273   2.628
    1TCM    cl3  932   3.079   4.428   2.600
    1TCM     c1  933   4.438   1.117   2.772
    1TCM    cl1  934   4.539   1.166   2.909
    1TCM    cl2  935   4.422   0.940   2.771
    1TCM     h1  936   4.337   1.163   2.782
    1TCM    cl3  937   4.513   1.171   2.620
    1TCM     c1  938   1.159   2.039   4.908
    1TCM    cl1  939   1.007   2.095   4.835
    1TCM    cl2  940   1.293   2.141   4.850
    1TCM     h1  941   1.152   2.046   5.018
    1TCM    cl3  942   1.189   1.870   4.861
    1TCM     c1  943   2.348   4.608   4.677
    1TCM    cl1  944   2.211   4.499   4.706
    1TCM    cl2  945   2.453   4.611   4.821
    1TCM     h1  946   2.406   4.572   4.590
    1TCM    cl3  947   2.287   4.772   4.644
    1TCM     c1  948   2.311   5.141   5.100
    1TCM    cl1  949   2.333   5.002   5.209
    1TCM    cl2  950   2.336   5.089   4.932
    1TCM     h1  951   2.208   5.181   5.111
    1TCM    cl3  952   2.429   5.267   5.141
    1TCM     c1  953   2.061   1.310   2.959
    1TCM    cl1  954   2.004   1.457   2.876
    1TCM    cl2  955   2.100   1.186   2.838
    1TCM     h1  956   2.151   1.333   3.018
    1TCM    cl3  957   1.933   1.249   3.067
    1TCM     c1  958   1.927   2.216   5.136
    1TCM    cl1  959   1.849   2.194   5.294
    1TCM    cl2  960   2.019   2.070   5.094
    1TCM     h1  961   1.849   2.234   5.059
    1TCM    cl3  962   2.037   2.356   5.142
    1TCM     c1  963   2.278   1.966   1.617
    1TCM    cl1  964   2.367   1.950   1.770
    1TCM    cl2  965   2.262   2.138   1.574
    1TCM     h1  966   2.333   1.913   1.536
    1TCM    cl3  967   2.116   1.895   1.635
    1TCM     c1  968   2.717   2.670   0.878
    1TCM    cl1  969   2.863   2.704   0.783
    1TCM    cl2  970   2.733   2.742   1.040
    1TCM     h1  971   2.629   2.714   0.827
    1TCM    cl3  972   2.696   2.494   0.894
    1TCM     c1  973   3.063   1.861   2.000
    1TCM    cl1  974   2.901   1.928   1.968
    1TCM    cl2  975   3.098   1.872   2.174
    1TCM     h1  976   3.066   1.755   1.968
    1TCM    cl3  977   3.185   1.954   1.910
    1TCM     c1  978   4.610   4.582   2.740
    1TCM    cl1  979   4.749   4.487   2.797
    1TCM    cl2  980   4.549   4.683   2.873
    1TCM     h1  981   4.642   4.648   2.656
    1TCM    cl3  982   4.482   4.473   2.685
    1TCM     c1  983   3.238   0.468   4.848
    1TCM    cl1  984   3.109   0.452   4.970
    1TCM    cl2  985   3.165   0.466   4.686
    1TCM     h1  986   3.292   0.564   4.864
    1TCM    cl3  987   3.352   0.332   4.864
    1TCM     c1  988   3.960   3.984   4.146
    1TCM    cl1  989   4.057   4.120   4.207
    1TCM    cl2  990   4.068   3.852   4.094
    1TCM     h1  991   3.893   3.948   4.226
    1TCM    cl3  992   3.863   4.038   4.007
    1TCM     c1  993   2.012   1.386   2.657
    1TCM    cl1  994   1.925   1.538   2.688
    1TCM    cl2  995   1.915   1.249   2.717
    1TCM     h1  996   2.028   1.374   2.548
    1TCM    cl3  997   2.168   1.389   2.741
    1TCM     c1  998   2.679   0.473   0.143
    1TCM    cl1  999   2.559   0.495   0.014
    1TCM    cl2 1000   2.606   0.512   0.300
    1TCM     h1 1001   2.714   0.367   0.144
    1TCM    cl3 1002   2.818   0.580   0.114
    1TCM     c1 1003   2.479   2.922   2.026
    1TCM    cl1 1004   2.339   2.857   1.938
    1TCM    cl2 1005   2.488   2.845   2.186
    1TCM     h1 1006   2.572   2.902   1.970
    1TCM    cl3 1007   2.459   3.098   2.046
    1TCM     c1 1008   1.105   4.988   1.658
    1TCM    cl1 1009   1.142   5.061   1.815
    1TCM    cl2 1010   0.948   5.047   1.600
    1TCM     h1 1011   1.184   5.016   1.585
    1TCM    cl3 1012   1.099   4.811   1.674
    1TCM     c1 1013   4.252   2.323   4.430
    1TCM    cl1 1014   4.341   2.365   4.281
    1TCM    cl2 1015   4.192   2.472   4.506
    1TCM     h1 1016   4.167   2.257   4.405
    1TCM    cl3 1017   4.361   2.239   4.542
    1TCM     c1 1018   1.899   5.081   5.117
    1TCM    cl1 1019   1.961   4.970   4.993
    1TCM    cl2 1020   1.868   4.991   5.268
    1TCM     h1 1021   1.974   5.160   5.137
    1TCM    cl3 1022   1.748   5.156   5.061
    1TCM     c1 1023   3.460   3.885   0.624
    1TCM    cl1 1024   3.516   4.029   0.535
    1TCM    cl2 1025   3.594   3.819   0.720
    1TCM     h1 1026   3.377   3.914   0.691
    1TCM    cl3 1027   3.405   3.762   0.508
    1TCM     c1 1028   4.661   0.983   1.067
    1TCM    cl1 1029   4.635   0.816   1.122
    1TCM    cl2 1030   4.766   1.067   1.183
    1TCM     h1 1031   4.709   0.983   0.967
    1TCM    cl3 1032   4.505   1.068   1.057
    1TCM     c1 1033   4.218   1.843   1.964
    1TCM    cl1 1034   4.085   1.757   2.045
    1TCM    cl2 1035   4.185   1.849   1.789
    1TCM     h1 1036   4.225   1.946   2.004
    1TCM    cl3 1037   4.371   1.757   1.992
    1TCM     c1 1038   4.128   1.735   0.109
    1TCM    cl1 1039   4.185   1.883   0.189
    1TCM    cl2 1040   3.981   1.676   0.190
    1TCM     h1 1041   4.105   1.757   0.002
    1TCM    cl3 1042   4.254   1.610   0.118
    1TCM     c1 1043   3.998   3.224   4.804
    1TCM    cl1 1044   4.083   3.279   4.658
    1TCM    cl2 1045   3.887   3.351   4.859
    1TCM     h1 1046   3.940   3.132   4.780
    1TCM    cl3 1047   4.116   3.188   4.932
    1TCM     c1 1048   1.311   0.519   3.818
    1TCM    cl1 1049   1.232   0.430   3.686
    1TCM    cl2 1050   1.383   0.669   3.755
    1TCM     h1 1051   1.235   0.544   3.895
    1TCM    cl3 1052   1.438   0.418   3.891
    1TCM     c1 1053   3.565   0.366   1.446
    1TCM    cl1 1054   3.708   0.422   1.537
    1TCM    cl2 1055   3.515   0.207   1.507
    1TCM     h1 1056   3.482   0.439   1.460
    1TCM    cl3 1057   3.606   0.354   1.274
    1TCM     c1 1058   1.234   0.350   4.240
    1TCM    cl1 1059   1.217   0.382   4.414
    1TCM    cl2 1060   1.391   0.273   4.209
    1TCM     h1 1061   1.152   0.282   4.207
    1TCM    cl3 1062   1.223   0.503   4.150
    1TCM     c1 1063   2.269   1.162   4.220
    1TCM    cl1 1064   2.092   1.144   4.203
    1TCM    cl2 1065   2.312   1.162   4.393
    1TCM     h1 1066   2.320   1.078   4.169
    1TCM    cl3 1067   2.319   1.316   4.146
    1TCM     c1 1068   3.325   0.879   0.388
    1TCM    cl1 1069   3.265   1.016   0.485
    1TCM    cl2 1070   3.242   0.877   0.231
    1TCM     h1 1071   3.434   0.890   0.372
    1TCM    cl3 1072   3.292   0.727   0.474
    1TCM     c1 1073   1.752   2.474   2.873
    1TCM    cl1 1074   1.689   2.314   2.828
    1TCM    cl2 1075   1.918   2.492   2.811
    1TCM     h1 1076   1.688   2.553   2.829
    1TCM    cl3 1077   1.753   2.491   3.050
    1TCM     c1 1078   5.002   4.020   4.678
    1TCM    cl1 1079   5.152   4.020   4.772
    1TCM    cl2 1080   5.032   3.947   4.518
    1TCM     h1 1081   4.925   3.960   4.731
    1TCM    cl3 1082   4.944   4.187   4.657
    1TCM     c1 1083   0.942   0.925   2.740
    1TCM    cl1 1084   1.019   0.898   2.898
    1TCM    cl2 1085   0.775   0.979   2.764
    1TCM     h1 1086   0.999   1.003   2.685
    1TCM    cl3 1087   0.944   0.774   2.647
    1TCM     c1 1088   4.764   0.986   3.664
    1TCM    cl1 1089   4.765   0.850   3.779
    1TCM    cl2 1090   4.815   0.928   3.503
    1TCM     h1 1091   4.662   1.029   3.657
    1TCM    cl3 1092   4.877   1.112   3.720
    1TCM     c1 1093   5.079   4.747   0.668
    1TCM    cl1 1094   5.154   4.641   0.790
    1TCM    cl2 1095   5.088   4.668   0.508
    1TCM     h1 1096   4.973   4.764   0.694
    1TCM    cl3 1097   5.166   4.902   0.662
    1TCM     c1 1098   0.683   3.421   0.333
    1TCM    cl1 1099   0.648   3.501   0.178
    1TCM    cl2 1100   0.654   3.535   0.467
    1TCM     h1 1101   0.617   3.333   0.345
    1TCM    cl3 1102   0.853   3.368   0.336
    1TCM     c1 1103   1.107   2.487   4.749
    1TCM    cl1 1104   1.057   2.320   4.787
    1TCM    cl2 1105   1.265   2.519   4.824
    1TCM     h1 1106   1.115   2.499   4.639
    1TCM    cl3 1107   0.987   2.601   4.813
    1TCM     c1 1108   0.696   3.239   0.677
    1TCM    cl1 1109   0.647   3.131   0.810
    1TCM    cl2 1110   0.825   3.348   0.734
    1TCM     h1 1111   0.734   3.177   0.593
    1TCM    cl3 1112   0.556   3.334   0.623
    1TCM     c1 1113   4.266   1.658   2.599
    1TCM    cl1 1114   4.290   1.516   2.494
    1TCM    cl2 1115   4.328   1.623   2.762
    1TCM     h1 1116   4.321   1.745   2.556
    1TCM    cl3 1117   4.093   1.696   2.609
    1TCM     c1 1118   2.056   0.578   4.376
    1TCM    cl1 1119   2.060   0.433   4.479
    1TCM    cl2 1120   1.981   0.537   4.220
    1TCM     h1 1121   1.997   0.657   4.427
    1TCM    cl3 1122   2.222   0.635   4.349
    1TCM     c1 1123   0.355   0.167   2.615
    1TCM    cl1 1124   0.483   0.124   2.730
    1TCM    cl2 1125   0.425   0.187   2.453
    1TCM     h1 1126   0.279   0.086   2.613
    1TCM    cl3 1127   0.278   0.319   2.666
    1TCM     c1 1128   1.881   4.580   4.473
    1TCM    cl1 1129   2.007   4.508   4.577
    1TCM    cl2 1130   1.882   4.499   4.314
    1TCM     h1 1131   1.782   4.567   4.521
    1TCM    cl3 1132   1.915   4.753   4.451
    1TCM     c1 1133   4.235   4.565   1.516
    1TCM    cl1 1134   4.368   4.682   1.537
    1TCM    cl2 1135   4.303   4.402   1.496
    1TCM     h1 1136   4.170   4.568   1.606
    1TCM    cl3 1137   4.140   4.609   1.373
    1TCM     c1 1138   1.179   2.636   0.569
    1TCM    cl1 1139   1.128   2.556   0.418
    1TCM    cl2 1140   1.298   2.763   0.531
    1TCM     h1 1141   1.090   2.681   0.618
    1TCM    cl3 1142   1.252   2.516   0.678
    1TCM     c1 1143   1.484   0.976   4.365
    1TCM    cl1 1144   1.462   0.990   4.541
    1TCM    cl2 1145   1.550   0.815   4.327
    1TCM     h1 1146   1.386   0.989   4.314
    1TCM    cl3 1147   1.598   1.101   4.309
    1TCM     c1 1148   1.889   1.523   0.887
    1TCM    cl1 1149   1.797   1.448   0.755
    1TCM    cl2 1150   1.777   1.605   0.999
    1TCM     h1 1151   1.945   1.445   0.942
    1TCM    cl3 1152   2.003   1.642   0.821
    1TCM     c1 1153   1.298   4.575   1.422
    1TCM    cl1 1154   1.453   4.646   1.473
    1TCM    cl2 1155   1.288   4.407   1.479
    1TCM     h1 1156   1.215   4.634   1.467
    1TCM    cl3 1157   1.286   4.579   1.245
    1TCM     c1 1158   5.064   2.734   2.565
    1TCM    cl1 1159   5.225   2.749   2.639
    1TCM    cl2 1160   4.948   2.835   2.655
    1TCM     h1 1161   5.069   2.769   2.459
    1TCM    cl3 1162   5.011   2.565   2.569
    1TCM     c1 1163   0.809   2.435   0.207
    1TCM    cl1 1164   0.842   2.284   0.295
    1TCM    cl2 1165   0.783   2.399   0.035
    1TCM     h1 1166   0.719   2.483   0.249
    1TCM    cl3 1167   0.948   2.545   0.224
    1TCM     c1 1168   3.733   4.747   3.399
    1TCM    cl1 1169   3.660   4.872   3.503
    1TCM    cl2 1170   3.726   4.800   3.229
    1TCM     h1 1171   3.839   4.732   3.428
    1TCM    cl3 1172   3.643   4.595   3.418
    1TCM     c1 1173   2.183   1.025   2.394
    1TCM    cl1 1174   2.359   1.010   2.380
    1TCM    cl2 1175   2.139   1.057   2.564
    1TCM     h1 1176   2.147   1.109   2.330
    1TCM    cl3 1177   2.106   0.873   2.341
    1TCM     c1 1178   0.691   4.562   4.503
    1TCM    cl1 1179   0.528   4.611   4.555
    1TCM    cl2 1180   0.811   4.670   4.577
    1TCM     h1 1181   0.710   4.458   4.535
    1TCM    cl3 1182   0.702   4.573   4.326
    1TCM     c1 1183   2.064   4.837   3.930
    1TCM    cl1 1184   2.108   4.955   3.804
    1TCM    cl2 1185   1.966   4.707   3.858
    1TCM     h1 1186   2.157   4.794   3.974
    1TCM    cl3 1187   1.971   4.918   4.058
    1TCM     c1 1188   1.157   0.276   1.235
    1TCM    cl1 1189   1.263   0.407   1.290
    1TCM    cl2 1190   1.163   0.141   1.351
    1TCM     h1 1191   1.053   0.313   1.227
    1TCM    cl3 1192   1.211   0.219   1.075
    1TCM     c1 1193   2.465   3.157   1.083
    1TCM    cl1 1194   2.455   3.043   0.946
    1TCM    cl2 1195   2.612   3.255   1.068
    1TCM     h1 1196   2.376   3.223   1.082
    1TCM    cl3 1197   2.469   3.066   1.235
    1TCM     c1 1198   1.013   3.629   1.113
    1TCM    cl1 1199   0.987   3.750   0.986
    1TCM    cl2 1200   1.166   3.542   1.081
    1TCM     h1 1201   1.020   3.680   1.212
    1TCM    cl3 1202   0.878   3.513   1.115
    1TCM     c1 1203   3.852   2.345   2.060
    1TCM    cl1 1204   3.930   2.506   2.060
    1TCM    cl2 1205   3.792   2.308   2.223
    1TCM     h1 1206   3.767   2.346   1.988
    1TCM    cl3 1207   3.971   2.222   2.011
    1TCM     c1 1208   2.721   2.444   1.232
    1TCM    cl1 1209   2.794   2.289   1.280
    1TCM    cl2 1210   2.620   2.420   1.088
    1TCM     h1 1211   2.659   2.484   1.315
    1TCM    cl3 1212   2.851   2.561   1.195
    1TCM     c1 1213   2.764   3.497   4.280
    1TCM    cl1 1214   2.657   3.389   4.188
    1TCM    cl2 1215   2.769   3.445   4.450
    1TCM     h1 1216   2.867   3.492   4.238
    1TCM    cl3 1217   2.704   3.664   4.271
    1TCM     c1 1218   1.224   2.808   4.138
    1TCM    cl1 1219   1.255   2.858   4.306
    1TCM    cl2 1220   1.334   2.675   4.095
    1TCM     h1 1221   1.119   2.773   4.129
    1TCM    cl3 1222   1.252   2.945   4.029
    1TCM     c1 1223   1.518   2.940   3.473
    1TCM    cl1 1224   1.613   2.790   3.486
    1TCM    cl2 1225   1.589   3.064   3.579
    1TCM     h1 1226   1.520   2.975   3.368
    1TCM    cl3 1227   1.350   2.909   3.522
    1TCM     c1 1228   3.767   4.728   3.967
    1TCM    cl1 1229   3.781   4.587   3.858
    1TCM    cl2 1230   3.786   4.877   3.872
    1TCM     h1 1231   3.668   4.727   4.016
    1TCM    cl3 1232   3.895   4.719   4.090
    1TCM     c1 1233   0.185   3.215   0.510
    1TCM    cl1 1234   0.077   3.239   0.371
    1TCM    cl2 1235   0.126   3.078   0.608
    1TCM     h1 1236   0.287   3.193   0.474
    1TCM    cl3 1237   0.188   3.362   0.609
    1TCM     c1 1238   1.507   2.316   5.091
    1TCM    cl1 1239   1.364   2.355   5.189
    1TCM    cl2 1240   1.536   2.447   4.974
    1TCM     h1 1241   1.596   2.306   5.157
    1TCM    cl3 1242   1.479   2.164   5.004
    1TCM     c1 1243   0.242   1.910   3.045
    1TCM    cl1 1244   0.299   1.942   2.880
    1TCM    cl2 1245   0.064   1.898   3.044
    1TCM     h1 1246   0.285   1.814   3.081
    1TCM    cl3 1247   0.292   2.042   3.152
    1TCM     c1 1248   3.653   0.207   5.021
    1TCM    cl1 1249   3.700   0.348   4.924
    1TCM    cl2 1250   3.709   0.229   5.189
    1TCM     h1 1251   3.543   0.196   5.020
    1TCM    cl3 1252   3.728   0.061   4.953
    1TCM     c1 1253   1.744   2.741   2.147
    1TCM    cl1 1254   1.685   2.668   2.298
    1TCM    cl2 1255   1.829   2.893   2.184
    1TCM     h1 1256   1.813   2.671   2.096
    1TCM    cl3 1257   1.606   2.775   2.040
    1TCM     c1 1258   4.172   0.709   4.276
    1TCM    cl1 1259   4.000   0.728   4.318
    1TCM    cl2 1260   4.186   0.642   4.111
    1TCM     h1 1261   4.222   0.808   4.280
    1TCM    cl3 1262   4.249   0.598   4.391
    1TCM     c1 1263   0.290   3.873   1.582
    1TCM    cl1 1264   0.377   3.773   1.464
    1TCM    cl2 1265   0.179   3.772   1.676
    1TCM     h1 1266   0.363   3.922   1.650
    1TCM    cl3 1267   0.197   3.998   1.495
    1TCM     c1 1268   0.241   1.583   0.935
    1TCM    cl1 1269   0.197   1.592   1.107
    1TCM    cl2 1270   0.398   1.663   0.910
    1TCM     h1 1271   0.247   1.477   0.904
    1TCM    cl3 1272   0.116   1.666   0.838
    1TCM     c1 1273   3.702   2.584   2.866
    1TCM    cl1 1274   3.606   2.660   2.737
    1TCM    cl2 1275   3.875   2.594   2.826
    1TCM     h1 1276   3.683   2.636   2.962
    1TCM    cl3 1277   3.655   2.413   2.882
    1TCM     c1 1278   0.326   4.837   2.843
    1TCM    cl1 1279   0.214   4.926   2.738
    1TCM    cl2 1280   0.441   4.746   2.744
    1TCM     h1 1281   0.381   4.908   2.908
    1TCM    cl3 1282   0.233   4.724   2.945
    1TCM     c1 1283   0.112   4.667   2.508
    1TCM    cl1 1284   0.017   4.648   2.657
    1TCM    cl2 1285   0.003   4.666   2.368
    1TCM     h1 1286   0.167   4.764   2.512
    1TCM    cl3 1287   0.228   4.534   2.494
    1TCM     c1 1288   0.601   2.530   2.394
    1TCM    cl1 1289   0.560   2.474   2.230
    1TCM    cl2 1290   0.608   2.390   2.504
    1TCM     h1 1291   0.699   2.581   2.392
    1TCM    cl3 1292   0.476   2.643   2.451
    1TCM     c1 1293   0.595   4.051   2.877
    1TCM    cl1 1294   0.720   3.963   2.967
    1TCM    cl2 1295   0.672   4.155   2.755
    1TCM     h1 1296   0.527   3.979   2.826
    1TCM    cl3 1297   0.501   4.152   2.989
    1TCM     c1 1298   2.434   0.660   4.021
    1TCM    cl1 1299   2.548   0.796   4.011
    1TCM    cl2 1300   2.322   0.687   4.157
    1TCM     h1 1301   2.376   0.653   3.927
    1TCM    cl3 1302   2.524   0.509   4.048
    1TCM     c1 1303   1.730   1.959   1.972
    1TCM    cl1 1304   1.592   1.877   2.049
    1TCM    cl2 1305   1.729   2.131   2.018
    1TCM     h1 1306   1.824   1.912   2.006
    1TCM    cl3 1307   1.716   1.944   1.796
    1TCM     c1 1308   0.881   3.295   2.271
    1TCM    cl1 1309   0.978   3.407   2.172
    1TCM    cl2 1310   0.873   3.355   2.438
    1TCM     h1 1311   0.778   3.290   2.229
    1TCM    cl3 1312   0.955   3.134   2.269
    1TCM     c1 1313   4.713   3.795   3.130
    1TCM    cl1 1314   4.762   3.958   3.183
    1TCM    cl2 1315   4.579   3.809   3.014
    1TCM     h1 1316   4.799   3.745   3.082
    1TCM    cl3 1317   4.660   3.701   3.271
    1TCM     c1 1318   4.264   1.089   4.553
    1TCM    cl1 1319   4.366   0.998   4.666
    1TCM    cl2 1320   4.275   1.016   4.391
    1TCM     h1 1321   4.159   1.086   4.588
    1TCM    cl3 1322   4.320   1.258   4.546
    1TCM     c1 1323   0.168   3.063   4.649
    1TCM    cl1 1324   0.250   3.188   4.744
    1TCM    cl2 1325   0.171   3.107   4.477
    1TCM     h1 1326   0.220   2.966   4.663
    1TCM    cl3 1327  -0.001   3.047   4.703
    1TCM     c1 1328   1.098   1.906   0.275
    1TCM    cl1 1329   1.172   2.039   0.366
    1TCM    cl2 1330   1.146   1.918   0.104
    1TCM     h1 1331   1.132   1.809   0.316
    1TCM    cl3 1332   0.921   1.916   0.287
    1TCM     c1 1333   1.936   2.143   1.765
    1TCM    cl1 1334   1.942   1.965   1.772
    1TCM    cl2 1335   2.083   2.204   1.686
    1TCM     h1 1336   1.847   2.174   1.707
    1TCM    cl3 1337   1.925   2.208   1.930
    1TCM     c1 1338   2.517   4.468   3.870
    1TCM    cl1 1339   2.553   4.470   4.044
    1TCM    cl2 1340   2.433   4.317   3.829
    1TCM     h1 1341   2.452   4.555   3.845
    1TCM    cl3 1342   2.669   4.479   3.778
    1TCM     c1 1343   3.260   0.526   1.707
    1TCM    cl1 1344   3.220   0.373   1.789
    1TCM    cl2 1345   3.421   0.579   1.758
    1TCM     h1 1346   3.259   0.510   1.597
    1TCM    cl3 1347   3.140   0.649   1.751
    1TCM     c1 1348   2.539   4.852   4.878
    1TCM    cl1 1349   2.378   4.850   4.951
    1TCM    cl2 1350   2.524   4.863   4.701
    1TCM     h1 1351   2.596   4.940   4.916
    1TCM    cl3 1352   2.626   4.703   4.921
    1TCM     c1 1353   2.655   1.800   3.398
    1TCM    cl1 1354   2.714   1.633   3.415
    1TCM    cl2 1355   2.782   1.900   3.324
    1TCM     h1 1356   2.565   1.801   3.334
    1TCM    cl3 1357   2.615   1.865   3.559
    1TCM     c1 1358   0.852   1.832   5.042
    1TCM    cl1 1359   1.022   1.860   5.085
    1TCM    cl2 1360   0.748   1.877   5.179
    1TCM     h1 1361   0.826   1.894   4.953
    1TCM    cl3 1362   0.829   1.660   5.003
    1TCM     c1 1363   3.141   1.161   3.121
    1TCM    cl1 1364   3.188   1.305   3.213
    1TCM    cl2 1365   3.128   1.022   3.231
    1TCM     h1 1366   3.043   1.179   3.072
    1TCM    cl3 1367   3.263   1.127   2.996
    1TCM     c1 1368   3.695   0.780   1.645
    1TCM    cl1 1369   3.857   0.774   1.719
    1TCM    cl2 1370   3.701   0.704   1.485
    1TCM     h1 1371   3.623   0.726   1.710
    1TCM    cl3 1372   3.644   0.950   1.628
    1TCM     c1 1373   0.449   0.352   0.744
    1TCM    cl1 1374   0.337   0.438   0.853
    1TCM    cl2 1375   0.578   0.277   0.840
    1TCM     h1 1376   0.393   0.274   0.689
    1TCM    cl3 1377   0.520   0.468   0.629
    1TCM     c1 1378   0.872   3.805   3.767
    1TCM    cl1 1379   1.002   3.737   3.868
    1TCM    cl2 1380   0.836   3.694   3.633
    1TCM     h1 1381   0.781   3.820   3.829
    1TCM    cl3 1382   0.925   3.962   3.702
    1TCM     c1 1383   5.171   4.219   4.455
    1TCM    cl1 1384   5.258   4.083   4.379
    1TCM    cl2 1385   5.246   4.372   4.405
    1TCM     h1 1386   5.065   4.217   4.423
    1TCM    cl3 1387   5.179   4.203   4.632
    1TCM     c1 1388   3.765   1.794   0.929
    1TCM    cl1 1389   3.858   1.884   1.051
    1TCM    cl2 1390   3.665   1.907   0.835
    1TCM     h1 1391   3.835   1.741   0.861
    1TCM    cl3 1392   3.660   1.675   1.010
    1TCM     c1 1393   3.420   4.558   3.799
    1TCM    cl1 1394   3.564   4.563   3.902
    1TCM    cl2 1395   3.464   4.606   3.634
    1TCM     h1 1396   3.379   4.454   3.797
    1TCM    cl3 1397   3.296   4.669   3.862
    1TCM     c1 1398   1.683   4.709   3.287
    1TCM    cl1 1399   1.624   4.866   3.346
    1TCM    cl2 1400   1.856   4.721   3.248
    1TCM     h1 1401   1.668   4.632   3.365
    1TCM    cl3 1402   1.593   4.663   3.140
    1TCM     c1 1403   2.598   0.532   2.595
    1TCM    cl1 1404   2.480   0.567   2.466
    1TCM    cl2 1405   2.513   0.510   2.749
    1TCM     h1 1406   2.654   0.439   2.569
    1TCM    cl3 1407   2.712   0.668   2.609
    1TCM     c1 1408   3.288   2.164   4.185
    1TCM    cl1 1409   3.252   2.275   4.319
    1TCM    cl2 1410   3.196   2.013   4.206
    1TCM     h1 1411   3.259   2.211   4.089
    1TCM    cl3 1412   3.462   2.127   4.183
    1TCM     c1 1413   2.935   2.381   0.618
    1TCM    cl1 1414   2.937   2.300   0.460
    1TCM    cl2 1415   2.810   2.507   0.620
    1TCM     h1 1416   2.914   2.306   0.698
    1TCM    cl3 1417   3.094   2.455   0.649
    1TCM     c1 1418   1.680   0.620   4.966
    1TCM    cl1 1419   1.776   0.577   5.109
    1TCM    cl2 1420   1.596   0.774   4.996
    1TCM     h1 1421   1.747   0.631   4.879
    1TCM    cl3 1422   1.560   0.493   4.934
    1TCM     c1 1423   0.785   1.638   1.664
    1TCM    cl1 1424   0.624   1.697   1.712
    1TCM    cl2 1425   0.770   1.476   1.592
    1TCM     h1 1426   0.829   1.707   1.589
    1TCM    cl3 1427   0.890   1.630   1.807
    1TCM     c1 1428   4.954   3.161   0.310
    1TCM    cl1 1429   4.845   3.139   0.449
    1TCM    cl2 1430   4.964   3.008   0.219
    1TCM     h1 1431   4.914   3.241   0.244
    1TCM    cl3 1432   5.116   3.206   0.368
    1TCM     c1 1433   0.613   1.618   4.033
    1TCM    cl1 1434   0.486   1.546   4.134
    1TCM    cl2 1435   0.555   1.632   3.865
    1TCM     h1 1436   0.639   1.719   4.071
    1TCM    cl3 1437   0.758   1.515   4.037
    1TCM     c1 1438   0.974   0.782   0.450
    1TCM    cl1 1439   1.055   0.934   0.407
    1TCM    cl2 1440   0.903   0.797   0.612
    1TCM     h1 1441   0.893   0.761   0.376
    1TCM    cl3 1442   1.092   0.650   0.449
    1TCM     c1 1443   3.498   4.875   4.893
    1TCM    cl1 1444   3.346   4.953   4.844
    1TCM    cl2 1445   3.482   4.813   5.059
    1TCM     h1 1446   3.520   4.791   4.825
    1TCM    cl3 1447   3.631   4.994   4.887
    1TCM     c1 1448   3.231   3.839   3.696
    1TCM    cl1 1449   3.185   4.009   3.675
    1TCM    cl2 1450   3.327   3.821   3.845
    1TCM     h1 1451   3.139   3.777   3.704
    1TCM    cl3 1452   3.327   3.785   3.557
    1TCM     c1 1453   2.886   4.258   3.256
    1TCM    cl1 1454   2.898   4.335   3.096
    1TCM    cl2 1455   2.863   4.382   3.381
    1TCM     h1 1456   2.800   4.188   3.257
    1TCM    cl3 1457   3.036   4.167   3.290
    1TCM     c1 1458   3.482   1.327   2.742
    1TCM    cl1 1459   3.366   1.272   2.619
    1TCM    cl2 1460   3.395   1.401   2.878
    1TCM     h1 1461   3.541   1.240   2.778
    1TCM    cl3 1462   3.592   1.447   2.669
    1TCM     c1 1463   4.563   2.088   5.161
    1TCM    cl1 1464   4.644   1.944   5.226
    1TCM    cl2 1465   4.530   2.064   4.988
    1TCM     h1 1466   4.468   2.105   5.215
    1TCM    cl3 1467   4.669   2.230   5.182
    1TCM     c1 1468   3.155   2.223   0.823
    1TCM    cl1 1469   3.313   2.231   0.903
    1TCM    cl2 1470   3.072   2.073   0.872
    1TCM     h1 1471   3.094   2.310   0.854
    1TCM    cl3 1472   3.177   2.224   0.647
    1TCM     c1 1473   4.588   4.846   1.576
    1TCM    cl1 1474   4.419   4.899   1.557
    1TCM    cl2 1475   4.690   4.987   1.611
    1TCM     h1 1476   4.595   4.774   1.660
    1TCM    cl3 1477   4.643   4.769   1.425
    1TCM     c1 1478   4.672   0.748   3.230
    1TCM    cl1 1479   4.639   0.604   3.132
    1TCM    cl2 1480   4.650   0.709   3.402
    1TCM     h1 1481   4.776   0.782   3.213
    1TCM    cl3 1482   4.559   0.878   3.185
    1TCM     c1 1483   3.572   2.220   0.438
    1TCM    cl1 1484   3.627   2.138   0.290
    1TCM    cl2 1485   3.606   2.115   0.579
    1TCM     h1 1486   3.626   2.316   0.450
    1TCM    cl3 1487   3.397   2.250   0.428
    1TCM     c1 1488   1.768   0.145   2.722
    1TCM    cl1 1489   1.603   0.180   2.778
    1TCM    cl2 1490   1.875   0.124   2.863
    1TCM     h1 1491   1.768   0.051   2.662
    1TCM    cl3 1492   1.827   0.279   2.622
    1TCM     c1 1493   1.286   4.691   5.075
    1TCM    cl1 1494   1.408   4.740   4.955
    1TCM    cl2 1495   1.310   4.783   5.225
    1TCM     h1 1496   1.184   4.712   5.035
    1TCM    cl3 1497   1.302   4.517   5.109
    1TCM     c1 1498   5.110   0.280   4.509
    1TCM    cl1 1499   5.207   0.257   4.362
    1TCM    cl2 1500   5.111   0.452   4.554
    1TCM     h1 1501   5.005   0.248   4.490
    1TCM    cl3 1502   5.178   0.184   4.641
    1TCM     c1 1503   4.312   4.890   0.263
    1TCM    cl1 1504   4.464   4.889   0.171
    1TCM    cl2 1505   4.347   4.904   0.436
    1TCM     h1 1506   4.250   4.977   0.231
    1TCM    cl3 1507   4.223   4.739   0.232
    1TCM     c1 1508   0.561   2.791   4.001
    1TCM    cl1 1509   0.415   2.893   3.999
    1TCM    cl2 1510   0.617   2.763   3.835
    1TCM     h1 1511   0.641   2.842   4.059
    1TCM    cl3 1512   0.523   2.635   4.078
    1TCM     c1 1513   4.070   1.331   1.636
    1TCM    cl1 1514   4.220   1.331   1.541
    1TCM    cl2 1515   3.942   1.247   1.546
    1TCM     h1 1516   4.087   1.279   1.732
    1TCM    cl3 1517   4.020   1.498   1.667
    1TCM     c1 1518   1.419   4.879   0.378
    1TCM    cl1 1519   1.379   4.901   0.550
    1TCM    cl2 1520   1.592   4.911   0.353
    1TCM     h1 1521   1.396   4.775   0.348
    1TCM    cl3 1522   1.322   4.992   0.280
    1TCM     c1 1523   3.302   0.996   4.090
    1TCM    cl1 1524   3.322   0.828   4.145
    1TCM    cl2 1525   3.443   1.042   3.991
    1TCM     h1 1526   3.210   1.004   4.029
    1TCM    cl3 1527   3.290   1.104   4.230
    1TCM     c1 1528   4.590   3.499   3.720
    1TCM    cl1 1529   4.517   3.577   3.578
    1TCM    cl2 1530   4.462   3.456   3.836
    1TCM     h1 1531   4.643   3.406   3.688
    1TCM    cl3 1532   4.705   3.610   3.797
    1TCM     c1 1533   1.353   0.866   0.593
    1TCM    cl1 1534   1.197   0.950   0.613
    1TCM    cl2 1535   1.323   0.694   0.561
    1TCM     h1 1536   1.408   0.911   0.508
    1TCM    cl3 1537   1.448   0.882   0.743
    1TCM     c1 1538   1.292   1.950   1.086
    1TCM    cl1 1539   1.257   1.810   1.189
    1TCM    cl2 1540   1.146   1.995   0.995
    1TCM     h1 1541   1.324   2.036   1.149
    1TCM    cl3 1542   1.423   1.910   0.972
    1TCM     c1 1543   3.552   3.062   2.460
    1TCM    cl1 1544   3.543   3.223   2.536
    1TCM    cl2 1545   3.643   2.952   2.566
    1TCM     h1 1546   3.450   3.023   2.445
    1TCM    cl3 1547   3.635   3.075   2.303
    1TCM     c1 1548   3.238   3.545   2.841
    1TCM    cl1 1549   3.141   3.689   2.802
    1TCM    cl2 1550   3.273   3.543   3.015
    1TCM     h1 1551   3.181   3.454   2.813
    1TCM    cl3 1552   3.391   3.550   2.750
    1TCM     c1 1553   1.285   1.158   0.261
    1TCM    cl1 1554   1.430   1.253   0.302
    1TCM    cl2 1555   1.197   1.117   0.409
    1TCM     h1 1556   1.219   1.218   0.194
    1TCM    cl3 1557   1.334   1.009   0.177
    1TCM     c1 1558   3.057   0.234   0.864
    1TCM    cl1 1559   2.980   0.099   0.950
    1TCM    cl2 1560   3.231   0.237   0.903
    1TCM     h1 1561   3.044   0.220   0.755
    1TCM    cl3 1562   2.982   0.387   0.914
    1TCM     c1 1563   1.958   3.339   1.010
    1TCM    cl1 1564   2.078   3.466   0.979
    1TCM    cl2 1565   1.960   3.297   1.183
    1TCM     h1 1566   1.857   3.375   0.983
    1TCM    cl3 1567   1.997   3.195   0.914
    1TCM     c1 1568   2.968   3.778   1.995
    1TCM    cl1 1569   2.878   3.895   1.895
    1TCM    cl2 1570   3.127   3.846   2.036
    1TCM     h1 1571   2.911   3.758   2.088
    1TCM    cl3 1572   2.990   3.627   1.903
    1TCM     c1 1573   4.658   0.537   4.129
    1TCM    cl1 1574   4.491   0.478   4.151
    1TCM    cl2 1575   4.679   0.591   3.961
    1TCM     h1 1576   4.677   0.622   4.198
    1TCM    cl3 1577   4.772   0.406   4.164
    1TCM     c1 1578   4.662   3.013   4.774
    1TCM    cl1 1579   4.621   2.945   4.615
    1TCM    cl2 1580   4.718   3.180   4.755
    1TCM     h1 1581   4.572   3.011   4.839
    1TCM    cl3 1582   4.790   2.915   4.849
    1TCM     c1 1583   1.093   4.660   2.384
    1TCM    cl1 1584   1.026   4.782   2.495
    1TCM    cl2 1585   1.271   4.666   2.390
    1TCM     h1 1586   1.058   4.559   2.415
    1TCM    cl3 1587   1.038   4.694   2.218
    1TCM     c1 1588   5.131   0.215   0.361
    1TCM    cl1 1589   5.260   0.224   0.238
    1TCM    cl2 1590   4.982   0.285   0.294
    1TCM     h1 1591   5.114   0.110   0.389
    1TCM    cl3 1592   5.181   0.308   0.504
    1TCM     c1 1593   4.581   0.415   3.685
    1TCM    cl1 1594   4.598   0.271   3.788
    1TCM    cl2 1595   4.538   0.365   3.520
    1TCM     h1 1596   4.502   0.481   3.726
    1TCM    cl3 1597   4.735   0.504   3.681
    1TCM     c1 1598   3.611   5.095   4.449
    1TCM    cl1 1599   3.545   5.210   4.330
    1TCM    cl2 1600   3.556   5.140   4.611
    1TCM     h1 1601   3.576   4.993   4.424
    1TCM    cl3 1602   3.789   5.100   4.443
    1TCM     c1 1603   1.359   1.932   1.556
    1TCM    cl1 1604   1.518   2.008   1.578
    1TCM    cl2 1605   1.362   1.830   1.410
    1TCM     h1 1606   1.335   1.870   1.644
    1TCM    cl3 1607   1.235   2.058   1.537
    1TCM     c1 1608   3.345   1.719   2.865
    1TCM    cl1 1609   3.238   1.861   2.872
    1TCM    cl2 1610   3.250   1.572   2.893
    1TCM     h1 1611   3.393   1.714   2.765
    1TCM    cl3 1612   3.471   1.733   2.990
    1TCM     c1 1613   3.629   0.411   0.530
    1TCM    cl1 1614   3.592   0.359   0.365
    1TCM    cl2 1615   3.507   0.345   0.642
    1TCM     h1 1616   3.730   0.373   0.559
    1TCM    cl3 1617   3.627   0.588   0.539
    1TCM     c1 1618   0.594   1.432   1.985
    1TCM    cl1 1619   0.552   1.598   1.936
    1TCM    cl2 1620   0.718   1.438   2.113
    1TCM     h1 1621   0.504   1.381   2.023
    1TCM    cl3 1622   0.658   1.343   1.845
    1TCM     c1 1623   2.813   3.832   1.525
    1TCM    cl1 1624   2.971   3.765   1.569
    1TCM    cl2 1625   2.780   3.978   1.621
    1TCM     h1 1626   2.813   3.858   1.417
    1TCM    cl3 1627   2.686   3.711   1.556
    1TCM     c1 1628   2.447   2.546   4.385
    1TCM    cl1 1629   2.586   2.452   4.326
    1TCM    cl2 1630   2.404   2.492   4.549
    1TCM     h1 1631   2.474   2.653   4.387
    1TCM    cl3 1632   2.309   2.521   4.276
    1TCM     c1 1633   0.578   2.308   0.916
    1TCM    cl1 1634   0.635   2.362   0.756
    1TCM    cl2 1635   0.435   2.204   0.896
    1TCM     h1 1636   0.659   2.251   0.967
    1TCM    cl3 1637   0.535   2.450   1.014
    1TCM     c1 1638   2.610   0.500   1.619
    1TCM    cl1 1639   2.733   0.372   1.615
    1TCM    cl2 1640   2.588   0.566   1.455
    1TCM     h1 1641   2.514   0.458   1.655
    1TCM    cl3 1642   2.662   0.630   1.728
    1TCM     c1 1643   2.492   3.656   0.096
    1TCM    cl1 1644   2.377   3.535   0.034
    1TCM    cl2 1645   2.458   3.688   0.267
    1TCM     h1 1646   2.595   3.618   0.085
    1TCM    cl3 1647   2.474   3.807   0.003
    1TCM     c1 1648   0.176   3.465   4.978
    1TCM    cl1 1649   0.047   3.586   4.999
    1TCM    cl2 1650   0.209   3.444   4.804
    1TCM     h1 1651   0.268   3.500   5.028
    1TCM    cl3 1652   0.125   3.310   5.048
    1TCM     c1 1653   3.807   1.836   1.768
    1TCM    cl1 1654   3.911   1.881   1.905
    1TCM    cl2 1655   3.752   1.983   1.684
    1TCM     h1 1656   3.865   1.773   1.697
    1TCM    cl3 1657   3.666   1.745   1.827
    1TCM     c1 1658   2.226   2.819   2.763
    1TCM    cl1 1659   2.088   2.733   2.833
    1TCM    cl2 1660   2.191   2.859   2.593
    1TCM     h1 1661   2.245   2.912   2.820
    1TCM    cl3 1662   2.371   2.716   2.770
    1TCM     c1 1663   4.438   2.806   0.882
    1TCM    cl1 1664   4.324   2.899   0.981
    1TCM    cl2 1665   4.435   2.635   0.932
    1TCM     h1 1666   4.409   2.813   0.775
    1TCM    cl3 1667   4.602   2.870   0.903
    1TCM     c1 1668   5.135   4.314   1.760
    1TCM    cl1 1669   5.203   4.252   1.609
    1TCM    cl2 1670   5.188   4.212   1.896
    1TCM     h1 1671   5.169   4.418   1.777
    1TCM    cl3 1672   4.957   4.312   1.751
    1TCM     c1 1673   3.249   1.745   3.863
    1TCM    cl1 1674   3.267   1.666   3.704
    1TCM    cl2 1675   3.348   1.660   3.983
    1TCM     h1 1676   3.282   1.851   3.855
    1TCM    cl3 1677   3.078   1.740   3.912
    1TCM     c1 1678   0.915   3.745   2.399
    1TCM    cl1 1679   1.057   3.661   2.466
    1TCM    cl2 1680   0.832   3.834   2.529
    1TCM     h1 1681   0.948   3.816   2.321
    1TCM    cl3 1682   0.803   3.626   2.328
    1TCM     c1 1683   3.009   4.098   2.290
    1TCM    cl1 1684   3.055   4.236   2.188
    1TCM    cl2 1685   2.858   4.136   2.376
    1TCM     h1 1686   2.994   4.008   2.227
    1TCM    cl3 1687   3.138   4.067   2.409
    1TCM     c1 1688   1.388   2.979   2.422
    1TCM    cl1 1689   1.330   2.929   2.583
    1TCM    cl2 1690   1.273   2.924   2.298
    1TCM     h1 1691   1.396   3.089   2.419
    1TCM    cl3 1692   1.548   2.906   2.392
    1TCM     c1 1693   4.600   0.134   5.185
    1TCM    cl1 1694   4.529   0.290   5.230
    1TCM    cl2 1695   4.757   0.114   5.266
    1TCM     h1 1696   4.532   0.052   5.216
    1TCM    cl3 1697   4.623   0.128   5.009
    1TCM     c1 1698   4.139   4.915   2.383
    1TCM    cl1 1699   4.011   5.033   2.420
    1TCM    cl2 1700   4.217   4.863   2.533
    1TCM     h1 1701   4.094   4.827   2.332
    1TCM    cl3 1702   4.260   4.989   2.275
    1TCM     c1 1703   1.431   5.045   3.070
    1TCM    cl1 1704   1.474   5.155   2.937
    1TCM    cl2 1705   1.518   5.095   3.217
    1TCM     h1 1706   1.322   5.049   3.088
    1TCM    cl3 1707   1.478   4.879   3.026
    1TCM     c1 1708   3.431   5.021   3.746
    1TCM    cl1 1709   3.470   5.137   3.617
    1TCM    cl2 1710   3.261   5.040   3.794
    1TCM     h1 1711   3.447   4.917   3.708
    1TCM    cl3 1712   3.536   5.050   3.886
    1TCM     c1 1713   3.639   2.205   4.864
    1TCM    cl1 1714   3.767   2.109   4.785
    1TCM    cl2 1715   3.682   2.233   5.034
    1TCM     h1 1716   3.628   2.302   4.812
    1TCM    cl3 1717   3.485   2.116   4.856
    1TCM     c1 1718   4.869   4.190   2.521
    1TCM    cl1 1719   4.822   4.020   2.545
    1TCM    cl2 1720   4.805   4.249   2.366
    1TCM     h1 1721   4.828   4.252   2.604
    1TCM    cl3 1722   5.046   4.203   2.520
    1TCM     c1 1723   5.042   3.128   2.467
    1TCM    cl1 1724   4.966   2.973   2.422
    1TCM    cl2 1725   5.119   3.199   2.324
    1TCM     h1 1726   4.965   3.197   2.506
    1TCM    cl3 1727   5.165   3.099   2.592
    1TCM     c1 1728   1.395   2.318   0.981
    1TCM    cl1 1729   1.470   2.466   1.045
    1TCM    cl2 1730   1.312   2.354   0.829
    1TCM     h1 1731   1.474   2.242   0.963
    1TCM    cl3 1732   1.278   2.255   1.099
    1TCM     c1 1733   1.156   1.942   4.006
    1TCM    cl1 1734   1.255   1.804   4.055
    1TCM    cl2 1735   1.145   2.059   4.140
    1TCM     h1 1736   1.202   1.992   3.918
    1TCM    cl3 1737   0.992   1.886   3.964
    1TCM     c1 1738   4.132   3.565   1.269
    1TCM    cl1 1739   4.264   3.484   1.183
    1TCM    cl2 1740   4.180   3.593   1.438
    1TCM     h1 1741   4.111   3.663   1.221
    1TCM    cl3 1742   3.986   3.464   1.265
    1TCM     c1 1743   0.252   5.164   2.149
    1TCM    cl1 1744   0.371   5.283   2.093
    1TCM    cl2 1745   0.328   5.003   2.155
    1TCM     h1 1746   0.216   5.192   2.250
    1TCM    cl3 1747   0.115   5.160   2.036
    1TCM     c1 1748   1.341   2.516   1.776
    1TCM    cl1 1749   1.168   2.512   1.818
    1TCM    cl2 1750   1.437   2.543   1.924
    1TCM     h1 1751   1.370   2.419   1.730
    1TCM    cl3 1752   1.371   2.648   1.661
    1TCM     c1 1753   1.072   2.392   4.171
    1TCM    cl1 1754   1.108   2.274   4.300
    1TCM    cl2 1755   1.200   2.515   4.167
    1TCM     h1 1756   1.068   2.339   4.074
    1TCM    cl3 1757   0.916   2.469   4.204
    1TCM     c1 1758   1.114   0.899   5.189
    1TCM    cl1 1759   1.023   1.048   5.224
    1TCM    cl2 1760   1.181   0.907   5.025
    1TCM     h1 1761   1.197   0.888   5.262
    1TCM    cl3 1762   1.005   0.759   5.202
    1TCM     c1 1763   3.620   3.026   0.955
    1TCM    cl1 1764   3.730   3.161   0.918
    1TCM    cl2 1765   3.547   3.051   1.115
    1TCM     h1 1766   3.540   3.021   0.878
    1TCM    cl3 1767   3.711   2.873   0.955
    1TCM     c1 1768   3.674   4.992   3.005
    1TCM    cl1 1769   3.620   5.077   2.858
    1TCM    cl2 1770   3.533   4.955   3.107
    1TCM     h1 1771   3.725   4.898   2.977
    1TCM    cl3 1772   3.786   5.096   3.095
    1TCM     c1 1773   4.607   3.197   5.170
    1TCM    cl1 1774   4.695   3.317   5.072
    1TCM    cl2 1775   4.610   3.246   5.341
    1TCM     h1 1776   4.502   3.191   5.135
    1TCM    cl3 1777   4.685   3.038   5.152
    1TCM     c1 1778   4.466   2.815   2.963
    1TCM    cl1 1779   4.481   2.900   3.118
    1TCM    cl2 1780   4.464   2.933   2.830
    1TCM     h1 1781   4.552   2.746   2.950
    1TCM    cl3 1782   4.315   2.721   2.961
    1TCM     c1 1783   2.342   4.465   3.606
    1TCM    cl1 1784   2.237   4.552   3.720
    1TCM    cl2 1785   2.315   4.527   3.441
    1TCM     h1 1786   2.448   4.481   3.634
    1TCM    cl3 1787   2.305   4.292   3.611
    1TCM     c1 1788   3.621   2.282   0.926
    1TCM    cl1 1789   3.568   2.452   0.929
    1TCM    cl2 1790   3.533   2.195   0.798
    1TCM     h1 1791   3.730   2.277   0.906
    1TCM    cl3 1792   3.586   2.206   1.083
    1TCM     c1 1793   2.412   2.001   2.608
    1TCM    cl1 1794   2.265   1.924   2.544
    1TCM    cl2 1795   2.387   2.045   2.778
    1TCM     h1 1796   2.497   1.930   2.600
    1TCM    cl3 1797   2.448   2.148   2.514
    1TCM     c1 1798   2.912   2.896   3.488
    1TCM    cl1 1799   2.792   2.768   3.520
    1TCM    cl2 1800   3.037   2.892   3.614
    1TCM     h1 1801   2.958   2.879   3.389
    1TCM    cl3 1802   2.830   3.054   3.490
    1TCM     c1 1803   5.023   1.906   1.684
    1TCM    cl1 1804   5.017   1.832   1.846
    1TCM    cl2 1805   4.906   2.040   1.678
    1TCM     h1 1806   5.125   1.945   1.665
    1TCM    cl3 1807   4.981   1.785   1.561
    1TCM     c1 1808   1.643   1.365   3.588
    1TCM    cl1 1809   1.793   1.363   3.493
    1TCM    cl2 1810   1.614   1.529   3.650
    1TCM     h1 1811   1.559   1.333   3.524
    1TCM    cl3 1812   1.659   1.252   3.725
    1TCM     c1 1813   3.410   4.175   2.247
    1TCM    cl1 1814   3.461   4.300   2.131
    1TCM    cl2 1815   3.261   4.097   2.190
    1TCM     h1 1816   3.490   4.099   2.257
    1TCM    cl3 1817   3.380   4.251   2.406
    1TCM     c1 1818   2.061   3.572   0.480
    1TCM    cl1 1819   2.153   3.556   0.631
    1TCM    cl2 1820   2.113   3.446   0.366
    1TCM     h1 1821   1.953   3.561   0.501
    1TCM    cl3 1822   2.092   3.732   0.408
    1TCM     c1 1823   4.612   2.142   3.249
    1TCM    cl1 1824   4.722   2.282   3.263
    1TCM    cl2 1825   4.502   2.139   3.389
    1TCM     h1 1826   4.553   2.151   3.156
    1TCM    cl3 1827   4.707   1.992   3.245
    1TCM     c1 1828   2.487   3.917   1.418
    1TCM    cl1 1829   2.445   4.067   1.504
    1TCM    cl2 1830   2.474   3.944   1.243
    1TCM     h1 1831   2.591   3.888   1.444
    1TCM    cl3 1832   2.375   3.788   1.467
    1TCM     c1 1833   1.017   4.983   4.713
    1TCM    cl1 1834   0.919   5.131   4.710
    1TCM    cl2 1835   0.959   4.876   4.842
    1TCM     h1 1836   1.009   4.931   4.615
    1TCM    cl3 1837   1.187   5.025   4.744
    1TCM     c1 1838   3.724   3.192   3.684
    1TCM    cl1 1839   3.893   3.149   3.652
    1TCM    cl2 1840   3.653   3.075   3.797
    1TCM     h1 1841   3.719   3.294   3.729
    1TCM    cl3 1842   3.632   3.190   3.532
    1TCM     c1 1843   3.769   3.885   1.224
    1TCM    cl1 1844   3.773   3.745   1.333
    1TCM    cl2 1845   3.901   3.997   1.264
    1TCM     h1 1846   3.780   3.851   1.119
    1TCM    cl3 1847   3.613   3.970   1.242
    1TCM     c1 1848   2.542   1.311   3.955
    1TCM    cl1 1849   2.715   1.286   3.921
    1TCM    cl2 1850   2.524   1.409   4.102
    1TCM     h1 1851   2.494   1.363   3.870
    1TCM    cl3 1852   2.464   1.153   3.980
    1TCM     c1 1853   2.151   3.596   4.877
    1TCM    cl1 1854   2.177   3.739   4.980
    1TCM    cl2 1855   2.141   3.648   4.707
    1TCM     h1 1856   2.236   3.526   4.889
    1TCM    cl3 1857   2.000   3.516   4.924
    1TCM     c1 1858   4.252   3.839   3.171
    1TCM    cl1 1859   4.111   3.801   3.273
    1TCM    cl2 1860   4.307   4.004   3.205
    1TCM     h1 1861   4.334   3.767   3.193
    1TCM    cl3 1862   4.207   3.825   2.999
    1TCM     c1 1863   3.083   1.594   4.994
    1TCM    cl1 1864   3.005   1.495   5.119
    1TCM    cl2 1865   3.030   1.540   4.833
    1TCM     h1 1866   3.055   1.701   5.009
    1TCM    cl3 1867   3.260   1.577   5.007
    1TCM     c1 1868   2.556   3.957   5.159
    1TCM    cl1 1869   2.706   3.863   5.145
    1TCM    cl2 1870   2.596   4.130   5.175
    1TCM     h1 1871   2.494   3.942   5.068
    1TCM    cl3 1872   2.465   3.904   5.301
    1TCM     c1 1873   0.631   0.563   4.150
    1TCM    cl1 1874   0.688   0.662   4.287
    1TCM    cl2 1875   0.726   0.602   4.005
    1TCM     h1 1876   0.643   0.456   4.175
    1TCM    cl3 1877   0.459   0.598   4.120
    1TCM     c1 1878   3.562   0.911   1.997
    1TCM    cl1 1879   3.597   1.072   2.064
    1TCM    cl2 1880   3.386   0.889   1.985
    1TCM     h1 1881   3.608   0.903   1.895
    1TCM    cl3 1882   3.631   0.787   2.103
    1TCM     c1 1883   2.853   0.104   2.557
    1TCM    cl1 1884   3.022   0.093   2.502
    1TCM    cl2 1885   2.746   0.039   2.431
    1TCM     h1 1886   2.841   0.046   2.651
    1TCM    cl3 1887   2.812   0.275   2.588
    1TCM     c1 1888   2.685   4.551   2.514
    1TCM    cl1 1889   2.596   4.397   2.514
    1TCM    cl2 1890   2.670   4.628   2.354
    1TCM     h1 1891   2.643   4.619   2.591
    1TCM    cl3 1892   2.857   4.521   2.549
    1TCM     c1 1893   0.799   0.930   2.010
    1TCM    cl1 1894   0.924   1.056   2.000
    1TCM    cl2 1895   0.686   0.949   1.873
    1TCM     h1 1896   0.846   0.830   2.005
    1TCM    cl3 1897   0.709   0.947   2.162
    1TCM     c1 1898   2.354   4.415   3.136
    1TCM    cl1 1899   2.363   4.581   3.075
    1TCM    cl2 1900   2.465   4.397   3.275
    1TCM     h1 1901   2.251   4.392   3.169
    1TCM    cl3 1902   2.402   4.302   3.008
    1TCM     c1 1903   4.260   1.858   4.790
    1TCM    cl1 1904   4.340   1.781   4.651
    1TCM    cl2 1905   4.296   1.765   4.937
    1TCM     h1 1906   4.298   1.961   4.802
    1TCM    cl3 1907   4.085   1.861   4.763
    1TCM     c1 1908   0.286   0.614   0.198
    1TCM    cl1 1909   0.438   0.548   0.263
    1TCM    cl2 1910   0.284   0.595   0.022
    1TCM     h1 1911   0.200   0.559   0.242
    1TCM    cl3 1912   0.274   0.786   0.240
    1TCM     c1 1913   3.893   3.900   5.160
    1TCM    cl1 1914   3.936   4.018   5.034
    1TCM    cl2 1915   3.905   3.977   5.320
    1TCM     h1 1916   3.789   3.865   5.143
    1TCM    cl3 1917   4.005   3.762   5.152
    1TCM     c1 1918   2.013   2.279   2.669
    1TCM    cl1 1919   2.175   2.349   2.691
    1TCM    cl2 1920   1.903   2.404   2.606
    1TCM     h1 1921   2.019   2.195   2.597
    1TCM    cl3 1922   1.953   2.220   2.825
    1TCM     c1 1923   2.106   4.111   1.548
    1TCM    cl1 1924   1.986   4.081   1.676
    1TCM    cl2 1925   2.261   4.158   1.622
    1TCM     h1 1926   2.120   4.019   1.488
    1TCM    cl3 1927   2.049   4.243   1.443
    1TCM     c1 1928   4.109   3.630   1.915
    1TCM    cl1 1929   4.096   3.644   1.738
    1TCM    cl2 1930   4.130   3.792   1.986
    1TCM     h1 1931   4.017   3.583   1.955
    1TCM    cl3 1932   4.250   3.529   1.956
    1TCM     c1 1933   2.648   4.678   0.688
    1TCM    cl1 1934   2.727   4.751   0.547
    1TCM    cl2 1935   2.628   4.503   0.660
    1TCM     h1 1936   2.710   4.694   0.778
    1TCM    cl3 1937   2.488   4.753   0.711
    1TCM     c1 1938   2.826   2.380   4.694
    1TCM    cl1 1939   2.826   2.342   4.867
    1TCM    cl2 1940   2.821   2.228   4.600
    1TCM     h1 1941   2.738   2.442   4.669
    1TCM    cl3 1942   2.974   2.470   4.653
    1TCM     c1 1943   1.560   3.339   2.688
    1TCM    cl1 1944   1.475   3.434   2.812
    1TCM    cl2 1945   1.605   3.445   2.553
    1TCM     h1 1946   1.652   3.295   2.732
    1TCM    cl3 1947   1.454   3.209   2.629
    1TCM     c1 1948   0.735   4.129   4.893
    1TCM    cl1 1949   0.905   4.107   4.942
    1TCM    cl2 1950   0.636   4.161   5.037
    1TCM     h1 1951   0.728   4.215   4.823
    1TCM    cl3 1952   0.677   3.982   4.812
    1TCM     c1 1953   0.185   2.393   1.809
    1TCM    cl1 1954   0.085   2.280   1.716
    1TCM    cl2 1955   0.085   2.475   1.931
    1TCM     h1 1956   0.266   2.337   1.861
    1TCM    cl3 1957   0.257   2.514   1.700
    1TCM     c1 1958   4.424   0.920   4.104
    1TCM    cl1 1959   4.388   1.070   4.192
    1TCM    cl2 1960   4.514   0.958   3.956
    1TCM     h1 1961   4.484   0.853   4.169
    1TCM    cl3 1962   4.271   0.839   4.062
    1TCM     c1 1963   3.961   1.129   0.459
    1TCM    cl1 1964   4.081   1.252   0.412
    1TCM    cl2 1965   3.903   1.162   0.624
    1TCM     h1 1966   3.875   1.132   0.389
    1TCM    cl3 1967   4.036   0.968   0.454
    1TCM     c1 1968   1.897   1.735   3.940
    1TCM    cl1 1969   1.845   1.626   3.809
    1TCM    cl2 1970   1.770   1.855   3.971
    1TCM     h1 1971   1.914   1.675   4.032
    1TCM    cl3 1972   2.047   1.817   3.893
    1TCM     c1 1973   0.310   1.843   2.065
    1TCM    cl1 1974   0.277   1.839   1.890
    1TCM    cl2 1975   0.261   1.689   2.138
    1TCM     h1 1976   0.419   1.859   2.081
    1TCM    cl3 1977   0.219   1.976   2.139
    1TCM     c1 1978   1.625   0.588   3.419
    1TCM    cl1 1979   1.509   0.649   3.540
    1TCM    cl2 1980   1.536   0.516   3.283
    1TCM     h1 1981   1.687   0.672   3.383
    1TCM    cl3 1982   1.728   0.464   3.494
    1TCM     c1 1983   2.288   4.204   1.192
    1TCM    cl1 1984   2.321   4.205   1.367
    1TCM    cl2 1985   2.345   4.356   1.119
    1TCM     h1 1986   2.341   4.118   1.145
    1TCM    cl3 1987   2.113   4.187   1.164
    1TCM     c1 1988   3.495   1.718   4.335
    1TCM    cl1 1989   3.476   1.692   4.160
    1TCM    cl2 1990   3.335   1.743   4.408
    1TCM     h1 1991   3.543   1.628   4.380
    1TCM    cl3 1992   3.597   1.861   4.363
    1TCM     c1 1993   2.307   3.693   4.266
    1TCM    cl1 1994   2.341   3.796   4.407
    1TCM    cl2 1995   2.226   3.790   4.141
    1TCM     h1 1996   2.402   3.652   4.226
    1TCM    cl3 1997   2.201   3.559   4.315
    1TCM     c1 1998   3.155   0.983   4.947
    1TCM    cl1 1999   3.247   0.932   4.804
    1TCM    cl2 2000   3.225   1.134   5.011
    1TCM     h1 2001   3.049   1.001   4.918
    1TCM    cl3 2002   3.163   0.857   5.071
    1TCM     c1 2003   3.029   2.686   2.493
    1TCM    cl1 2004   2.936   2.792   2.385
    1TCM    cl2 2005   3.153   2.782   2.577
    1TCM     h1 2006   2.961   2.640   2.567
    1TCM    cl3 2007   3.108   2.558   2.397
    1TCM     c1 2008   4.757   4.241   0.867
    1TCM    cl1 2009   4.809   4.405   0.821
    1TCM    cl2 2010   4.851   4.187   1.008
    1TCM     h1 2011   4.649   4.242   0.892
    1TCM    cl3 2012   4.785   4.129   0.731
    1TCM     c1 2013   2.059   2.896   4.445
    1TCM    cl1 2014   2.187   2.773   4.451
    1TCM    cl2 2015   2.061   2.990   4.596
    1TCM     h1 2016   2.077   2.964   4.359
    1TCM    cl3 2017   1.901   2.817   4.426
    1TCM     c1 2018   2.598   4.124   4.426
    1TCM    cl1 2019   2.445   4.097   4.513
    1TCM    cl2 2020   2.565   4.138   4.252
    1TCM     h1 2021   2.645   4.218   4.462
    1TCM    cl3 2022   2.708   3.987   4.455
    1TCM     c1 2023   4.441   5.176   2.653
    1TCM    cl1 2024   4.551   5.253   2.769
    1TCM    cl2 2025   4.273   5.193   2.710
    1TCM     h1 2026   4.451   5.224   2.554
    1TCM    cl3 2027   4.482   5.003   2.639
    1TCM     c1 2028   1.893   3.723   2.069
    1TCM    cl1 2029   1.904   3.897   2.031
    1TCM    cl2 2030   1.819   3.702   2.229
    1TCM     h1 2031   1.832   3.672   1.992
    1TCM    cl3 2032   2.057   3.653   2.069
    1TCM     c1 2033   3.468   0.744   1.005
    1TCM    cl1 2034   3.529   0.705   1.168
    1TCM    cl2 2035   3.304   0.680   0.986
    1TCM     h1 2036   3.467   0.854   0.991
    1TCM    cl3 2037   3.575   0.671   0.883
    1TCM     c1 2038   0.331   3.694   3.032
    1TCM    cl1 2039   0.399   3.854   3.072
    1TCM    cl2 2040   0.406   3.634   2.882
    1TCM     h1 2041   0.352   3.623   3.115
    1TCM    cl3 2042   0.156   3.708   3.009
    1TCM     c1 2043   2.784   2.651   4.926
    1TCM    cl1 2044   2.717   2.666   4.762
    1TCM    cl2 2045   2.676   2.551   5.026
    1TCM     h1 2046   2.884   2.603   4.920
    1TCM    cl3 2047   2.800   2.812   4.999
    1TCM     c1 2048   2.278   0.659   0.687
    1TCM    cl1 2049   2.257   0.719   0.521
    1TCM    cl2 2050   2.120   0.650   0.767
    1TCM     h1 2051   2.324   0.558   0.684
    1TCM    cl3 2052   2.384   0.770   0.778
    1TCM     c1 2053   2.948   0.367   2.283
    1TCM    cl1 2054   3.016   0.338   2.445
    1TCM    cl2 2055   2.785   0.437   2.298
    1TCM     h1 2056   3.014   0.438   2.228
    1TCM    cl3 2057   2.939   0.214   2.194
    1TCM     c1 2058   1.759   3.550   4.680
    1TCM    cl1 2059   1.894   3.665   4.664
    1TCM    cl2 2060   1.801   3.426   4.800
    1TCM     h1 2061   1.668   3.604   4.713
    1TCM    cl3 2062   1.728   3.473   4.523
    1TCM     c1 2063   0.836   2.782   0.778
    1TCM    cl1 2064   0.946   2.877   0.676
    1TCM    cl2 2065   0.824   2.857   0.938
    1TCM     h1 2066   0.735   2.778   0.731
    1TCM    cl3 2067   0.899   2.616   0.795
    1TCM     c1 2068   2.968   0.233   3.330
    1TCM    cl1 2069   2.964   0.232   3.507
    1TCM    cl2 2070   2.959   0.065   3.270
    1TCM     h1 2071   2.882   0.291   3.290
    1TCM    cl3 2072   3.120   0.307   3.274
    1TCM     c1 2073   2.127   3.029   1.165
    1TCM    cl1 2074   2.214   2.945   1.295
    1TCM    cl2 2075   1.953   3.026   1.199
    1TCM     h1 2076   2.162   3.135   1.160
    1TCM    cl3 2077   2.159   2.948   1.010
    1TCM     c1 2078   3.072   5.170   4.041
    1TCM    cl1 2079   3.219   5.111   4.122
    1TCM    cl2 2080   3.042   5.072   3.895
    1TCM     h1 2081   2.986   5.163   4.109
    1TCM    cl3 2082   3.095   5.340   3.993
    1TCM     c1 2083   2.983   3.308   0.112
    1TCM    cl1 2084   2.839   3.287   0.010
    1TCM    cl2 2085   3.116   3.375   0.015
    1TCM     h1 2086   2.960   3.377   0.196
    1TCM    cl3 2087   3.032   3.150   0.178
    1TCM     c1 2088   0.315   0.343   4.314
    1TCM    cl1 2089   0.317   0.239   4.458
    1TCM    cl2 2090   0.317   0.514   4.364
    1TCM     h1 2091   0.405   0.322   4.252
    1TCM    cl3 2092   0.168   0.311   4.219
    1TCM     c1 2093   2.462   2.651   3.947
    1TCM    cl1 2094   2.384   2.806   3.911
    1TCM    cl2 2095   2.566   2.669   4.090
    1TCM     h1 2096   2.385   2.574   3.967
    1TCM    cl3 2097   2.561   2.600   3.808
    1TCM     c1 2098   0.762   1.355   0.130
    1TCM    cl1 2099   0.589   1.356   0.171
    1TCM    cl2 2100   0.791   1.238   0.000
    1TCM     h1 2101   0.792   1.457   0.096
    1TCM    cl3 2102   0.856   1.310   0.274
    1TCM     c1 2103   4.675   2.986   1.949
    1TCM    cl1 2104   4.764   3.013   1.797
    1TCM    cl2 2105   4.569   2.844   1.931
    1TCM     h1 2106   4.747   2.968   2.031
    1TCM    cl3 2107   4.576   3.129   1.986
    1TCM     c1 2108   3.111   3.237   0.597
    1TCM    cl1 2109   3.060   3.394   0.662
    1TCM    cl2 2110   3.261   3.185   0.678
    1TCM     h1 2111   3.032   3.162   0.615
    1TCM    cl3 2112   3.141   3.252   0.422
    1TCM     c1 2113   2.593   4.877   1.559
    1TCM    cl1 2114   2.537   4.791   1.704
    1TCM    cl2 2115   2.672   5.028   1.606
    1TCM     h1 2116   2.665   4.813   1.503
    1TCM    cl3 2117   2.453   4.913   1.454
    1TCM     c1 2118   2.707   4.084   4.870
    1TCM    cl1 2119   2.882   4.062   4.850
    1TCM    cl2 2120   2.626   3.926   4.860
    1TCM     h1 2121   2.686   4.130   4.969
    1TCM    cl3 2122   2.645   4.190   4.741
    1TCM     c1 2123   3.894   3.886   2.773
    1TCM    cl1 2124   4.021   3.889   2.898
    1TCM    cl2 2125   3.968   3.900   2.613
    1TCM     h1 2126   3.838   3.790   2.780
    1TCM    cl3 2127   3.782   4.022   2.799
    1TCM     c1 2128   2.299   1.528   2.499
    1TCM    cl1 2129   2.358   1.364   2.532
    1TCM    cl2 2130   2.164   1.520   2.382
    1TCM     h1 2131   2.263   1.575   2.593
    1TCM    cl3 2132   2.431   1.626   2.430
    1TCM     c1 2133   4.902   2.401   0.651
    1TCM    cl1 2134   4.724   2.397   0.637
    1TCM    cl2 2135   4.959   2.569   0.632
    1TCM     h1 2136   4.932   2.362   0.750
    1TCM    cl3 2137   4.973   2.300   0.524
    1TCM     c1 2138   4.219   0.584   3.168
    1TCM    cl1 2139   4.076   0.659   3.093
    1TCM    cl2 2140   4.174   0.516   3.326
    1TCM     h1 2141   4.257   0.503   3.103
    1TCM    cl3 2142   4.345   0.707   3.190
    1TCM     c1 2143   4.868   2.369   0.217
    1TCM    cl1 2144   5.027   2.447   0.197
    1TCM    cl2 2145   4.889   2.193   0.227
    1TCM     h1 2146   4.821   2.406   0.311
    1TCM    cl3 2147   4.765   2.409   0.078
    1TCM     c1 2148   3.400   1.289   1.086
    1TCM    cl1 2149   3.402   1.330   1.259
    1TCM    cl2 2150   3.329   1.127   1.064
    1TCM     h1 2151   3.339   1.363   1.031
    1TCM    cl3 2152   3.566   1.289   1.022
    1TCM     c1 2153   2.813   4.499   4.747
    1TCM    cl1 2154   2.641   4.495   4.790
    1TCM    cl2 2155   2.858   4.345   4.669
    1TCM     h1 2156   2.832   4.582   4.676
    1TCM    cl3 2157   2.911   4.521   4.893
    1TCM     c1 2158   1.564   5.265   0.627
    1TCM    cl1 2159   1.604   5.339   0.470
    1TCM    cl2 2160   1.672   5.126   0.656
    1TCM     h1 2161   1.578   5.340   0.708
    1TCM    cl3 2162   1.395   5.210   0.627
    1TCM     c1 2163   1.428   3.302   4.496
    1TCM    cl1 2164   1.520   3.351   4.639
    1TCM    cl2 2165   1.498   3.377   4.351
    1TCM     h1 2166   1.431   3.191   4.485
    1TCM    cl3 2167   1.259   3.354   4.514
    1TCM     c1 2168   1.160   2.309   2.464
    1TCM    cl1 2169   1.314   2.354   2.541
    1TCM    cl2 2170   1.192   2.216   2.316
    1TCM     h1 2171   1.100   2.248   2.534
    1TCM    cl3 2172   1.069   2.457   2.422
    1TCM     c1 2173   1.421   1.299   0.649
    1TCM    cl1 2174   1.254   1.344   0.690
    1TCM    cl2 2175   1.528   1.338   0.785
    1TCM     h1 2176   1.425   1.190   0.629
    1TCM    cl3 2177   1.473   1.388   0.505
    1TCM     c1 2178   0.340   5.204   3.258
    1TCM    cl1 2179   0.261   5.153   3.107
    1TCM    cl2 2180   0.514   5.227   3.228
    1TCM     h1 2181   0.296   5.300   3.293
    1TCM    cl3 2182   0.317   5.079   3.382
    1TCM     c1 2183   2.801   3.978   0.326
    1TCM    cl1 2184   2.661   3.876   0.287
    1TCM    cl2 2185   2.780   4.139   0.253
    1TCM     h1 2186   2.810   3.988   0.436
    1TCM    cl3 2187   2.949   3.903   0.261
    1TCM     c1 2188   5.089   1.760   0.907
    1TCM    cl1 2189   5.207   1.868   0.984
    1TCM    cl2 2190   5.126   1.592   0.950
    1TCM     h1 2191   4.987   1.786   0.942
    1TCM    cl3 2192   5.098   1.779   0.730
    1TCM     c1 2193   3.272   4.755   4.101
    1TCM    cl1 2194   3.271   4.867   3.963
    1TCM    cl2 2195   3.145   4.633   4.079
    1TCM     h1 2196   3.371   4.705   4.107
    1TCM    cl3 2197   3.243   4.845   4.251
    1TCM     c1 2198   0.417   3.249   3.489
    1TCM    cl1 2199   0.503   3.111   3.559
    1TCM    cl2 2200   0.271   3.192   3.404
    1TCM     h1 2201   0.387   3.319   3.570
    1TCM    cl3 2202   0.523   3.334   3.374
    1TCM     c1 2203   2.822   0.408   1.934
    1TCM    cl1 2204   2.645   0.413   1.928
    1TCM    cl2 2205   2.876   0.247   1.986
    1TCM     h1 2206   2.863   0.430   1.832
    1TCM    cl3 2207   2.881   0.531   2.048
    1TCM     c1 2208   4.834   5.021   4.338
    1TCM    cl1 2209   4.739   5.031   4.488
    1TCM    cl2 2210   4.749   4.919   4.220
    1TCM     h1 2211   4.848   5.123   4.296
    1TCM    cl3 2212   4.993   4.950   4.374
    1TCM     c1 2213   4.100   0.981   2.046
    1TCM    cl1 2214   4.076   0.854   2.168
    1TCM    cl2 2215   4.104   1.140   2.127
    1TCM     h1 2216   4.195   0.964   1.993
    1TCM    cl3 2217   3.965   0.978   1.930
    1TCM     c1 2218   2.335   4.761   2.406
    1TCM    cl1 2219   2.388   4.610   2.328
    1TCM    cl2 2220   2.265   4.724   2.566
    1TCM     h1 2221   2.421   4.828   2.419
    1TCM    cl3 2222   2.212   4.840   2.305
    1TCM     c1 2223   2.276   2.640   0.895
    1TCM    cl1 2224   2.332   2.503   0.796
    1TCM    cl2 2225   2.322   2.613   1.064
    1TCM     h1 2226   2.322   2.734   0.858
    1TCM    cl3 2227   2.099   2.654   0.883
    1TCM     c1 2228   2.123   4.734   0.345
    1TCM    cl1 2229   2.222   4.657   0.219
    1TCM    cl2 2230   2.031   4.869   0.274
    1TCM     h1 2231   2.053   4.659   0.388
    1TCM    cl3 2232   2.229   4.796   0.474
    1TCM     c1 2233   3.669   1.128   2.397
    1TCM    cl1 2234   3.538   1.020   2.447
    1TCM    cl2 2235   3.785   1.038   2.296
    1TCM     h1 2236   3.627   1.212   2.338
    1TCM    cl3 2237   3.753   1.191   2.540
    1TCM     c1 2238   3.740   4.011   0.850
    1TCM    cl1 2239   3.737   4.121   0.711
    1TCM    cl2 2240   3.802   3.853   0.800
    1TCM     h1 2241   3.805   4.053   0.929
    1TCM    cl3 2242   3.575   3.993   0.914
    1TCM     c1 2243   1.727   4.319   2.089
    1TCM    cl1 2244   1.868   4.362   1.989
    1TCM    cl2 2245   1.748   4.385   2.253
    1TCM     h1 2246   1.635   4.361   2.044
    1TCM    cl3 2247   1.714   4.142   2.099
    1TCM     c1 2248   4.997   2.829   3.072
    1TCM    cl1 2249   4.869   2.762   2.969
    1TCM    cl2 2250   4.962   2.792   3.242
    1TCM     h1 2251   5.095   2.783   3.044
    1TCM    cl3 2252   5.006   3.005   3.049
    1TCM     c1 2253   1.666   1.304   2.256
    1TCM    cl1 2254   1.585   1.389   2.389
    1TCM    cl2 2255   1.568   1.317   2.108
    1TCM     h1 2256   1.766   1.349   2.238
    1TCM    cl3 2257   1.686   1.132   2.299
    1TCM     c1 2258   1.053   4.487   0.258
    1TCM    cl1 2259   1.047   4.471   0.081
    1TCM    cl2 2260   1.080   4.326   0.331
    1TCM     h1 2261   1.137   4.554   0.287
    1TCM    cl3 2262   0.900   4.554   0.317
    1TCM     c1 2263   3.151   2.701   0.931
    1TCM    cl1 2264   3.187   2.868   0.882
    1TCM    cl2 2265   3.110   2.697   1.104
    1TCM     h1 2266   3.065   2.663   0.872
    1TCM    cl3 2267   3.293   2.599   0.901
    1TCM     c1 2268   0.611   1.990   2.505
    1TCM    cl1 2269   0.455   1.959   2.586
    1TCM    cl2 2270   0.743   1.974   2.624
    1TCM     h1 2271   0.626   1.915   2.424
    1TCM    cl3 2272   0.612   2.154   2.437
    1TCM     c1 2273   2.612   0.778   4.997
    1TCM    cl1 2274   2.621   0.830   4.827
    1TCM    cl2 2275   2.737   0.862   5.091
    1TCM     h1 2276   2.512   0.803   5.038
    1TCM    cl3 2277   2.638   0.603   5.007
    1TCM     c1 2278   0.423   4.315   4.218
    1TCM    cl1 2279   0.518   4.452   4.157
    1TCM    cl2 2280   0.252   4.362   4.231
    1TCM     h1 2281   0.432   4.229   4.147
    1TCM    cl3 2282   0.484   4.266   4.378
    1TCM     c1 2283   5.042   3.978   1.605
    1TCM    cl1 2284   5.012   4.010   1.778
    1TCM    cl2 2285   5.217   3.981   1.574
    1TCM     h1 2286   5.001   3.879   1.579
    1TCM    cl3 2287   4.963   4.104   1.508
    1TCM     c1 2288   2.586   2.322   0.422
    1TCM    cl1 2289   2.627   2.250   0.579
    1TCM    cl2 2290   2.493   2.206   0.326
    1TCM     h1 2291   2.526   2.414   0.438
    1TCM    cl3 2292   2.736   2.364   0.335
    1TCM     c1 2293   5.188   5.032   3.601
    1TCM    cl1 2294   5.143   5.160   3.486
    1TCM    cl2 2295   5.223   5.103   3.760
    1TCM     h1 2296   5.104   4.960   3.610
    1TCM    cl3 2297   5.333   4.947   3.541
    1TCM     c1 2298   3.305   2.512   2.167
    1TCM    cl1 2299   3.384   2.666   2.210
    1TCM    cl2 2300   3.135   2.542   2.127
    1TCM     h1 2301   3.357   2.468   2.080
    1TCM    cl3 2302   3.315   2.400   2.305
    1TCM     c1 2303   4.058   1.254   5.148
    1TCM    cl1 2304   3.998   1.126   5.040
    1TCM    cl2 2305   4.236   1.250   5.149
    1TCM     h1 2306   4.024   1.352   5.111
    1TCM    cl3 2307   3.997   1.227   5.312
    1TCM     c1 2308   1.098   2.016   4.534
    1TCM    cl1 2309   1.197   2.023   4.682
    1TCM    cl2 2310   0.927   1.997   4.579
    1TCM     h1 2311   1.111   2.110   4.477
    1TCM    cl3 2312   1.148   1.877   4.435
    1TCM     c1 2313   0.397   0.402   2.177
    1TCM    cl1 2314   0.357   0.574   2.202
    1TCM    cl2 2315   0.405   0.368   2.003
    1TCM     h1 2316   0.495   0.380   2.224
    1TCM    cl3 2317   0.272   0.301   2.252
    1TCM     c1 2318   3.812   0.440   1.100
    1TCM    cl1 2319   3.728   0.288   1.061
    1TCM    cl2 2320   3.829   0.538   0.952
    1TCM     h1 2321   3.754   0.496   1.175
    1TCM    cl3 2322   3.974   0.403   1.165
    1TCM     c1 2323   3.181   2.263   3.642
    1TCM    cl1 2324   3.357   2.250   3.669
    1TCM    cl2 2325   3.104   2.108   3.681
    1TCM     h1 2326   3.140   2.343   3.707
    1TCM    cl3 2327   3.150   2.304   3.472
    1TCM     c1 2328   3.736   2.841   3.511
    1TCM    cl1 2329   3.818   2.703   3.434
    1TCM    cl2 2330   3.747   2.983   3.405
    1TCM     h1 2331   3.629   2.815   3.528
    1TCM    cl3 2332   3.814   2.877   3.667
    1TCM     c1 2333   3.181   4.427   1.873
    1TCM    cl1 2334   3.165   4.331   2.022
    1TCM    cl2 2335   3.276   4.335   1.754
    1TCM     h1 2336   3.081   4.449   1.832
    1TCM    cl3 2337   3.264   4.580   1.910
    1TCM     c1 2338   0.528   1.299   4.227
    1TCM    cl1 2339   0.363   1.233   4.222
    1TCM    cl2 2340   0.639   1.179   4.297
    1TCM     h1 2341   0.561   1.323   4.123
    1TCM    cl3 2342   0.530   1.447   4.326
    1TCM     c1 2343   0.377   1.801   1.603
    1TCM    cl1 2344   0.346   1.957   1.684
    1TCM    cl2 2345   0.379   1.671   1.724
    1TCM     h1 2346   0.296   1.782   1.529
    1TCM    cl3 2347   0.534   1.808   1.520
    1TCM     c1 2348   0.874   3.515   0.064
    1TCM    cl1 2349   0.840   3.677  -0.000
    1TCM    cl2 2350   1.037   3.464   0.014
    1TCM     h1 2351   0.868   3.517   0.175
    1TCM    cl3 2352   0.754   3.399   0.001
    1TCM     c1 2353   3.615   1.300   1.502
    1TCM    cl1 2354   3.609   1.186   1.366
    1TCM    cl2 2355   3.539   1.225   1.645
    1TCM     h1 2356   3.720   1.325   1.525
    1TCM    cl3 2357   3.526   1.448   1.459
    1TCM     c1 2358   3.500   1.745   4.825
    1TCM    cl1 2359   3.444   1.585   4.879
    1TCM    cl2 2360   3.610   1.725   4.687
    1TCM     h1 2361   3.412   1.806   4.794
    1TCM    cl3 2362   3.585   1.826   4.958
    1TCM     c1 2363   0.695   3.987   4.293
    1TCM    cl1 2364   0.574   4.007   4.423
    1TCM    cl2 2365   0.855   4.031   4.355
    1TCM     h1 2366   0.696   3.881   4.260
    1TCM    cl3 2367   0.653   4.092   4.156
    1TCM     c1 2368   3.619   3.215   5.176
    1TCM    cl1 2369   3.463   3.299   5.168
    1TCM    cl2 2370   3.624   3.114   5.323
    1TCM     h1 2371   3.631   3.150   5.087
    1TCM    cl3 2372   3.751   3.334   5.182
    1TCM     c1 2373   1.056   2.646   1.540
    1TCM    cl1 2374   0.996   2.735   1.398
    1TCM    cl2 2375   1.057   2.754   1.681
    1TCM     h1 2376   0.989   2.560   1.560
    1TCM    cl3 2377   1.221   2.588   1.508
    1TCM     c1 2378   4.409   5.077   5.214
    1TCM    cl1 2379   4.457   5.246   5.189
    1TCM    cl2 2380   4.428   4.987   5.061
    1TCM     h1 2381   4.473   5.031   5.292
    1TCM    cl3 2382   4.239   5.070   5.266
    1TCM     c1 2383   4.406   1.117   0.305
    1TCM    cl1 2384   4.471   0.988   0.202
    1TCM    cl2 2385   4.259   1.184   0.231
    1TCM     h1 2386   4.382   1.076   0.405
    1TCM    cl3 2387   4.528   1.246   0.321
    1TCM     c1 2388   3.111   0.837   3.489
    1TCM    cl1 2389   2.961   0.865   3.400
    1TCM    cl2 2390   3.145   0.663   3.495
    1TCM     h1 2391   3.195   0.889   3.439
    1TCM    cl3 2392   3.094   0.899   3.655
    1TCM     c1 2393   4.293   1.469   4.896
    1TCM    cl1 2394   4.172   1.339   4.905
    1TCM    cl2 2395   4.455   1.398   4.875
    1TCM     h1 2396   4.271   1.535   4.809
    1TCM    cl3 2397   4.290   1.564   5.046
    1TCM     c1 2398   4.756   2.149   3.805
    1TCM    cl1 2399   4.867   2.268   3.734
    1TCM    cl2 2400   4.738   2.181   3.979
    1TCM     h1 2401   4.657   2.155   3.756
    1TCM    cl3 2402   4.823   1.985   3.782
    1TCM     c1 2403   3.372   0.776   3.805
    1TCM    cl1 2404   3.462   0.647   3.888
    1TCM    cl2 2405   3.211   0.716   3.758
    1TCM     h1 2406   3.361   0.863   3.873
    1TCM    cl3 2407   3.461   0.826   3.659
    1TCM     c1 2408   3.799   3.735   1.624
    1TCM    cl1 2409   3.858   3.704   1.789
    1TCM    cl2 2410   3.822   3.589   1.525
    1TCM     h1 2411   3.691   3.761   1.628
    1TCM    cl3 2412   3.890   3.870   1.553
    1TCM     c1 2413   0.543   0.154   1.362
    1TCM    cl1 2414   0.569   0.130   1.536
    1TCM    cl2 2415   0.677   0.249   1.295
    1TCM     h1 2416   0.537   0.056   1.312
    1TCM    cl3 2417   0.390   0.243   1.338
    1TCM     c1 2418   2.175   3.961   3.674
    1TCM    cl1 2419   2.017   4.030   3.717
    1TCM    cl2 2420   2.195   3.804   3.755
    1TCM     h1 2421   2.181   3.948   3.565
    1TCM    cl3 2422   2.304   4.072   3.728
    1TCM     c1 2423   4.531   3.949   1.349
    1TCM    cl1 2424   4.395   4.054   1.395
    1TCM    cl2 2425   4.503   3.883   1.186
    1TCM     h1 2426   4.625   4.008   1.349
    1TCM    cl3 2427   4.545   3.815   1.465
    1TCM     c1 2428   3.159   4.348   4.608
    1TCM    cl1 2429   3.208   4.366   4.779
    1TCM    cl2 2430   3.152   4.176   4.567
    1TCM     h1 2431   3.060   4.395   4.593
    1TCM    cl3 2432   3.279   4.429   4.504
    1TCM     c1 2433   2.056   1.851   4.796
    1TCM    cl1 2434   2.191   1.851   4.911
    1TCM    cl2 2435   2.119   1.826   4.631
    1TCM     h1 2436   1.985   1.769   4.821
    1TCM    cl3 2437   1.971   2.007   4.804
    1TCM     c1 2438   1.483   3.381   2.085
    1TCM    cl1 2439   1.312   3.348   2.125
    1TCM    cl2 2440   1.570   3.227   2.070
    1TCM     h1 2441   1.488   3.437   1.990
    1TCM    cl3 2442   1.556   3.478   2.215
    1TCM     c1 2443   1.834   0.107   1.624
    1TCM    cl1 2444   1.939   0.083   1.483
    1TCM    cl2 2445   1.697  -0.006   1.617
    1TCM     h1 2446   1.892   0.088   1.717
    1TCM    cl3 2447   1.773   0.274   1.625
    1TCM     c1 2448   4.207   4.352   3.720
    1TCM    cl1 2449   4.270   4.187   3.698
    1TCM    cl2 2450   4.240   4.407   3.886
    1TCM     h1 2451   4.257   4.421   3.648
    1TCM    cl3 2452   4.032   4.353   3.690
    1TCM     c1 2453   0.698   1.023   3.742
    1TCM    cl1 2454   0.619   0.900   3.843
    1TCM    cl2 2455   0.635   1.012   3.576
    1TCM     h1 2456   0.678   1.124   3.783
    1TCM    cl3 2457   0.874   0.994   3.740
    1TCM     c1 2458   1.689   4.467   0.717
    1TCM    cl1 2459   1.671   4.455   0.540
    1TCM    cl2 2460   1.862   4.467   0.759
    1TCM     h1 2461   1.642   4.561   0.752
    1TCM    cl3 2462   1.609   4.327   0.793
    1TCM     c1 2463   3.299   0.280   0.112
    1TCM    cl1 2464   3.197   0.186   0.001
    1TCM    cl2 2465   3.282   0.214   0.277
    1TCM     h1 2466   3.405   0.272   0.081
    1TCM    cl3 2467   3.249   0.450   0.111
    1TCM     c1 2468   3.848   0.957   3.329
    1TCM    cl1 2469   3.675   0.939   3.368
    1TCM    cl2 2470   3.874   1.113   3.248
    1TCM     h1 2471   3.907   0.953   3.423
    1TCM    cl3 2472   3.898   0.825   3.221
    1TCM     c1 2473   0.184   4.612   3.988
    1TCM    cl1 2474   0.184   4.684   3.825
    1TCM    cl2 2475   0.045   4.501   4.003
    1TCM     h1 2476   0.278   4.556   4.003
    1TCM    cl3 2477   0.170   4.740   4.110
    1TCM     c1 2478   4.479   1.655   5.243
    1TCM    cl1 2479   4.625   1.573   5.302
    1TCM    cl2 2480   4.500   1.699   5.072
    1TCM     h1 2481   4.392   1.586   5.252
    1TCM    cl3 2482   4.449   1.801   5.339
    1TCM     c1 2483   0.389   0.714   2.873
    1TCM    cl1 2484   0.232   0.634   2.852
    1TCM    cl2 2485   0.468   0.733   2.715
    1TCM     h1 2486   0.374   0.814   2.919
    1TCM    cl3 2487   0.493   0.615   2.979
    1TCM     c1 2488   0.501   2.110   1.989
    1TCM    cl1 2489   0.342   2.079   1.916
    1TCM    cl2 2490   0.481   2.136   2.164
    1TCM     h1 2491   0.567   2.023   1.972
    1TCM    cl3 2492   0.573   2.254   1.915
    1TCM     c1 2493   3.681   2.288   1.685
    1TCM    cl1 2494   3.632   2.440   1.762
    1TCM    cl2 2495   3.637   2.151   1.790
    1TCM     h1 2496   3.630   2.277   1.587
    1TCM    cl3 2497   3.857   2.289   1.660
    1TCM     c1 2498   2.652   1.010   4.423
    1TCM    cl1 2499   2.478   0.981   4.397
    1TCM    cl2 2500   2.684   1.185   4.410
    1TCM     h1 2501   2.681   0.975   4.524
    1TCM    cl3 2502   2.746   0.923   4.300
    1TCM     c1 2503   4.627   2.532   4.942
    1TCM    cl1 2504   4.622   2.476   4.774
    1TCM    cl2 2505   4.675   2.703   4.946
    1TCM     h1 2506   4.526   2.521   4.988
    1TCM    cl3 2507   4.744   2.435   5.034
    1TCM     c1 2508   3.796   0.743   2.808
    1TCM    cl1 2509   3.942   0.818   2.739
    1TCM    cl2 2510   3.759   0.818   2.964
    1TCM     h1 2511   3.711   0.758   2.738
    1TCM    cl3 2512   3.823   0.569   2.831
    1TCM     c1 2513   3.335   2.176   3.297
    1TCM    cl1 2514   3.164   2.135   3.320
    1TCM    cl2 2515   3.422   2.035   3.232
    1TCM     h1 2516   3.343   2.261   3.226
    1TCM    cl3 2517   3.406   2.223   3.453
    1TCM     c1 2518   3.895   1.668   1.426
    1TCM    cl1 2519   3.836   1.525   1.514
    1TCM    cl2 2520   3.762   1.784   1.406
    1TCM     h1 2521   3.977   1.715   1.484
    1TCM    cl3 2522   3.956   1.618   1.267
    1TCM     c1 2523   0.462   3.381   1.640
    1TCM    cl1 2524   0.527   3.223   1.591
    1TCM    cl2 2525   0.356   3.444   1.511
    1TCM     h1 2526   0.403   3.370   1.733
    1TCM    cl3 2527   0.596   3.495   1.666
    1TCM     c1 2528   2.348   3.780   4.646
    1TCM    cl1 2529   2.483   3.866   4.569
    1TCM    cl2 2530   2.383   3.760   4.820
    1TCM     h1 2531   2.255   3.838   4.634
    1TCM    cl3 2532   2.329   3.619   4.571
    1TCM     c1 2533   1.922   1.616   1.932
    1TCM    cl1 2534   1.814   1.484   1.882
    1TCM    cl2 2535   2.087   1.553   1.955
    1TCM     h1 2536   1.923   1.694   1.854
    1TCM    cl3 2537   1.863   1.685   2.085
    1TCM     c1 2538   4.486   2.355   0.191
    1TCM    cl1 2539   4.567   2.271   0.056
    1TCM    cl2 2540   4.315   2.305   0.197
    1TCM     h1 2541   4.536   2.328   0.286
    1TCM    cl3 2542   4.496   2.531   0.165
    1TCM     c1 2543   3.078   4.585   3.532
    1TCM    cl1 2544   3.015   4.460   3.641
    1TCM    cl2 2545   2.955   4.624   3.409
    1TCM     h1 2546   3.102   4.677   3.590
    1TCM    cl3 2547   3.225   4.526   3.452
    1TCM     c1 2548   5.000   3.896   5.236
    1TCM    cl1 2549   4.890   3.870   5.099
    1TCM    cl2 2550   5.005   3.749   5.337
    1TCM     h1 2551   5.102   3.918   5.198
    1TCM    cl3 2552   4.941   4.032   5.334
    1TCM     c1 2553   1.204   2.668   3.346
    1TCM    cl1 2554   1.334   2.666   3.226
    1TCM    cl2 2555   1.069   2.566   3.289
    1TCM     h1 2556   1.242   2.627   3.443
    1TCM    cl3 2557   1.147   2.834   3.370
    1TCM     c1 2558   2.600   2.820   1.335
    1TCM    cl1 2559   2.754   2.732   1.344
    1TCM    cl2 2560   2.498   2.775   1.474
    1TCM     h1 2561   2.619   2.929   1.337
    1TCM    cl3 2562   2.516   2.776   1.184
    1TCM     c1 2563   0.077   3.529   3.537
    1TCM    cl1 2564   0.237   3.522   3.460
    1TCM    cl2 2565   0.043   3.695   3.589
    1TCM     h1 2566  -0.000   3.496   3.464
    1TCM    cl3 2567   0.075   3.421   3.678
    1TCM     c1 2568   2.495   4.855   3.315
    1TCM    cl1 2569   2.344   4.783   3.376
    1TCM    cl2 2570   2.476   4.894   3.142
    1TCM     h1 2571   2.517   4.948   3.372
    1TCM    cl3 2572   2.628   4.740   3.335
    1TCM     c1 2573   5.018   2.720   4.188
    1TCM    cl1 2574   5.071   2.635   4.335
    1TCM    cl2 2575   5.076   2.888   4.194
    1TCM     h1 2576   5.061   2.670   4.099
    1TCM    cl3 2577   4.841   2.719   4.179
    1TCM     c1 2578   2.587   2.323   3.600
    1TCM    cl1 2579   2.465   2.382   3.715
    1TCM    cl2 2580   2.569   2.410   3.446
    1TCM     h1 2581   2.688   2.341   3.641
    1TCM    cl3 2582   2.563   2.149   3.573
    1TCM     c1 2583   2.031   0.933   3.982
    1TCM    cl1 2584   1.953   1.028   3.854
    1TCM    cl2 2585   1.939   0.950   4.133
    1TCM     h1 2586   2.033   0.826   3.952
    1TCM    cl3 2587   2.197   0.991   4.006
    1TCM     c1 2588   0.946   0.366   0.885
    1TCM    cl1 2589   1.048   0.222   0.906
    1TCM    cl2 2590   0.791   0.342   0.969
    1TCM     h1 2591   0.998   0.454   0.928
    1TCM    cl3 2592   0.917   0.393   0.712
    1TCM     c1 2593   4.168   1.431   3.678
    1TCM    cl1 2594   4.074   1.321   3.573
    1TCM    cl2 2595   4.061   1.558   3.742
    1TCM     h1 2596   4.212   1.373   3.762
    1TCM    cl3 2597   4.299   1.505   3.583
    1TCM     c1 2598   3.221   4.960   3.370
    1TCM    cl1 2599   3.307   5.114   3.390
    1TCM    cl2 2600   3.058   4.991   3.306
    1TCM     h1 2601   3.277   4.895   3.299
    1TCM    cl3 2602   3.208   4.878   3.527
    1TCM     c1 2603   2.209   2.548   3.085
    1TCM    cl1 2604   2.289   2.692   3.019
    1TCM    cl2 2605   2.175   2.573   3.257
    1TCM     h1 2606   2.114   2.530   3.030
    1TCM    cl3 2607   2.315   2.407   3.065
    1TCM     c1 2608   1.460   0.603   5.289
    1TCM    cl1 2609   1.481   0.594   5.113
    1TCM    cl2 2610   1.309   0.522   5.335
    1TCM     h1 2611   1.546   0.553   5.339
    1TCM    cl3 2612   1.454   0.773   5.340
    1TCM     c1 2613   2.185   4.396   4.389
    1TCM    cl1 2614   2.262   4.387   4.229
    1TCM    cl2 2615   2.304   4.356   4.515
    1TCM     h1 2616   2.146   4.498   4.406
    1TCM    cl3 2617   2.050   4.280   4.395
    1TCM     c1 2618   0.784   3.760   5.062
    1TCM    cl1 2619   0.809   3.920   5.135
    1TCM    cl2 2620   0.795   3.773   4.885
    1TCM     h1 2621   0.862   3.690   5.098
    1TCM    cl3 2622   0.623   3.699   5.107
    1TCM     c1 2623   5.103   3.072   1.869
    1TCM    cl1 2624   5.267   3.019   1.913
    1TCM    cl2 2625   4.998   3.065   2.013
    1TCM     h1 2626   5.107   3.176   1.831
    1TCM    cl3 2627   5.038   2.965   1.743
    1TCM     c1 2628   3.334   1.231   3.542
    1TCM    cl1 2629   3.209   1.105   3.549
    1TCM    cl2 2630   3.495   1.155   3.553
    1TCM     h1 2631   3.326   1.286   3.445
    1TCM    cl3 2632   3.312   1.344   3.677
    1TCM     c1 2633   1.602   0.127   1.283
    1TCM    cl1 2634   1.466   0.081   1.178
    1TCM    cl2 2635   1.755   0.084   1.205
    1TCM     h1 2636   1.599   0.237   1.301
    1TCM    cl3 2637   1.588   0.042   1.439
    1TCM     c1 2638   2.778   2.947   3.883
    1TCM    cl1 2639   2.707   3.037   3.747
    1TCM    cl2 2640   2.652   2.913   4.004
    1TCM     h1 2641   2.820   2.851   3.846
    1TCM    cl3 2642   2.908   3.043   3.958
    1TCM     c1 2643   5.102   3.340   1.232
    1TCM    cl1 2644   4.993   3.203   1.262
    1TCM    cl2 2645   5.224   3.293   1.111
    1TCM     h1 2646   5.043   3.426   1.194
    1TCM    cl3 2647   5.184   3.385   1.383
    1TCM     c1 2648   1.876   0.283   0.160
    1TCM    cl1 2649   1.828   0.117   0.117
    1TCM    cl2 2650   2.051   0.288   0.193
    1TCM     h1 2651   1.853   0.352   0.075
    1TCM    cl3 2652   1.787   0.335   0.305
    1TCM     c1 2653   1.171   1.909   3.068
    1TCM    cl1 2654   1.270   1.997   2.949
    1TCM    cl2 2655   1.127   2.018   3.201
    1TCM     h1 2656   1.080   1.871   3.019
    1TCM    cl3 2657   1.265   1.773   3.133
    1TCM     c1 2658   2.687   3.854   2.472
    1TCM    cl1 2659   2.644   4.015   2.408
    1TCM    cl2 2660   2.676   3.856   2.650
    1TCM     h1 2661   2.618   3.778   2.431
    1TCM    cl3 2662   2.854   3.815   2.424
    1TCM     c1 2663   1.454   0.550   2.904
    1TCM    cl1 2664   1.374   0.618   2.761
    1TCM    cl2 2665   1.630   0.549   2.878
    1TCM     h1 2666   1.431   0.613   2.993
    1TCM    cl3 2667   1.397   0.384   2.931
    1TCM     c1 2668   5.142   5.018   2.831
    1TCM    cl1 2669   5.159   4.892   2.955
    1TCM    cl2 2670   5.131   4.942   2.671
    1TCM     h1 2671   5.049   5.077   2.850
    1TCM    cl3 2672   5.283   5.126   2.837
    1TCM     c1 2673   2.603   3.892   3.163
    1TCM    cl1 2674   2.573   4.009   3.033
    1TCM    cl2 2675   2.558   3.729   3.107
    1TCM     h1 2676   2.711   3.893   3.190
    1TCM    cl3 2677   2.507   3.935   3.306
    1TCM     c1 2678   5.054   5.120   0.198
    1TCM    cl1 2679   4.946   5.239   0.122
    1TCM    cl2 2680   4.983   4.957   0.182
    1TCM     h1 2681   5.153   5.121   0.147
    1TCM    cl3 2682   5.075   5.159   0.370
    1TCM     c1 2683   1.546   4.068   5.197
    1TCM    cl1 2684   1.492   4.205   5.098
    1TCM    cl2 2685   1.404   3.974   5.250
    1TCM     h1 2686   1.613   4.003   5.137
    1TCM    cl3 2687   1.633   4.128   5.340
    1TCM     c1 2688   0.257   2.045   3.585
    1TCM    cl1 2689   0.261   1.895   3.680
    1TCM    cl2 2690   0.405   2.139   3.616
    1TCM     h1 2691   0.251   2.020   3.477
    1TCM    cl3 2692   0.115   2.141   3.631
    1TCM     c1 2693   4.536   0.444   4.854
    1TCM    cl1 2694   4.660   0.347   4.938
    1TCM    cl2 2695   4.610   0.594   4.793
    1TCM     h1 2696   4.495   0.386   4.769
    1TCM    cl3 2697   4.405   0.485   4.968
    1TCM     c1 2698   4.330   2.437   2.517
    1TCM    cl1 2699   4.258   2.288   2.451
    1TCM    cl2 2700   4.454   2.497   2.405
    1TCM     h1 2701   4.251   2.514   2.530
    1TCM    cl3 2702   4.404   2.402   2.675
    1TCM     c1 2703   3.523   4.709   1.512
    1TCM    cl1 2704   3.513   4.842   1.630
    1TCM    cl2 2705   3.371   4.700   1.420
    1TCM     h1 2706   3.607   4.729   1.443
    1TCM    cl3 2707   3.550   4.556   1.598
    1TCM     c1 2708   5.190   5.260   0.723
    1TCM    cl1 2709   5.103   5.107   0.748
    1TCM    cl2 2710   5.340   5.229   0.632
    1TCM     h1 2711   5.125   5.330   0.665
    1TCM    cl3 2712   5.229   5.332   0.880
    1TCM     c1 2713   3.994   5.153   0.263
    1TCM    cl1 2714   3.896   5.263   0.363
    1TCM    cl2 2715   3.970   5.192   0.091
    1TCM     h1 2716   4.101   5.165   0.289
    1TCM    cl3 2717   3.945   4.985   0.293
    1TCM     c1 2718   0.678   5.074   2.563
    1TCM    cl1 2719   0.619   5.228   2.499
    1TCM    cl2 2720   0.737   4.973   2.429
    1TCM     h1 2721   0.761   5.092   2.634
    1TCM    cl3 2722   0.546   4.990   2.647
    1TCM     c1 2723   2.866   5.136   4.372
    1TCM    cl1 2724   2.725   5.160   4.266
    1TCM    cl2 2725   2.811   5.119   4.541
    1TCM     h1 2726   2.920   5.044   4.341
    1TCM    cl3 2727   2.975   5.275   4.359
    1TCM     c1 2728   4.418   4.184   1.852
    1TCM    cl1 2729   4.521   4.059   1.925
    1TCM    cl2 2730   4.388   4.145   1.681
    1TCM     h1 2731   4.321   4.189   1.907
    1TCM    cl3 2732   4.499   4.342   1.864
    1TCM     c1 2733   3.284   3.686   4.856
    1TCM    cl1 2734   3.325   3.783   4.998
    1TCM    cl2 2735   3.416   3.696   4.737
    1TCM     h1 2736   3.269   3.580   4.886
    1TCM    cl3 2737   3.134   3.748   4.783
    1TCM     c1 2738   2.740   0.467   4.352
    1TCM    cl1 2739   2.758   0.612   4.252
    1TCM    cl2 2740   2.702   0.515   4.520
    1TCM     h1 2741   2.657   0.404   4.313
    1TCM    cl3 2742   2.891   0.373   4.350
    1TCM     c1 2743   3.362   3.355   1.812
    1TCM    cl1 2744   3.441   3.205   1.758
    1TCM    cl2 2745   3.385   3.374   1.987
    1TCM     h1 2746   3.406   3.442   1.759
    1TCM    cl3 2747   3.188   3.345   1.776
    1TCM     c1 2748   0.129   3.016   3.610
    1TCM    cl1 2749   0.151   3.099   3.766
    1TCM    cl2 2750   0.001   3.097   3.518
    1TCM     h1 2751   0.224   3.020   3.553
    1TCM    cl3 2752   0.084   2.847   3.639
    1TCM     c1 2753   1.509   3.858   3.094
    1TCM    cl1 2754   1.374   3.742   3.082
    1TCM    cl2 2755   1.564   3.868   3.263
    1TCM     h1 2756   1.592   3.823   3.029
    1TCM    cl3 2757   1.454   4.018   3.040
    1TCM     c1 2758   2.824   4.263   1.787
    1TCM    cl1 2759   2.671   4.273   1.696
    1TCM    cl2 2760   2.957   4.227   1.675
    1TCM     h1 2761   2.843   4.360   1.837
    1TCM    cl3 2762   2.812   4.135   1.909
    1TCM     c1 2763   5.151   1.669   2.958
    1TCM    cl1 2764   5.239   1.515   2.975
    1TCM    cl2 2765   4.997   1.659   3.047
    1TCM     h1 2766   5.212   1.751   3.000
    1TCM    cl3 2767   5.118   1.701   2.787
    1TCM     c1 2768   4.515   3.484   3.015
    1TCM    cl1 2769   4.607   3.390   2.895
    1TCM    cl2 2770   4.587   3.460   3.176
    1TCM     h1 2771   4.519   3.592   2.988
    1TCM    cl3 2772   4.346   3.429   3.017
    1TCM     c1 2773   2.765   4.936   2.647
    1TCM    cl1 2774   2.630   4.955   2.533
    1TCM    cl2 2775   2.916   4.911   2.556
    1TCM     h1 2776   2.773   5.027   2.709
    1TCM    cl3 2777   2.735   4.795   2.751
    1TCM     c1 2778   3.032   3.336   2.354
    1TCM    cl1 2779   2.887   3.433   2.319
    1TCM    cl2 2780   3.085   3.367   2.521
    1TCM     h1 2781   3.007   3.228   2.343
    1TCM    cl3 2782   3.161   3.379   2.241
    1TCM     c1 2783   1.923   3.504   4.148
    1TCM    cl1 2784   1.923   3.464   3.975
    1TCM    cl2 2785   1.800   3.405   4.231
    1TCM     h1 2786   2.023   3.483   4.191
    1TCM    cl3 2787   1.884   3.676   4.169
    1TCM     c1 2788   4.919   1.973   0.526
    1TCM    cl1 2789   4.842   1.909   0.673
    1TCM    cl2 2790   4.817   1.939   0.385
    1TCM     h1 2791   4.933   2.083   0.536
    1TCM    cl3 2792   5.078   1.896   0.504
    1TCM     c1 2793   2.105   3.107   2.108
    1TCM    cl1 2794   2.251   3.169   2.029
    1TCM    cl2 2795   2.088   2.934   2.074
    1TCM     h1 2796   2.112   3.123   2.218
    1TCM    cl3 2797   1.962   3.194   2.046
    1TCM     c1 2798   1.992   0.937   4.957
    1TCM    cl1 2799   2.122   1.000   5.060
    1TCM    cl2 2800   2.024   0.984   4.788
    1TCM     h1 2801   1.989   0.826   4.964
    1TCM    cl3 2802   1.837   1.005   5.009
    1TCM     c1 2803   0.268   5.081   4.016
    1TCM    cl1 2804   0.328   5.201   3.900
    1TCM    cl2 2805   0.396   5.040   4.132
    1TCM     h1 2806   0.181   5.123   4.071
    1TCM    cl3 2807   0.217   4.934   3.929
    1TCM     c1 2808   1.665   4.499   1.721
    1TCM    cl1 2809   1.575   4.359   1.783
    1TCM    cl2 2810   1.625   4.523   1.549
    1TCM     h1 2811   1.637   4.589   1.778
    1TCM    cl3 2812   1.839   4.469   1.737
    1TCM     c1 2813   4.925   0.972   4.236
    1TCM    cl1 2814   4.853   1.061   4.100
    1TCM    cl2 2815   4.829   1.001   4.383
    1TCM     h1 2816   4.925   0.863   4.213
    1TCM    cl3 2817   5.091   1.028   4.262
    1TCM     c1 2818   2.323   3.193   0.324
    1TCM    cl1 2819   2.407   3.344   0.278
    1TCM    cl2 2820   2.186   3.166   0.214
    1TCM     h1 2821   2.394   3.108   0.315
    1TCM    cl3 2822   2.264   3.206   0.491
    1TCM     c1 2823   2.664   4.314   1.268
    1TCM    cl1 2824   2.546   4.411   1.359
    1TCM    cl2 2825   2.677   4.378   1.103
    1TCM     h1 2826   2.763   4.321   1.318
    1TCM    cl3 2827   2.612   4.145   1.263
    1TCM     c1 2828   1.500   0.872   4.032
    1TCM    cl1 2829   1.662   0.860   4.105
    1TCM    cl2 2830   1.443   1.040   4.042
    1TCM     h1 2831   1.505   0.841   3.926
    1TCM    cl3 2832   1.388   0.766   4.121
    1TCM     c1 2833   1.632   1.150   2.803
    1TCM    cl1 2834   1.511   1.079   2.694
    1TCM    cl2 2835   1.564   1.165   2.966
    1TCM     h1 2836   1.722   1.085   2.806
    1TCM    cl3 2837   1.679   1.311   2.742
    1TCM     c1 2838   2.011   3.185   3.476
    1TCM    cl1 2839   2.005   3.336   3.570
    1TCM    cl2 2840   2.047   3.224   3.306
    1TCM     h1 2841   2.091   3.120   3.517
    1TCM    cl3 2842   1.855   3.102   3.486
    1TCM     c1 2843   3.794   4.301   3.016
    1TCM    cl1 2844   3.793   4.124   2.998
    1TCM    cl2 2845   3.833   4.344   3.184
    1TCM     h1 2846   3.870   4.344   2.947
    1TCM    cl3 2847   3.633   4.365   2.974
    1TCM     c1 2848   2.722   5.168   0.474
    1TCM    cl1 2849   2.878   5.219   0.544
    1TCM    cl2 2850   2.706   4.991   0.489
    1TCM     h1 2851   2.639   5.217   0.529
    1TCM    cl3 2852   2.716   5.214   0.303
    1TCM     c1 2853   1.666   3.789   4.099
    1TCM    cl1 2854   1.806   3.894   4.132
    1TCM    cl2 2855   1.530   3.888   4.041
    1TCM     h1 2856   1.693   3.714   4.022
    1TCM    cl3 2857   1.619   3.705   4.249
    1TCM     c1 2858   2.377   2.244   1.302
    1TCM    cl1 2859   2.403   2.284   1.473
    1TCM    cl2 2860   2.311   2.385   1.217
    1TCM     h1 2861   2.473   2.214   1.255
    1TCM    cl3 2862   2.262   2.109   1.290
    1TCM     c1 2863   3.079   0.106   3.798
    1TCM    cl1 2864   3.181   0.223   3.712
    1TCM    cl2 2865   2.964   0.193   3.902
    1TCM     h1 2866   3.023   0.044   3.725
    1TCM    cl3 2867   3.182   0.001   3.899
    1TCM     c1 2868   2.069   1.293   2.109
    1TCM    cl1 2869   2.178   1.434   2.118
    1TCM    cl2 2870   1.957   1.314   1.972
    1TCM     h1 2871   2.129   1.201   2.094
    1TCM    cl3 2872   1.976   1.280   2.260
    1TCM     c1 2873   2.298   2.832   0.476
    1TCM    cl1 2874   2.369   2.879   0.632
    1TCM    cl2 2875   2.242   2.663   0.485
    1TCM     h1 2876   2.212   2.898   0.454
    1TCM    cl3 2877   2.420   2.847   0.348
    1TCM     c1 2878   3.579   2.516   4.360
    1TCM    cl1 2879   3.434   2.526   4.257
    1TCM    cl2 2880   3.530   2.482   4.528
    1TCM     h1 2881   3.645   2.434   4.324
    1TCM    cl3 2882   3.667   2.670   4.354
    1TCM     c1 2883   0.705   0.331   1.958
    1TCM    cl1 2884   0.695   0.493   2.029
    1TCM    cl2 2885   0.818   0.231   2.053
    1TCM     h1 2886   0.605   0.283   1.959
    1TCM    cl3 2887   0.763   0.342   1.790
    1TCM     c1 2888   4.294   4.855   0.792
    1TCM    cl1 2889   4.326   4.854   0.967
    1TCM    cl2 2890   4.332   5.016   0.725
    1TCM     h1 2891   4.358   4.779   0.742
    1TCM    cl3 2892   4.123   4.818   0.762
    1TCM     c1 2893   0.257   4.330   1.066
    1TCM    cl1 2894   0.285   4.161   1.018
    1TCM    cl2 2895   0.092   4.378   1.022
    1TCM     h1 2896   0.270   4.340   1.176
    1TCM    cl3 2897   0.374   4.436   0.983
    1TCM     c1 2898   2.220   2.322   3.787
    1TCM    cl1 2899   2.264   2.286   3.619
    1TCM    cl2 2900   2.339   2.247   3.897
    1TCM     h1 2901   2.220   2.432   3.803
    1TCM    cl3 2902   2.059   2.256   3.822
    1TCM     c1 2903   0.610   4.061   1.327
    1TCM    cl1 2904   0.558   4.119   1.167
    1TCM    cl2 2905   0.600   4.194   1.445
    1TCM     h1 2906   0.544   3.978   1.359
    1TCM    cl3 2907   0.778   4.003   1.317
    1TCM     c1 2908   1.464   3.907   0.440
    1TCM    cl1 2909   1.479   3.739   0.384
    1TCM    cl2 2910   1.613   3.996   0.400
    1TCM     h1 2911   1.378   3.955   0.389
    1TCM    cl3 2912   1.439   3.909   0.616
    1TCM     c1 2913   3.153   2.166   2.463
    1TCM    cl1 2914   3.246   2.093   2.330
    1TCM    cl2 2915   3.140   2.341   2.437
    1TCM     h1 2916   3.052   2.121   2.465
    1TCM    cl3 2917   3.236   2.134   2.617
    1TCM     c1 2918   1.903   2.754   2.512
    1TCM    cl1 2919   2.020   2.644   2.589
    1TCM    cl2 2920   1.741   2.721   2.577
    1TCM     h1 2921   1.931   2.859   2.534
    1TCM    cl3 2922   1.904   2.727   2.336
    1TCM     c1 2923   3.414   5.122   2.094
    1TCM    cl1 2924   3.349   5.240   1.978
    1TCM    cl2 2925   3.280   5.037   2.174
    1TCM     h1 2926   3.478   5.049   2.041
    1TCM    cl3 2927   3.511   5.207   2.217
    1TCM     c1 2928   0.896   2.569   4.431
    1TCM    cl1 2929   1.054   2.489   4.416
    1TCM    cl2 2930   0.894   2.716   4.331
    1TCM     h1 2931   0.816   2.500   4.398
    1TCM    cl3 2932   0.868   2.614   4.601
    1TCM     c1 2933   4.616   3.894   4.935
    1TCM    cl1 2934   4.681   3.757   5.027
    1TCM    cl2 2935   4.695   3.902   4.776
    1TCM     h1 2936   4.507   3.881   4.922
    1TCM    cl3 2937   4.647   4.045   5.025
    1TCM     c1 2938   4.920   1.879   4.163
    1TCM    cl1 2939   5.087   1.820   4.184
    1TCM    cl2 2940   4.870   1.853   3.994
    1TCM     h1 2941   4.852   1.823   4.230
    1TCM    cl3 2942   4.913   2.052   4.201
    1TCM     c1 2943   4.113   2.321   2.823
    1TCM    cl1 2944   3.984   2.259   2.929
    1TCM    cl2 2945   4.046   2.353   2.661
    1TCM     h1 2946   4.153   2.416   2.865
    1TCM    cl3 2947   4.243   2.201   2.811
    1TCM     c1 2948   1.468   2.827   5.169
    1TCM    cl1 2949   1.451   2.996   5.221
    1TCM    cl2 2950   1.311   2.744   5.185
    1TCM     h1 2951   1.501   2.824   5.063
    1TCM    cl3 2952   1.589   2.745   5.270
    1TCM     c1 2953   3.666   2.154   3.128
    1TCM    cl1 2954   3.550   2.279   3.079
    1TCM    cl2 2955   3.718   2.184   3.295
    1TCM     h1 2956   3.619   2.054   3.121
    1TCM    cl3 2957   3.808   2.160   3.020
    1TCM     c1 2958   2.783   4.879   1.035
    1TCM    cl1 2959   2.756   5.038   0.960
    1TCM    cl2 2960   2.655   4.766   0.983
    1TCM     h1 2961   2.881   4.839   1.004
    1TCM    cl3 2962   2.779   4.895   1.212
    1TCM     c1 2963   1.658   3.842   0.887
    1TCM    cl1 2964   1.822   3.788   0.933
    1TCM    cl2 2965   1.619   3.781   0.725
    1TCM     h1 2966   1.585   3.803   0.960
    1TCM    cl3 2967   1.653   4.020   0.887
    1TCM     c1 2968   5.072   3.217   5.124
    1TCM    cl1 2969   5.004   3.340   5.234
    1TCM    cl2 2970   4.956   3.083   5.107
    1TCM     h1 2971   5.090   3.263   5.025
    1TCM    cl3 2972   5.225   3.156   5.191
    1TCM     c1 2973   2.922   5.009   3.081
    1TCM    cl1 2974   3.080   5.091   3.083
    1TCM    cl2 2975   2.865   4.992   2.914
    1TCM     h1 2976   2.933   4.908   3.127
    1TCM    cl3 2977   2.805   5.104   3.174
    1TCM     c1 2978   4.807   3.870   3.650
    1TCM    cl1 2979   4.931   3.848   3.774
    1TCM    cl2 2980   4.787   3.720   3.558
    1TCM     h1 2981   4.710   3.897   3.698
    1TCM    cl3 2982   4.856   4.001   3.540
    1TCM     c1 2983   1.689   0.989   3.224
    1TCM    cl1 2984   1.797   1.128   3.199
    1TCM    cl2 2985   1.561   1.033   3.339
    1TCM     h1 2986   1.643   0.960   3.127
    1TCM    cl3 2987   1.782   0.853   3.289
    1TCM     c1 2988   3.370   2.770   4.552
    1TCM    cl1 2989   3.456   2.883   4.445
    1TCM    cl2 2990   3.342   2.617   4.465
    1TCM     h1 2991   3.432   2.750   4.642
    1TCM    cl3 2992   3.215   2.841   4.600
    1TCM     c1 2993   2.385   4.282   0.665
    1TCM    cl1 2994   2.342   4.158   0.545
    1TCM    cl2 2995   2.522   4.225   0.762
    1TCM     h1 2996   2.413   4.376   0.612
    1TCM    cl3 2997   2.246   4.313   0.771
    1TCM     c1 2998   3.240   1.591   0.295
    1TCM    cl1 2999   3.355   1.685   0.198
    1TCM    cl2 3000   3.157   1.473   0.191
    1TCM     h1 3001   3.295   1.537   0.375
    1TCM    cl3 3002   3.121   1.701   0.368
    1TCM     c1 3003   2.389   1.725   4.109
    1TCM    cl1 3004   2.440   1.795   4.265
    1TCM    cl2 3005   2.240   1.806   4.055
    1TCM     h1 3006   2.468   1.740   4.034
    1TCM    cl3 3007   2.358   1.551   4.130
    1TCM     c1 3008   1.317   0.929   2.770
    1TCM    cl1 3009   1.398   0.908   2.613
    1TCM    cl2 3010   1.324   1.100   2.818
    1TCM     h1 3011   1.211   0.897   2.762
    1TCM    cl3 3012   1.399   0.830   2.892
    1TCM     c1 3013   2.830   4.346   5.116
    1TCM    cl1 3014   2.781   4.278   5.273
    1TCM    cl2 3015   2.687   4.364   5.012
    1TCM     h1 3016   2.876   4.446   5.132
    1TCM    cl3 3017   2.947   4.238   5.038
    1TCM     c1 3018   2.285   4.483   1.646
    1TCM    cl1 3019   2.382   4.390   1.763
    1TCM    cl2 3020   2.290   4.403   1.487
    1TCM     h1 3021   2.180   4.489   1.681
    1TCM    cl3 3022   2.352   4.647   1.632
    1TCM     c1 3023   0.985   2.519   5.134
    1TCM    cl1 3024   0.822   2.500   5.203
    1TCM    cl2 3025   1.031   2.370   5.050
    1TCM     h1 3026   0.984   2.604   5.062
    1TCM    cl3 3027   1.101   2.553   5.265
    1TCM     c1 3028   1.697   1.175   1.824
    1TCM    cl1 3029   1.673   1.344   1.772
    1TCM    cl2 3030   1.566   1.074   1.760
    1TCM     h1 3031   1.795   1.139   1.786
    1TCM    cl3 3032   1.697   1.168   2.002
    1TCM     c1 3033   0.519   3.613   3.623
    1TCM    cl1 3034   0.598   3.724   3.738
    1TCM    cl2 3035   0.578   3.647   3.458
    1TCM     h1 3036   0.543   3.508   3.650
    1TCM    cl3 3037   0.343   3.637   3.629
    1TCM     c1 3038   0.234   0.224   3.686
    1TCM    cl1 3039   0.248   0.346   3.558
    1TCM    cl2 3040   0.383   0.126   3.692
    1TCM     h1 3041   0.218   0.274   3.784
    1TCM    cl3 3042   0.095   0.118   3.652
    1TCM     c1 3043   4.262   5.194   3.309
    1TCM    cl1 3044   4.407   5.218   3.409
    1TCM    cl2 3045   4.287   5.055   3.201
    1TCM     h1 3046   4.175   5.174   3.375
    1TCM    cl3 3047   4.232   5.340   3.213
    1TCM     c1 3048   3.255   4.021   1.559
    1TCM    cl1 3049   3.376   4.150   1.577
    1TCM    cl2 3050   3.299   3.883   1.662
    1TCM     h1 3051   3.155   4.060   1.589
    1TCM    cl3 3052   3.249   3.968   1.389
    1TCM     c1 3053   4.652   4.338   3.907
    1TCM    cl1 3054   4.561   4.376   4.055
    1TCM    cl2 3055   4.816   4.287   3.949
    1TCM     h1 3056   4.601   4.257   3.852
    1TCM    cl3 3057   4.660   4.483   3.804
    1TCM     c1 3058   0.947   3.748   0.458
    1TCM    cl1 3059   0.933   3.704   0.287
    1TCM    cl2 3060   0.940   3.925   0.475
    1TCM     h1 3061   0.863   3.702   0.515
    1TCM    cl3 3062   1.101   3.688   0.523
    1TCM     c1 3063   5.127   2.334   5.089
    1TCM    cl1 3064   5.051   2.282   5.241
    1TCM    cl2 3065   5.303   2.350   5.113
    1TCM     h1 3066   5.108   2.258   5.010
    1TCM    cl3 3067   5.059   2.490   5.039
    1TCM     c1 3068   0.994   5.194   2.353
    1TCM    cl1 3069   1.039   5.057   2.458
    1TCM    cl2 3070   1.039   5.157   2.185
    1TCM     h1 3071   0.885   5.210   2.360
    1TCM    cl3 3072   1.080   5.340   2.407
    1TCM     c1 3073   1.016   1.243   4.202
    1TCM    cl1 3074   0.924   1.324   4.331
    1TCM    cl2 3075   0.941   1.278   4.045
    1TCM     h1 3076   1.120   1.281   4.202
    1TCM    cl3 3077   1.015   1.068   4.230
    1TCM     c1 3078   3.921   2.700   4.216
    1TCM    cl1 3079   3.808   2.614   4.109
    1TCM    cl2 3080   3.921   2.622   4.376
    1TCM     h1 3081   4.023   2.696   4.173
    1TCM    cl3 3082   3.870   2.869   4.233
    1TCM     c1 3083   2.306   3.505   5.205
    1TCM    cl1 3084   2.460   3.462   5.127
    1TCM    cl2 3085   2.174   3.408   5.134
    1TCM     h1 3086   2.312   3.485   5.314
    1TCM    cl3 3087   2.273   3.678   5.179
    1TCM     c1 3088   1.275   0.600   0.931
    1TCM    cl1 3089   1.172   0.591   0.786
    1TCM    cl2 3090   1.209   0.720   1.044
    1TCM     h1 3091   1.279   0.501   0.980
    1TCM    cl3 3092   1.440   0.648   0.883
    1TCM     c1 3093   0.398   3.668   0.564
    1TCM    cl1 3094   0.442   3.612   0.401
    1TCM    cl2 3095   0.359   3.528   0.666
    1TCM     h1 3096   0.483   3.724   0.608
    1TCM    cl3 3097   0.256   3.775   0.554
    1TCM     c1 3098   3.206   1.640   3.454
    1TCM    cl1 3099   3.165   1.632   3.282
    1TCM    cl2 3100   3.057   1.626   3.551
    1TCM     h1 3101   3.274   1.557   3.480
    1TCM    cl3 3102   3.285   1.795   3.490
    1TCM     c1 3103   2.795   4.695   0.320
    1TCM    cl1 3104   2.737   4.564   0.426
    1TCM    cl2 3105   2.885   4.626   0.184
    1TCM     h1 3106   2.708   4.753   0.282
    1TCM    cl3 3107   2.901   4.804   0.413
    1TCM     c1 3108   3.655   3.587   3.437
    1TCM    cl1 3109   3.725   3.681   3.571
    1TCM    cl2 3110   3.631   3.694   3.297
    1TCM     h1 3111   3.724   3.505   3.409
    1TCM    cl3 3112   3.499   3.519   3.488
    1TCM     c1 3113   2.937   3.955   0.912
    1TCM    cl1 3114   2.832   4.045   0.800
    1TCM    cl2 3115   2.943   3.784   0.864
    1TCM     h1 3116   3.039   3.998   0.909
    1TCM    cl3 3117   2.871   3.968   1.077
    1TCM     c1 3118   4.440   4.345   1.207
    1TCM    cl1 3119   4.500   4.369   1.041
    1TCM    cl2 3120   4.552   4.239   1.296
    1TCM     h1 3121   4.434   4.444   1.258
    1TCM    cl3 3122   4.279   4.271   1.202
    1TCM     c1 3123   4.570   3.190   0.215
    1TCM    cl1 3124   4.547   3.350   0.140
    1TCM    cl2 3125   4.565   3.206   0.392
    1TCM     h1 3126   4.489   3.122   0.182
    1TCM    cl3 3127   4.727   3.124   0.166
    1TCM     c1 3128   2.908   1.015   2.214
    1TCM    cl1 3129   2.799   0.877   2.245
    1TCM    cl2 3130   2.815   1.150   2.147
    1TCM     h1 3131   2.956   1.046   2.309
    1TCM    cl3 3132   3.034   0.966   2.098
    1TCM     c1 3133   3.448   4.599   2.994
    1TCM    cl1 3134   3.375   4.709   2.876
    1TCM    cl2 3135   3.345   4.592   3.139
    1TCM     h1 3136   3.456   4.497   2.950
    1TCM    cl3 3137   3.610   4.658   3.039
    1TCM     c1 3138   3.747   3.483   3.984
    1TCM    cl1 3139   3.822   3.594   4.101
    1TCM    cl2 3140   3.787   3.315   4.027
    1TCM     h1 3141   3.637   3.496   3.985
    1TCM    cl3 3142   3.809   3.518   3.821
    1TCM     c1 3143   4.170   0.314   0.211
    1TCM    cl1 3144   4.319   0.303   0.308
    1TCM    cl2 3145   4.200   0.248   0.049
    1TCM     h1 3146   4.089   0.257   0.261
    1TCM    cl3 3147   4.121   0.485   0.198
    1TCM     c1 3148   3.286   3.185   3.438
    1TCM    cl1 3149   3.325   3.252   3.598
    1TCM    cl2 3150   3.350   3.293   3.312
    1TCM     h1 3151   3.331   3.085   3.428
    1TCM    cl3 3152   3.109   3.173   3.421
    1TCM     c1 3153   0.617   2.631   1.966
    1TCM    cl1 3154   0.776   2.622   1.888
    1TCM    cl2 3155   0.532   2.476   1.946
    1TCM     h1 3156   0.630   2.651   2.075
    1TCM    cl3 3157   0.521   2.761   1.892
    1TCM     c1 3158   5.192   4.293   3.020
    1TCM    cl1 3159   5.202   4.452   2.942
    1TCM    cl2 3160   5.244   4.307   3.190
    1TCM     h1 3161   5.088   4.256   3.017
    1TCM    cl3 3162   5.299   4.178   2.936
    1TCM     c1 3163   2.368   3.470   1.496
    1TCM    cl1 3164   2.447   3.314   1.463
    1TCM    cl2 3165   2.403   3.520   1.663
    1TCM     h1 3166   2.407   3.546   1.426
    1TCM    cl3 3167   2.192   3.453   1.475
    1TCM     c1 3168   5.070   1.404   2.446
    1TCM    cl1 3169   5.190   1.499   2.355
    1TCM    cl2 3170   5.115   1.232   2.441
    1TCM     h1 3171   5.068   1.438   2.552
    1TCM    cl3 3172   4.910   1.425   2.373
    1TCM     c1 3173   4.192   3.118   3.998
    1TCM    cl1 3174   4.035   3.059   4.058
    1TCM    cl2 3175   4.315   2.990   4.018
    1TCM     h1 3176   4.183   3.143   3.891
    1TCM    cl3 3177   4.240   3.262   4.090
    1TCM     c1 3178   1.631   3.531   3.471
    1TCM    cl1 3179   1.708   3.629   3.345
    1TCM    cl2 3180   1.663   3.359   3.439
    1TCM     h1 3181   1.672   3.559   3.570
    1TCM    cl3 3182   1.455   3.559   3.469
    1TCM     c1 3183   2.572   3.233   2.638
    1TCM    cl1 3184   2.460   3.178   2.764
    1TCM    cl2 3185   2.738   3.230   2.702
    1TCM     h1 3186   2.565   3.165   2.550
    1TCM    cl3 3187   2.530   3.398   2.589
    1TCM     c1 3188   1.928   2.884   0.183
    1TCM    cl1 3189   1.827   2.776   0.282
    1TCM    cl2 3190   1.891   2.858   0.011
    1TCM     h1 3191   1.907   2.989   0.209
    1TCM    cl3 3192   2.100   2.848   0.213
    1TCM     c1 3193   4.821   0.836   2.889
    1TCM    cl1 3194   4.775   0.670   2.937
    1TCM    cl2 3195   4.722   0.887   2.751
    1TCM     h1 3196   4.805   0.904   2.975
    1TCM    cl3 3197   4.993   0.838   2.843
    1TCM     c1 3198   4.887   2.046   1.274
    1TCM    cl1 3199   4.761   2.016   1.153
    1TCM    cl2 3200   4.843   2.188   1.372
    1TCM     h1 3201   4.897   1.958   1.340
    1TCM    cl3 3202   5.042   2.077   1.192
    1TCM     c1 3203   3.182   4.027   0.447
    1TCM    cl1 3204   3.216   4.141   0.579
    1TCM    cl2 3205   3.173   4.115   0.293
    1TCM     h1 3206   3.263   3.951   0.442
    1TCM    cl3 3207   3.027   3.946   0.478
    1TCM     c1 3208   2.749   4.099   3.715
    1TCM    cl1 3209   2.839   4.172   3.850
    1TCM    cl2 3210   2.846   4.107   3.567
    1TCM     h1 3211   2.727   3.993   3.739
    1TCM    cl3 3212   2.596   4.187   3.691
    1TCM     c1 3213   2.044   4.527   2.289
    1TCM    cl1 3214   2.181   4.459   2.379
    1TCM    cl2 3215   1.911   4.562   2.403
    1TCM     h1 3216   2.075   4.621   2.239
    1TCM    cl3 3217   1.988   4.410   2.168
    1TCM     c1 3218   1.654   1.773   0.634
    1TCM    cl1 3219   1.487   1.805   0.687
    1TCM    cl2 3220   1.766   1.814   0.765
    1TCM     h1 3221   1.665   1.666   0.608
    1TCM    cl3 3222   1.691   1.872   0.491
    1TCM     c1 3223   0.285   2.842   4.372
    1TCM    cl1 3224   0.289   3.006   4.301
    1TCM    cl2 3225   0.317   2.722   4.244
    1TCM     h1 3226   0.363   2.834   4.450
    1TCM    cl3 3227   0.125   2.812   4.443
    1TCM     c1 3228   0.555   1.554   4.695
    1TCM    cl1 3229   0.545   1.726   4.737
    1TCM    cl2 3230   0.665   1.472   4.809
    1TCM     h1 3231   0.455   1.508   4.701
    1TCM    cl3 3232   0.618   1.537   4.530
    1TCM     c1 3233   5.137   3.002   0.649
    1TCM    cl1 3234   5.008   3.120   0.680
    1TCM    cl2 3235   5.115   2.861   0.755
    1TCM     h1 3236   5.133   2.969   0.543
    1TCM    cl3 3237   5.295   3.077   0.682
    1TCM     c1 3238   2.254   4.214   4.806
    1TCM    cl1 3239   2.365   4.076   4.818
    1TCM    cl2 3240   2.259   4.307   4.957
    1TCM     h1 3241   2.285   4.279   4.721
    1TCM    cl3 3242   2.089   4.155   4.777
    1TCM     c1 3243   3.072   3.472   3.260
    1TCM    cl1 3244   2.916   3.504   3.180
    1TCM    cl2 3245   3.180   3.611   3.237
    1TCM     h1 3246   3.055   3.456   3.368
    1TCM    cl3 3247   3.145   3.326   3.189
    1TCM     c1 3248   2.977   4.358   0.354
    1TCM    cl1 3249   2.978   4.307   0.525
    1TCM    cl2 3250   3.057   4.516   0.339
    1TCM     h1 3251   3.031   4.283   0.293
    1TCM    cl3 3252   2.809   4.371   0.298
    1TCM     c1 3253   3.458   4.493   0.482
    1TCM    cl1 3254   3.520   4.413   0.336
    1TCM    cl2 3255   3.546   4.432   0.625
    1TCM     h1 3256   3.473   4.602   0.474
    1TCM    cl3 3257   3.285   4.458   0.500
    1TCM     c1 3258   2.371   3.721   1.049
    1TCM    cl1 3259   2.517   3.664   0.965
    1TCM    cl2 3260   2.392   3.697   1.225
    1TCM     h1 3261   2.356   3.829   1.028
    1TCM    cl3 3262   2.230   3.629   0.994
    1TCM     c1 3263   4.087   3.927   3.773
    1TCM    cl1 3264   4.184   3.905   3.625
    1TCM    cl2 3265   4.193   3.980   3.906
    1TCM     h1 3266   4.009   4.003   3.756
    1TCM    cl3 3267   4.010   3.772   3.817
    1TCM     c1 3268   5.225   4.774   4.200
    1TCM    cl1 3269   5.070   4.737   4.121
    1TCM    cl2 3270   5.194   4.824   4.368
    1TCM     h1 3271   5.289   4.684   4.200
    1TCM    cl3 3272   5.306   4.906   4.112
    1TCM     c1 3273   4.192   0.335   3.547
    1TCM    cl1 3274   4.228   0.218   3.676
    1TCM    cl2 3275   4.047   0.429   3.592
    1TCM     h1 3276   4.278   0.404   3.534
    1TCM    cl3 3277   4.161   0.248   3.395
    1TCM     c1 3278   2.436   2.663   3.447
    1TCM    cl1 3279   2.403   2.806   3.346
    1TCM    cl2 3280   2.384   2.697   3.614
    1TCM     h1 3281   2.379   2.576   3.408
    1TCM    cl3 3282   2.610   2.627   3.445
    1TCM     c1 3283   4.989   4.699   2.652
    1TCM    cl1 3284   5.129   4.715   2.544
    1TCM    cl2 3285   5.033   4.754   2.815
    1TCM     h1 3286   4.905   4.761   2.613
    1TCM    cl3 3287   4.938   4.529   2.659
    1TCM     c1 3288   2.385   0.839   2.064
    1TCM    cl1 3289   2.292   0.726   1.964
    1TCM    cl2 3290   2.390   0.781   2.232
    1TCM     h1 3291   2.488   0.847   2.024
    1TCM    cl3 3292   2.307   0.999   2.059
    1TCM     c1 3293   0.195   2.351   3.037
    1TCM    cl1 3294   0.044   2.292   2.963
    1TCM    cl2 3295   0.329   2.245   2.989
    1TCM     h1 3296   0.215   2.454   3.003
    1TCM    cl3 3297   0.178   2.349   3.214
    1TCM     c1 3298   1.099   4.054   1.112
    1TCM    cl1 3299   1.102   4.054   0.934
    1TCM    cl2 3300   1.232   3.953   1.173
    1TCM     h1 3301   1.111   4.157   1.149
    1TCM    cl3 3302   0.943   3.988   1.168
    1TCM     c1 3303   2.619   3.070   0.696
    1TCM    cl1 3304   2.762   3.044   0.593
    1TCM    cl2 3305   2.630   3.230   0.774
    1TCM     h1 3306   2.527   3.066   0.634
    1TCM    cl3 3307   2.612   2.944   0.821
    1TCM     c1 3308   0.701   0.668   0.867
    1TCM    cl1 3309   0.867   0.646   0.928
    1TCM    cl2 3310   0.589   0.570   0.964
    1TCM     h1 3311   0.673   0.775   0.874
    1TCM    cl3 3312   0.693   0.617   0.697
    1TCM     c1 3313   5.082   2.111   3.237
    1TCM    cl1 3314   4.976   2.093   3.378
    1TCM    cl2 3315   4.984   2.146   3.093
    1TCM     h1 3316   5.153   2.194   3.255
    1TCM    cl3 3317   5.173   1.960   3.211
    1TCM     c1 3318   2.511   1.005   3.490
    1TCM    cl1 3319   2.640   1.083   3.395
    1TCM    cl2 3320   2.522   1.057   3.660
    1TCM     h1 3321   2.412   1.034   3.449
    1TCM    cl3 3322   2.529   0.828   3.481
    1TCM     c1 3323   5.114   1.028   2.231
    1TCM    cl1 3324   5.149   1.200   2.205
    1TCM    cl2 3325   5.225   0.929   2.133
    1TCM     h1 3326   5.128   1.003   2.339
    1TCM    cl3 3327   4.947   0.993   2.184
    1TCM     c1 3328   3.946   0.547   4.562
    1TCM    cl1 3329   3.896   0.381   4.603
    1TCM    cl2 3330   3.951   0.646   4.709
    1TCM     h1 3331   4.047   0.545   4.515
    1TCM    cl3 3332   3.829   0.617   4.447
    1TCM     c1 3333   5.108   0.884   5.066
    1TCM    cl1 3334   5.203   0.802   4.940
    1TCM    cl2 3335   5.186   0.860   5.224
    1TCM     h1 3336   5.103   0.993   5.043
    1TCM    cl3 3337   4.944   0.816   5.070
    1TCM     c1 3338   2.915   0.601   1.484
    1TCM    cl1 3339   2.836   0.620   1.326
    1TCM    cl2 3340   2.987   0.756   1.533
    1TCM     h1 3341   2.840   0.569   1.559
    1TCM    cl3 3342   3.043   0.478   1.471
    1TCM     c1 3343   2.093   1.370   3.871
    1TCM    cl1 3344   2.082   1.532   3.944
    1TCM    cl2 3345   1.966   1.265   3.940
    1TCM     h1 3346   2.079   1.378   3.761
    1TCM    cl3 3347   2.253   1.300   3.906
    1TCM     c1 3348   3.408   1.392   2.093
    1TCM    cl1 3349   3.349   1.455   1.937
    1TCM    cl2 3350   3.583   1.367   2.085
    1TCM     h1 3351   3.385   1.465   2.173
    1TCM    cl3 3352   3.327   1.238   2.128
    1TCM     c1 3353   3.870   2.141   4.319
    1TCM    cl1 3354   3.960   2.056   4.192
    1TCM    cl2 3355   3.957   2.126   4.474
    1TCM     h1 3356   3.860   2.248   4.293
    1TCM    cl3 3357   3.708   2.068   4.335
    1TCM     c1 3358   1.450   2.369   4.340
    1TCM    cl1 3359   1.324   2.298   4.444
    1TCM    cl2 3360   1.390   2.380   4.173
    1TCM     h1 3361   1.476   2.470   4.377
    1TCM    cl3 3362   1.595   2.266   4.344
    1TCM     c1 3363   0.953   0.458   2.108
    1TCM    cl1 3364   0.817   0.396   2.204
    1TCM    cl2 3365   1.029   0.325   2.018
    1TCM     h1 3366   0.915   0.534   2.036
    1TCM    cl3 3367   1.073   0.533   2.216
   5.54000   5.54000   5.54000
