Generated by Interchange
197
    1MOP     C1    1  -0.333  -0.505   0.017
    1MOP     O2    2  -0.430  -0.539  -0.055
    1MOP     C3    3  -0.296  -0.360   0.012
    1MOP     C4    4  -0.186  -0.305   0.096
    1MOP     C5    5  -0.152  -0.163   0.098
    1MOP     C6    6  -0.222  -0.065   0.012
    1MOP     C7    7  -0.189   0.079   0.010
    1MOP     C8    8  -0.051   0.132  -0.017
    1MOP     C9    9  -0.029   0.278  -0.005
    1MOP    C10   10  -0.137   0.371   0.019
    1MOP    O11   11  -0.102   0.503   0.020
    1MOP    C12   12  -0.203   0.598   0.051
    1MOP    C13   13  -0.272   0.321   0.037
    1MOP    C14   14  -0.297   0.178   0.033
    1MOP    C15   15   0.064   0.047  -0.054
    1MOP    C16   16   0.059  -0.042  -0.172
    1MOP    C17   17   0.171  -0.129  -0.205
    1MOP    C18   18   0.291  -0.129  -0.122
    1MOP    C19   19   0.298  -0.044  -0.003
    1MOP    C20   20   0.184   0.042   0.030
    1MOP    C21   21   0.411  -0.059   0.098
    1MOP    N22   22   0.427  -0.195   0.151
    1MOP    C23   23   0.543  -0.018   0.031
    1MOP    C24   24  -0.325  -0.121  -0.077
    1MOP    C25   25  -0.359  -0.262  -0.078
    1MOP    H26   26  -0.120  -0.373   0.148
    1MOP    H27   27  -0.064  -0.133   0.155
    1MOP    H28   28   0.072   0.316  -0.014
    1MOP    H29   29  -0.156   0.697   0.052
    1MOP    H30   30  -0.245   0.580   0.150
    1MOP    H31   31  -0.281   0.599  -0.026
    1MOP    H32   32  -0.354   0.386   0.064
    1MOP    H33   33  -0.396   0.141   0.056
    1MOP    H34   34  -0.037  -0.063  -0.218
    1MOP    H35   35   0.149  -0.220  -0.260
    1MOP    H36   36   0.353  -0.217  -0.125
    1MOP    H37   37   0.180   0.084   0.130
    1MOP    H38   38   0.396   0.012   0.181
    1MOP    H39   39   0.425  -0.262   0.075
    1MOP    H40   40   0.573  -0.088  -0.048
    1MOP    H41   41   0.624  -0.014   0.105
    1MOP    H42   42   0.535   0.082  -0.014
    1MOP    H43   43  -0.370  -0.056  -0.151
    1MOP    H44   44  -0.428  -0.300  -0.153
    2MOP    C45   45   0.322  -0.237   0.237
    2MOP    O46   46   0.268  -0.344   0.202
    2MOP    C47   47   0.313  -0.200   0.379
    2MOP    C48   48   0.425  -0.137   0.452
    2MOP    C49   49   0.422  -0.115   0.596
    2MOP    C50   50   0.303  -0.145   0.677
    2MOP    C51   51   0.299  -0.122   0.823
    2MOP    C52   52   0.330   0.012   0.885
    2MOP    C53   53   0.339   0.020   1.032
    2MOP    C54   54   0.305  -0.092   1.117
    2MOP    O55   55   0.310  -0.067   1.252
    2MOP    C56   56   0.287  -0.175   1.341
    2MOP    C57   57   0.267  -0.219   1.059
    2MOP    C58   58   0.265  -0.234   0.914
    2MOP    C59   59   0.354   0.134   0.806
    2MOP    C60   60   0.255   0.184   0.708
    2MOP    C61   61   0.283   0.300   0.625
    2MOP    C62   62   0.409   0.370   0.638
    2MOP    C63   63   0.511   0.323   0.732
    2MOP    C64   64   0.483   0.205   0.813
    2MOP    C65   65   0.653   0.380   0.731
    2MOP    N66   66   0.720   0.375   0.601
    2MOP    C67   67   0.647   0.528   0.775
    2MOP    C68   68   0.187  -0.197   0.603
    2MOP    C69   69   0.190  -0.221   0.460
    2MOP    H70   70   0.512  -0.104   0.396
    2MOP    H71   71   0.509  -0.067   0.640
    2MOP    H72   72   0.371   0.113   1.077
    2MOP    H73   73   0.300  -0.138   1.443
    2MOP    H74   74   0.360  -0.255   1.325
    2MOP    H75   75   0.185  -0.212   1.331
    2MOP    H76   76   0.248  -0.307   1.118
    2MOP    H77   77   0.251  -0.332   0.871
    2MOP    H78   78   0.175   0.118   0.677
    2MOP    H79   79   0.233   0.305   0.529
    2MOP    H80   80   0.443   0.428   0.552
    2MOP    H81   81   0.567   0.154   0.859
    2MOP    H82   82   0.713   0.329   0.807
    2MOP    H83   83   0.657   0.409   0.529
    2MOP    H84   84   0.596   0.590   0.701
    2MOP    H85   85   0.747   0.568   0.790
    2MOP    H86   86   0.592   0.538   0.870
    2MOP    H87   87   0.094  -0.214   0.656
    2MOP    H88   88   0.103  -0.258   0.408
    3MOP    C89   89   0.754   0.244   0.558
    3MOP    O90   90   0.709   0.216   0.445
    3MOP    C91   91   0.875   0.173   0.603
    3MOP    C92   92   0.984   0.240   0.676
    3MOP    C93   93   1.110   0.174   0.705
    3MOP    C94   94   1.134   0.032   0.672
    3MOP    C95   95   1.261  -0.036   0.704
    3MOP    C96   96   1.318  -0.041   0.844
    3MOP    C97   97   1.453  -0.097   0.862
    3MOP    C98   98   1.525  -0.159   0.753
    3MOP    O99   99   1.648  -0.212   0.787
    3MOP   C100  100   1.724  -0.274   0.685
    3MOP   C101  101   1.468  -0.164   0.621
    3MOP   C102  102   1.338  -0.104   0.597
    3MOP   C103  103   1.246   0.011   0.962
    3MOP   C104  104   1.112  -0.037   0.998
    3MOP   C105  105   1.039   0.020   1.111
    3MOP   C106  106   1.098   0.127   1.190
    3MOP   C107  107   1.231   0.179   1.154
    3MOP   C108  108   1.302   0.122   1.041
    3MOP   C109  109   1.286   0.305   1.219
    3MOP   N110  110   1.199   0.424   1.207
    3MOP   C111  111   1.308   0.278   1.369
    3MOP   C112  112   1.021  -0.039   0.610
    3MOP   C113  113   0.896   0.028   0.578
    3MOP   H114  114   0.968   0.341   0.711
    3MOP   H115  115   1.184   0.230   0.761
    3MOP   H116  116   1.499  -0.091   0.960
    3MOP   H117  117   1.817  -0.309   0.730
    3MOP   H118  118   1.750  -0.202   0.606
    3MOP   H119  119   1.671  -0.361   0.644
    3MOP   H120  120   1.521  -0.204   0.536
    3MOP   H121  121   1.299  -0.098   0.496
    3MOP   H122  122   1.054  -0.092   0.925
    3MOP   H123  123   0.930   0.015   1.107
    3MOP   H124  124   1.031   0.192   1.244
    3MOP   H125  125   1.384   0.179   0.998
    3MOP   H126  126   1.385   0.328   1.178
    3MOP   H127  127   1.106   0.399   1.235
    3MOP   H128  128   1.214   0.264   1.423
    3MOP   H129  129   1.362   0.361   1.416
    3MOP   H130  130   1.368   0.188   1.384
    3MOP   H131  131   1.028  -0.145   0.591
    3MOP   H132  132   0.814  -0.027   0.533
    4MOP   C133  133   1.185   0.474   1.075
    4MOP   O134  134   1.065   0.484   1.040
    4MOP   C135  135   1.281   0.563   1.010
    4MOP   C136  136   1.391   0.624   1.086
    4MOP   C137  137   1.486   0.714   1.025
    4MOP   C138  138   1.472   0.766   0.889
    4MOP   C139  139   1.563   0.869   0.833
    4MOP   C140  140   1.714   0.863   0.848
    4MOP   C141  141   1.793   0.981   0.807
    4MOP   C142  142   1.733   1.096   0.744
    4MOP   O143  143   1.821   1.196   0.709
    4MOP   C144  144   1.769   1.309   0.642
    4MOP   C145  145   1.590   1.102   0.726
    4MOP   C146  146   1.507   0.991   0.769
    4MOP   C147  147   1.785   0.748   0.906
    4MOP   C148  148   1.766   0.610   0.856
    4MOP   C149  149   1.825   0.496   0.923
    4MOP   C150  150   1.906   0.515   1.043
    4MOP   C151  151   1.931   0.650   1.094
    4MOP   C152  152   1.868   0.764   1.028
    4MOP   C153  153   2.010   0.674   1.221
    4MOP   N154  154   1.956   0.614   1.341
    4MOP   C155  155   2.153   0.620   1.202
    4MOP   C156  156   1.365   0.702   0.809
    4MOP   C157  157   1.277   0.601   0.867
    4MOP   H158  158   1.403   0.597   1.190
    4MOP   H159  159   1.581   0.725   1.076
    4MOP   H160  160   1.900   0.980   0.823
    4MOP   H161  161   1.853   1.374   0.616
    4MOP   H162  162   1.702   1.366   0.707
    4MOP   H163  163   1.719   1.280   0.549
    4MOP   H164  164   1.539   1.192   0.693
    4MOP   H165  165   1.399   1.003   0.770
    4MOP   H166  166   1.683   0.591   0.788
    4MOP   H167  167   1.778   0.399   0.908
    4MOP   H168  168   1.918   0.431   1.110
    4MOP   H169  169   1.858   0.856   1.084
    4MOP   H170  170   2.022   0.782   1.236
    4MOP   H171  171   1.939   0.514   1.333
    4MOP   H172  172   2.155   0.511   1.190
    4MOP   H173  173   2.216   0.645   1.289
    4MOP   H174  174   2.200   0.665   1.114
    4MOP   H175  175   1.357   0.723   0.703
    4MOP   H176  176   1.203   0.552   0.805
    5CAP   C177  177  -0.299  -0.710   0.127
    5CAP   O178  178  -0.253  -0.577   0.104
    5CAP   H179  179  -0.398  -0.709   0.173
    5CAP   H180  180  -0.230  -0.758   0.197
    5CAP   H181  181  -0.299  -0.768   0.034
    6CAP   C182  182   1.725   1.018   1.419
    6CAP   C183  183   1.695   0.867   1.422
    6CAP   C184  184   1.637   0.833   1.559
    6CAP   C185  185   1.593   0.841   1.312
    6CAP   O186  186   1.823   0.806   1.392
    6CAP   C187  187   1.838   0.669   1.395
    6CAP   O188  188   1.770   0.578   1.447
    6CAP   H189  189   1.634   1.078   1.436
    6CAP   H190  190   1.799   1.045   1.495
    6CAP   H191  191   1.768   1.048   1.322
    6CAP   H192  192   1.713   0.842   1.638
    6CAP   H193  193   1.598   0.731   1.563
    6CAP   H194  194   1.553   0.899   1.584
    6CAP   H195  195   1.632   0.873   1.216
    6CAP   H196  196   1.569   0.734   1.305
    6CAP   H197  197   1.499   0.895   1.330
  5.0000000  5.0000000  5.0000000
