FOO
 3367
    1MOP     C1    1   1.658   3.258   3.393
    1MOP     O2    2   1.755   3.274   3.319
    1MOP     C3    3   1.609   3.120   3.417
    1MOP     C4    4   1.497   3.098   3.502
    1MOP     C5    5   1.452   2.967   3.529
    1MOP     C6    6   1.518   2.855   3.472
    1MOP     C7    7   1.475   2.717   3.506
    1MOP     C8    8   1.339   2.675   3.502
    1MOP     C9    9   1.305   2.544   3.542
    1MOP    C10   10   1.403   2.452   3.584
    1MOP    O11   11   1.360   2.324   3.617
    1MOP    C12   12   1.461   2.230   3.664
    1MOP    C13   13   1.538   2.495   3.589
    1MOP    C14   14   1.573   2.625   3.550
    1MOP    C15   15   1.232   2.760   3.443
    1MOP    C16   16   1.238   2.795   3.306
    1MOP    C17   17   1.133   2.867   3.248
    1MOP    C18   18   1.023   2.908   3.326
    1MOP    C19   19   1.017   2.877   3.464
    1MOP    C20   20   1.123   2.803   3.521
    1MOP    C21   21   0.907   2.940   3.552
    1MOP    N22   22   0.873   2.877   3.682
    1MOP    C23   23   0.774   2.972   3.479
    1MOP    C24   24   1.629   2.877   3.387
    1MOP    C25   25   1.673   3.008   3.359
    1MOP    H26   26   1.446   3.182   3.548
    1MOP    H27   27   1.368   2.952   3.596
    1MOP    H28   28   1.201   2.512   3.536
    1MOP    H29   29   1.414   2.132   3.678
    1MOP    H30   30   1.500   2.264   3.760
    1MOP    H31   31   1.541   2.219   3.591
    1MOP    H32   32   1.618   2.429   3.622
    1MOP    H33   33   1.678   2.656   3.557
    1MOP    H34   34   1.323   2.763   3.246
    1MOP    H35   35   1.137   2.892   3.142
    1MOP    H36   36   0.946   2.967   3.277
    1MOP    H37   37   1.123   2.780   3.628
    1MOP    H38   38   0.946   3.038   3.579
    1MOP    H39   39   0.832   2.937   3.752
    1MOP    H40   40   0.700   3.006   3.552
    1MOP    H41   41   0.736   2.884   3.427
    1MOP    H42   42   0.790   3.052   3.407
    1MOP    H43   43   1.680   2.792   3.342
    1MOP    H44   44   1.759   3.021   3.293
    2MOP    C45   45   0.868   2.746   3.725
    2MOP    O46   46   0.843   2.734   3.844
    2MOP    C47   47   0.889   2.623   3.644
    2MOP    C48   48   0.826   2.603   3.519
    2MOP    C49   49   0.834   2.477   3.454
    2MOP    C50   50   0.903   2.370   3.514
    2MOP    C51   51   0.898   2.233   3.454
    2MOP    C52   52   0.922   2.208   3.315
    2MOP    C53   53   0.900   2.079   3.263
    2MOP    C54   54   0.859   1.972   3.345
    2MOP    O55   55   0.842   1.849   3.283
    2MOP    C56   56   0.815   1.735   3.367
    2MOP    C57   57   0.837   1.996   3.482
    2MOP    C58   58   0.857   2.125   3.536
    2MOP    C59   59   0.978   2.311   3.222
    2MOP    C60   60   1.090   2.388   3.259
    2MOP    C61   61   1.145   2.480   3.168
    2MOP    C62   62   1.090   2.494   3.039
    2MOP    C63   63   0.979   2.414   2.999
    2MOP    C64   64   0.922   2.325   3.093
    2MOP    C65   65   0.909   2.437   2.864
    2MOP    N66   66   0.842   2.322   2.800
    2MOP    C67   67   0.992   2.510   2.755
    2MOP    C68   68   0.967   2.390   3.638
    2MOP    C69   69   0.961   2.515   3.702
    2MOP    H70   70   0.767   2.681   3.473
    2MOP    H71   71   0.782   2.462   3.359
    2MOP    H72   72   0.920   2.059   3.159
    2MOP    H73   73   0.812   1.645   3.304
    2MOP    H74   74   0.718   1.747   3.416
    2MOP    H75   75   0.894   1.723   3.442
    2MOP    H76   76   0.804   1.918   3.550
    2MOP    H77   77   0.836   2.142   3.641
    2MOP    H78   78   1.134   2.377   3.357
    2MOP    H79   79   1.231   2.539   3.198
    2MOP    H80   80   1.135   2.567   2.972
    2MOP    H81   81   0.834   2.268   3.067
    2MOP    H82   82   0.827   2.506   2.887
    2MOP    H83   83   0.768   2.342   2.734
    2MOP    H84   84   0.931   2.519   2.664
    2MOP    H85   85   1.083   2.455   2.733
    2MOP    H86   86   1.017   2.611   2.789
    2MOP    H87   87   1.020   2.309   3.687
    2MOP    H88   88   1.007   2.528   3.799
    3MOP    C89   89   0.868   2.186   2.799
    3MOP    O90   90   0.782   2.121   2.740
    3MOP    C91   91   0.986   2.114   2.854
    3MOP    C92   92   1.119   2.158   2.831
    3MOP    C93   93   1.228   2.075   2.864
    3MOP    C94   94   1.206   1.947   2.919
    3MOP    C95   95   1.317   1.849   2.932
    3MOP    C96   96   1.434   1.872   3.011
    3MOP    C97   97   1.540   1.778   3.002
    3MOP    C98   98   1.533   1.664   2.921
    3MOP    O99   99   1.643   1.578   2.921
    3MOP   C100  100   1.637   1.460   2.837
    3MOP   C101  101   1.416   1.641   2.845
    3MOP   C102  102   1.309   1.733   2.851
    3MOP   C103  103   1.449   1.986   3.107
    3MOP   C104  104   1.339   2.032   3.184
    3MOP   C105  105   1.355   2.136   3.278
    3MOP   C106  106   1.482   2.192   3.299
    3MOP   C107  107   1.595   2.145   3.228
    3MOP   C108  108   1.576   2.044   3.130
    3MOP   C109  109   1.734   2.208   3.245
    3MOP   N110  110   1.849   2.115   3.257
    3MOP   C111  111   1.747   2.311   3.360
    3MOP   C112  112   1.074   1.905   2.947
    3MOP   C113  113   0.966   1.988   2.915
    3MOP   H114  114   1.137   2.252   2.780
    3MOP   H115  115   1.329   2.106   2.841
    3MOP   H116  116   1.630   1.790   3.061
    3MOP   H117  117   1.730   1.405   2.849
    3MOP   H118  118   1.627   1.490   2.732
    3MOP   H119  119   1.554   1.397   2.867
    3MOP   H120  120   1.404   1.555   2.781
    3MOP   H121  121   1.221   1.716   2.791
    3MOP   H122  122   1.241   1.986   3.174
    3MOP   H123  123   1.270   2.171   3.335
    3MOP   H124  124   1.489   2.273   3.371
    3MOP   H125  125   1.662   2.012   3.072
    3MOP   H126  126   1.752   2.266   3.154
    3MOP   H127  127   1.942   2.152   3.243
    3MOP   H128  128   1.849   2.350   3.361
    3MOP   H129  129   1.725   2.263   3.455
    3MOP   H130  130   1.679   2.394   3.342
    3MOP   H131  131   1.056   1.806   2.988
    3MOP   H132  132   0.865   1.953   2.933
    4MOP   C133  133   1.859   1.988   3.309
    4MOP   O134  134   1.972   1.942   3.306
    4MOP   C135  135   1.750   1.906   3.369
    4MOP   C136  136   1.682   1.946   3.487
    4MOP   C137  137   1.596   1.856   3.554
    4MOP   C138  138   1.575   1.725   3.504
    4MOP   C139  139   1.502   1.621   3.585
    4MOP   C140  140   1.382   1.647   3.659
    4MOP   C141  141   1.329   1.546   3.744
    4MOP   C142  142   1.390   1.421   3.756
    4MOP   O143  143   1.331   1.330   3.844
    4MOP   C144  144   1.398   1.203   3.865
    4MOP   C145  145   1.506   1.393   3.679
    4MOP   C146  146   1.560   1.492   3.594
    4MOP   C147  147   1.309   1.775   3.653
    4MOP   C148  148   1.265   1.828   3.529
    4MOP   C149  149   1.193   1.949   3.526
    4MOP   C150  150   1.168   2.019   3.646
    4MOP   C151  151   1.212   1.968   3.770
    4MOP   C152  152   1.278   1.843   3.772
    4MOP   C153  153   1.196   2.050   3.898
    4MOP   N154  154   1.331   2.084   3.949
    4MOP   C155  155   1.104   1.980   4.000
    4MOP   C156  156   1.639   1.687   3.384
    4MOP   C157  157   1.727   1.776   3.318
    4MOP   H158  158   1.702   2.043   3.530
    4MOP   H159  159   1.551   1.887   3.648
    4MOP   H160  160   1.239   1.566   3.801
    4MOP   H161  161   1.342   1.147   3.940
    4MOP   H162  162   1.500   1.220   3.901
    4MOP   H163  163   1.399   1.146   3.771
    4MOP   H164  164   1.557   1.298   3.685
    4MOP   H165  165   1.651   1.469   3.541
    4MOP   H166  166   1.287   1.775   3.436
    4MOP   H167  167   1.157   1.988   3.431
    4MOP   H168  168   1.117   2.115   3.640
    4MOP   H169  169   1.310   1.800   3.867
    4MOP   H170  170   1.147   2.145   3.872
    4MOP   H171  171   1.381   2.156   3.898
    4MOP   H172  172   1.141   1.879   4.022
    4MOP   H173  173   1.003   1.972   3.957
    4MOP   H174  174   1.100   2.039   4.092
    4MOP   H175  175   1.625   1.587   3.343
    4MOP   H176  176   1.781   1.742   3.230
    5CAP   C177  177   1.648   3.495   3.429
    5CAP   O178  178   1.594   3.363   3.455
    5CAP   H179  179   1.752   3.500   3.464
    5CAP   H180  180   1.588   3.568   3.484
    5CAP   H181  181   1.643   3.517   3.322
    6CAP   C182  182   1.769   1.932   3.923
    6CAP   C183  183   1.644   1.906   4.010
    6CAP   C184  184   1.600   1.759   3.982
    6CAP   C185  185   1.685   1.927   4.158
    6CAP   O186  186   1.547   2.006   3.964
    6CAP   C187  187   1.419   1.998   4.008
    6CAP   O188  188   1.380   1.932   4.104
    6CAP   H189  189   1.848   1.861   3.949
    6CAP   H190  190   1.743   1.921   3.817
    6CAP   H191  191   1.805   2.033   3.942
    6CAP   H192  192   1.570   1.749   3.877
    6CAP   H193  193   1.517   1.731   4.047
    6CAP   H194  194   1.684   1.692   4.003
    6CAP   H195  195   1.717   2.031   4.172
    6CAP   H196  196   1.602   1.905   4.224
    6CAP   H197  197   1.768   1.860   4.182
    7TCM     c1  198   4.455   0.338   2.540
    7TCM    cl1  199   4.593   0.432   2.476
    7TCM    cl2  200   4.342   0.450   2.624
    7TCM     h1  201   4.402   0.289   2.458
    7TCM    cl3  202   4.513   0.214   2.657
    8TCM     c1  203   1.457   2.219   4.267
    8TCM    cl1  204   1.301   2.306   4.276
    8TCM    cl2  205   1.546   2.237   4.422
    8TCM     h1  206   1.439   2.113   4.248
    8TCM    cl3  207   1.556   2.291   4.136
    9TCM     c1  208   1.770   2.231   0.703
    9TCM    cl1  209   1.935   2.162   0.716
    9TCM    cl2  210   1.756   2.323   0.549
    9TCM     h1  211   1.696   2.150   0.704
    9TCM    cl3  212   1.741   2.341   0.841
   10TCM     c1  213   2.719   0.428   3.453
   10TCM    cl1  214   2.731   0.387   3.278
   10TCM    cl2  215   2.827   0.321   3.547
   10TCM     h1  216   2.748   0.532   3.468
   10TCM    cl3  217   2.549   0.404   3.506
   11TCM     c1  218   2.321   1.389   2.735
   11TCM    cl1  219   2.361   1.518   2.854
   11TCM    cl2  220   2.438   1.254   2.753
   11TCM     h1  221   2.220   1.352   2.753
   11TCM    cl3  222   2.332   1.457   2.569
   12TCM     c1  223   0.077   1.252   0.140
   12TCM    cl1  224  -0.025   1.260  -0.007
   12TCM    cl2  225   0.099   1.080   0.190
   12TCM     h1  226   0.175   1.296   0.119
   12TCM    cl3  227  -0.003   1.343   0.272
   13TCM     c1  228   2.769   0.659   2.523
   13TCM    cl1  229   2.637   0.779   2.546
   13TCM    cl2  230   2.699   0.494   2.528
   13TCM     h1  231   2.817   0.676   2.426
   13TCM    cl3  232   2.889   0.677   2.654
   14TCM     c1  233   3.571   3.966   4.206
   14TCM    cl1  234   3.564   4.094   4.079
   14TCM    cl2  235   3.575   4.043   4.368
   14TCM     h1  236   3.484   3.902   4.197
   14TCM    cl3  237   3.720   3.869   4.181
   15TCM     c1  238   0.493   3.845   3.353
   15TCM    cl1  239   0.412   3.760   3.488
   15TCM    cl2  240   0.610   3.733   3.275
   15TCM     h1  241   0.419   3.878   3.280
   15TCM    cl3  242   0.582   3.987   3.417
   16TCM     c1  243   3.898   1.117   2.468
   16TCM    cl1  244   3.998   1.165   2.609
   16TCM    cl2  245   3.996   1.013   2.360
   16TCM     h1  246   3.810   1.063   2.501
   16TCM    cl3  247   3.847   1.264   2.377
   17TCM     c1  248   0.122   3.094   4.050
   17TCM    cl1  249   0.022   3.015   3.924
   17TCM    cl2  250   0.252   2.980   4.101
   17TCM     h1  251   0.166   3.185   4.011
   17TCM    cl3  252   0.020   3.133   4.192
   18TCM     c1  253   0.426   2.640   1.113
   18TCM    cl1  254   0.401   2.814   1.074
   18TCM    cl2  255   0.275   2.573   1.183
   18TCM     h1  256   0.451   2.586   1.022
   18TCM    cl3  257   0.560   2.624   1.232
   19TCM     c1  258   1.183   1.793   1.980
   19TCM    cl1  259   1.007   1.767   1.959
   19TCM    cl2  260   1.269   1.636   1.966
   19TCM     h1  261   1.220   1.862   1.904
   19TCM    cl3  262   1.213   1.864   2.142
   20TCM     c1  263   4.397   4.386   0.422
   20TCM    cl1  264   4.341   4.266   0.543
   20TCM    cl2  265   4.439   4.302   0.269
   20TCM     h1  266   4.317   4.458   0.403
   20TCM    cl3  267   4.541   4.472   0.485
   21TCM     c1  268   2.520   4.974   3.706
   21TCM    cl1  269   2.399   4.932   3.831
   21TCM    cl2  270   2.645   5.082   3.778
   21TCM     h1  271   2.567   4.883   3.668
   21TCM    cl3  272   2.439   5.061   3.572
   22TCM     c1  273   2.735   1.531   2.790
   22TCM    cl1  274   2.872   1.645   2.818
   22TCM    cl2  275   2.780   1.368   2.848
   22TCM     h1  276   2.647   1.566   2.844
   22TCM    cl3  277   2.700   1.523   2.614
   23TCM     c1  278   0.746   2.857   4.561
   23TCM    cl1  279   0.788   2.882   4.734
   23TCM    cl2  280   0.887   2.904   4.459
   23TCM     h1  281   0.722   2.752   4.544
   23TCM    cl3  282   0.606   2.960   4.518
   24TCM     c1  283   4.398   3.351   1.875
   24TCM    cl1  284   4.329   3.247   1.746
   24TCM    cl2  285   4.276   3.373   2.005
   24TCM     h1  286   4.486   3.302   1.917
   24TCM    cl3  287   4.443   3.510   1.807
   25TCM     c1  288   0.489   3.712   4.527
   25TCM    cl1  289   0.397   3.717   4.373
   25TCM    cl2  290   0.437   3.848   4.631
   25TCM     h1  291   0.470   3.617   4.577
   25TCM    cl3  292   0.665   3.729   4.493
   26TCM     c1  293   2.233   0.613   3.359
   26TCM    cl1  294   2.147   0.557   3.506
   26TCM    cl2  295   2.171   0.776   3.315
   26TCM     h1  296   2.340   0.619   3.379
   26TCM    cl3  297   2.202   0.498   3.226
   27TCM     c1  298   1.119   1.864   2.485
   27TCM    cl1  299   1.124   2.043   2.503
   27TCM    cl2  300   1.009   1.794   2.609
   27TCM     h1  301   1.081   1.839   2.385
   27TCM    cl3  302   1.284   1.798   2.505
   28TCM     c1  303   2.999   4.635   4.585
   28TCM    cl1  304   3.124   4.595   4.463
   28TCM    cl2  305   2.906   4.486   4.624
   28TCM     h1  306   3.047   4.672   4.675
   28TCM    cl3  307   2.888   4.760   4.520
   29TCM     c1  308   2.762   2.377   2.057
   29TCM    cl1  309   2.658   2.464   2.175
   29TCM    cl2  310   2.908   2.475   2.023
   29TCM     h1  311   2.791   2.280   2.098
   29TCM    cl3  312   2.670   2.353   1.905
   30TCM     c1  313   2.922   2.040   4.927
   30TCM    cl1  314   2.984   2.205   4.961
   30TCM    cl2  315   2.909   2.016   4.750
   30TCM     h1  316   2.990   1.966   4.970
   30TCM    cl3  317   2.760   2.022   5.001
   31TCM     c1  318   0.131   4.975   0.907
   31TCM    cl1  319   0.111   4.806   0.848
   31TCM    cl2  320   0.066   4.988   1.073
   31TCM     h1  321   0.237   5.001   0.907
   31TCM    cl3  322   0.043   5.087   0.798
   32TCM     c1  323   3.245   0.665   1.101
   32TCM    cl1  324   3.079   0.661   1.031
   32TCM    cl2  325   3.250   0.786   1.234
   32TCM     h1  326   3.271   0.567   1.140
   32TCM    cl3  327   3.362   0.713   0.974
   33TCM     c1  328   3.828   3.188   1.782
   33TCM    cl1  329   3.734   3.036   1.759
   33TCM    cl2  330   3.981   3.151   1.869
   33TCM     h1  331   3.851   3.231   1.684
   33TCM    cl3  332   3.731   3.305   1.877
   34TCM     c1  333   1.109   0.781   3.411
   34TCM    cl1  334   0.946   0.748   3.345
   34TCM    cl2  335   1.108   0.938   3.498
   34TCM     h1  336   1.137   0.702   3.481
   34TCM    cl3  337   1.229   0.789   3.278
   35TCM     c1  338   0.674   4.900   3.987
   35TCM    cl1  339   0.632   5.065   3.932
   35TCM    cl2  340   0.847   4.895   4.032
   35TCM     h1  341   0.612   4.873   4.073
   35TCM    cl3  342   0.645   4.782   3.854
   36TCM     c1  343   2.814   3.516   3.131
   36TCM    cl1  344   2.873   3.362   3.202
   36TCM    cl2  345   2.953   3.612   3.072
   36TCM     h1  346   2.746   3.494   3.048
   36TCM    cl3  347   2.726   3.609   3.257
   37TCM     c1  348   0.255   1.011   2.502
   37TCM    cl1  349   0.166   0.859   2.466
   37TCM    cl2  350   0.376   1.040   2.373
   37TCM     h1  351   0.185   1.094   2.506
   37TCM    cl3  352   0.340   0.995   2.660
   38TCM     c1  353   4.784   1.965   1.941
   38TCM    cl1  354   4.963   1.958   1.929
   38TCM    cl2  355   4.724   2.103   1.842
   38TCM     h1  356   4.742   1.872   1.903
   38TCM    cl3  357   4.736   1.989   2.112
   39TCM     c1  358   1.456   3.299   2.015
   39TCM    cl1  359   1.616   3.266   2.089
   39TCM    cl2  360   1.413   3.164   1.905
   39TCM     h1  361   1.380   3.309   2.093
   39TCM    cl3  362   1.465   3.452   1.921
   40TCM     c1  363   3.748   1.459   1.904
   40TCM    cl1  364   3.780   1.303   1.822
   40TCM    cl2  365   3.789   1.445   2.078
   40TCM     h1  366   3.809   1.538   1.858
   40TCM    cl3  367   3.574   1.500   1.886
   41TCM     c1  368   0.775   2.018   1.814
   41TCM    cl1  369   0.807   2.083   1.978
   41TCM    cl2  370   0.913   2.055   1.707
   41TCM     h1  371   0.762   1.909   1.821
   41TCM    cl3  372   0.626   2.092   1.747
   42TCM     c1  373   2.204   3.470   1.512
   42TCM    cl1  374   2.265   3.624   1.580
   42TCM    cl2  375   2.093   3.506   1.375
   42TCM     h1  376   2.288   3.410   1.477
   42TCM    cl3  377   2.112   3.380   1.637
   43TCM     c1  378   0.860   4.273   0.789
   43TCM    cl1  379   0.776   4.122   0.739
   43TCM    cl2  380   1.006   4.296   0.687
   43TCM     h1  381   0.793   4.358   0.776
   43TCM    cl3  382   0.908   4.261   0.961
   44TCM     c1  383   0.339   1.073   4.461
   44TCM    cl1  384   0.220   0.945   4.505
   44TCM    cl2  385   0.263   1.234   4.482
   44TCM     h1  386   0.426   1.065   4.525
   44TCM    cl3  387   0.388   1.051   4.289
   45TCM     c1  388   1.072   3.756   4.793
   45TCM    cl1  389   1.148   3.810   4.640
   45TCM    cl2  390   1.199   3.717   4.914
   45TCM     h1  391   1.007   3.835   4.832
   45TCM    cl3  392   0.973   3.609   4.761
   46TCM     c1  393   0.343   0.467   4.536
   46TCM    cl1  394   0.506   0.539   4.511
   46TCM    cl2  395   0.276   0.416   4.378
   46TCM     h1  396   0.352   0.380   4.602
   46TCM    cl3  397   0.234   0.587   4.611
   47TCM     c1  398   1.363   3.818   1.601
   47TCM    cl1  399   1.380   3.919   1.747
   47TCM    cl2  400   1.271   3.908   1.476
   47TCM     h1  401   1.462   3.792   1.562
   47TCM    cl3  402   1.274   3.668   1.644
   48TCM     c1  403   3.373   4.080   4.816
   48TCM    cl1  404   3.405   3.930   4.722
   48TCM    cl2  405   3.435   4.060   4.984
   48TCM     h1  406   3.423   4.165   4.768
   48TCM    cl3  407   3.196   4.110   4.822
   49TCM     c1  408   1.506   1.389   1.205
   49TCM    cl1  409   1.450   1.396   1.375
   49TCM    cl2  410   1.385   1.469   1.098
   49TCM     h1  411   1.602   1.440   1.196
   49TCM    cl3  412   1.523   1.218   1.155
   50TCM     c1  413   3.420   0.560   2.117
   50TCM    cl1  414   3.264   0.487   2.066
   50TCM    cl2  415   3.482   0.472   2.260
   50TCM     h1  416   3.492   0.554   2.035
   50TCM    cl3  417   3.393   0.732   2.159
   51TCM     c1  418   0.135   0.281   1.577
   51TCM    cl1  419   0.052   0.421   1.652
   51TCM    cl2  420   0.313   0.302   1.592
   51TCM     h1  421   0.104   0.189   1.628
   51TCM    cl3  422   0.091   0.271   1.403
   52TCM     c1  423   3.510   2.452   0.894
   52TCM    cl1  424   3.583   2.316   0.985
   52TCM    cl2  425   3.640   2.547   0.816
   52TCM     h1  426   3.442   2.412   0.818
   52TCM    cl3  427   3.418   2.556   1.007
   53TCM     c1  428   3.847   0.015   0.560
   53TCM    cl1  429   3.797  -0.122   0.455
   53TCM    cl2  430   3.886   0.157   0.457
   53TCM     h1  431   3.766   0.041   0.628
   53TCM    cl3  432   3.992  -0.032   0.654
   54TCM     c1  433   0.024   1.751   3.114
   54TCM    cl1  434  -0.125   1.850   3.131
   54TCM    cl2  435  -0.013   1.609   3.011
   54TCM     h1  436   0.102   1.811   3.067
   54TCM    cl3  437   0.080   1.695   3.275
   55TCM     c1  438   2.039   3.328   2.057
   55TCM    cl1  439   1.937   3.251   1.930
   55TCM    cl2  440   2.204   3.351   1.991
   55TCM     h1  441   1.996   3.424   2.085
   55TCM    cl3  442   2.046   3.219   2.199
   56TCM     c1  443   0.483   0.096   4.354
   56TCM    cl1  444   0.456   0.133   4.527
   56TCM    cl2  445   0.556  -0.067   4.338
   56TCM     h1  446   0.387   0.100   4.300
   56TCM    cl3  447   0.596   0.218   4.286
   57TCM     c1  448   4.415   0.349   4.287
   57TCM    cl1  449   4.271   0.357   4.180
   57TCM    cl2  450   4.376   0.418   4.447
   57TCM     h1  451   4.446   0.245   4.299
   57TCM    cl3  452   4.549   0.443   4.213
   58TCM     c1  453   3.633   4.328   1.254
   58TCM    cl1  454   3.711   4.312   1.415
   58TCM    cl2  455   3.648   4.497   1.198
   58TCM     h1  456   3.682   4.261   1.183
   58TCM    cl3  457   3.460   4.285   1.268
   59TCM     c1  458   4.589   4.351   4.491
   59TCM    cl1  459   4.461   4.453   4.562
   59TCM    cl2  460   4.693   4.286   4.622
   59TCM     h1  461   4.543   4.267   4.437
   59TCM    cl3  462   4.688   4.448   4.377
   60TCM     c1  463   4.001   3.989   1.497
   60TCM    cl1  464   3.887   4.003   1.359
   60TCM    cl2  465   3.960   3.843   1.593
   60TCM     h1  466   4.103   3.982   1.460
   60TCM    cl3  467   3.984   4.134   1.601
   61TCM     c1  468   3.586   3.915   3.142
   61TCM    cl1  469   3.699   3.775   3.141
   61TCM    cl2  470   3.658   4.047   3.239
   61TCM     h1  471   3.570   3.949   3.040
   61TCM    cl3  472   3.429   3.866   3.215
   62TCM     c1  473   0.463   0.844   3.000
   62TCM    cl1  474   0.418   0.999   3.078
   62TCM    cl2  475   0.318   0.739   2.986
   62TCM     h1  476   0.503   0.863   2.900
   62TCM    cl3  477   0.587   0.760   3.099
   63TCM     c1  478   3.046   2.319   2.527
   63TCM    cl1  479   3.042   2.433   2.666
   63TCM    cl2  480   2.937   2.380   2.398
   63TCM     h1  481   3.148   2.311   2.489
   63TCM    cl3  482   2.988   2.158   2.581
   64TCM     c1  483   3.668   2.312   2.262
   64TCM    cl1  484   3.702   2.433   2.135
   64TCM    cl2  485   3.603   2.164   2.185
   64TCM     h1  486   3.760   2.287   2.316
   64TCM    cl3  487   3.548   2.379   2.378
   65TCM     c1  488   4.965   0.435   2.262
   65TCM    cl1  489   5.108   0.530   2.313
   65TCM    cl2  490   5.018   0.270   2.214
   65TCM     h1  491   4.895   0.428   2.345
   65TCM    cl3  492   4.886   0.515   2.123
   66TCM     c1  493   0.189   0.251   2.804
   66TCM    cl1  494   0.236   0.080   2.778
   66TCM    cl2  495   0.022   0.256   2.869
   66TCM     h1  496   0.257   0.297   2.876
   66TCM    cl3  497   0.196   0.338   2.648
   67TCM     c1  498   4.938   3.426   1.034
   67TCM    cl1  499   4.832   3.433   0.889
   67TCM    cl2  500   4.867   3.527   1.164
   67TCM     h1  501   4.947   3.322   1.068
   67TCM    cl3  502   5.101   3.489   0.991
   68TCM     c1  503   1.640   3.408   0.705
   68TCM    cl1  504   1.678   3.353   0.871
   68TCM    cl2  505   1.783   3.380   0.600
   68TCM     h1  506   1.555   3.352   0.666
   68TCM    cl3  507   1.602   3.583   0.708
   69TCM     c1  508   2.770   4.506   3.781
   69TCM    cl1  509   2.710   4.509   3.949
   69TCM    cl2  510   2.700   4.646   3.692
   69TCM     h1  511   2.879   4.512   3.780
   69TCM    cl3  512   2.718   4.354   3.702
   70TCM     c1  513   4.746   1.564   0.097
   70TCM    cl1  514   4.653   1.413   0.126
   70TCM    cl2  515   4.659   1.702   0.172
   70TCM     h1  516   4.845   1.555   0.142
   70TCM    cl3  517   4.761   1.592  -0.079
   71TCM     c1  518   3.026   4.682   4.063
   71TCM    cl1  519   3.049   4.511   4.113
   71TCM    cl2  520   3.053   4.694   3.886
   71TCM     h1  521   2.924   4.714   4.087
   71TCM    cl3  522   3.144   4.785   4.149
   72TCM     c1  523   3.611   4.037   1.647
   72TCM    cl1  524   3.451   4.059   1.567
   72TCM    cl2  525   3.612   3.883   1.738
   72TCM     h1  526   3.690   4.035   1.571
   72TCM    cl3  527   3.640   4.174   1.759
   73TCM     c1  528   0.998   0.278   3.155
   73TCM    cl1  529   0.857   0.256   3.263
   73TCM    cl2  530   0.947   0.250   2.985
   73TCM     h1  531   1.037   0.380   3.166
   73TCM    cl3  532   1.126   0.160   3.198
   74TCM     c1  533   0.631   1.295   2.385
   74TCM    cl1  534   0.678   1.457   2.322
   74TCM    cl2  535   0.571   1.312   2.553
   74TCM     h1  536   0.554   1.252   2.322
   74TCM    cl3  537   0.775   1.188   2.386
   75TCM     c1  538   1.075   0.663   2.046
   75TCM    cl1  539   0.939   0.650   1.930
   75TCM    cl2  540   1.228   0.686   1.955
   75TCM     h1  541   1.058   0.749   2.112
   75TCM    cl3  542   1.087   0.513   2.144
   76TCM     c1  543   2.798   1.113   3.616
   76TCM    cl1  544   2.668   1.236   3.632
   76TCM    cl2  545   2.787   1.038   3.454
   76TCM     h1  546   2.895   1.161   3.628
   76TCM    cl3  547   2.777   0.987   3.742
   77TCM     c1  548   4.666   4.781   0.808
   77TCM    cl1  549   4.766   4.806   0.661
   77TCM    cl2  550   4.758   4.833   0.953
   77TCM     h1  551   4.574   4.839   0.800
   77TCM    cl3  552   4.627   4.606   0.823
   78TCM     c1  553   0.604   4.395   4.950
   78TCM    cl1  554   0.475   4.472   4.852
   78TCM    cl2  555   0.544   4.237   5.010
   78TCM     h1  556   0.693   4.381   4.889
   78TCM    cl3  557   0.642   4.500   5.091
   79TCM     c1  558   2.413   3.196   1.737
   79TCM    cl1  559   2.475   3.364   1.732
   79TCM    cl2  560   2.521   3.096   1.839
   79TCM     h1  561   2.312   3.196   1.779
   79TCM    cl3  562   2.407   3.131   1.570
   80TCM     c1  563   0.542   3.042   0.629
   80TCM    cl1  564   0.695   2.950   0.643
   80TCM    cl2  565   0.556   3.197   0.717
   80TCM     h1  566   0.520   3.062   0.523
   80TCM    cl3  567   0.409   2.946   0.701
   81TCM     c1  568   3.257   3.543   0.832
   81TCM    cl1  569   3.174   3.523   0.989
   81TCM    cl2  570   3.262   3.717   0.791
   81TCM     h1  571   3.359   3.503   0.838
   81TCM    cl3  572   3.167   3.453   0.705
   82TCM     c1  573   3.037   2.980   4.690
   82TCM    cl1  574   3.018   3.158   4.685
   82TCM    cl2  575   3.063   2.928   4.860
   82TCM     h1  576   2.947   2.933   4.651
   82TCM    cl3  577   3.178   2.931   4.590
   83TCM     c1  578   0.989   1.041   1.789
   83TCM    cl1  579   1.063   0.918   1.682
   83TCM    cl2  580   1.057   1.026   1.954
   83TCM     h1  581   1.010   1.141   1.750
   83TCM    cl3  582   0.811   1.016   1.796
   84TCM     c1  583   1.849   2.509   4.368
   84TCM    cl1  584   1.762   2.574   4.226
   84TCM    cl2  585   1.887   2.336   4.339
   84TCM     h1  586   1.942   2.565   4.383
   84TCM    cl3  587   1.746   2.526   4.513
   85TCM     c1  588   2.190   3.956   3.779
   85TCM    cl1  589   2.307   3.834   3.718
   85TCM    cl2  590   2.200   3.963   3.958
   85TCM     h1  591   2.213   4.054   3.736
   85TCM    cl3  592   2.024   3.907   3.730
   86TCM     c1  593   0.793   0.281   4.608
   86TCM    cl1  594   0.958   0.352   4.616
   86TCM    cl2  595   0.697   0.338   4.750
   86TCM     h1  596   0.744   0.313   4.516
   86TCM    cl3  597   0.803   0.102   4.612
   87TCM     c1  598   1.119   0.615   2.848
   87TCM    cl1  599   1.129   0.787   2.796
   87TCM    cl2  600   1.016   0.524   2.733
   87TCM     h1  601   1.219   0.572   2.849
   87TCM    cl3  602   1.048   0.607   3.012
   88TCM     c1  603   4.647   2.940   3.028
   88TCM    cl1  604   4.642   2.797   2.921
   88TCM    cl2  605   4.735   3.073   2.944
   88TCM     h1  606   4.546   2.972   3.052
   88TCM    cl3  607   4.734   2.899   3.180
   89TCM     c1  608   3.063   4.595   0.087
   89TCM    cl1  609   3.182   4.697   0.174
   89TCM    cl2  610   2.991   4.689  -0.048
   89TCM     h1  611   3.113   4.506   0.047
   89TCM    cl3  612   2.934   4.546   0.201
   90TCM     c1  613   1.975   0.142   3.351
   90TCM    cl1  614   1.899   0.284   3.272
   90TCM    cl2  615   1.856   0.064   3.461
   90TCM     h1  616   2.008   0.071   3.275
   90TCM    cl3  617   2.117   0.197   3.446
   91TCM     c1  618   0.915   0.764   3.829
   91TCM    cl1  619   0.840   0.632   3.925
   91TCM    cl2  620   0.810   0.804   3.690
   91TCM     h1  621   0.928   0.852   3.892
   91TCM    cl3  622   1.074   0.709   3.767
   92TCM     c1  623   2.191   4.987   2.265
   92TCM    cl1  624   2.051   5.087   2.316
   92TCM    cl2  625   2.134   4.846   2.171
   92TCM     h1  626   2.259   5.047   2.204
   92TCM    cl3  627   2.278   4.930   2.412
   93TCM     c1  628   1.050   1.388   2.244
   93TCM    cl1  629   1.189   1.282   2.286
   93TCM    cl2  630   1.019   1.379   2.067
   93TCM     h1  631   0.961   1.355   2.298
   93TCM    cl3  632   1.089   1.556   2.289
   94TCM     c1  633   1.327   1.565   4.857
   94TCM    cl1  634   1.449   1.682   4.917
   94TCM    cl2  635   1.398   1.399   4.855
   94TCM     h1  636   1.239   1.566   4.921
   94TCM    cl3  637   1.281   1.611   4.689
   95TCM     c1  638   4.381   2.922   2.177
   95TCM    cl1  639   4.423   3.017   2.030
   95TCM    cl2  640   4.427   3.016   2.323
   95TCM     h1  641   4.274   2.903   2.178
   95TCM    cl3  642   4.471   2.767   2.175
   96TCM     c1  643   3.010   4.582   1.249
   96TCM    cl1  644   2.996   4.649   1.415
   96TCM    cl2  645   2.911   4.433   1.236
   96TCM     h1  646   2.973   4.656   1.176
   96TCM    cl3  647   3.181   4.543   1.213
   97TCM     c1  648   4.394   2.421   2.741
   97TCM    cl1  649   4.541   2.437   2.842
   97TCM    cl2  650   4.259   2.360   2.843
   97TCM     h1  651   4.367   2.518   2.700
   97TCM    cl3  652   4.424   2.305   2.608
   98TCM     c1  653   4.170   0.497   3.410
   98TCM    cl1  654   4.311   0.500   3.522
   98TCM    cl2  655   4.217   0.407   3.262
   98TCM     h1  656   4.086   0.448   3.459
   98TCM    cl3  657   4.124   0.664   3.365
   99TCM     c1  658   4.211   0.834   2.929
   99TCM    cl1  659   4.049   0.907   2.903
   99TCM    cl2  660   4.192   0.677   3.013
   99TCM     h1  661   4.260   0.819   2.833
   99TCM    cl3  662   4.309   0.944   3.031
  100TCM     c1  663   2.105   0.180   2.881
  100TCM    cl1  664   1.946   0.260   2.905
  100TCM    cl2  665   2.098   0.075   2.736
  100TCM     h1  666   2.182   0.257   2.867
  100TCM    cl3  667   2.143   0.081   3.025
  101TCM     c1  668   0.281   4.366   3.277
  101TCM    cl1  669   0.412   4.459   3.358
  101TCM    cl2  670   0.289   4.195   3.330
  101TCM     h1  671   0.184   4.409   3.306
  101TCM    cl3  672   0.301   4.375   3.099
  102TCM     c1  673   0.277   1.781   4.563
  102TCM    cl1  674   0.357   1.621   4.575
  102TCM    cl2  675   0.115   1.761   4.489
  102TCM     h1  676   0.267   1.825   4.663
  102TCM    cl3  677   0.376   1.890   4.460
  103TCM     c1  678   1.078   0.051   4.932
  103TCM    cl1  679   0.952   0.177   4.947
  103TCM    cl2  680   1.122   0.029   4.760
  103TCM     h1  681   1.167   0.082   4.989
  103TCM    cl3  682   1.014  -0.102   4.999
  104TCM     c1  683   0.592   2.290   0.910
  104TCM    cl1  684   0.513   2.290   1.071
  104TCM    cl2  685   0.737   2.184   0.913
  104TCM     h1  686   0.522   2.252   0.835
  104TCM    cl3  687   0.641   2.458   0.867
  105TCM     c1  688   4.761   1.606   2.160
  105TCM    cl1  689   4.917   1.681   2.210
  105TCM    cl2  690   4.748   1.442   2.230
  105TCM     h1  691   4.678   1.668   2.196
  105TCM    cl3  692   4.755   1.596   1.981
  106TCM     c1  693   2.880   1.123   2.428
  106TCM    cl1  694   2.773   1.133   2.572
  106TCM    cl2  695   2.787   1.162   2.280
  106TCM     h1  696   2.963   1.192   2.439
  106TCM    cl3  697   2.942   0.955   2.413
  107TCM     c1  698   3.186   0.466   2.492
  107TCM    cl1  699   3.049   0.363   2.543
  107TCM    cl2  700   3.266   0.536   2.636
  107TCM     h1  701   3.258   0.406   2.435
  107TCM    cl3  702   3.123   0.598   2.388
  108TCM     c1  703   2.399   4.584   0.936
  108TCM    cl1  704   2.457   4.749   0.977
  108TCM    cl2  705   2.290   4.594   0.794
  108TCM     h1  706   2.485   4.520   0.912
  108TCM    cl3  707   2.310   4.516   1.075
  109TCM     c1  708   0.514   3.084   3.875
  109TCM    cl1  709   0.431   3.243   3.886
  109TCM    cl2  710   0.690   3.109   3.856
  109TCM     h1  711   0.494   3.026   3.966
  109TCM    cl3  712   0.450   2.996   3.732
  110TCM     c1  713   2.487   4.864   1.812
  110TCM    cl1  714   2.404   4.985   1.916
  110TCM    cl2  715   2.382   4.720   1.795
  110TCM     h1  716   2.506   4.907   1.714
  110TCM    cl3  717   2.643   4.817   1.888
  111TCM     c1  718   2.515   4.713   3.219
  111TCM    cl1  719   2.368   4.782   3.144
  111TCM    cl2  720   2.504   4.733   3.397
  111TCM     h1  721   2.522   4.606   3.195
  111TCM    cl3  722   2.660   4.798   3.158
  112TCM     c1  723   3.619   3.646   4.585
  112TCM    cl1  724   3.517   3.686   4.443
  112TCM    cl2  725   3.786   3.703   4.555
  112TCM     h1  726   3.579   3.695   4.674
  112TCM    cl3  727   3.621   3.468   4.609
  113TCM     c1  728   1.680   4.846   4.418
  113TCM    cl1  729   1.559   4.841   4.549
  113TCM    cl2  730   1.653   4.706   4.308
  113TCM     h1  731   1.671   4.939   4.362
  113TCM    cl3  732   1.845   4.833   4.489
  114TCM     c1  733   3.336   3.581   1.685
  114TCM    cl1  734   3.201   3.472   1.638
  114TCM    cl2  735   3.391   3.541   1.851
  114TCM     h1  736   3.419   3.568   1.615
  114TCM    cl3  737   3.279   3.751   1.680
  115TCM     c1  738   4.999   2.665   1.759
  115TCM    cl1  739   5.079   2.810   1.829
  115TCM    cl2  740   4.933   2.704   1.597
  115TCM     h1  741   5.072   2.584   1.751
  115TCM    cl3  742   4.865   2.614   1.867
  116TCM     c1  743   1.811   0.788   3.268
  116TCM    cl1  744   1.873   0.924   3.169
  116TCM    cl2  745   1.851   0.632   3.189
  116TCM     h1  746   1.857   0.791   3.367
  116TCM    cl3  747   1.633   0.802   3.283
  117TCM     c1  748   1.588   4.812   3.345
  117TCM    cl1  749   1.553   4.778   3.518
  117TCM    cl2  750   1.434   4.819   3.253
  117TCM     h1  751   1.640   4.907   3.336
  117TCM    cl3  752   1.689   4.681   3.277
  118TCM     c1  753   1.165   3.220   3.383
  118TCM    cl1  754   1.161   3.242   3.561
  118TCM    cl2  755   1.288   3.329   3.311
  118TCM     h1  756   1.190   3.116   3.359
  118TCM    cl3  757   1.003   3.261   3.316
  119TCM     c1  758   4.643   2.345   2.159
  119TCM    cl1  759   4.556   2.414   2.018
  119TCM    cl2  760   4.602   2.440   2.305
  119TCM     h1  761   4.612   2.241   2.174
  119TCM    cl3  762   4.820   2.351   2.130
  120TCM     c1  763   2.393   1.288   1.794
  120TCM    cl1  764   2.351   1.343   1.959
  120TCM    cl2  765   2.443   1.429   1.695
  120TCM     h1  766   2.475   1.216   1.799
  120TCM    cl3  767   2.249   1.210   1.719
  121TCM     c1  768   1.416   0.181   3.514
  121TCM    cl1  769   1.271   0.075   3.525
  121TCM    cl2  770   1.497   0.155   3.357
  121TCM     h1  771   1.385   0.285   3.523
  121TCM    cl3  772   1.528   0.139   3.648
  122TCM     c1  773   4.243   3.547   2.478
  122TCM    cl1  774   4.302   3.405   2.386
  122TCM    cl2  775   4.081   3.511   2.546
  122TCM     h1  776   4.313   3.570   2.559
  122TCM    cl3  777   4.230   3.689   2.367
  123TCM     c1  778   4.262   1.010   3.689
  123TCM    cl1  779   4.242   0.837   3.648
  123TCM    cl2  780   4.437   1.052   3.687
  123TCM     h1  781   4.209   1.071   3.616
  123TCM    cl3  782   4.195   1.040   3.853
  124TCM     c1  783   3.711   1.898   2.475
  124TCM    cl1  784   3.577   1.824   2.382
  124TCM    cl2  785   3.661   2.060   2.535
  124TCM     h1  786   3.736   1.834   2.560
  124TCM    cl3  787   3.854   1.916   2.369
  125TCM     c1  788   4.960   3.926   3.212
  125TCM    cl1  789   5.098   3.873   3.312
  125TCM    cl2  790   4.930   3.805   3.082
  125TCM     h1  791   4.871   3.936   3.274
  125TCM    cl3  792   4.997   4.085   3.136
  126TCM     c1  793   0.433   2.022   0.017
  126TCM    cl1  794   0.276   2.109   0.029
  126TCM    cl2  795   0.434   1.927  -0.135
  126TCM     h1  796   0.515   2.094   0.016
  126TCM    cl3  797   0.451   1.912   0.157
  127TCM     c1  798   3.573   1.491   3.125
  127TCM    cl1  799   3.494   1.623   3.217
  127TCM    cl2  800   3.486   1.467   2.970
  127TCM     h1  801   3.677   1.517   3.105
  127TCM    cl3  802   3.567   1.339   3.220
  128TCM     c1  803   1.460   2.537   2.531
  128TCM    cl1  804   1.604   2.443   2.580
  128TCM    cl2  805   1.356   2.438   2.422
  128TCM     h1  806   1.403   2.565   2.620
  128TCM    cl3  807   1.514   2.685   2.446
  129TCM     c1  808   0.440   2.728   4.863
  129TCM    cl1  809   0.413   2.897   4.810
  129TCM    cl2  810   0.573   2.724   4.983
  129TCM     h1  811   0.348   2.689   4.907
  129TCM    cl3  812   0.484   2.630   4.719
  130TCM     c1  813   0.671   4.747   4.645
  130TCM    cl1  814   0.754   4.737   4.804
  130TCM    cl2  815   0.501   4.797   4.672
  130TCM     h1  816   0.721   4.820   4.582
  130TCM    cl3  817   0.674   4.586   4.567
  131TCM     c1  818   4.769   4.606   4.853
  131TCM    cl1  819   4.753   4.652   4.681
  131TCM    cl2  820   4.894   4.479   4.869
  131TCM     h1  821   4.797   4.693   4.913
  131TCM    cl3  822   4.612   4.540   4.911
  132TCM     c1  823   0.896   0.597   0.495
  132TCM    cl1  824   0.939   0.612   0.669
  132TCM    cl2  825   0.919   0.427   0.443
  132TCM     h1  826   0.792   0.626   0.481
  132TCM    cl3  827   1.002   0.705   0.398
  133TCM     c1  828   2.524   0.193   3.056
  133TCM    cl1  829   2.457   0.132   3.211
  133TCM    cl2  830   2.425   0.331   2.998
  133TCM     h1  831   2.627   0.226   3.072
  133TCM    cl3  832   2.520   0.063   2.932
  134TCM     c1  833   0.457   1.497   3.041
  134TCM    cl1  834   0.311   1.402   3.085
  134TCM    cl2  835   0.546   1.412   2.910
  134TCM     h1  836   0.426   1.596   3.006
  134TCM    cl3  837   0.563   1.515   3.185
  135TCM     c1  838   0.140   4.226   4.860
  135TCM    cl1  839   0.271   4.117   4.803
  135TCM    cl2  840   0.189   4.305   5.013
  135TCM     h1  841   0.120   4.302   4.784
  135TCM    cl3  842  -0.008   4.129   4.889
  136TCM     c1  843   4.221   1.130   1.992
  136TCM    cl1  844   4.321   1.276   1.967
  136TCM    cl2  845   4.055   1.179   2.038
  136TCM     h1  846   4.218   1.072   1.899
  136TCM    cl3  847   4.292   1.030   2.123
  137TCM     c1  848   1.102   0.561   1.592
  137TCM    cl1  849   1.097   0.415   1.697
  137TCM    cl2  850   1.037   0.519   1.430
  137TCM     h1  851   1.040   0.639   1.637
  137TCM    cl3  852   1.271   0.618   1.577
  138TCM     c1  853   2.193   1.711   3.287
  138TCM    cl1  854   2.289   1.717   3.439
  138TCM    cl2  855   2.187   1.543   3.227
  138TCM     h1  856   2.091   1.747   3.307
  138TCM    cl3  857   2.272   1.815   3.164
  139TCM     c1  858   2.604   3.546   3.607
  139TCM    cl1  859   2.642   3.721   3.591
  139TCM    cl2  860   2.492   3.525   3.746
  139TCM     h1  861   2.556   3.511   3.515
  139TCM    cl3  862   2.755   3.454   3.637
  140TCM     c1  863   0.863   1.061   3.170
  140TCM    cl1  864   0.909   0.945   3.040
  140TCM    cl2  865   0.744   1.178   3.106
  140TCM     h1  866   0.820   1.006   3.254
  140TCM    cl3  867   1.010   1.149   3.223
  141TCM     c1  868   0.934   4.276   1.398
  141TCM    cl1  869   0.779   4.302   1.311
  141TCM    cl2  870   1.009   4.436   1.432
  141TCM     h1  871   0.914   4.224   1.492
  141TCM    cl3  872   1.045   4.178   1.297
  142TCM     c1  873   3.476   4.125   2.435
  142TCM    cl1  874   3.645   4.174   2.471
  142TCM    cl2  875   3.476   3.973   2.340
  142TCM     h1  876   3.422   4.110   2.529
  142TCM    cl3  877   3.396   4.255   2.339
  143TCM     c1  878   0.455   2.578   3.092
  143TCM    cl1  879   0.583   2.454   3.066
  143TCM    cl2  880   0.467   2.639   3.260
  143TCM     h1  881   0.469   2.661   3.022
  143TCM    cl3  882   0.294   2.503   3.066
  144TCM     c1  883   1.668   3.577   1.224
  144TCM    cl1  884   1.795   3.614   1.103
  144TCM    cl2  885   1.617   3.728   1.306
  144TCM     h1  886   1.582   3.532   1.174
  144TCM    cl3  887   1.732   3.462   1.346
  145TCM     c1  888   1.568   1.432   2.195
  145TCM    cl1  889   1.458   1.545   2.280
  145TCM    cl2  890   1.717   1.410   2.292
  145TCM     h1  891   1.518   1.336   2.182
  145TCM    cl3  892   1.612   1.501   2.035
  146TCM     c1  893   3.938   4.995   3.813
  146TCM    cl1  894   3.995   4.869   3.699
  146TCM    cl2  895   4.014   4.968   3.974
  146TCM     h1  896   3.968   5.094   3.775
  146TCM    cl3  897   3.760   4.988   3.828
  147TCM     c1  898   0.215   4.484   4.426
  147TCM    cl1  899   0.292   4.389   4.557
  147TCM    cl2  900   0.298   4.643   4.412
  147TCM     h1  901   0.225   4.430   4.331
  147TCM    cl3  902   0.042   4.508   4.464
  148TCM     c1  903   1.226   1.965   0.204
  148TCM    cl1  904   1.206   1.787   0.185
  148TCM    cl2  905   1.400   2.003   0.216
  148TCM     h1  906   1.183   2.016   0.118
  148TCM    cl3  907   1.142   2.019   0.353
  149TCM     c1  908   2.719   2.841   4.959
  149TCM    cl1  909   2.694   2.960   4.827
  149TCM    cl2  910   2.630   2.691   4.919
  149TCM     h1  911   2.826   2.819   4.969
  149TCM    cl3  912   2.656   2.908   5.114
  150TCM     c1  913   3.578   1.139   2.851
  150TCM    cl1  914   3.515   0.990   2.774
  150TCM    cl2  915   3.662   1.241   2.729
  150TCM     h1  916   3.495   1.195   2.896
  150TCM    cl3  917   3.696   1.093   2.979
  151TCM     c1  918   3.441   0.138   1.871
  151TCM    cl1  919   3.528   0.295   1.870
  151TCM    cl2  920   3.473   0.052   1.716
  151TCM     h1  921   3.476   0.077   1.954
  151TCM    cl3  922   3.265   0.168   1.887
  152TCM     c1  923   3.660   2.503   1.294
  152TCM    cl1  924   3.634   2.573   1.457
  152TCM    cl2  925   3.758   2.353   1.309
  152TCM     h1  926   3.563   2.479   1.248
  152TCM    cl3  927   3.747   2.621   1.190
  153TCM     c1  928   2.984   4.111   2.455
  153TCM    cl1  929   2.921   4.192   2.602
  153TCM    cl2  930   3.129   4.014   2.498
  153TCM     h1  931   2.908   4.047   2.412
  153TCM    cl3  932   3.032   4.237   2.336
  154TCM     c1  933   4.302   0.885   2.506
  154TCM    cl1  934   4.177   0.774   2.572
  154TCM    cl2  935   4.448   0.790   2.462
  154TCM     h1  936   4.263   0.936   2.418
  154TCM    cl3  937   4.346   1.005   2.632
  155TCM     c1  938   1.180   1.963   4.655
  155TCM    cl1  939   1.002   1.971   4.635
  155TCM    cl2  940   1.221   1.964   4.829
  155TCM     h1  941   1.218   1.871   4.608
  155TCM    cl3  942   1.255   2.105   4.576
  156TCM     c1  943   2.545   4.486   4.300
  156TCM    cl1  944   2.712   4.551   4.297
  156TCM    cl2  945   2.543   4.321   4.229
  156TCM     h1  946   2.510   4.481   4.403
  156TCM    cl3  947   2.438   4.592   4.203
  157TCM     c1  948   2.141   4.922   4.966
  157TCM    cl1  949   2.024   4.982   5.088
  157TCM    cl2  950   2.309   4.964   5.016
  157TCM     h1  951   2.132   4.814   4.957
  157TCM    cl3  952   2.107   4.998   4.807
  158TCM     c1  953   2.144   0.858   2.805
  158TCM    cl1  954   2.165   0.744   2.941
  158TCM    cl2  955   2.304   0.897   2.734
  158TCM     h1  956   2.080   0.812   2.728
  158TCM    cl3  957   2.066   1.009   2.864
  159TCM     c1  958   2.068   2.260   4.847
  159TCM    cl1  959   1.996   2.310   4.690
  159TCM    cl2  960   2.179   2.122   4.819
  159TCM     h1  961   2.123   2.344   4.891
  159TCM    cl3  962   1.937   2.209   4.959
  160TCM     c1  963   2.140   1.696   1.628
  160TCM    cl1  964   2.187   1.696   1.801
  160TCM    cl2  965   2.104   1.527   1.577
  160TCM     h1  966   2.051   1.758   1.614
  160TCM    cl3  967   2.275   1.761   1.529
  161TCM     c1  968   2.595   2.755   0.507
  161TCM    cl1  969   2.650   2.808   0.669
  161TCM    cl2  970   2.474   2.872   0.445
  161TCM     h1  971   2.681   2.750   0.439
  161TCM    cl3  972   2.520   2.593   0.520
  162TCM     c1  973   3.031   1.951   1.889
  162TCM    cl1  974   2.897   2.070   1.895
  162TCM    cl2  975   3.105   1.951   1.725
  162TCM     h1  976   3.107   1.978   1.963
  162TCM    cl3  977   2.967   1.788   1.927
  163TCM     c1  978   4.655   4.611   2.363
  163TCM    cl1  979   4.628   4.712   2.509
  163TCM    cl2  980   4.652   4.714   2.216
  163TCM     h1  981   4.752   4.561   2.371
  163TCM    cl3  982   4.525   4.488   2.351
  164TCM     c1  983   3.050   0.216   4.452
  164TCM    cl1  984   3.158   0.298   4.569
  164TCM    cl2  985   3.049   0.308   4.297
  164TCM     h1  986   3.085   0.114   4.433
  164TCM    cl3  987   2.884   0.211   4.519
  165TCM     c1  988   3.696   3.911   3.695
  165TCM    cl1  989   3.859   3.875   3.762
  165TCM    cl2  990   3.570   3.841   3.801
  165TCM     h1  991   3.682   4.019   3.687
  165TCM    cl3  992   3.683   3.836   3.532
  166TCM     c1  993   1.954   1.216   2.481
  166TCM    cl1  994   1.897   1.093   2.363
  166TCM    cl2  995   2.114   1.167   2.545
  166TCM     h1  996   1.963   1.312   2.430
  166TCM    cl3  997   1.838   1.230   2.617
  167TCM     c1  998   2.589   0.156   4.717
  167TCM    cl1  999   2.666  -0.005   4.712
  167TCM    cl2 1000   2.611   0.227   4.880
  167TCM     h1 1001   2.634   0.221   4.642
  167TCM    cl3 1002   2.414   0.139   4.684
  168TCM     c1 1003   2.480   2.658   1.864
  168TCM    cl1 1004   2.567   2.760   1.983
  168TCM    cl2 1005   2.409   2.762   1.736
  168TCM     h1 1006   2.550   2.588   1.818
  168TCM    cl3 1007   2.349   2.568   1.947
  169TCM     c1 1008   0.829   4.692   1.241
  169TCM    cl1 1009   0.707   4.821   1.266
  169TCM    cl2 1010   0.993   4.764   1.239
  169TCM     h1 1011   0.822   4.619   1.321
  169TCM    cl3 1012   0.798   4.612   1.083
  170TCM     c1 1013   3.864   2.254   4.314
  170TCM    cl1 1014   3.816   2.314   4.476
  170TCM    cl2 1015   3.845   2.075   4.309
  170TCM     h1 1016   3.800   2.299   4.237
  170TCM    cl3 1017   4.035   2.297   4.282
  171TCM     c1 1018   1.747   4.669   4.829
  171TCM    cl1 1019   1.925   4.678   4.807
  171TCM    cl2 1020   1.709   4.672   5.005
  171TCM     h1 1021   1.700   4.755   4.781
  171TCM    cl3 1022   1.686   4.517   4.756
  172TCM     c1 1023   3.324   3.622   0.353
  172TCM    cl1 1024   3.292   3.461   0.281
  172TCM    cl2 1025   3.440   3.604   0.488
  172TCM     h1 1026   3.365   3.688   0.277
  172TCM    cl3 1027   3.170   3.690   0.415
  173TCM     c1 1028   4.731   0.860   0.222
  173TCM    cl1 1029   4.575   0.820   0.301
  173TCM    cl2 1030   4.748   1.039   0.212
  173TCM     h1 1031   4.814   0.819   0.280
  173TCM    cl3 1032   4.733   0.791   0.056
  174TCM     c1 1033   4.015   1.764   2.070
  174TCM    cl1 1034   3.848   1.800   2.017
  174TCM    cl2 1035   4.119   1.908   2.048
  174TCM     h1 1036   4.014   1.736   2.176
  174TCM    cl3 1037   4.080   1.628   1.972
  175TCM     c1 1038   3.919   1.678   4.881
  175TCM    cl1 1039   3.953   1.568   4.743
  175TCM    cl2 1040   3.742   1.703   4.896
  175TCM     h1 1041   3.957   1.634   4.973
  175TCM    cl3 1042   3.999   1.836   4.853
  176TCM     c1 1043   3.874   3.221   4.706
  176TCM    cl1 1044   3.972   3.370   4.723
  176TCM    cl2 1045   3.763   3.205   4.846
  176TCM     h1 1046   3.816   3.226   4.613
  176TCM    cl3 1047   3.985   3.079   4.700
  177TCM     c1 1048   1.040   0.344   3.588
  177TCM    cl1 1049   1.135   0.347   3.740
  177TCM    cl2 1050   1.133   0.428   3.460
  177TCM     h1 1051   1.021   0.241   3.559
  177TCM    cl3 1052   0.884   0.429   3.613
  178TCM     c1 1053   3.283   0.017   1.106
  178TCM    cl1 1054   3.162  -0.097   1.173
  178TCM    cl2 1055   3.300  -0.010   0.930
  178TCM     h1 1056   3.249   0.120   1.124
  178TCM    cl3 1057   3.441  -0.009   1.187
  179TCM     c1 1058   1.368   0.053   3.991
  179TCM    cl1 1059   1.397   0.225   4.037
  179TCM    cl2 1060   1.194   0.030   3.956
  179TCM     h1 1061   1.428   0.028   3.903
  179TCM    cl3 1062   1.416  -0.053   4.128
  180TCM     c1 1063   3.249   0.315   3.227
  180TCM    cl1 1064   3.352   0.458   3.195
  180TCM    cl2 1065   3.091   0.369   3.294
  180TCM     h1 1066   3.231   0.260   3.134
  180TCM    cl3 1067   3.331   0.208   3.345
  181TCM     c1 1068   2.018   0.774   3.977
  181TCM    cl1 1069   2.046   0.657   3.844
  181TCM    cl2 1070   2.066   0.938   3.924
  181TCM     h1 1071   1.912   0.773   4.004
  181TCM    cl3 1072   2.116   0.725   4.119
  182TCM     c1 1073   3.138   0.341   0.230
  182TCM    cl1 1074   3.260   0.437   0.319
  182TCM    cl2 1075   3.146   0.170   0.283
  182TCM     h1 1076   3.038   0.381   0.250
  182TCM    cl3 1077   3.171   0.350   0.054
  183TCM     c1 1078   1.551   2.053   2.440
  183TCM    cl1 1079   1.483   2.110   2.596
  183TCM    cl2 1080   1.712   2.128   2.414
  183TCM     h1 1081   1.561   1.944   2.442
  183TCM    cl3 1082   1.443   2.101   2.305
  184TCM     c1 1083   4.953   3.988   4.554
  184TCM    cl1 1084   5.075   3.872   4.492
  184TCM    cl2 1085   4.800   3.969   4.462
  184TCM     h1 1086   4.935   3.970   4.660
  184TCM    cl3 1087   5.014   4.155   4.529
  185TCM     c1 1088   0.761   0.895   2.683
  185TCM    cl1 1089   0.689   1.037   2.768
  185TCM    cl2 1090   0.683   0.877   2.523
  185TCM     h1 1091   0.868   0.911   2.671
  185TCM    cl3 1092   0.733   0.747   2.779
  186TCM     c1 1093   4.526   0.778   3.394
  186TCM    cl1 1094   4.699   0.749   3.434
  186TCM    cl2 1095   4.480   0.674   3.255
  186TCM     h1 1096   4.464   0.753   3.480
  186TCM    cl3 1097   4.502   0.950   3.349
  187TCM     c1 1098   0.285   4.652   0.114
  187TCM    cl1 1099   0.349   4.667   0.281
  187TCM    cl2 1100   0.362   4.777   0.011
  187TCM     h1 1101   0.307   4.553   0.075
  187TCM    cl3 1102   0.107   4.678   0.116
  188TCM     c1 1103   0.823   2.932   0.162
  188TCM    cl1 1104   0.829   3.100   0.101
  188TCM    cl2 1105   0.692   2.916   0.284
  188TCM     h1 1106   0.804   2.863   0.079
  188TCM    cl3 1107   0.980   2.892   0.240
  189TCM     c1 1108   1.327   2.635   4.468
  189TCM    cl1 1109   1.375   2.503   4.579
  189TCM    cl2 1110   1.471   2.735   4.427
  189TCM     h1 1111   1.285   2.593   4.376
  189TCM    cl3 1112   1.206   2.739   4.549
  190TCM     c1 1113   0.937   3.173   0.499
  190TCM    cl1 1114   0.956   3.226   0.669
  190TCM    cl2 1115   1.083   3.222   0.405
  190TCM     h1 1116   0.925   3.065   0.495
  190TCM    cl3 1117   0.793   3.252   0.428
  191TCM     c1 1118   4.203   1.442   2.266
  191TCM    cl1 1119   4.347   1.541   2.224
  191TCM    cl2 1120   4.087   1.543   2.359
  191TCM     h1 1121   4.155   1.406   2.175
  191TCM    cl3 1122   4.254   1.301   2.366
  192TCM     c1 1123   1.869   0.352   4.028
  192TCM    cl1 1124   2.006   0.374   4.142
  192TCM    cl2 1125   1.772   0.503   4.021
  192TCM     h1 1126   1.909   0.329   3.928
  192TCM    cl3 1127   1.766   0.216   4.083
  193TCM     c1 1128   0.433   0.029   2.438
  193TCM    cl1 1129   0.462  -0.107   2.551
  193TCM    cl2 1130   0.502   0.179   2.509
  193TCM     h1 1131   0.482   0.007   2.342
  193TCM    cl3 1132   0.257   0.050   2.412
  194TCM     c1 1133   2.080   4.555   4.460
  194TCM    cl1 1134   2.081   4.609   4.289
  194TCM    cl2 1135   2.232   4.465   4.493
  194TCM     h1 1136   2.073   4.642   4.526
  194TCM    cl3 1137   1.940   4.447   4.488
  195TCM     c1 1138   4.058   4.370   1.262
  195TCM    cl1 1139   4.136   4.516   1.194
  195TCM    cl2 1140   4.184   4.262   1.331
  195TCM     h1 1141   3.988   4.399   1.341
  195TCM    cl3 1142   3.971   4.283   1.131
  196TCM     c1 1143   1.025   2.474   0.196
  196TCM    cl1 1144   1.160   2.574   0.260
  196TCM    cl2 1145   1.090   2.316   0.139
  196TCM     h1 1146   0.952   2.456   0.275
  196TCM    cl3 1147   0.947   2.560   0.059
  197TCM     c1 1148   1.264   0.650   4.155
  197TCM    cl1 1149   1.438   0.605   4.161
  197TCM    cl2 1150   1.174   0.523   4.065
  197TCM     h1 1151   1.225   0.658   4.257
  197TCM    cl3 1152   1.246   0.807   4.070
  198TCM     c1 1153   1.635   1.328   0.807
  198TCM    cl1 1154   1.663   1.385   0.639
  198TCM    cl2 1155   1.722   1.435   0.922
  198TCM     h1 1156   1.528   1.330   0.828
  198TCM    cl3 1157   1.696   1.160   0.824
  199TCM     c1 1158   1.185   4.445   1.087
  199TCM    cl1 1159   1.280   4.308   1.023
  199TCM    cl2 1160   1.142   4.556   0.953
  199TCM     h1 1161   1.093   4.408   1.134
  199TCM    cl3 1162   1.283   4.533   1.210
  200TCM     c1 1163   0.177   2.577   2.285
  200TCM    cl1 1164   0.091   2.441   2.366
  200TCM    cl2 1165   0.161   2.560   2.107
  200TCM     h1 1166   0.133   2.672   2.317
  200TCM    cl3 1167   0.350   2.574   2.331
  201TCM     c1 1168   0.718   2.288   4.961
  201TCM    cl1 1169   0.723   2.158   4.838
  201TCM    cl2 1170   0.747   2.219   5.124
  201TCM     h1 1171   0.794   2.363   4.939
  201TCM    cl3 1172   0.556   2.365   4.960
  202TCM     c1 1173   3.513   4.516   3.106
  202TCM    cl1 1174   3.591   4.662   3.036
  202TCM    cl2 1175   3.626   4.377   3.095
  202TCM     h1 1176   3.488   4.534   3.210
  202TCM    cl3 1177   3.363   4.478   3.015
  203TCM     c1 1178   2.406   0.963   2.296
  203TCM    cl1 1179   2.442   1.020   2.129
  203TCM    cl2 1180   2.234   0.916   2.307
  203TCM     h1 1181   2.469   0.877   2.320
  203TCM    cl3 1182   2.440   1.096   2.411
  204TCM     c1 1183   0.796   4.530   4.119
  204TCM    cl1 1184   0.664   4.616   4.204
  204TCM    cl2 1185   0.726   4.431   3.986
  204TCM     h1 1186   0.866   4.602   4.076
  204TCM    cl3 1187   0.883   4.424   4.235
  205TCM     c1 1188   2.097   4.703   3.438
  205TCM    cl1 1189   1.961   4.619   3.519
  205TCM    cl2 1190   2.172   4.818   3.553
  205TCM     h1 1191   2.171   4.630   3.405
  205TCM    cl3 1192   2.035   4.794   3.296
  206TCM     c1 1193   1.001   0.072   0.892
  206TCM    cl1 1194   0.985  -0.083   0.803
  206TCM    cl2 1195   0.911   0.061   1.046
  206TCM     h1 1196   1.107   0.092   0.913
  206TCM    cl3 1197   0.934   0.205   0.792
  207TCM     c1 1198   2.443   3.098   0.863
  207TCM    cl1 1199   2.274   3.103   0.922
  207TCM    cl2 1200   2.538   2.985   0.965
  207TCM     h1 1201   2.446   3.065   0.759
  207TCM    cl3 1202   2.515   3.262   0.875
  208TCM     c1 1203   0.857   3.657   0.706
  208TCM    cl1 1204   0.718   3.564   0.641
  208TCM    cl2 1205   1.009   3.598   0.630
  208TCM     h1 1206   0.844   3.764   0.684
  208TCM    cl3 1207   0.868   3.633   0.884
  209TCM     c1 1208   3.708   2.189   1.838
  209TCM    cl1 1209   3.874   2.172   1.905
  209TCM    cl2 1210   3.631   2.027   1.827
  209TCM     h1 1211   3.649   2.253   1.903
  209TCM    cl3 1212   3.716   2.260   1.673
  210TCM     c1 1213   2.688   2.311   0.854
  210TCM    cl1 1214   2.603   2.273   0.701
  210TCM    cl2 1215   2.689   2.488   0.881
  210TCM     h1 1216   2.638   2.261   0.938
  210TCM    cl3 1217   2.857   2.251   0.843
  211TCM     c1 1218   2.507   3.200   4.027
  211TCM    cl1 1219   2.637   3.322   4.017
  211TCM    cl2 1220   2.426   3.185   3.867
  211TCM     h1 1221   2.549   3.103   4.056
  211TCM    cl3 1222   2.386   3.251   4.150
  212TCM     c1 1223   1.338   2.584   3.920
  212TCM    cl1 1224   1.412   2.610   4.082
  212TCM    cl2 1225   1.213   2.710   3.891
  212TCM     h1 1226   1.415   2.591   3.843
  212TCM    cl3 1227   1.262   2.422   3.916
  213TCM     c1 1228   1.466   2.356   2.979
  213TCM    cl1 1229   1.362   2.429   2.852
  213TCM    cl2 1230   1.503   2.481   3.102
  213TCM     h1 1231   1.414   2.272   3.026
  213TCM    cl3 1232   1.617   2.299   2.902
  214TCM     c1 1233   3.723   4.568   3.503
  214TCM    cl1 1234   3.582   4.464   3.462
  214TCM    cl2 1235   3.698   4.640   3.666
  214TCM     h1 1236   3.814   4.508   3.504
  214TCM    cl3 1237   3.738   4.699   3.381
  215TCM     c1 1238   0.272   3.065   0.181
  215TCM    cl1 1239   0.279   3.048   0.359
  215TCM    cl2 1240   0.207   2.913   0.111
  215TCM     h1 1241   0.207   3.149   0.154
  215TCM    cl3 1242   0.437   3.092   0.117
  216TCM     c1 1243   1.507   2.201   4.826
  216TCM    cl1 1244   1.583   2.071   4.922
  216TCM    cl2 1245   1.632   2.322   4.782
  216TCM     h1 1246   1.463   2.159   4.736
  216TCM    cl3 1247   1.380   2.280   4.924
  217TCM     c1 1248   0.657   1.815   2.743
  217TCM    cl1 1249   0.661   1.669   2.639
  217TCM    cl2 1250   0.665   1.763   2.915
  217TCM     h1 1251   0.742   1.880   2.720
  217TCM    cl3 1252   0.503   1.903   2.717
  218TCM     c1 1253   3.533   0.158   4.608
  218TCM    cl1 1254   3.433   0.034   4.524
  218TCM    cl2 1255   3.464   0.184   4.772
  218TCM     h1 1256   3.636   0.122   4.616
  218TCM    cl3 1257   3.529   0.311   4.515
  219TCM     c1 1258   1.714   2.394   1.869
  219TCM    cl1 1259   1.709   2.573   1.879
  219TCM    cl2 1260   1.781   2.346   1.710
  219TCM     h1 1261   1.777   2.354   1.949
  219TCM    cl3 1262   1.547   2.328   1.886
  220TCM     c1 1263   4.089   0.403   3.860
  220TCM    cl1 1264   4.184   0.271   3.785
  220TCM    cl2 1265   3.959   0.332   3.961
  220TCM     h1 1266   4.154   0.465   3.922
  220TCM    cl3 1267   4.015   0.503   3.731
  221TCM     c1 1268   0.168   3.736   1.245
  221TCM    cl1 1269   0.150   3.851   1.108
  221TCM    cl2 1270   0.096   3.807   1.393
  221TCM     h1 1271   0.119   3.642   1.221
  221TCM    cl3 1272   0.343   3.707   1.272
  222TCM     c1 1273   1.841   2.470   3.874
  222TCM    cl1 1274   1.768   2.309   3.851
  222TCM    cl2 1275   1.712   2.594   3.873
  222TCM     h1 1276   1.894   2.474   3.970
  222TCM    cl3 1277   1.955   2.503   3.739
  223TCM     c1 1278   3.430   2.371   2.787
  223TCM    cl1 1279   3.404   2.530   2.710
  223TCM    cl2 1280   3.357   2.242   2.685
  223TCM     h1 1281   3.537   2.352   2.799
  223TCM    cl3 1282   3.351   2.369   2.949
  224TCM     c1 1283   0.219   4.692   2.745
  224TCM    cl1 1284   0.329   4.570   2.673
  224TCM    cl2 1285   0.115   4.613   2.868
  224TCM     h1 1286   0.278   4.772   2.793
  224TCM    cl3 1287   0.115   4.762   2.617
  225TCM     c1 1288   0.175   4.559   2.325
  225TCM    cl1 1289   0.014   4.628   2.286
  225TCM    cl2 1290   0.302   4.682   2.293
  225TCM     h1 1291   0.178   4.530   2.430
  225TCM    cl3 1292   0.204   4.414   2.222
  226TCM     c1 1293   0.359   2.260   2.118
  226TCM    cl1 1294   0.217   2.153   2.137
  226TCM    cl2 1295   0.378   2.305   1.945
  226TCM     h1 1296   0.346   2.350   2.178
  226TCM    cl3 1297   0.507   2.174   2.170
  227TCM     c1 1298   0.727   3.607   2.915
  227TCM    cl1 1299   0.604   3.736   2.896
  227TCM    cl2 1300   0.785   3.554   2.754
  227TCM     h1 1301   0.812   3.645   2.974
  227TCM    cl3 1302   0.654   3.467   3.000
  228TCM     c1 1303   2.334   0.331   3.813
  228TCM    cl1 1304   2.393   0.275   3.973
  228TCM    cl2 1305   2.365   0.507   3.797
  228TCM     h1 1306   2.386   0.277   3.734
  228TCM    cl3 1307   2.158   0.299   3.801
  229TCM     c1 1308   1.689   1.908   2.035
  229TCM    cl1 1309   1.529   1.922   1.956
  229TCM    cl2 1310   1.668   1.831   2.196
  229TCM     h1 1311   1.755   1.847   1.974
  229TCM    cl3 1312   1.760   2.072   2.055
  230TCM     c1 1313   0.943   3.157   2.104
  230TCM    cl1 1314   1.118   3.122   2.115
  230TCM    cl2 1315   0.891   3.247   2.251
  230TCM     h1 1316   0.922   3.217   2.015
  230TCM    cl3 1317   0.851   3.003   2.094
  231TCM     c1 1318   4.745   3.550   2.896
  231TCM    cl1 1319   4.739   3.462   2.739
  231TCM    cl2 1320   4.731   3.431   3.030
  231TCM     h1 1321   4.839   3.604   2.904
  231TCM    cl3 1322   4.608   3.665   2.904
  232TCM     c1 1323   4.285   0.831   4.326
  232TCM    cl1 1324   4.454   0.771   4.324
  232TCM    cl2 1325   4.172   0.693   4.306
  232TCM     h1 1326   4.265   0.882   4.421
  232TCM    cl3 1327   4.261   0.947   4.191
  233TCM     c1 1328   0.243   2.714   4.377
  233TCM    cl1 1329   0.409   2.647   4.363
  233TCM    cl2 1330   0.251   2.878   4.450
  233TCM     h1 1331   0.197   2.720   4.278
  233TCM    cl3 1332   0.145   2.607   4.483
  234TCM     c1 1333   0.854   1.802   4.911
  234TCM    cl1 1334   0.708   1.719   4.974
  234TCM    cl2 1335   0.983   1.680   4.884
  234TCM     h1 1336   0.830   1.852   4.817
  234TCM    cl3 1337   0.911   1.922   5.032
  235TCM     c1 1338   1.840   2.028   1.575
  235TCM    cl1 1339   1.673   1.990   1.629
  235TCM    cl2 1340   1.889   1.913   1.447
  235TCM     h1 1341   1.843   2.130   1.536
  235TCM    cl3 1342   1.951   2.012   1.715
  236TCM     c1 1343   2.414   4.325   3.523
  236TCM    cl1 1344   2.246   4.380   3.494
  236TCM    cl2 1345   2.514   4.364   3.380
  236TCM     h1 1346   2.454   4.375   3.611
  236TCM    cl3 1347   2.413   4.147   3.549
  237TCM     c1 1348   3.320   0.246   1.460
  237TCM    cl1 1349   3.280   0.370   1.583
  237TCM    cl2 1350   3.327   0.324   1.299
  237TCM     h1 1351   3.417   0.202   1.484
  237TCM    cl3 1352   3.194   0.119   1.461
  238TCM     c1 1353   2.398   4.765   4.672
  238TCM    cl1 1354   2.294   4.667   4.780
  238TCM    cl2 1355   2.300   4.824   4.532
  238TCM     h1 1356   2.437   4.851   4.727
  238TCM    cl3 1357   2.533   4.664   4.613
  239TCM     c1 1358   2.558   1.550   3.232
  239TCM    cl1 1359   2.661   1.542   3.379
  239TCM    cl2 1360   2.553   1.390   3.153
  239TCM     h1 1361   2.457   1.581   3.260
  239TCM    cl3 1362   2.628   1.671   3.118
  240TCM     c1 1363   0.757   1.605   4.541
  240TCM    cl1 1364   0.706   1.486   4.665
  240TCM    cl2 1365   0.936   1.606   4.530
  240TCM     h1 1366   0.714   1.577   4.444
  240TCM    cl3 1367   0.698   1.768   4.589
  241TCM     c1 1368   3.053   0.991   2.779
  241TCM    cl1 1369   3.171   0.860   2.812
  241TCM    cl2 1370   3.137   1.128   2.700
  241TCM     h1 1371   2.974   0.953   2.713
  241TCM    cl3 1372   2.980   1.047   2.932
  242TCM     c1 1373   3.550   0.596   1.435
  242TCM    cl1 1374   3.570   0.595   1.257
  242TCM    cl2 1375   3.626   0.745   1.501
  242TCM     h1 1376   3.444   0.595   1.461
  242TCM    cl3 1377   3.630   0.451   1.505
  243TCM     c1 1378   0.638   0.023   0.120
  243TCM    cl1 1379   0.495   0.070   0.218
  243TCM    cl2 1380   0.600   0.046  -0.054
  243TCM     h1 1381   0.723   0.086   0.148
  243TCM    cl3 1382   0.678  -0.148   0.153
  244TCM     c1 1383   0.688   3.496   3.561
  244TCM    cl1 1384   0.856   3.557   3.548
  244TCM    cl2 1385   0.618   3.544   3.719
  244TCM     h1 1386   0.628   3.537   3.480
  244TCM    cl3 1387   0.690   3.317   3.549
  245TCM     c1 1388   0.129   4.086   4.193
  245TCM    cl1 1389   0.282   4.101   4.285
  245TCM    cl2 1390   0.162   4.015   4.032
  245TCM     h1 1391   0.060   4.022   4.248
  245TCM    cl3 1392   0.056   4.249   4.174
  246TCM     c1 1393   3.486   1.762   0.658
  246TCM    cl1 1394   3.330   1.790   0.574
  246TCM    cl2 1395   3.462   1.782   0.835
  246TCM     h1 1396   3.521   1.660   0.637
  246TCM    cl3 1397   3.607   1.881   0.601
  247TCM     c1 1398   3.310   4.202   3.479
  247TCM    cl1 1399   3.170   4.091   3.497
  247TCM    cl2 1400   3.326   4.247   3.306
  247TCM     h1 1401   3.294   4.292   3.539
  247TCM    cl3 1402   3.458   4.119   3.534
  248TCM     c1 1403   1.773   4.870   2.960
  248TCM    cl1 1404   1.932   4.788   2.947
  248TCM    cl2 1405   1.737   4.955   2.806
  248TCM     h1 1406   1.696   4.796   2.980
  248TCM    cl3 1407   1.777   4.990   3.094
  249TCM     c1 1408   2.415   0.386   2.321
  249TCM    cl1 1409   2.380   0.291   2.469
  249TCM    cl2 1410   2.387   0.561   2.353
  249TCM     h1 1411   2.519   0.370   2.291
  249TCM    cl3 1412   2.305   0.332   2.189
  250TCM     c1 1413   3.167   1.906   3.939
  250TCM    cl1 1414   3.238   1.904   4.104
  250TCM    cl2 1415   3.300   1.910   3.819
  250TCM     h1 1416   3.107   1.816   3.924
  250TCM    cl3 1417   3.064   2.052   3.920
  251TCM     c1 1418   2.947   2.511   0.152
  251TCM    cl1 1419   2.837   2.624   0.237
  251TCM    cl2 1420   3.097   2.490   0.248
  251TCM     h1 1421   2.898   2.414   0.138
  251TCM    cl3 1422   2.989   2.580  -0.009
  252TCM     c1 1423   1.319   0.248   4.474
  252TCM    cl1 1424   1.469   0.171   4.412
  252TCM    cl2 1425   1.192   0.242   4.348
  252TCM     h1 1426   1.285   0.194   4.563
  252TCM    cl3 1427   1.353   0.419   4.516
  253TCM     c1 1428   0.712   1.465   1.764
  253TCM    cl1 1429   0.676   1.435   1.937
  253TCM    cl2 1430   0.866   1.385   1.720
  253TCM     h1 1431   0.631   1.425   1.702
  253TCM    cl3 1432   0.727   1.642   1.734
  254TCM     c1 1433   4.866   2.841   0.210
  254TCM    cl1 1434   4.885   2.668   0.251
  254TCM    cl2 1435   4.917   2.941   0.350
  254TCM     h1 1436   4.928   2.865   0.123
  254TCM    cl3 1437   4.695   2.876   0.171
  255TCM     c1 1438   0.588   1.515   3.783
  255TCM    cl1 1439   0.490   1.379   3.718
  255TCM    cl2 1440   0.479   1.649   3.832
  255TCM     h1 1441   0.645   1.481   3.870
  255TCM    cl3 1442   0.701   1.572   3.656
  256TCM     c1 1443   0.761   0.522   0.076
  256TCM    cl1 1444   0.940   0.523   0.068
  256TCM    cl2 1445   0.704   0.658   0.178
  256TCM     h1 1446   0.720   0.532  -0.025
  256TCM    cl3 1447   0.706   0.367   0.148
  257TCM     c1 1448   3.447   4.764   4.788
  257TCM    cl1 1449   3.510   4.757   4.956
  257TCM    cl2 1450   3.314   4.646   4.771
  257TCM     h1 1451   3.410   4.865   4.766
  257TCM    cl3 1452   3.579   4.723   4.673
  258TCM     c1 1453   3.162   3.710   3.418
  258TCM    cl1 1454   3.005   3.710   3.505
  258TCM    cl2 1455   3.189   3.549   3.344
  258TCM     h1 1456   3.161   3.787   3.341
  258TCM    cl3 1457   3.294   3.745   3.535
  259TCM     c1 1458   2.847   4.316   2.991
  259TCM    cl1 1459   2.832   4.494   2.999
  259TCM    cl2 1460   2.729   4.242   3.104
  259TCM     h1 1461   2.827   4.282   2.889
  259TCM    cl3 1462   3.013   4.267   3.040
  260TCM     c1 1463   3.356   1.037   2.361
  260TCM    cl1 1464   3.234   1.166   2.334
  260TCM    cl2 1465   3.287   0.910   2.466
  260TCM     h1 1466   3.385   0.994   2.265
  260TCM    cl3 1467   3.501   1.108   2.439
  261TCM     c1 1468   4.609   2.013   4.750
  261TCM    cl1 1469   4.760   1.934   4.696
  261TCM    cl2 1470   4.550   1.933   4.900
  261TCM     h1 1471   4.628   2.119   4.770
  261TCM    cl3 1472   4.484   1.996   4.622
  262TCM     c1 1473   2.959   2.141   0.486
  262TCM    cl1 1474   3.105   2.238   0.522
  262TCM    cl2 1475   3.008   1.970   0.458
  262TCM     h1 1476   2.889   2.146   0.570
  262TCM    cl3 1477   2.880   2.204   0.338
  263TCM     c1 1478   4.581   4.587   1.197
  263TCM    cl1 1479   4.496   4.473   1.308
  263TCM    cl2 1480   4.707   4.676   1.290
  263TCM     h1 1481   4.628   4.531   1.116
  263TCM    cl3 1482   4.462   4.703   1.131
  264TCM     c1 1483   4.589   0.534   2.944
  264TCM    cl1 1484   4.453   0.424   2.982
  264TCM    cl2 1485   4.530   0.671   2.845
  264TCM     h1 1486   4.634   0.571   3.036
  264TCM    cl3 1487   4.713   0.443   2.850
  265TCM     c1 1488   3.366   2.061   0.324
  265TCM    cl1 1489   3.470   2.204   0.358
  265TCM    cl2 1490   3.469   1.928   0.261
  265TCM     h1 1491   3.316   2.030   0.416
  265TCM    cl3 1492   3.244   2.105   0.200
  266TCM     c1 1493   1.775   0.242   2.571
  266TCM    cl1 1494   1.648   0.298   2.685
  266TCM    cl2 1495   1.904   0.366   2.560
  266TCM     h1 1496   1.818   0.148   2.605
  266TCM    cl3 1497   1.700   0.219   2.409
  267TCM     c1 1498   1.016   4.480   4.639
  267TCM    cl1 1499   1.157   4.380   4.592
  267TCM    cl2 1500   1.067   4.652   4.650
  267TCM     h1 1501   0.937   4.470   4.565
  267TCM    cl3 1502   0.956   4.427   4.800
  268TCM     c1 1503   4.919   0.257   4.399
  268TCM    cl1 1504   5.027   0.150   4.304
  268TCM    cl2 1505   4.974   0.261   4.570
  268TCM     h1 1506   4.921   0.358   4.357
  268TCM    cl3 1507   4.751   0.193   4.390
  269TCM     c1 1508   4.309   4.612   0.090
  269TCM    cl1 1509   4.165   4.556   0.182
  269TCM    cl2 1510   4.428   4.681   0.205
  269TCM     h1 1511   4.354   4.527   0.037
  269TCM    cl3 1512   4.261   4.738  -0.028
  270TCM     c1 1513   0.408   2.388   3.524
  270TCM    cl1 1514   0.536   2.267   3.492
  270TCM    cl2 1515   0.338   2.360   3.687
  270TCM     h1 1516   0.451   2.489   3.519
  270TCM    cl3 1517   0.279   2.370   3.401
  271TCM     c1 1518   4.002   1.310   1.552
  271TCM    cl1 1519   4.050   1.300   1.379
  271TCM    cl2 1520   4.019   1.480   1.609
  271TCM     h1 1521   3.899   1.278   1.563
  271TCM    cl3 1522   4.109   1.204   1.651
  272TCM     c1 1523   1.266   4.662   4.962
  272TCM    cl1 1524   1.368   4.809   4.954
  272TCM    cl2 1525   1.244   4.614   5.133
  272TCM     h1 1526   1.169   4.682   4.916
  272TCM    cl3 1527   1.347   4.529   4.873
  273TCM     c1 1528   3.249   1.010   3.773
  273TCM    cl1 1529   3.135   1.023   3.635
  273TCM    cl2 1530   3.393   0.916   3.723
  273TCM     h1 1531   3.280   1.110   3.805
  273TCM    cl3 1532   3.166   0.925   3.908
  274TCM     c1 1533   4.425   3.383   3.259
  274TCM    cl1 1534   4.366   3.486   3.124
  274TCM    cl2 1535   4.485   3.227   3.194
  274TCM     h1 1536   4.507   3.435   3.310
  274TCM    cl3 1537   4.291   3.353   3.373
  275TCM     c1 1538   1.404   0.549   0.310
  275TCM    cl1 1539   1.249   0.471   0.262
  275TCM    cl2 1540   1.521   0.422   0.358
  275TCM     h1 1541   1.444   0.606   0.226
  275TCM    cl3 1542   1.375   0.660   0.449
  276TCM     c1 1543   1.322   2.062   1.006
  276TCM    cl1 1544   1.485   2.063   0.930
  276TCM    cl2 1545   1.277   1.893   1.048
  276TCM     h1 1546   1.323   2.123   1.097
  276TCM    cl3 1547   1.201   2.127   0.891
  277TCM     c1 1548   3.493   2.993   2.115
  277TCM    cl1 1549   3.672   3.008   2.123
  277TCM    cl2 1550   3.424   3.139   2.036
  277TCM     h1 1551   3.466   2.905   2.057
  277TCM    cl3 1552   3.428   2.980   2.282
  278TCM     c1 1553   3.173   3.249   2.305
  278TCM    cl1 1554   3.068   3.274   2.162
  278TCM    cl2 1555   3.100   3.126   2.413
  278TCM     h1 1556   3.272   3.216   2.272
  278TCM    cl3 1557   3.190   3.404   2.395
  279TCM     c1 1558   1.250   1.023   0.090
  279TCM    cl1 1559   1.379   0.926   0.169
  279TCM    cl2 1560   1.276   1.025  -0.087
  279TCM     h1 1561   1.152   0.979   0.113
  279TCM    cl3 1562   1.254   1.192   0.152
  280TCM     c1 1563   3.022   4.926   0.535
  280TCM    cl1 1564   2.926   5.008   0.662
  280TCM    cl2 1565   2.973   4.753   0.527
  280TCM     h1 1566   3.005   4.973   0.439
  280TCM    cl3 1567   3.197   4.936   0.577
  281TCM     c1 1568   2.059   3.454   0.842
  281TCM    cl1 1569   1.995   3.612   0.786
  281TCM    cl2 1570   2.130   3.473   1.005
  281TCM     h1 1571   1.977   3.381   0.845
  281TCM    cl3 1572   2.185   3.398   0.727
  282TCM     c1 1573   2.769   3.627   1.598
  282TCM    cl1 1574   2.912   3.736   1.595
  282TCM    cl2 1575   2.650   3.687   1.718
  282TCM     h1 1576   2.724   3.625   1.499
  282TCM    cl3 1577   2.823   3.462   1.644
  283TCM     c1 1578   4.612   0.185   3.924
  283TCM    cl1 1579   4.770   0.229   3.998
  283TCM    cl2 1580   4.532   0.334   3.864
  283TCM     h1 1581   4.629   0.116   3.841
  283TCM    cl3 1582   4.507   0.107   4.046
  284TCM     c1 1583   4.808   2.868   4.297
  284TCM    cl1 1584   4.921   2.760   4.208
  284TCM    cl2 1585   4.874   2.900   4.460
  284TCM     h1 1586   4.797   2.962   4.242
  284TCM    cl3 1587   4.648   2.789   4.311
  285TCM     c1 1588   1.276   4.262   1.684
  285TCM    cl1 1589   1.119   4.176   1.693
  285TCM    cl2 1590   1.257   4.428   1.749
  285TCM     h1 1591   1.351   4.208   1.742
  285TCM    cl3 1592   1.329   4.272   1.512
  286TCM     c1 1593   4.996   0.134   0.129
  286TCM    cl1 1594   4.868   0.017   0.173
  286TCM    cl2 1595   4.944   0.229  -0.014
  286TCM     h1 1596   5.015   0.201   0.213
  286TCM    cl3 1597   5.146   0.044   0.089
  287TCM     c1 1598   4.587   0.316   3.338
  287TCM    cl1 1599   4.572   0.169   3.236
  287TCM    cl2 1600   4.734   0.407   3.289
  287TCM     h1 1601   4.499   0.379   3.324
  287TCM    cl3 1602   4.601   0.267   3.510
  288TCM     c1 1603   3.558   4.835   4.145
  288TCM    cl1 1604   3.480   4.755   4.286
  288TCM    cl2 1605   3.726   4.775   4.130
  288TCM     h1 1606   3.501   4.812   4.054
  288TCM    cl3 1607   3.560   5.013   4.171
  289TCM     c1 1608   1.558   1.826   1.320
  289TCM    cl1 1609   1.625   1.745   1.175
  289TCM    cl2 1610   1.396   1.758   1.358
  289TCM     h1 1611   1.625   1.809   1.405
  289TCM    cl3 1612   1.544   2.002   1.289
  290TCM     c1 1613   0.429   0.180   1.256
  290TCM    cl1 1614   0.372   0.022   1.319
  290TCM    cl2 1615   0.350   0.214   1.098
  290TCM     h1 1616   0.404   0.259   1.327
  290TCM    cl3 1617   0.607   0.174   1.233
  291TCM     c1 1618   3.208   1.531   2.613
  291TCM    cl1 1619   3.063   1.443   2.555
  291TCM    cl2 1620   3.244   1.667   2.501
  291TCM     h1 1621   3.189   1.571   2.714
  291TCM    cl3 1622   3.349   1.420   2.618
  292TCM     c1 1623   3.550   0.096   0.303
  292TCM    cl1 1624   3.508   0.200   0.163
  292TCM    cl2 1625   3.476  -0.065   0.280
  292TCM     h1 1626   3.658   0.086   0.309
  292TCM    cl3 1627   3.488   0.169   0.455
  293TCM     c1 1628   0.422   1.063   1.791
  293TCM    cl1 1629   0.492   1.180   1.675
  293TCM    cl2 1630   0.332   0.935   1.702
  293TCM     h1 1631   0.502   1.016   1.850
  293TCM    cl3 1632   0.309   1.148   1.901
  294TCM     c1 1633   2.850   3.608   1.117
  294TCM    cl1 1634   2.800   3.488   0.994
  294TCM    cl2 1635   2.900   3.523   1.267
  294TCM     h1 1636   2.933   3.667   1.079
  294TCM    cl3 1637   2.712   3.717   1.154
  295TCM     c1 1638   2.263   2.519   4.197
  295TCM    cl1 1639   2.434   2.468   4.175
  295TCM    cl2 1640   2.217   2.499   4.369
  295TCM     h1 1641   2.253   2.624   4.168
  295TCM    cl3 1642   2.156   2.419   4.093
  296TCM     c1 1643   0.420   2.195   0.483
  296TCM    cl1 1644   0.551   2.079   0.524
  296TCM    cl2 1645   0.441   2.252   0.314
  296TCM     h1 1646   0.323   2.146   0.494
  296TCM    cl3 1647   0.429   2.336   0.593
  297TCM     c1 1648   2.625   0.052   1.478
  297TCM    cl1 1649   2.748  -0.069   1.530
  297TCM    cl2 1650   2.590   0.163   1.615
  297TCM     h1 1651   2.663   0.108   1.393
  297TCM    cl3 1652   2.475  -0.034   1.433
  298TCM     c1 1653   2.379   3.740   4.823
  298TCM    cl1 1654   2.382   3.562   4.842
  298TCM    cl2 1655   2.275   3.812   4.951
  298TCM     h1 1656   2.480   3.780   4.833
  298TCM    cl3 1657   2.313   3.782   4.662
  299TCM     c1 1658   0.266   3.193   4.637
  299TCM    cl1 1659   0.384   3.290   4.542
  299TCM    cl2 1660   0.104   3.212   4.563
  299TCM     h1 1661   0.296   3.087   4.634
  299TCM    cl3 1662   0.262   3.248   4.807
  300TCM     c1 1663   3.878   1.824   1.569
  300TCM    cl1 1664   3.753   1.731   1.656
  300TCM    cl2 1665   3.993   1.895   1.687
  300TCM     h1 1666   3.933   1.758   1.501
  300TCM    cl3 1667   3.800   1.955   1.474
  301TCM     c1 1668   2.187   2.800   2.382
  301TCM    cl1 1669   2.038   2.881   2.323
  301TCM    cl2 1670   2.217   2.653   2.285
  301TCM     h1 1671   2.271   2.868   2.372
  301TCM    cl3 1672   2.166   2.754   2.554
  302TCM     c1 1673   4.659   2.554   0.514
  302TCM    cl1 1674   4.543   2.654   0.422
  302TCM    cl2 1675   4.569   2.437   0.617
  302TCM     h1 1676   4.724   2.500   0.445
  302TCM    cl3 1677   4.761   2.659   0.619
  303TCM     c1 1678   4.939   4.229   1.399
  303TCM    cl1 1679   4.878   4.095   1.502
  303TCM    cl2 1680   4.808   4.286   1.291
  303TCM     h1 1681   4.973   4.312   1.463
  303TCM    cl3 1682   5.077   4.171   1.300
  304TCM     c1 1683   3.169   1.474   3.562
  304TCM    cl1 1684   3.018   1.385   3.524
  304TCM    cl2 1685   3.291   1.361   3.627
  304TCM     h1 1686   3.208   1.521   3.471
  304TCM    cl3 1687   3.133   1.601   3.683
  305TCM     c1 1688   1.065   3.508   1.932
  305TCM    cl1 1689   1.112   3.368   1.830
  305TCM    cl2 1690   1.145   3.495   2.092
  305TCM     h1 1691   1.094   3.601   1.883
  305TCM    cl3 1692   0.887   3.505   1.956
  306TCM     c1 1693   3.032   3.802   1.975
  306TCM    cl1 1694   3.038   3.626   1.938
  306TCM    cl2 1695   3.090   3.830   2.142
  306TCM     h1 1696   3.095   3.856   1.904
  306TCM    cl3 1697   2.862   3.859   1.962
  307TCM     c1 1698   1.538   2.886   2.110
  307TCM    cl1 1699   1.710   2.865   2.155
  307TCM    cl2 1700   1.454   2.979   2.239
  307TCM     h1 1701   1.532   2.941   2.015
  307TCM    cl3 1702   1.460   2.726   2.092
  308TCM     c1 1703   4.553   0.075   4.880
  308TCM    cl1 1704   4.665   0.113   4.745
  308TCM    cl2 1705   4.567   0.201   5.006
  308TCM     h1 1706   4.450   0.072   4.842
  308TCM    cl3 1707   4.596  -0.084   4.950
  309TCM     c1 1708   4.043   4.808   2.103
  309TCM    cl1 1709   4.070   4.985   2.118
  309TCM    cl2 1710   3.960   4.774   1.948
  309TCM     h1 1711   4.139   4.756   2.106
  309TCM    cl3 1712   3.940   4.753   2.240
  310TCM     c1 1713   1.292   0.123   2.872
  310TCM    cl1 1714   1.296   0.301   2.850
  310TCM    cl2 1715   1.425   0.073   2.982
  310TCM     h1 1716   1.196   0.094   2.915
  310TCM    cl3 1717   1.314   0.044   2.713
  311TCM     c1 1718   3.350   4.833   3.509
  311TCM    cl1 1719   3.492   4.928   3.565
  311TCM    cl2 1720   3.328   4.689   3.614
  311TCM     h1 1721   3.260   4.896   3.515
  311TCM    cl3 1722   3.376   4.780   3.340
  312TCM     c1 1723   3.629   2.114   4.728
  312TCM    cl1 1724   3.741   1.995   4.654
  312TCM    cl2 1725   3.589   2.062   4.895
  312TCM     h1 1726   3.677   2.212   4.731
  312TCM    cl3 1727   3.480   2.124   4.629
  313TCM     c1 1728   4.780   4.140   2.323
  313TCM    cl1 1729   4.844   4.299   2.269
  313TCM    cl2 1730   4.668   4.165   2.460
  313TCM     h1 1731   4.727   4.092   2.240
  313TCM    cl3 1732   4.917   4.036   2.375
  314TCM     c1 1733   4.893   2.867   2.149
  314TCM    cl1 1734   5.057   2.915   2.204
  314TCM    cl2 1735   4.775   2.993   2.197
  314TCM     h1 1736   4.893   2.856   2.040
  314TCM    cl3 1737   4.849   2.711   2.225
  315TCM     c1 1738   1.360   2.239   0.553
  315TCM    cl1 1739   1.401   2.352   0.686
  315TCM    cl2 1740   1.462   2.092   0.567
  315TCM     h1 1741   1.255   2.211   0.560
  315TCM    cl3 1742   1.391   2.319   0.396
  316TCM     c1 1743   0.889   1.710   4.122
  316TCM    cl1 1744   0.862   1.539   4.169
  316TCM    cl2 1745   0.812   1.817   4.243
  316TCM     h1 1746   0.996   1.731   4.117
  316TCM    cl3 1747   0.814   1.739   3.961
  317TCM     c1 1748   3.993   3.458   1.018
  317TCM    cl1 1749   3.989   3.632   0.976
  317TCM    cl2 1750   3.828   3.402   1.061
  317TCM     h1 1751   4.029   3.401   0.932
  317TCM    cl3 1752   4.103   3.433   1.157
  318TCM     c1 1753   0.235   0.035   2.018
  318TCM    cl1 1754   0.395  -0.028   2.069
  318TCM    cl2 1755   0.106  -0.069   2.085
  318TCM     h1 1756   0.223   0.137   2.055
  318TCM    cl3 1757   0.224   0.035   1.839
  319TCM     c1 1758   1.236   2.111   1.553
  319TCM    cl1 1759   1.191   2.082   1.381
  319TCM    cl2 1760   1.383   2.213   1.560
  319TCM     h1 1761   1.153   2.162   1.604
  319TCM    cl3 1762   1.268   1.954   1.634
  320TCM     c1 1763   0.623   2.156   3.906
  320TCM    cl1 1764   0.685   2.300   3.820
  320TCM    cl2 1765   0.738   2.112   4.036
  320TCM     h1 1766   0.525   2.178   3.950
  320TCM    cl3 1767   0.607   2.018   3.792
  321TCM     c1 1768   0.969   0.740   4.789
  321TCM    cl1 1769   0.807   0.692   4.728
  321TCM    cl2 1770   0.949   0.865   4.916
  321TCM     h1 1771   1.020   0.653   4.831
  321TCM    cl3 1772   1.067   0.808   4.654
  322TCM     c1 1773   3.417   2.671   0.538
  322TCM    cl1 1774   3.363   2.762   0.683
  322TCM    cl2 1775   3.337   2.738   0.392
  322TCM     h1 1776   3.526   2.679   0.528
  322TCM    cl3 1777   3.372   2.498   0.556
  323TCM     c1 1778   3.675   0.101   3.001
  323TCM    cl1 1779   3.634   0.019   3.156
  323TCM    cl2 1780   3.593   0.260   2.994
  323TCM     h1 1781   3.783   0.115   2.995
  323TCM    cl3 1782   3.621  -0.000   2.863
  324TCM     c1 1783   4.779   3.160   4.937
  324TCM    cl1 1784   4.799   3.236   4.775
  324TCM    cl2 1785   4.673   3.263   5.040
  324TCM     h1 1786   4.732   3.062   4.925
  324TCM    cl3 1787   4.939   3.143   5.016
  325TCM     c1 1788   4.648   2.742   2.517
  325TCM    cl1 1789   4.723   2.898   2.563
  325TCM    cl2 1790   4.479   2.736   2.576
  325TCM     h1 1791   4.648   2.732   2.408
  325TCM    cl3 1792   4.742   2.608   2.589
  326TCM     c1 1793   2.267   4.350   3.054
  326TCM    cl1 1794   2.428   4.421   3.020
  326TCM    cl2 1795   2.169   4.468   3.147
  326TCM     h1 1796   2.217   4.326   2.960
  326TCM    cl3 1797   2.287   4.200   3.151
  327TCM     c1 1798   3.279   2.101   0.868
  327TCM    cl1 1799   3.215   2.252   0.939
  327TCM    cl2 1800   3.383   2.141   0.727
  327TCM     h1 1801   3.337   2.046   0.942
  327TCM    cl3 1802   3.142   1.999   0.812
  328TCM     c1 1803   2.066   1.732   2.508
  328TCM    cl1 1804   2.104   1.783   2.676
  328TCM    cl2 1805   1.971   1.861   2.426
  328TCM     h1 1806   2.159   1.715   2.453
  328TCM    cl3 1807   1.969   1.581   2.513
  329TCM     c1 1808   3.050   2.419   3.165
  329TCM    cl1 1809   3.042   2.563   3.058
  329TCM    cl2 1810   2.891   2.335   3.166
  329TCM     h1 1811   3.127   2.351   3.129
  329TCM    cl3 1812   3.090   2.471   3.332
  330TCM     c1 1813   4.872   1.743   1.521
  330TCM    cl1 1814   4.801   1.743   1.356
  330TCM    cl2 1815   4.742   1.766   1.643
  330TCM     h1 1816   4.923   1.648   1.539
  330TCM    cl3 1817   4.990   1.878   1.535
  331TCM     c1 1818   1.435   1.094   3.397
  331TCM    cl1 1819   1.318   1.219   3.450
  331TCM    cl2 1820   1.503   1.011   3.540
  331TCM     h1 1821   1.384   1.021   3.333
  331TCM    cl3 1822   1.569   1.171   3.305
  332TCM     c1 1823   3.259   4.182   1.985
  332TCM    cl1 1824   3.080   4.175   1.979
  332TCM    cl2 1825   3.317   4.308   1.871
  332TCM     h1 1826   3.291   4.207   2.087
  332TCM    cl3 1827   3.327   4.023   1.938
  333TCM     c1 1828   2.155   3.593   0.325
  333TCM    cl1 1829   2.296   3.550   0.223
  333TCM    cl2 1830   2.211   3.688   0.467
  333TCM     h1 1831   2.084   3.653   0.267
  333TCM    cl3 1832   2.074   3.444   0.382
  334TCM     c1 1833   4.635   2.054   2.926
  334TCM    cl1 1834   4.739   2.122   2.796
  334TCM    cl2 1835   4.466   2.039   2.865
  334TCM     h1 1836   4.672   1.955   2.954
  334TCM    cl3 1837   4.638   2.162   3.069
  335TCM     c1 1838   2.290   3.891   1.131
  335TCM    cl1 1839   2.443   3.965   1.076
  335TCM    cl2 1840   2.327   3.743   1.226
  335TCM     h1 1841   2.235   3.962   1.193
  335TCM    cl3 1842   2.192   3.848   0.987
  336TCM     c1 1843   1.082   4.861   4.303
  336TCM    cl1 1844   1.209   4.892   4.426
  336TCM    cl2 1845   0.922   4.852   4.383
  336TCM     h1 1846   1.082   4.942   4.229
  336TCM    cl3 1847   1.116   4.705   4.221
  337TCM     c1 1848   3.584   3.248   3.183
  337TCM    cl1 1849   3.529   3.143   3.318
  337TCM    cl2 1850   3.557   3.164   3.027
  337TCM     h1 1851   3.528   3.342   3.185
  337TCM    cl3 1852   3.759   3.283   3.203
  338TCM     c1 1853   3.571   3.764   0.965
  338TCM    cl1 1854   3.648   3.693   0.819
  338TCM    cl2 1855   3.689   3.868   1.051
  338TCM     h1 1856   3.485   3.825   0.935
  338TCM    cl3 1857   3.517   3.631   1.072
  339TCM     c1 1858   2.458   0.908   3.579
  339TCM    cl1 1859   2.313   0.849   3.666
  339TCM    cl2 1860   2.408   1.020   3.449
  339TCM     h1 1861   2.523   0.962   3.650
  339TCM    cl3 1862   2.546   0.768   3.510
  340TCM     c1 1863   2.037   3.524   4.440
  340TCM    cl1 1864   1.866   3.486   4.480
  340TCM    cl2 1865   2.077   3.451   4.281
  340TCM     h1 1866   2.051   3.632   4.436
  340TCM    cl3 1867   2.145   3.453   4.565
  341TCM     c1 1868   4.161   3.719   2.914
  341TCM    cl1 1869   4.262   3.753   2.769
  341TCM    cl2 1870   3.988   3.720   2.867
  341TCM     h1 1871   4.187   3.622   2.956
  341TCM    cl3 1872   4.191   3.847   3.036
  342TCM     c1 1873   3.213   1.765   4.527
  342TCM    cl1 1874   3.171   1.930   4.471
  342TCM    cl2 1875   3.244   1.659   4.385
  342TCM     h1 1876   3.302   1.769   4.589
  342TCM    cl3 1877   3.076   1.698   4.621
  343TCM     c1 1878   0.440   0.522   3.916
  343TCM    cl1 1879   0.529   0.401   3.817
  343TCM    cl2 1880   0.459   0.684   3.841
  343TCM     h1 1881   0.334   0.496   3.919
  343TCM    cl3 1882   0.505   0.525   4.082
  344TCM     c1 1883   3.329   0.787   1.715
  344TCM    cl1 1884   3.228   0.858   1.845
  344TCM    cl2 1885   3.222   0.729   1.583
  344TCM     h1 1886   3.397   0.863   1.676
  344TCM    cl3 1887   3.422   0.648   1.780
  345TCM     c1 1888   2.746   4.562   2.351
  345TCM    cl1 1889   2.847   4.633   2.221
  345TCM    cl2 1890   2.840   4.556   2.504
  345TCM     h1 1891   2.657   4.624   2.365
  345TCM    cl3 1892   2.697   4.395   2.306
  346TCM     c1 1893   0.649   0.908   2.148
  346TCM    cl1 1894   0.823   0.891   2.186
  346TCM    cl2 1895   0.607   0.793   2.017
  346TCM     h1 1896   0.590   0.886   2.237
  346TCM    cl3 1897   0.615   1.076   2.093
  347TCM     c1 1898   2.498   4.303   2.602
  347TCM    cl1 1899   2.338   4.294   2.684
  347TCM    cl2 1900   2.546   4.141   2.543
  347TCM     h1 1901   2.491   4.372   2.517
  347TCM    cl3 1902   2.621   4.362   2.718
  348TCM     c1 1903   4.156   1.912   4.488
  348TCM    cl1 1904   4.212   1.960   4.324
  348TCM    cl2 1905   4.017   1.800   4.473
  348TCM     h1 1906   4.238   1.862   4.540
  348TCM    cl3 1907   4.107   2.058   4.579
  349TCM     c1 1908   0.383   0.355   4.977
  349TCM    cl1 1909   0.272   0.381   5.116
  349TCM    cl2 1910   0.437   0.515   4.916
  349TCM     h1 1911   0.469   0.297   5.010
  349TCM    cl3 1912   0.297   0.267   4.846
  350TCM     c1 1913   3.739   3.738   0.013
  350TCM    cl1 1914   3.760   3.577  -0.064
  350TCM    cl2 1915   3.591   3.736   0.114
  350TCM     h1 1916   3.826   3.760   0.076
  350TCM    cl3 1917   3.724   3.863  -0.115
  351TCM     c1 1918   1.941   2.292   2.621
  351TCM    cl1 1919   1.980   2.439   2.717
  351TCM    cl2 1920   1.914   2.154   2.732
  351TCM     h1 1921   1.850   2.311   2.563
  351TCM    cl3 1922   2.077   2.255   2.511
  352TCM     c1 1923   1.880   3.984   1.262
  352TCM    cl1 1924   1.960   4.135   1.314
  352TCM    cl2 1925   1.982   3.845   1.312
  352TCM     h1 1926   1.782   3.976   1.308
  352TCM    cl3 1927   1.862   3.983   1.083
  353TCM     c1 1928   4.065   3.498   1.563
  353TCM    cl1 1929   4.028   3.332   1.505
  353TCM    cl2 1930   4.230   3.545   1.510
  353TCM     h1 1931   3.992   3.568   1.522
  353TCM    cl3 1932   4.055   3.501   1.742
  354TCM     c1 1933   2.552   4.641   0.549
  354TCM    cl1 1934   2.632   4.642   0.389
  354TCM    cl2 1935   2.599   4.790   0.638
  354TCM     h1 1936   2.444   4.638   0.537
  354TCM    cl3 1937   2.607   4.498   0.642
  355TCM     c1 1938   2.691   2.257   4.570
  355TCM    cl1 1939   2.799   2.320   4.441
  355TCM    cl2 1940   2.521   2.294   4.528
  355TCM     h1 1941   2.704   2.149   4.580
  355TCM    cl3 1942   2.732   2.337   4.726
  356TCM     c1 1943   1.701   2.979   2.517
  356TCM    cl1 1944   1.552   3.005   2.615
  356TCM    cl2 1945   1.828   2.907   2.621
  356TCM     h1 1946   1.679   2.911   2.435
  356TCM    cl3 1947   1.758   3.135   2.451
  357TCM     c1 1948   0.617   4.140   4.465
  357TCM    cl1 1949   0.787   4.086   4.444
  357TCM    cl2 1950   0.583   4.274   4.351
  357TCM     h1 1951   0.549   4.057   4.446
  357TCM    cl3 1952   0.597   4.199   4.634
  358TCM     c1 1953   0.048   2.225   1.666
  358TCM    cl1 1954   0.207   2.145   1.648
  358TCM    cl2 1955   0.028   2.346   1.536
  358TCM     h1 1956  -0.032   2.150   1.660
  358TCM    cl3 1957   0.041   2.307   1.826
  359TCM     c1 1958   4.518   0.693   3.928
  359TCM    cl1 1959   4.555   0.861   3.977
  359TCM    cl2 1960   4.548   0.675   3.752
  359TCM     h1 1961   4.581   0.624   3.984
  359TCM    cl3 1962   4.345   0.657   3.961
  360TCM     c1 1963   4.178   1.267   0.111
  360TCM    cl1 1964   4.264   1.354   0.242
  360TCM    cl2 1965   4.044   1.369   0.049
  360TCM     h1 1966   4.247   1.245   0.030
  360TCM    cl3 1967   4.110   1.113   0.175
  361TCM     c1 1968   1.979   1.624   3.659
  361TCM    cl1 1969   1.986   1.802   3.640
  361TCM    cl2 1970   1.947   1.547   3.500
  361TCM     h1 1971   2.074   1.587   3.699
  361TCM    cl3 1972   1.846   1.582   3.773
  362TCM     c1 1973   0.238   1.628   1.699
  362TCM    cl1 1974   0.349   1.513   1.781
  362TCM    cl2 1975   0.086   1.640   1.794
  362TCM     h1 1976   0.285   1.726   1.692
  362TCM    cl3 1977   0.201   1.568   1.534
  363TCM     c1 1978   1.512   0.508   3.112
  363TCM    cl1 1979   1.468   0.627   2.985
  363TCM    cl2 1980   1.608   0.375   3.041
  363TCM     h1 1981   1.570   0.557   3.190
  363TCM    cl3 1982   1.361   0.442   3.183
  364TCM     c1 1983   2.180   4.184   0.825
  364TCM    cl1 1984   2.088   4.294   0.716
  364TCM    cl2 1985   2.126   4.209   0.994
  364TCM     h1 1986   2.162   4.081   0.795
  364TCM    cl3 1987   2.355   4.222   0.814
  365TCM     c1 1988   3.234   1.477   4.066
  365TCM    cl1 1989   3.217   1.315   3.990
  365TCM    cl2 1990   3.078   1.564   4.054
  365TCM     h1 1991   3.262   1.465   4.171
  365TCM    cl3 1992   3.361   1.570   3.980
  366TCM     c1 1993   2.159   3.441   3.884
  366TCM    cl1 1994   2.149   3.434   3.705
  366TCM    cl2 1995   2.072   3.300   3.953
  366TCM     h1 1996   2.264   3.438   3.914
  366TCM    cl3 1997   2.084   3.593   3.941
  367TCM     c1 1998   2.740   0.590   4.516
  367TCM    cl1 1999   2.612   0.498   4.602
  367TCM    cl2 2000   2.756   0.529   4.348
  367TCM     h1 2001   2.713   0.696   4.514
  367TCM    cl3 2002   2.896   0.569   4.603
  368TCM     c1 2003   3.229   2.573   2.201
  368TCM    cl1 2004   3.377   2.636   2.120
  368TCM    cl2 2005   3.226   2.629   2.372
  368TCM     h1 2006   3.140   2.611   2.149
  368TCM    cl3 2007   3.231   2.394   2.196
  369TCM     c1 2008   4.706   4.086   0.644
  369TCM    cl1 2009   4.671   4.081   0.468
  369TCM    cl2 2010   4.563   4.026   0.735
  369TCM     h1 2011   4.792   4.022   0.666
  369TCM    cl3 2012   4.741   4.254   0.694
  370TCM     c1 2013   2.050   2.877   4.124
  370TCM    cl1 2014   2.049   2.814   4.292
  370TCM    cl2 2015   2.010   2.744   4.012
  370TCM     h1 2016   1.978   2.958   4.114
  370TCM    cl3 2017   2.215   2.937   4.085
  371TCM     c1 2018   2.594   3.881   3.933
  371TCM    cl1 2019   2.734   3.776   3.972
  371TCM    cl2 2020   2.643   4.003   3.811
  371TCM     h1 2021   2.513   3.819   3.894
  371TCM    cl3 2022   2.539   3.965   4.082
  372TCM     c1 2023   4.365   4.950   2.434
  372TCM    cl1 2024   4.229   5.066   2.452
  372TCM    cl2 2025   4.496   5.029   2.339
  372TCM     h1 2026   4.402   4.922   2.532
  372TCM    cl3 2027   4.307   4.804   2.347
  373TCM     c1 2028   1.820   3.589   1.710
  373TCM    cl1 2029   1.650   3.624   1.665
  373TCM    cl2 2030   1.835   3.587   1.889
  373TCM     h1 2031   1.849   3.492   1.669
  373TCM    cl3 2032   1.925   3.717   1.644
  374TCM     c1 2033   3.264   0.315   0.751
  374TCM    cl1 2034   3.123   0.308   0.640
  374TCM    cl2 2035   3.204   0.339   0.919
  374TCM     h1 2036   3.320   0.221   0.745
  374TCM    cl3 2037   3.369   0.452   0.705
  375TCM     c1 2038   0.282   3.534   2.965
  375TCM    cl1 2039   0.298   3.365   3.026
  375TCM    cl2 2040   0.299   3.648   3.103
  375TCM     h1 2041   0.360   3.554   2.891
  375TCM    cl3 2042   0.121   3.555   2.890
  376TCM     c1 2043   2.790   2.674   4.499
  376TCM    cl1 2044   2.819   2.835   4.427
  376TCM    cl2 2045   2.617   2.658   4.542
  376TCM     h1 2046   2.818   2.596   4.428
  376TCM    cl3 2047   2.890   2.657   4.648
  377TCM     c1 2048   2.098   0.392   4.898
  377TCM    cl1 2049   2.100   0.359   4.722
  377TCM    cl2 2050   2.238   0.313   4.976
  377TCM     h1 2051   2.103   0.500   4.915
  377TCM    cl3 2052   1.945   0.328   4.968
  378TCM     c1 2053   2.983   0.263   2.098
  378TCM    cl1 2054   3.067   0.160   2.219
  378TCM    cl2 2055   2.900   0.397   2.183
  378TCM     h1 2056   3.055   0.303   2.027
  378TCM    cl3 2057   2.861   0.164   2.010
  379TCM     c1 2058   1.763   3.121   4.447
  379TCM    cl1 2059   1.598   3.161   4.386
  379TCM    cl2 2060   1.882   3.142   4.315
  379TCM     h1 2061   1.788   3.188   4.530
  379TCM    cl3 2062   1.766   2.951   4.504
  380TCM     c1 2063   0.725   2.531   0.465
  380TCM    cl1 2064   0.856   2.650   0.492
  380TCM    cl2 2065   0.787   2.367   0.503
  380TCM     h1 2066   0.640   2.555   0.529
  380TCM    cl3 2067   0.675   2.536   0.293
  381TCM     c1 2068   2.918   0.290   2.885
  381TCM    cl1 2069   2.770   0.391   2.885
  381TCM    cl2 2070   2.905   0.166   3.014
  381TCM     h1 2071   2.929   0.241   2.788
  381TCM    cl3 2072   3.060   0.394   2.917
  382TCM     c1 2073   1.989   2.975   0.670
  382TCM    cl1 2074   1.933   3.087   0.799
  382TCM    cl2 2075   2.113   3.057   0.570
  382TCM     h1 2076   2.031   2.885   0.715
  382TCM    cl3 2077   1.849   2.930   0.567
  383TCM     c1 2078   3.154   0.108   3.827
  383TCM    cl1 2079   3.138   0.108   3.648
  383TCM    cl2 2080   3.288  -0.002   3.875
  383TCM     h1 2081   3.176   0.210   3.861
  383TCM    cl3 2082   3.000   0.051   3.900
  384TCM     c1 2083   2.878   3.383   4.941
  384TCM    cl1 2084   3.014   3.471   5.018
  384TCM    cl2 2085   2.731   3.485   4.945
  384TCM     h1 2086   2.903   3.360   4.837
  384TCM    cl3 2087   2.848   3.230   5.030
  385TCM     c1 2088   0.137   0.266   3.988
  385TCM    cl1 2089   0.096   0.427   4.054
  385TCM    cl2 2090   0.293   0.211   4.058
  385TCM     h1 2091   0.058   0.194   4.014
  385TCM    cl3 2092   0.153   0.276   3.810
  386TCM     c1 2093   2.402   2.507   3.722
  386TCM    cl1 2094   2.431   2.355   3.812
  386TCM    cl2 2095   2.321   2.626   3.829
  386TCM     h1 2096   2.497   2.548   3.686
  386TCM    cl3 2097   2.295   2.472   3.582
  387TCM     c1 2098   1.056   1.211   4.667
  387TCM    cl1 2099   1.033   1.316   4.811
  387TCM    cl2 2100   1.146   1.302   4.541
  387TCM     h1 2101   1.112   1.122   4.695
  387TCM    cl3 2102   0.896   1.163   4.602
  388TCM     c1 2103   4.632   3.037   1.711
  388TCM    cl1 2104   4.657   2.973   1.545
  388TCM    cl2 2105   4.698   3.204   1.721
  388TCM     h1 2106   4.526   3.038   1.734
  388TCM    cl3 2107   4.719   2.933   1.828
  389TCM     c1 2108   3.041   3.175   0.331
  389TCM    cl1 2109   2.918   3.045   0.335
  389TCM    cl2 2110   3.185   3.124   0.426
  389TCM     h1 2111   3.071   3.194   0.227
  389TCM    cl3 2112   2.973   3.326   0.401
  390TCM     c1 2113   2.567   4.545   1.403
  390TCM    cl1 2114   2.636   4.661   1.285
  390TCM    cl2 2115   2.394   4.584   1.431
  390TCM     h1 2116   2.576   4.443   1.364
  390TCM    cl3 2117   2.656   4.558   1.559
  391TCM     c1 2118   2.747   3.808   4.496
  391TCM    cl1 2119   2.620   3.921   4.439
  391TCM    cl2 2120   2.769   3.678   4.374
  391TCM     h1 2121   2.841   3.862   4.509
  391TCM    cl3 2122   2.697   3.736   4.652
  392TCM     c1 2123   3.894   3.834   2.481
  392TCM    cl1 2124   4.016   3.944   2.553
  392TCM    cl2 2125   3.848   3.894   2.318
  392TCM     h1 2126   3.936   3.734   2.472
  392TCM    cl3 2127   3.749   3.830   2.587
  393TCM     c1 2128   2.116   1.552   2.117
  393TCM    cl1 2129   1.959   1.638   2.108
  393TCM    cl2 2130   2.100   1.409   2.223
  393TCM     h1 2131   2.146   1.521   2.017
  393TCM    cl3 2132   2.239   1.663   2.186
  394TCM     c1 2133   4.911   2.173   0.384
  394TCM    cl1 2134   5.083   2.140   0.349
  394TCM    cl2 2135   4.899   2.289   0.521
  394TCM     h1 2136   4.863   2.216   0.296
  394TCM    cl3 2137   4.828   2.020   0.428
  395TCM     c1 2138   4.063   0.378   2.856
  395TCM    cl1 2139   4.069   0.239   2.743
  395TCM    cl2 2140   3.974   0.329   3.004
  395TCM     h1 2141   4.164   0.409   2.883
  395TCM    cl3 2142   3.976   0.514   2.776
  396TCM     c1 2143   4.944   2.224   4.956
  396TCM    cl1 2144   4.985   2.353   5.073
  396TCM    cl2 2145   4.859   2.296   4.815
  396TCM     h1 2146   5.036   2.175   4.922
  396TCM    cl3 2147   4.837   2.104   5.035
  397TCM     c1 2148   3.416   1.106   1.154
  397TCM    cl1 2149   3.554   1.006   1.212
  397TCM    cl2 2150   3.410   1.101   0.975
  397TCM     h1 2151   3.323   1.066   1.195
  397TCM    cl3 2152   3.439   1.275   1.209
  398TCM     c1 2153   2.837   4.128   4.201
  398TCM    cl1 2154   2.924   3.973   4.223
  398TCM    cl2 2155   2.876   4.196   4.039
  398TCM     h1 2156   2.730   4.111   4.209
  398TCM    cl3 2157   2.889   4.243   4.328
  399TCM     c1 2158   1.390   4.981   0.299
  399TCM    cl1 2159   1.322   5.115   0.200
  399TCM    cl2 2160   1.257   4.892   0.378
  399TCM     h1 2161   1.447   4.913   0.235
  399TCM    cl3 2162   1.499   5.050   0.424
  400TCM     c1 2163   1.531   2.980   4.044
  400TCM    cl1 2164   1.660   2.895   4.136
  400TCM    cl2 2165   1.375   2.965   4.131
  400TCM     h1 2166   1.557   3.085   4.034
  400TCM    cl3 2167   1.516   2.905   3.881
  401TCM     c1 2168   1.230   2.276   2.065
  401TCM    cl1 2169   1.105   2.238   2.188
  401TCM    cl2 2170   1.208   2.445   2.008
  401TCM     h1 2171   1.329   2.266   2.109
  401TCM    cl3 2172   1.213   2.163   1.927
  402TCM     c1 2173   1.349   1.010   0.603
  402TCM    cl1 2174   1.333   1.123   0.741
  402TCM    cl2 2175   1.496   1.051   0.509
  402TCM     h1 2176   1.356   0.907   0.640
  402TCM    cl3 2177   1.204   1.025   0.497
  403TCM     c1 2178   0.548   0.260   3.009
  403TCM    cl1 2179   0.400   0.228   3.105
  403TCM    cl2 2180   0.519   0.398   2.898
  403TCM     h1 2181   0.631   0.283   3.077
  403TCM    cl3 2182   0.589   0.114   2.913
  404TCM     c1 2183   2.637   3.715   0.230
  404TCM    cl1 2184   2.810   3.683   0.267
  404TCM    cl2 2185   2.627   3.813   0.080
  404TCM     h1 2186   2.584   3.620   0.215
  404TCM    cl3 2187   2.562   3.806   0.364
  405TCM     c1 2188   0.197   1.690   0.489
  405TCM    cl1 2189   0.258   1.858   0.474
  405TCM    cl2 2190   0.254   1.594   0.348
  405TCM     h1 2191   0.236   1.646   0.581
  405TCM    cl3 2192   0.018   1.691   0.493
  406TCM     c1 2193   3.391   4.387   3.917
  406TCM    cl1 2194   3.400   4.561   3.961
  406TCM    cl2 2195   3.529   4.345   3.811
  406TCM     h1 2196   3.395   4.326   4.008
  406TCM    cl3 2197   3.238   4.354   3.830
  407TCM     c1 2198   0.461   3.083   3.201
  407TCM    cl1 2199   0.433   2.997   3.356
  407TCM    cl2 2200   0.487   2.963   3.070
  407TCM     h1 2201   0.375   3.145   3.177
  407TCM    cl3 2202   0.608   3.185   3.216
  408TCM     c1 2203   2.859   0.405   1.741
  408TCM    cl1 2204   2.927   0.278   1.634
  408TCM    cl2 2205   2.753   0.513   1.645
  408TCM     h1 2206   2.800   0.357   1.820
  408TCM    cl3 2207   2.992   0.500   1.813
  409TCM     c1 2208   4.854   4.773   4.251
  409TCM    cl1 2209   4.861   4.848   4.413
  409TCM    cl2 2210   5.021   4.736   4.196
  409TCM     h1 2211   4.796   4.681   4.255
  409TCM    cl3 2212   4.780   4.888   4.135
  410TCM     c1 2213   3.956   0.751   1.901
  410TCM    cl1 2214   3.935   0.907   1.814
  410TCM    cl2 2215   3.800   0.662   1.905
  410TCM     h1 2216   4.031   0.691   1.850
  410TCM    cl3 2217   4.010   0.785   2.069
  411TCM     c1 2218   2.366   4.563   2.135
  411TCM    cl1 2219   2.319   4.471   2.282
  411TCM    cl2 2220   2.457   4.456   2.024
  411TCM     h1 2221   2.276   4.600   2.085
  411TCM    cl3 2222   2.469   4.702   2.182
  412TCM     c1 2223   2.040   2.552   0.510
  412TCM    cl1 2224   2.117   2.701   0.446
  412TCM    cl2 2225   1.991   2.580   0.680
  412TCM     h1 2226   1.952   2.527   0.450
  412TCM    cl3 2227   2.158   2.417   0.502
  413TCM     c1 2228   2.105   4.664   0.302
  413TCM    cl1 2229   2.094   4.529   0.420
  413TCM    cl2 2230   2.088   4.601   0.135
  413TCM     h1 2231   2.025   4.736   0.322
  413TCM    cl3 2232   2.264   4.745   0.320
  414TCM     c1 2233   3.664   1.042   2.043
  414TCM    cl1 2234   3.693   0.934   2.184
  414TCM    cl2 2235   3.551   1.173   2.091
  414TCM     h1 2236   3.759   1.086   2.011
  414TCM    cl3 2237   3.591   0.948   1.910
  415TCM     c1 2238   3.388   4.052   0.527
  415TCM    cl1 2239   3.439   3.957   0.384
  415TCM    cl2 2240   3.474   3.993   0.673
  415TCM     h1 2241   3.411   4.158   0.511
  415TCM    cl3 2242   3.211   4.033   0.551
  416TCM     c1 2243   1.749   4.069   1.719
  416TCM    cl1 2244   1.692   3.988   1.570
  416TCM    cl2 2245   1.737   3.955   1.857
  416TCM     h1 2246   1.853   4.100   1.707
  416TCM    cl3 2247   1.646   4.212   1.752
  417TCM     c1 2248   0.088   2.635   2.685
  417TCM    cl1 2249   0.262   2.595   2.706
  417TCM    cl2 2250   0.073   2.777   2.576
  417TCM     h1 2251   0.035   2.550   2.642
  417TCM    cl3 2252   0.016   2.675   2.845
  418TCM     c1 2253   1.378   1.322   1.806
  418TCM    cl1 2254   1.356   1.242   1.966
  418TCM    cl2 2255   1.248   1.270   1.694
  418TCM     h1 2256   1.374   1.430   1.819
  418TCM    cl3 2257   1.538   1.275   1.739
  419TCM     c1 2258   0.916   4.067   0.212
  419TCM    cl1 2259   0.880   4.200   0.097
  419TCM    cl2 2260   0.989   3.929   0.123
  419TCM     h1 2261   0.986   4.103   0.289
  419TCM    cl3 2262   0.763   4.014   0.290
  420TCM     c1 2263   3.020   2.584   0.596
  420TCM    cl1 2264   2.865   2.499   0.566
  420TCM    cl2 2265   3.065   2.565   0.769
  420TCM     h1 2266   3.098   2.540   0.533
  420TCM    cl3 2267   3.001   2.758   0.557
  421TCM     c1 2268   0.703   1.920   2.304
  421TCM    cl1 2269   0.544   1.859   2.359
  421TCM    cl2 2270   0.819   1.785   2.292
  421TCM     h1 2271   0.692   1.967   2.205
  421TCM    cl3 2272   0.764   2.042   2.420
  422TCM     c1 2273   2.310   0.319   4.327
  422TCM    cl1 2274   2.482   0.270   4.338
  422TCM    cl2 2275   2.284   0.468   4.424
  422TCM     h1 2276   2.284   0.339   4.222
  422TCM    cl3 2277   2.206   0.187   4.390
  423TCM     c1 2278   0.504   4.119   3.798
  423TCM    cl1 2279   0.541   3.944   3.792
  423TCM    cl2 2280   0.479   4.168   3.969
  423TCM     h1 2281   0.588   4.176   3.756
  423TCM    cl3 2282   0.355   4.152   3.705
  424TCM     c1 2283   4.773   3.953   1.027
  424TCM    cl1 2284   4.792   3.901   1.197
  424TCM    cl2 2285   4.813   3.817   0.917
  424TCM     h1 2286   4.670   3.985   1.010
  424TCM    cl3 2287   4.885   4.090   0.993
  425TCM     c1 2288   2.478   2.283   0.009
  425TCM    cl1 2289   2.355   2.250   0.135
  425TCM    cl2 2290   2.622   2.359   0.086
  425TCM     h1 2291   2.507   2.190  -0.039
  425TCM    cl3 2292   2.409   2.395  -0.113
  426TCM     c1 2293   0.200   4.863   3.158
  426TCM    cl1 2294   0.066   4.926   3.057
  426TCM    cl2 2295   0.347   4.843   3.057
  426TCM     h1 2296   0.221   4.933   3.239
  426TCM    cl3 2297   0.154   4.704   3.227
  427TCM     c1 2298   3.310   2.271   1.800
  427TCM    cl1 2299   3.420   2.411   1.826
  427TCM    cl2 2300   3.142   2.331   1.778
  427TCM     h1 2301   3.341   2.217   1.710
  427TCM    cl3 2302   3.318   2.162   1.942
  428TCM     c1 2303   4.109   0.952   4.710
  428TCM    cl1 2304   4.170   1.097   4.796
  428TCM    cl2 2305   4.243   0.834   4.691
  428TCM     h1 2306   4.028   0.907   4.768
  428TCM    cl3 2307   4.047   1.000   4.549
  429TCM     c1 2308   1.260   1.655   4.315
  429TCM    cl1 2309   1.433   1.682   4.353
  429TCM    cl2 2310   1.243   1.599   4.145
  429TCM     h1 2311   1.220   1.579   4.383
  429TCM    cl3 2312   1.169   1.808   4.337
  430TCM     c1 2313   0.394   0.414   2.035
  430TCM    cl1 2314   0.476   0.302   1.921
  430TCM    cl2 2315   0.379   0.333   2.194
  430TCM     h1 2316   0.453   0.505   2.045
  430TCM    cl3 2317   0.231   0.453   1.972
  431TCM     c1 2318   3.692   0.235   0.919
  431TCM    cl1 2319   3.550   0.303   1.005
  431TCM    cl2 2320   3.711   0.316   0.760
  431TCM     h1 2321   3.782   0.250   0.979
  431TCM    cl3 2322   3.666   0.059   0.891
  432TCM     c1 2323   2.939   1.808   3.338
  432TCM    cl1 2324   2.912   1.934   3.213
  432TCM    cl2 2325   2.913   1.877   3.501
  432TCM     h1 2326   2.869   1.725   3.322
  432TCM    cl3 2327   3.107   1.748   3.327
  433TCM     c1 2328   3.573   2.809   3.160
  433TCM    cl1 2329   3.487   2.775   3.313
  433TCM    cl2 2330   3.578   2.661   3.059
  433TCM     h1 2331   3.520   2.888   3.105
  433TCM    cl3 2332   3.740   2.863   3.197
  434TCM     c1 2333   3.120   4.213   1.571
  434TCM    cl1 2334   2.988   4.326   1.617
  434TCM    cl2 2335   3.131   4.203   1.393
  434TCM     h1 2336   3.215   4.249   1.612
  434TCM    cl3 2337   3.084   4.050   1.636
  435TCM     c1 2338   0.587   1.072   3.965
  435TCM    cl1 2339   0.653   0.928   4.048
  435TCM    cl2 2340   0.564   1.036   3.791
  435TCM     h1 2341   0.491   1.100   4.010
  435TCM    cl3 2342   0.703   1.208   3.983
  436TCM     c1 2343   0.417   2.008   1.330
  436TCM    cl1 2344   0.409   1.896   1.470
  436TCM    cl2 2345   0.250   2.053   1.278
  436TCM     h1 2346   0.472   2.098   1.358
  436TCM    cl3 2347   0.501   1.928   1.193
  437TCM     c1 2348   0.119   2.655   0.755
  437TCM    cl1 2349   0.292   2.613   0.770
  437TCM    cl2 2350   0.098   2.782   0.630
  437TCM     h1 2351   0.062   2.567   0.727
  437TCM    cl3 2352   0.060   2.718   0.913
  438TCM     c1 2353   0.683   3.361   4.784
  438TCM    cl1 2354   0.621   3.196   4.820
  438TCM    cl2 2355   0.549   3.479   4.801
  438TCM     h1 2356   0.764   3.386   4.852
  438TCM    cl3 2357   0.743   3.364   4.615
  439TCM     c1 2358   3.432   1.183   1.583
  439TCM    cl1 2359   3.312   1.079   1.499
  439TCM    cl2 2360   3.593   1.104   1.577
  439TCM     h1 2361   3.437   1.280   1.535
  439TCM    cl3 2362   3.382   1.203   1.754
  440TCM     c1 2363   3.637   1.766   4.390
  440TCM    cl1 2364   3.635   1.643   4.260
  440TCM    cl2 2365   3.582   1.691   4.544
  440TCM     h1 2366   3.738   1.806   4.403
  440TCM    cl3 2367   3.525   1.900   4.346
  441TCM     c1 2368   0.788   3.916   4.121
  441TCM    cl1 2369   0.615   3.908   4.168
  441TCM    cl2 2370   0.827   4.079   4.058
  441TCM     h1 2371   0.850   3.895   4.209
  441TCM    cl3 2372   0.822   3.793   3.995
  442TCM     c1 2373   3.400   3.248   4.925
  442TCM    cl1 2374   3.378   3.219   4.750
  442TCM    cl2 2375   3.253   3.197   5.014
  442TCM     h1 2376   3.486   3.191   4.961
  442TCM    cl3 2377   3.429   3.423   4.953
  443TCM     c1 2378   0.820   2.354   1.362
  443TCM    cl1 2379   0.739   2.194   1.374
  443TCM    cl2 2380   0.886   2.375   1.196
  443TCM     h1 2381   0.748   2.433   1.383
  443TCM    cl3 2382   0.955   2.360   1.481
  444TCM     c1 2383   4.271   0.006   0.255
  444TCM    cl1 2384   4.133  -0.097   0.304
  444TCM    cl2 2385   4.294   0.136   0.376
  444TCM     h1 2386   4.362  -0.055   0.249
  444TCM    cl3 2387   4.237   0.079   0.094
  445TCM     c1 2388   4.629   1.083   4.866
  445TCM    cl1 2389   4.591   0.962   4.740
  445TCM    cl2 2390   4.485   1.104   4.973
  445TCM     h1 2391   4.714   1.049   4.926
  445TCM    cl3 2392   4.668   1.240   4.788
  446TCM     c1 2393   2.924   0.662   3.132
  446TCM    cl1 2394   2.828   0.733   2.997
  446TCM    cl2 2395   2.862   0.725   3.288
  446TCM     h1 2396   2.915   0.553   3.130
  446TCM    cl3 2397   3.096   0.707   3.114
  447TCM     c1 2398   4.377   1.295   4.567
  447TCM    cl1 2399   4.498   1.414   4.509
  447TCM    cl2 2400   4.394   1.142   4.476
  447TCM     h1 2401   4.393   1.276   4.674
  447TCM    cl3 2402   4.212   1.362   4.543
  448TCM     c1 2403   0.032   2.113   3.418
  448TCM    cl1 2404  -0.056   1.970   3.483
  448TCM    cl2 2405  -0.087   2.235   3.364
  448TCM     h1 2406   0.094   2.156   3.497
  448TCM    cl3 2407   0.135   2.063   3.280
  449TCM     c1 2408   4.881   4.733   3.565
  449TCM    cl1 2409   4.849   4.613   3.435
  449TCM    cl2 2410   5.056   4.771   3.571
  449TCM     h1 2411   4.824   4.824   3.544
  449TCM    cl3 2412   4.830   4.664   3.722
  450TCM     c1 2413   3.167   0.640   3.614
  450TCM    cl1 2414   2.989   0.660   3.631
  450TCM    cl2 2415   3.217   0.701   3.453
  450TCM     h1 2416   3.218   0.696   3.692
  450TCM    cl3 2417   3.209   0.466   3.629
  451TCM     c1 2418   3.686   3.618   1.389
  451TCM    cl1 2419   3.846   3.650   1.317
  451TCM    cl2 2420   3.590   3.769   1.394
  451TCM     h1 2421   3.633   3.543   1.328
  451TCM    cl3 2422   3.706   3.556   1.556
  452TCM     c1 2423   0.608   4.893   0.914
  452TCM    cl1 2424   0.643   4.789   0.771
  452TCM    cl2 2425   0.457   4.836   0.992
  452TCM     h1 2426   0.690   4.887   0.985
  452TCM    cl3 2427   0.586   5.062   0.860
  453TCM     c1 2428   2.154   3.671   3.435
  453TCM    cl1 2429   2.318   3.609   3.399
  453TCM    cl2 2430   2.031   3.565   3.358
  453TCM     h1 2431   2.138   3.672   3.543
  453TCM    cl3 2432   2.138   3.838   3.372
  454TCM     c1 2433   4.366   3.717   1.173
  454TCM    cl1 2434   4.491   3.699   1.299
  454TCM    cl2 2435   4.437   3.803   1.032
  454TCM     h1 2436   4.331   3.619   1.142
  454TCM    cl3 2437   4.227   3.812   1.237
  455TCM     c1 2438   3.235   4.271   4.308
  455TCM    cl1 2439   3.384   4.370   4.298
  455TCM    cl2 2440   3.238   4.171   4.457
  455TCM     h1 2441   3.148   4.337   4.310
  455TCM    cl3 2442   3.226   4.164   4.164
  456TCM     c1 2443   1.769   2.002   4.613
  456TCM    cl1 2444   1.606   1.928   4.592
  456TCM    cl2 2445   1.858   1.997   4.458
  456TCM     h1 2446   1.758   2.106   4.646
  456TCM    cl3 2447   1.861   1.910   4.737
  457TCM     c1 2448   1.717   3.082   1.640
  457TCM    cl1 2449   1.676   3.253   1.677
  457TCM    cl2 2450   1.733   2.989   1.793
  457TCM     h1 2451   1.638   3.038   1.579
  457TCM    cl3 2452   1.871   3.078   1.549
  458TCM     c1 2453   1.308   0.189   1.233
  458TCM    cl1 2454   1.326   0.285   1.384
  458TCM    cl2 2455   1.469   0.162   1.159
  458TCM     h1 2456   1.262   0.092   1.257
  458TCM    cl3 2457   1.204   0.278   1.117
  459TCM     c1 2458   3.960   4.204   3.369
  459TCM    cl1 2459   3.940   4.364   3.289
  459TCM    cl2 2460   3.853   4.198   3.514
  459TCM     h1 2461   3.933   4.124   3.300
  459TCM    cl3 2462   4.131   4.185   3.421
  460TCM     c1 2463   0.515   0.779   3.484
  460TCM    cl1 2464   0.604   0.921   3.419
  460TCM    cl2 2465   0.606   0.628   3.447
  460TCM     h1 2466   0.504   0.789   3.592
  460TCM    cl3 2467   0.353   0.770   3.407
  461TCM     c1 2468   1.579   4.250   0.346
  461TCM    cl1 2469   1.556   4.351   0.200
  461TCM    cl2 2470   1.425   4.240   0.438
  461TCM     h1 2471   1.611   4.150   0.317
  461TCM    cl3 2472   1.706   4.324   0.450
  462TCM     c1 2473   3.125   0.063   4.849
  462TCM    cl1 2474   2.956   0.077   4.909
  462TCM    cl2 2475   3.127  -0.041   4.702
  462TCM     h1 2476   3.163   0.163   4.824
  462TCM    cl3 2477   3.228  -0.011   4.975
  463TCM     c1 2478   3.653   0.728   2.984
  463TCM    cl1 2479   3.579   0.617   2.864
  463TCM    cl2 2480   3.790   0.645   3.065
  463TCM     h1 2481   3.690   0.817   2.934
  463TCM    cl3 2482   3.531   0.774   3.107
  464TCM     c1 2483   4.961   4.299   3.618
  464TCM    cl1 2484   4.940   4.176   3.490
  464TCM    cl2 2485   5.104   4.400   3.581
  464TCM     h1 2486   4.872   4.362   3.623
  464TCM    cl3 2487   4.984   4.217   3.776
  465TCM     c1 2488   4.383   1.621   4.893
  465TCM    cl1 2489   4.278   1.676   5.027
  465TCM    cl2 2490   4.320   1.684   4.737
  465TCM     h1 2491   4.485   1.656   4.909
  465TCM    cl3 2492   4.381   1.442   4.886
  466TCM     c1 2493   0.475   0.550   2.485
  466TCM    cl1 2494   0.647   0.508   2.511
  466TCM    cl2 2495   0.461   0.655   2.341
  466TCM     h1 2496   0.417   0.458   2.469
  466TCM    cl3 2497   0.412   0.636   2.629
  467TCM     c1 2498   0.391   1.845   2.037
  467TCM    cl1 2499   0.281   1.715   2.091
  467TCM    cl2 2500   0.332   1.914   1.883
  467TCM     h1 2501   0.394   1.924   2.113
  467TCM    cl3 2502   0.556   1.780   2.011
  468TCM     c1 2503   3.480   2.133   1.397
  468TCM    cl1 2504   3.440   2.075   1.232
  468TCM    cl2 2505   3.425   2.013   1.518
  468TCM     h1 2506   3.588   2.147   1.406
  468TCM    cl3 2507   3.396   2.289   1.427
  469TCM     c1 2508   2.543   0.747   4.013
  469TCM    cl1 2509   2.436   0.891   4.024
  469TCM    cl2 2510   2.483   0.618   4.122
  469TCM     h1 2511   2.544   0.711   3.910
  469TCM    cl3 2512   2.710   0.793   4.062
  470TCM     c1 2513   4.607   2.523   4.550
  470TCM    cl1 2514   4.525   2.641   4.657
  470TCM    cl2 2515   4.565   2.357   4.602
  470TCM     h1 2516   4.575   2.538   4.447
  470TCM    cl3 2517   4.785   2.545   4.561
  471TCM     c1 2518   3.753   0.692   2.551
  471TCM    cl1 2519   3.590   0.734   2.490
  471TCM    cl2 2520   3.815   0.828   2.650
  471TCM     h1 2521   3.747   0.602   2.612
  471TCM    cl3 2522   3.863   0.664   2.412
  472TCM     c1 2523   3.144   1.894   2.930
  472TCM    cl1 2524   3.207   1.735   2.983
  472TCM    cl2 2525   3.179   1.915   2.755
  472TCM     h1 2526   3.036   1.898   2.946
  472TCM    cl3 2527   3.224   2.024   3.024
  473TCM     c1 2528   3.675   1.545   1.306
  473TCM    cl1 2529   3.561   1.682   1.330
  473TCM    cl2 2530   3.672   1.439   1.451
  473TCM     h1 2531   3.644   1.488   1.218
  473TCM    cl3 2532   3.841   1.609   1.283
  474TCM     c1 2533   0.292   3.259   1.318
  474TCM    cl1 2534   0.159   3.375   1.347
  474TCM    cl2 2535   0.364   3.209   1.475
  474TCM     h1 2536   0.253   3.171   1.266
  474TCM    cl3 2537   0.418   3.337   1.217
  475TCM     c1 2538   2.425   3.670   4.258
  475TCM    cl1 2539   2.441   3.535   4.375
  475TCM    cl2 2540   2.274   3.761   4.293
  475TCM     h1 2541   2.510   3.737   4.268
  475TCM    cl3 2542   2.417   3.607   4.091
  476TCM     c1 2543   1.702   1.577   1.672
  476TCM    cl1 2544   1.813   1.683   1.765
  476TCM    cl2 2545   1.751   1.577   1.499
  476TCM     h1 2546   1.708   1.476   1.712
  476TCM    cl3 2547   1.534   1.640   1.687
  477TCM     c1 2548   4.551   2.430   0.077
  477TCM    cl1 2549   4.662   2.543  -0.007
  477TCM    cl2 2550   4.636   2.357   0.217
  477TCM     h1 2551   4.462   2.484   0.111
  477TCM    cl3 2552   4.502   2.300  -0.037
  478TCM     c1 2553   2.990   4.451   3.364
  478TCM    cl1 2554   2.828   4.528   3.359
  478TCM    cl2 2555   3.044   4.439   3.535
  478TCM     h1 2556   2.985   4.351   3.320
  478TCM    cl3 2557   3.106   4.553   3.273
  479TCM     c1 2558   0.159   3.606   4.838
  479TCM    cl1 2559   0.017   3.515   4.899
  479TCM    cl2 2560   0.133   3.782   4.861
  479TCM     h1 2561   0.248   3.574   4.893
  479TCM    cl3 2562   0.181   3.572   4.663
  480TCM     c1 2563   0.837   2.798   2.988
  480TCM    cl1 2564   0.856   2.976   2.999
  480TCM    cl2 2565   0.708   2.760   2.869
  480TCM     h1 2566   0.932   2.753   2.955
  480TCM    cl3 2567   0.792   2.731   3.148
  481TCM     c1 2568   2.365   2.666   0.873
  481TCM    cl1 2569   2.292   2.781   0.756
  481TCM    cl2 2570   2.324   2.498   0.825
  481TCM     h1 2571   2.474   2.679   0.873
  481TCM    cl3 2572   2.300   2.699   1.037
  482TCM     c1 2573   4.937   3.447   3.417
  482TCM    cl1 2574   5.013   3.483   3.258
  482TCM    cl2 2575   4.783   3.360   3.390
  482TCM     h1 2576   5.005   3.385   3.476
  482TCM    cl3 2577   4.906   3.601   3.503
  483TCM     c1 2578   2.418   4.743   2.720
  483TCM    cl1 2579   2.562   4.712   2.822
  483TCM    cl2 2580   2.271   4.688   2.806
  483TCM     h1 2581   2.410   4.850   2.697
  483TCM    cl3 2582   2.435   4.649   2.568
  484TCM     c1 2583   0.100   2.509   3.947
  484TCM    cl1 2584   0.178   2.668   3.918
  484TCM    cl2 2585  -0.076   2.522   3.914
  484TCM     h1 2586   0.144   2.433   3.881
  484TCM    cl3 2587   0.124   2.461   4.118
  485TCM     c1 2588   2.472   2.080   3.323
  485TCM    cl1 2589   2.574   1.941   3.372
  485TCM    cl2 2590   2.498   2.115   3.149
  485TCM     h1 2591   2.367   2.056   3.340
  485TCM    cl3 2592   2.517   2.225   3.419
  486TCM     c1 2593   1.794   0.495   3.534
  486TCM    cl1 2594   1.817   0.377   3.667
  486TCM    cl2 2595   1.789   0.661   3.601
  486TCM     h1 2596   1.877   0.486   3.464
  486TCM    cl3 2597   1.640   0.462   3.450
  487TCM     c1 2598   0.903   0.009   0.459
  487TCM    cl1 2599   0.739   0.065   0.504
  487TCM    cl2 2600   0.949   0.086   0.303
  487TCM     h1 2601   0.975   0.038   0.536
  487TCM    cl3 2602   0.903  -0.169   0.441
  488TCM     c1 2603   3.990   1.062   3.233
  488TCM    cl1 2604   3.921   1.226   3.256
  488TCM    cl2 2605   3.866   0.938   3.273
  488TCM     h1 2606   4.021   1.050   3.129
  488TCM    cl3 2607   4.131   1.041   3.341
  489TCM     c1 2608   3.246   4.832   3.002
  489TCM    cl1 2609   3.311   4.790   2.840
  489TCM    cl2 2610   3.070   4.797   3.007
  489TCM     h1 2611   3.298   4.774   3.078
  489TCM    cl3 2612   3.272   5.007   3.031
  490TCM     c1 2613   1.821   2.700   2.921
  490TCM    cl1 2614   1.840   2.849   3.019
  490TCM    cl2 2615   1.655   2.692   2.854
  490TCM     h1 2616   1.894   2.700   2.840
  490TCM    cl3 2617   1.850   2.557   3.027
  491TCM     c1 2618   1.363   0.513   4.871
  491TCM    cl1 2619   1.289   0.659   4.945
  491TCM    cl2 2620   1.238   0.385   4.862
  491TCM     h1 2621   1.399   0.537   4.771
  491TCM    cl3 2622   1.499   0.457   4.973
  492TCM     c1 2623   2.298   4.414   3.907
  492TCM    cl1 2624   2.140   4.357   3.843
  492TCM    cl2 2625   2.355   4.553   3.809
  492TCM     h1 2626   2.287   4.444   4.011
  492TCM    cl3 2627   2.416   4.279   3.894
  493TCM     c1 2628   0.628   3.908   4.971
  493TCM    cl1 2629   0.739   3.928   4.831
  493TCM    cl2 2630   0.490   3.795   4.994
  493TCM     h1 2631   0.558   3.950   4.898
  493TCM    cl3 2632   0.712   3.750   4.970
  494TCM     c1 2633   4.986   2.987   1.383
  494TCM    cl1 2634   4.926   3.107   1.263
  494TCM    cl2 2635   5.019   3.069   1.538
  494TCM     h1 2636   4.910   2.909   1.398
  494TCM    cl3 2637   5.137   2.912   1.321
  495TCM     c1 2638   3.274   0.995   3.240
  495TCM    cl1 2639   3.382   1.059   3.368
  495TCM    cl2 2640   3.317   1.072   3.083
  495TCM     h1 2641   3.285   0.887   3.232
  495TCM    cl3 2642   3.104   1.037   3.280
  496TCM     c1 2643   0.007   1.272   1.717
  496TCM    cl1 2644  -0.073   1.131   1.794
  496TCM    cl2 2645  -0.117   1.383   1.651
  496TCM     h1 2646   0.068   1.324   1.792
  496TCM    cl3 2647   0.113   1.215   1.584
  497TCM     c1 2648   1.411   4.841   0.904
  497TCM    cl1 2649   1.335   4.818   0.743
  497TCM    cl2 2650   1.495   4.690   0.954
  497TCM     h1 2651   1.484   4.923   0.898
  497TCM    cl3 2652   1.285   4.883   1.024
  498TCM     c1 2653   2.656   2.587   3.372
  498TCM    cl1 2654   2.730   2.512   3.517
  498TCM    cl2 2655   2.780   2.685   3.286
  498TCM     h1 2656   2.618   2.509   3.305
  498TCM    cl3 2657   2.523   2.696   3.423
  499TCM     c1 2658   0.111   3.084   0.847
  499TCM    cl1 2659   0.142   3.208   0.721
  499TCM    cl2 2660  -0.065   3.076   0.882
  499TCM     h1 2661   0.145   2.986   0.812
  499TCM    cl3 2662   0.198   3.128   0.997
  500TCM     c1 2663   1.648   0.121   4.894
  500TCM    cl1 2664   1.484   0.122   4.820
  500TCM    cl2 2665   1.759   0.029   4.787
  500TCM     h1 2666   1.684   0.223   4.905
  500TCM    cl3 2667   1.643   0.041   5.054
  501TCM     c1 2668   0.901   1.355   2.765
  501TCM    cl1 2669   0.912   1.492   2.881
  501TCM    cl2 2670   1.014   1.225   2.816
  501TCM     h1 2671   0.799   1.316   2.762
  501TCM    cl3 2672   0.948   1.414   2.601
  502TCM     c1 2673   2.716   3.513   2.046
  502TCM    cl1 2674   2.747   3.346   1.988
  502TCM    cl2 2675   2.791   3.535   2.207
  502TCM     h1 2676   2.758   3.585   1.976
  502TCM    cl3 2677   2.538   3.539   2.059
  503TCM     c1 2678   1.473   0.541   2.473
  503TCM    cl1 2679   1.375   0.612   2.341
  503TCM    cl2 2680   1.405   0.593   2.631
  503TCM     h1 2681   1.472   0.432   2.466
  503TCM    cl3 2682   1.642   0.601   2.458
  504TCM     c1 2683   4.916   0.049   2.557
  504TCM    cl1 2684   4.878  -0.035   2.403
  504TCM    cl2 2685   4.822  -0.025   2.690
  504TCM     h1 2686   5.022   0.041   2.578
  504TCM    cl3 2687   4.870   0.222   2.542
  505TCM     c1 2688   2.648   3.929   2.953
  505TCM    cl1 2689   2.509   4.026   2.894
  505TCM    cl2 2690   2.794   3.970   2.857
  505TCM     h1 2691   2.666   3.951   3.058
  505TCM    cl3 2692   2.612   3.754   2.935
  506TCM     c1 2693   0.130   4.876   4.750
  506TCM    cl1 2694   0.163   4.945   4.588
  506TCM    cl2 2695   0.147   4.698   4.744
  506TCM     h1 2696   0.201   4.917   4.823
  506TCM    cl3 2697  -0.037   4.917   4.800
  507TCM     c1 2698   1.270   4.173   4.917
  507TCM    cl1 2699   1.122   4.108   4.841
  507TCM    cl2 2700   1.395   4.045   4.923
  507TCM     h1 2701   1.307   4.258   4.858
  507TCM    cl3 2702   1.233   4.228   5.084
  508TCM     c1 2703   0.515   1.933   3.206
  508TCM    cl1 2704   0.385   1.851   3.114
  508TCM    cl2 2705   0.477   1.927   3.381
  508TCM     h1 2706   0.611   1.882   3.188
  508TCM    cl3 2707   0.527   2.103   3.152
  509TCM     c1 2708   4.509   4.884   4.515
  509TCM    cl1 2709   4.428   5.039   4.478
  509TCM    cl2 2710   4.503   4.778   4.370
  509TCM     h1 2711   4.613   4.902   4.542
  509TCM    cl3 2712   4.424   4.804   4.651
  510TCM     c1 2713   4.192   2.301   2.202
  510TCM    cl1 2714   4.323   2.179   2.220
  510TCM    cl2 2715   4.224   2.439   2.313
  510TCM     h1 2716   4.190   2.338   2.099
  510TCM    cl3 2717   4.034   2.227   2.243
  511TCM     c1 2718   3.424   4.625   1.471
  511TCM    cl1 2719   3.586   4.640   1.547
  511TCM    cl2 2720   3.339   4.782   1.479
  511TCM     h1 2721   3.435   4.594   1.366
  511TCM    cl3 2722   3.329   4.501   1.559
  512TCM     c1 2723   0.234   4.973   0.449
  512TCM    cl1 2724   0.178   5.143   0.437
  512TCM    cl2 2725   0.092   4.866   0.478
  512TCM     h1 2726   0.283   4.943   0.356
  512TCM    cl3 2727   0.350   4.958   0.585
  513TCM     c1 2728   3.798   4.961   0.011
  513TCM    cl1 2729   3.910   4.821   0.020
  513TCM    cl2 2730   3.768   5.003  -0.160
  513TCM     h1 2731   3.703   4.935   0.060
  513TCM    cl3 2732   3.871   5.102   0.094
  514TCM     c1 2733   0.808   0.307   2.129
  514TCM    cl1 2734   0.723   0.462   2.160
  514TCM    cl2 2735   0.837   0.292   1.952
  514TCM     h1 2736   0.904   0.307   2.181
  514TCM    cl3 2737   0.707   0.171   2.186
  515TCM     c1 2738   2.686   4.971   4.191
  515TCM    cl1 2739   2.675   4.848   4.061
  515TCM    cl2 2740   2.858   4.991   4.236
  515TCM     h1 2741   2.646   5.066   4.155
  515TCM    cl3 2742   2.593   4.917   4.334
  516TCM     c1 2743   4.512   4.046   1.480
  516TCM    cl1 2744   4.369   3.956   1.542
  516TCM    cl2 2745   4.524   4.204   1.564
  516TCM     h1 2746   4.603   3.987   1.498
  516TCM    cl3 2747   4.492   4.074   1.304
  517TCM     c1 2748   3.105   3.653   4.680
  517TCM    cl1 2749   3.269   3.581   4.680
  517TCM    cl2 2750   2.987   3.528   4.630
  517TCM     h1 2751   3.081   3.688   4.781
  517TCM    cl3 2752   3.100   3.791   4.566
  518TCM     c1 2753   2.821   0.449   3.985
  518TCM    cl1 2754   2.756   0.298   4.057
  518TCM    cl2 2755   2.721   0.495   3.843
  518TCM     h1 2756   2.817   0.529   4.060
  518TCM    cl3 2757   2.990   0.423   3.933
  519TCM     c1 2758   3.515   3.229   1.421
  519TCM    cl1 2759   3.430   3.359   1.331
  519TCM    cl2 2760   3.492   3.255   1.597
  519TCM     h1 2761   3.475   3.132   1.393
  519TCM    cl3 2762   3.691   3.236   1.384
  520TCM     c1 2763   0.072   2.978   3.070
  520TCM    cl1 2764   0.158   3.028   2.921
  520TCM    cl2 2765   0.072   3.113   3.188
  520TCM     h1 2766  -0.031   2.951   3.045
  520TCM    cl3 2767   0.155   2.837   3.143
  521TCM     c1 2768   1.219   3.310   2.955
  521TCM    cl1 2769   1.272   3.315   2.784
  521TCM    cl2 2770   1.193   3.139   3.004
  521TCM     h1 2771   1.296   3.355   3.018
  521TCM    cl3 2772   1.066   3.402   2.974
  522TCM     c1 2773   2.734   4.043   1.492
  522TCM    cl1 2774   2.614   3.925   1.431
  522TCM    cl2 2775   2.713   4.063   1.669
  522TCM     h1 2776   2.835   4.007   1.471
  522TCM    cl3 2777   2.709   4.200   1.411
  523TCM     c1 2778   0.319   1.533   2.655
  523TCM    cl1 2779   0.292   1.599   2.490
  523TCM    cl2 2780   0.230   1.378   2.673
  523TCM     h1 2781   0.425   1.516   2.670
  523TCM    cl3 2782   0.260   1.650   2.778
  524TCM     c1 2783   4.447   3.245   2.807
  524TCM    cl1 2784   4.510   3.188   2.649
  524TCM    cl2 2785   4.346   3.116   2.880
  524TCM     h1 2786   4.530   3.269   2.873
  524TCM    cl3 2787   4.347   3.392   2.781
  525TCM     c1 2788   2.711   0.023   2.327
  525TCM    cl1 2789   2.647  -0.107   2.432
  525TCM    cl2 2790   2.764   0.160   2.430
  525TCM     h1 2791   2.795  -0.014   2.268
  525TCM    cl3 2792   2.580   0.080   2.218
  526TCM     c1 2793   2.952   2.928   2.143
  526TCM    cl1 2794   2.856   2.970   1.997
  526TCM    cl2 2795   3.122   2.899   2.095
  526TCM     h1 2796   2.947   3.010   2.214
  526TCM    cl3 2797   2.885   2.779   2.218
  527TCM     c1 2798   1.826   3.028   3.695
  527TCM    cl1 2799   1.924   3.156   3.616
  527TCM    cl2 2800   1.847   3.039   3.872
  527TCM     h1 2801   1.720   3.042   3.669
  527TCM    cl3 2802   1.881   2.867   3.639
  528TCM     c1 2803   0.126   1.773   0.021
  528TCM    cl1 2804   0.067   1.850  -0.130
  528TCM    cl2 2805   0.130   1.595  -0.001
  528TCM     h1 2806   0.226   1.809   0.044
  528TCM    cl3 2807   0.015   1.814   0.156
  529TCM     c1 2808   2.092   2.928   1.957
  529TCM    cl1 2809   2.250   2.940   2.042
  529TCM    cl2 2810   2.029   2.760   1.968
  529TCM     h1 2811   2.021   2.997   2.003
  529TCM    cl3 2812   2.117   2.973   1.785
  530TCM     c1 2813   1.808   0.370   4.505
  530TCM    cl1 2814   1.714   0.454   4.378
  530TCM    cl2 2815   1.828   0.197   4.461
  530TCM     h1 2816   1.907   0.417   4.514
  530TCM    cl3 2817   1.720   0.383   4.661
  531TCM     c1 2818   0.236   4.855   3.876
  531TCM    cl1 2819   0.322   4.846   4.033
  531TCM    cl2 2820   0.330   4.958   3.763
  531TCM     h1 2821   0.225   4.755   3.834
  531TCM    cl3 2822   0.073   4.928   3.900
  532TCM     c1 2823   1.574   4.278   1.247
  532TCM    cl1 2824   1.674   4.312   1.102
  532TCM    cl2 2825   1.666   4.322   1.394
  532TCM     h1 2826   1.482   4.336   1.242
  532TCM    cl3 2827   1.534   4.103   1.251
  533TCM     c1 2828   4.931   0.623   3.718
  533TCM    cl1 2829   4.881   0.664   3.885
  533TCM    cl2 2830   4.867   0.461   3.675
  533TCM     h1 2831   4.892   0.698   3.648
  533TCM    cl3 2832   5.111   0.621   3.709
  534TCM     c1 2833   2.366   3.066   4.995
  534TCM    cl1 2834   2.252   3.076   4.856
  534TCM    cl2 2835   2.276   3.029   5.146
  534TCM     h1 2836   2.439   2.987   4.975
  534TCM    cl3 2837   2.451   3.222   5.013
  535TCM     c1 2838   2.706   4.167   0.965
  535TCM    cl1 2839   2.806   4.080   1.085
  535TCM    cl2 2840   2.812   4.234   0.837
  535TCM     h1 2841   2.634   4.098   0.920
  535TCM    cl3 2842   2.618   4.300   1.048
  536TCM     c1 2843   1.423   0.640   3.776
  536TCM    cl1 2844   1.493   0.476   3.795
  536TCM    cl2 2845   1.389   0.669   3.602
  536TCM     h1 2846   1.330   0.646   3.834
  536TCM    cl3 2847   1.539   0.763   3.836
  537TCM     c1 2848   1.546   1.079   2.471
  537TCM    cl1 2849   1.518   1.070   2.294
  537TCM    cl2 2850   1.464   0.943   2.554
  537TCM     h1 2851   1.654   1.074   2.491
  537TCM    cl3 2852   1.481   1.235   2.533
  538TCM     c1 2853   2.065   3.189   3.289
  538TCM    cl1 2854   2.041   3.236   3.117
  538TCM    cl2 2855   2.228   3.240   3.344
  538TCM     h1 2856   1.989   3.237   3.350
  538TCM    cl3 2857   2.051   3.010   3.304
  539TCM     c1 2858   3.815   4.128   2.816
  539TCM    cl1 2859   3.894   4.066   2.964
  539TCM    cl2 2860   3.847   4.304   2.800
  539TCM     h1 2861   3.854   4.076   2.728
  539TCM    cl3 2862   3.637   4.101   2.828
  540TCM     c1 2863   2.719   0.038   0.188
  540TCM    cl1 2864   2.847  -0.084   0.215
  540TCM    cl2 2865   2.785   0.201   0.224
  540TCM     h1 2866   2.686   0.034   0.084
  540TCM    cl3 2867   2.581   0.004   0.296
  541TCM     c1 2868   1.639   3.392   3.892
  541TCM    cl1 2869   1.770   3.445   3.783
  541TCM    cl2 2870   1.709   3.328   4.045
  541TCM     h1 2871   1.573   3.476   3.915
  541TCM    cl3 2872   1.544   3.262   3.812
  542TCM     c1 2873   2.069   2.294   1.031
  542TCM    cl1 2874   2.234   2.267   1.096
  542TCM    cl2 2875   2.012   2.458   1.078
  542TCM     h1 2876   2.070   2.286   0.922
  542TCM    cl3 2877   1.958   2.171   1.100
  543TCM     c1 2878   2.919   4.884   3.390
  543TCM    cl1 2879   3.047   4.986   3.317
  543TCM    cl2 2880   2.779   4.987   3.436
  543TCM     h1 2881   2.887   4.808   3.318
  543TCM    cl3 2882   2.984   4.804   3.537
  544TCM     c1 2883   1.911   1.172   1.917
  544TCM    cl1 2884   1.934   1.344   1.872
  544TCM    cl2 2885   1.760   1.156   2.013
  544TCM     h1 2886   1.903   1.111   1.827
  544TCM    cl3 2887   2.050   1.115   2.016
  545TCM     c1 2888   2.227   2.673   0.109
  545TCM    cl1 2889   2.121   2.528   0.116
  545TCM    cl2 2890   2.255   2.719  -0.062
  545TCM     h1 2891   2.180   2.755   0.163
  545TCM    cl3 2892   2.385   2.634   0.186
  546TCM     c1 2893   3.499   2.163   4.088
  546TCM    cl1 2894   3.506   2.256   4.242
  546TCM    cl2 2895   3.661   2.165   4.010
  546TCM     h1 2896   3.470   2.060   4.109
  546TCM    cl3 2897   3.380   2.239   3.979
  547TCM     c1 2898   0.665   0.559   1.709
  547TCM    cl1 2899   0.677   0.409   1.612
  547TCM    cl2 2900   0.493   0.605   1.730
  547TCM     h1 2901   0.710   0.542   1.807
  547TCM    cl3 2902   0.751   0.692   1.624
  548TCM     c1 2903   0.103   2.695   3.473
  548TCM    cl1 2904   0.008   2.847   3.480
  548TCM    cl2 2905   0.016   2.564   3.560
  548TCM     h1 2906   0.118   2.665   3.368
  548TCM    cl3 2907   0.262   2.722   3.551
  549TCM     c1 2908   4.305   4.682   0.664
  549TCM    cl1 2909   4.257   4.759   0.819
  549TCM    cl2 2910   4.390   4.803   0.562
  549TCM     h1 2911   4.371   4.598   0.684
  549TCM    cl3 2912   4.159   4.624   0.577
  550TCM     c1 2913   0.215   3.999   0.774
  550TCM    cl1 2914   0.245   3.825   0.739
  550TCM    cl2 2915   0.074   4.054   0.678
  550TCM     h1 2916   0.193   4.011   0.880
  550TCM    cl3 2917   0.359   4.096   0.730
  551TCM     c1 2918   2.127   2.169   3.696
  551TCM    cl1 2919   2.251   2.066   3.616
  551TCM    cl2 2920   2.093   2.106   3.860
  551TCM     h1 2921   2.164   2.271   3.703
  551TCM    cl3 2922   1.976   2.167   3.599
  552TCM     c1 2923   0.589   3.910   1.078
  552TCM    cl1 2924   0.573   3.846   0.911
  552TCM    cl2 2925   0.480   4.052   1.097
  552TCM     h1 2926   0.562   3.833   1.150
  552TCM    cl3 2927   0.759   3.961   1.106
  553TCM     c1 2928   1.458   3.813   0.222
  553TCM    cl1 2929   1.484   3.690   0.350
  553TCM    cl2 2930   1.611   3.901   0.193
  553TCM     h1 2931   1.425   3.764   0.130
  553TCM    cl3 2932   1.332   3.929   0.275
  554TCM     c1 2933   3.182   1.967   2.301
  554TCM    cl1 2934   3.263   1.873   2.171
  554TCM    cl2 2935   3.048   2.063   2.230
  554TCM     h1 2936   3.143   1.899   2.376
  554TCM    cl3 2937   3.300   2.079   2.376
  555TCM     c1 2938   1.833   2.521   2.222
  555TCM    cl1 2939   1.871   2.572   2.390
  555TCM    cl2 2940   1.672   2.441   2.219
  555TCM     h1 2941   1.832   2.609   2.157
  555TCM    cl3 2942   1.957   2.405   2.165
  556TCM     c1 2943   3.091   4.773   1.753
  556TCM    cl1 2944   3.015   4.934   1.772
  556TCM    cl2 2945   2.983   4.647   1.822
  556TCM     h1 2946   3.108   4.752   1.647
  556TCM    cl3 2947   3.248   4.770   1.841
  557TCM     c1 2948   0.916   2.612   4.146
  557TCM    cl1 2949   1.073   2.655   4.222
  557TCM    cl2 2950   0.788   2.610   4.272
  557TCM     h1 2951   0.892   2.685   4.069
  557TCM    cl3 2952   0.929   2.448   4.074
  558TCM     c1 2953   4.689   3.694   4.723
  558TCM    cl1 2954   4.630   3.566   4.834
  558TCM    cl2 2955   4.813   3.625   4.613
  558TCM     h1 2956   4.606   3.733   4.665
  558TCM    cl3 2957   4.762   3.826   4.819
  559TCM     c1 2958   0.151   2.057   3.829
  559TCM    cl1 2959   0.255   2.128   3.957
  559TCM    cl2 2960   0.253   2.010   3.689
  559TCM     h1 2961   0.100   1.969   3.868
  559TCM    cl3 2962   0.031   2.180   3.777
  560TCM     c1 2963   4.088   2.080   2.663
  560TCM    cl1 2964   3.995   2.223   2.609
  560TCM    cl2 2965   4.182   2.014   2.525
  560TCM     h1 2966   4.156   2.108   2.743
  560TCM    cl3 2967   3.974   1.954   2.723
  561TCM     c1 2968   1.451   2.631   4.902
  561TCM    cl1 2969   1.520   2.764   4.805
  561TCM    cl2 2970   1.271   2.641   4.900
  561TCM     h1 2971   1.482   2.535   4.859
  561TCM    cl3 2972   1.510   2.642   5.071
  562TCM     c1 2973   3.556   1.845   2.908
  562TCM    cl1 2974   3.568   2.022   2.886
  562TCM    cl2 2975   3.716   1.781   2.960
  562TCM     h1 2976   3.481   1.822   2.984
  562TCM    cl3 2977   3.511   1.768   2.753
  563TCM     c1 2978   2.868   4.745   0.896
  563TCM    cl1 2979   3.045   4.713   0.888
  563TCM    cl2 2980   2.834   4.870   1.020
  563TCM     h1 2981   2.833   4.779   0.798
  563TCM    cl3 2982   2.784   4.593   0.940
  564TCM     c1 2983   1.812   3.853   0.601
  564TCM    cl1 2984   1.956   3.956   0.633
  564TCM    cl2 2985   1.845   3.747   0.460
  564TCM     h1 2986   1.791   3.792   0.689
  564TCM    cl3 2987   1.671   3.958   0.565
  565TCM     c1 2988   4.970   2.772   4.779
  565TCM    cl1 2989   5.071   2.919   4.767
  565TCM    cl2 2990   4.804   2.820   4.822
  565TCM     h1 2991   4.970   2.719   4.683
  565TCM    cl3 2992   5.037   2.666   4.907
  566TCM     c1 2993   3.014   4.903   2.668
  566TCM    cl1 2994   3.112   5.049   2.701
  566TCM    cl2 2995   3.010   4.873   2.491
  566TCM     h1 2996   3.058   4.817   2.719
  566TCM    cl3 2997   2.847   4.930   2.729
  567TCM     c1 2998   4.529   3.740   3.423
  567TCM    cl1 2999   4.525   3.599   3.534
  567TCM    cl2 3000   4.363   3.777   3.367
  567TCM     h1 3001   4.570   3.827   3.476
  567TCM    cl3 3002   4.633   3.702   3.282
  568TCM     c1 3003   1.721   0.784   2.752
  568TCM    cl1 3004   1.825   0.860   2.628
  568TCM    cl2 3005   1.675   0.908   2.873
  568TCM     h1 3006   1.631   0.744   2.704
  568TCM    cl3 3007   1.811   0.650   2.831
  569TCM     c1 3008   3.159   2.412   4.214
  569TCM    cl1 3009   3.062   2.432   4.064
  569TCM    cl2 3010   3.134   2.246   4.279
  569TCM     h1 3011   3.265   2.427   4.192
  569TCM    cl3 3012   3.105   2.532   4.336
  570TCM     c1 3013   2.439   4.141   0.431
  570TCM    cl1 3014   2.303   4.048   0.502
  570TCM    cl2 3015   2.578   4.141   0.545
  570TCM     h1 3016   2.469   4.095   0.337
  570TCM    cl3 3017   2.388   4.310   0.402
  571TCM     c1 3018   3.322   1.808   4.950
  571TCM    cl1 3019   3.256   1.937   4.844
  571TCM    cl2 3020   3.368   1.666   4.849
  571TCM     h1 3021   3.410   1.845   5.003
  571TCM    cl3 3022   3.196   1.759   5.068
  572TCM     c1 3023   2.234   1.240   3.699
  572TCM    cl1 3024   2.362   1.180   3.809
  572TCM    cl2 3025   2.300   1.369   3.594
  572TCM     h1 3026   2.196   1.158   3.638
  572TCM    cl3 3027   2.100   1.308   3.798
  573TCM     c1 3028   1.136   0.872   2.443
  573TCM    cl1 3029   1.189   0.913   2.277
  573TCM    cl2 3030   1.018   0.737   2.438
  573TCM     h1 3031   1.223   0.842   2.502
  573TCM    cl3 3032   1.060   1.017   2.517
  574TCM     c1 3033   2.705   4.178   4.724
  574TCM    cl1 3034   2.599   4.055   4.798
  574TCM    cl2 3035   2.618   4.259   4.589
  574TCM     h1 3036   2.733   4.253   4.799
  574TCM    cl3 3037   2.854   4.099   4.662
  575TCM     c1 3038   2.288   4.193   1.470
  575TCM    cl1 3039   2.261   4.017   1.492
  575TCM    cl2 3040   2.353   4.224   1.306
  575TCM     h1 3041   2.193   4.246   1.482
  575TCM    cl3 3042   2.405   4.251   1.593
  576TCM     c1 3043   0.999   2.465   4.675
  576TCM    cl1 3044   0.828   2.513   4.702
  576TCM    cl2 3045   1.019   2.415   4.504
  576TCM     h1 3046   1.065   2.548   4.697
  576TCM    cl3 3047   1.039   2.326   4.781
  577TCM     c1 3048   1.526   0.907   1.631
  577TCM    cl1 3049   1.460   1.008   1.498
  577TCM    cl2 3050   1.426   0.931   1.779
  577TCM     h1 3051   1.523   0.802   1.602
  577TCM    cl3 3052   1.695   0.955   1.666
  578TCM     c1 3053   0.319   3.347   3.556
  578TCM    cl1 3054   0.238   3.481   3.643
  578TCM    cl2 3055   0.362   3.401   3.390
  578TCM     h1 3056   0.409   3.316   3.609
  578TCM    cl3 3057   0.205   3.208   3.545
  579TCM     c1 3058   0.379   0.233   3.525
  579TCM    cl1 3059   0.318   0.400   3.497
  579TCM    cl2 3060   0.545   0.218   3.460
  579TCM     h1 3061   0.380   0.212   3.632
  579TCM    cl3 3062   0.271   0.116   3.442
  580TCM     c1 3063   4.211   4.952   2.970
  580TCM    cl1 3064   4.267   5.105   3.046
  580TCM    cl2 3065   4.278   4.939   2.804
  580TCM     h1 3066   4.245   4.867   3.030
  580TCM    cl3 3067   4.031   4.952   2.963
  581TCM     c1 3068   3.206   3.851   1.321
  581TCM    cl1 3069   3.309   3.928   1.195
  581TCM    cl2 3070   3.241   3.676   1.326
  581TCM     h1 3071   3.227   3.896   1.418
  581TCM    cl3 3072   3.033   3.875   1.279
  582TCM     c1 3073   4.525   4.165   3.489
  582TCM    cl1 3074   4.600   4.325   3.521
  582TCM    cl2 3075   4.553   4.058   3.630
  582TCM     h1 3076   4.418   4.177   3.473
  582TCM    cl3 3077   4.601   4.091   3.344
  583TCM     c1 3078   0.962   3.539   0.265
  583TCM    cl1 3079   1.118   3.627   0.285
  583TCM    cl2 3080   0.950   3.479   0.097
  583TCM     h1 3081   0.959   3.455   0.334
  583TCM    cl3 3082   0.826   3.650   0.301
  584TCM     c1 3083   0.254   2.283   4.640
  584TCM    cl1 3084   0.155   2.135   4.653
  584TCM    cl2 3085   0.428   2.238   4.631
  584TCM     h1 3086   0.226   2.339   4.550
  584TCM    cl3 3087   0.227   2.385   4.785
  585TCM     c1 3088   1.077   0.183   2.459
  585TCM    cl1 3089   1.193   0.319   2.478
  585TCM    cl2 3090   1.084   0.124   2.290
  585TCM     h1 3091   1.104   0.102   2.527
  585TCM    cl3 3092   0.911   0.241   2.495
  586TCM     c1 3093   1.028   1.257   3.727
  586TCM    cl1 3094   0.982   1.399   3.827
  586TCM    cl2 3095   0.901   1.229   3.603
  586TCM     h1 3096   1.124   1.275   3.679
  586TCM    cl3 3097   1.040   1.112   3.833
  587TCM     c1 3098   3.615   2.593   3.972
  587TCM    cl1 3099   3.607   2.491   3.825
  587TCM    cl2 3100   3.741   2.530   4.082
  587TCM     h1 3101   3.639   2.696   3.943
  587TCM    cl3 3102   3.456   2.590   4.056
  588TCM     c1 3103   2.042   3.361   4.896
  588TCM    cl1 3104   1.920   3.282   4.791
  588TCM    cl2 3105   2.034   3.288   5.060
  588TCM     h1 3106   2.142   3.346   4.854
  588TCM    cl3 3107   2.008   3.537   4.908
  589TCM     c1 3108   1.321   0.290   0.654
  589TCM    cl1 3109   1.198   0.219   0.545
  589TCM    cl2 3110   1.354   0.177   0.788
  589TCM     h1 3111   1.413   0.309   0.598
  589TCM    cl3 3112   1.258   0.444   0.721
  590TCM     c1 3113   0.474   3.471   0.237
  590TCM    cl1 3114   0.611   3.400   0.146
  590TCM    cl2 3115   0.447   3.376   0.387
  590TCM     h1 3116   0.497   3.575   0.263
  590TCM    cl3 3117   0.326   3.464   0.136
  591TCM     c1 3118   3.073   1.363   3.108
  591TCM    cl1 3119   3.210   1.389   3.220
  591TCM    cl2 3120   3.129   1.392   2.940
  591TCM     h1 3121   3.036   1.260   3.117
  591TCM    cl3 3122   2.942   1.478   3.149
  592TCM     c1 3123   2.610   4.588   0.041
  592TCM    cl1 3124   2.598   4.760  -0.011
  592TCM    cl2 3125   2.676   4.491  -0.094
  592TCM     h1 3126   2.676   4.581   0.127
  592TCM    cl3 3127   2.447   4.527   0.085
  593TCM     c1 3128   3.492   3.562   2.873
  593TCM    cl1 3129   3.662   3.509   2.892
  593TCM    cl2 3130   3.487   3.737   2.835
  593TCM     h1 3131   3.445   3.506   2.792
  593TCM    cl3 3132   3.403   3.533   3.026
  594TCM     c1 3133   2.932   3.790   0.666
  594TCM    cl1 3134   2.906   3.835   0.837
  594TCM    cl2 3135   2.857   3.914   0.559
  594TCM     h1 3136   3.039   3.785   0.645
  594TCM    cl3 3137   2.857   3.631   0.634
  595TCM     c1 3138   4.377   4.290   1.015
  595TCM    cl1 3139   4.326   4.404   0.886
  595TCM    cl2 3140   4.555   4.268   1.008
  595TCM     h1 3141   4.349   4.331   1.113
  595TCM    cl3 3142   4.296   4.132   0.991
  596TCM     c1 3143   4.421   3.038   4.732
  596TCM    cl1 3144   4.399   3.213   4.763
  596TCM    cl2 3145   4.467   2.955   4.885
  596TCM     h1 3146   4.328   2.995   4.694
  596TCM    cl3 3147   4.551   3.014   4.611
  597TCM     c1 3148   2.822   0.833   2.071
  597TCM    cl1 3149   2.704   0.769   2.189
  597TCM    cl2 3150   2.763   0.799   1.905
  597TCM     h1 3151   2.834   0.941   2.084
  597TCM    cl3 3152   2.981   0.752   2.095
  598TCM     c1 3153   3.182   4.438   2.626
  598TCM    cl1 3154   3.294   4.557   2.551
  598TCM    cl2 3155   3.090   4.517   2.757
  598TCM     h1 3156   3.113   4.400   2.550
  598TCM    cl3 3157   3.276   4.301   2.694
  599TCM     c1 3158   3.563   3.500   3.545
  599TCM    cl1 3159   3.725   3.429   3.578
  599TCM    cl2 3160   3.436   3.379   3.582
  599TCM     h1 3161   3.549   3.589   3.606
  599TCM    cl3 3162   3.554   3.543   3.371
  600TCM     c1 3163   4.102   0.178   4.776
  600TCM    cl1 3164   4.260   0.264   4.764
  600TCM    cl2 3165   4.125   0.007   4.727
  600TCM     h1 3166   4.066   0.182   4.879
  600TCM    cl3 3167   3.983   0.256   4.667
  601TCM     c1 3168   3.152   3.052   3.182
  601TCM    cl1 3169   3.181   2.988   3.347
  601TCM    cl2 3170   3.243   2.953   3.062
  601TCM     h1 3171   3.045   3.047   3.159
  601TCM    cl3 3172   3.208   3.222   3.173
  602TCM     c1 3173   0.444   2.412   1.610
  602TCM    cl1 3174   0.611   2.474   1.630
  602TCM    cl2 3175   0.422   2.355   1.441
  602TCM     h1 3176   0.427   2.328   1.678
  602TCM    cl3 3177   0.326   2.543   1.644
  603TCM     c1 3178   0.276   4.077   2.895
  603TCM    cl1 3179   0.395   4.142   2.778
  603TCM    cl2 3180   0.363   4.000   3.032
  603TCM     h1 3181   0.213   4.159   2.933
  603TCM    cl3 3182   0.172   3.955   2.815
  604TCM     c1 3183   2.526   3.372   1.226
  604TCM    cl1 3184   2.649   3.242   1.237
  604TCM    cl2 3185   2.539   3.477   1.371
  604TCM     h1 3186   2.543   3.432   1.136
  604TCM    cl3 3187   2.363   3.299   1.222
  605TCM     c1 3188   0.158   1.403   2.212
  605TCM    cl1 3189   0.073   1.378   2.056
  605TCM    cl2 3190   0.333   1.365   2.192
  605TCM     h1 3191   0.147   1.507   2.243
  605TCM    cl3 3192   0.088   1.295   2.337
  606TCM     c1 3193   3.709   2.968   3.568
  606TCM    cl1 3194   3.624   3.064   3.693
  606TCM    cl2 3195   3.758   2.810   3.638
  606TCM     h1 3196   3.642   2.951   3.483
  606TCM    cl3 3197   3.854   3.058   3.511
  607TCM     c1 3198   1.669   3.218   3.011
  607TCM    cl1 3199   1.743   3.215   2.847
  607TCM    cl2 3200   1.558   3.078   3.028
  607TCM     h1 3201   1.748   3.212   3.086
  607TCM    cl3 3202   1.576   3.369   3.032
  608TCM     c1 3203   2.579   3.084   2.214
  608TCM    cl1 3204   2.530   2.934   2.299
  608TCM    cl2 3205   2.721   3.155   2.298
  608TCM     h1 3206   2.605   3.061   2.110
  608TCM    cl3 3207   2.444   3.201   2.217
  609TCM     c1 3208   1.884   2.738   4.773
  609TCM    cl1 3209   1.855   2.599   4.882
  609TCM    cl2 3210   2.020   2.701   4.663
  609TCM     h1 3211   1.794   2.757   4.714
  609TCM    cl3 3212   1.923   2.883   4.870
  610TCM     c1 3213   4.797   0.718   2.564
  610TCM    cl1 3214   4.925   0.602   2.613
  610TCM    cl2 3215   4.813   0.753   2.389
  610TCM     h1 3216   4.699   0.674   2.584
  610TCM    cl3 3217   4.814   0.870   2.657
  611TCM     c1 3218   0.154   2.108   0.856
  611TCM    cl1 3219   0.055   2.027   0.730
  611TCM    cl2 3220   0.147   2.285   0.832
  611TCM     h1 3221   0.116   2.082   0.955
  611TCM    cl3 3222   0.324   2.052   0.841
  612TCM     c1 3223   3.090   3.814   0.086
  612TCM    cl1 3224   3.240   3.754   0.008
  612TCM    cl2 3225   2.968   3.852  -0.040
  612TCM     h1 3226   3.051   3.737   0.153
  612TCM    cl3 3227   3.127   3.962   0.180
  613TCM     c1 3228   2.787   3.978   3.380
  613TCM    cl1 3229   2.816   4.144   3.439
  613TCM    cl2 3230   2.901   3.943   3.245
  613TCM     h1 3231   2.804   3.907   3.461
  613TCM    cl3 3232   2.619   3.963   3.320
  614TCM     c1 3233   2.152   4.389   1.796
  614TCM    cl1 3234   2.094   4.220   1.797
  614TCM    cl2 3235   2.079   4.478   1.934
  614TCM     h1 3236   2.261   4.391   1.805
  614TCM    cl3 3237   2.102   4.467   1.643
  615TCM     c1 3238   1.336   1.674   0.778
  615TCM    cl1 3239   1.509   1.712   0.804
  615TCM    cl2 3240   1.320   1.508   0.714
  615TCM     h1 3241   1.282   1.682   0.873
  615TCM    cl3 3242   1.266   1.791   0.661
  616TCM     c1 3243   0.577   2.616   3.950
  616TCM    cl1 3244   0.555   2.770   4.040
  616TCM    cl2 3245   0.524   2.640   3.780
  616TCM     h1 3246   0.682   2.587   3.952
  616TCM    cl3 3247   0.477   2.488   4.027
  617TCM     c1 3248   0.439   1.452   4.247
  617TCM    cl1 3249   0.490   1.622   4.216
  617TCM    cl2 3250   0.575   1.364   4.326
  617TCM     h1 3251   0.352   1.452   4.312
  617TCM    cl3 3252   0.400   1.373   4.091
  618TCM     c1 3253   0.241   2.626   0.317
  618TCM    cl1 3254   0.166   2.497   0.416
  618TCM    cl2 3255   0.295   2.557   0.161
  618TCM     h1 3256   0.167   2.705   0.298
  618TCM    cl3 3257   0.382   2.696   0.404
  619TCM     c1 3258   2.147   4.160   4.352
  619TCM    cl1 3259   2.182   4.249   4.200
  619TCM    cl2 3260   2.300   4.100   4.424
  619TCM     h1 3261   2.098   4.228   4.423
  619TCM    cl3 3262   2.037   4.023   4.318
  620TCM     c1 3263   3.136   3.369   2.860
  620TCM    cl1 3264   2.977   3.285   2.848
  620TCM    cl2 3265   3.133   3.518   2.760
  620TCM     h1 3266   3.155   3.396   2.964
  620TCM    cl3 3267   3.266   3.261   2.800
  621TCM     c1 3268   2.819   4.149   0.156
  621TCM    cl1 3269   2.876   4.201   0.318
  621TCM    cl2 3270   2.916   4.229   0.028
  621TCM     h1 3271   2.829   4.040   0.147
  621TCM    cl3 3272   2.647   4.195   0.137
  622TCM     c1 3273   3.385   4.397   0.225
  622TCM    cl1 3274   3.391   4.413   0.046
  622TCM    cl2 3275   3.528   4.303   0.282
  622TCM     h1 3276   3.386   4.496   0.270
  622TCM    cl3 3277   3.235   4.310   0.271
  623TCM     c1 3278   2.439   3.669   0.752
  623TCM    cl1 3279   2.523   3.827   0.740
  623TCM    cl2 3280   2.458   3.605   0.918
  623TCM     h1 3281   2.332   3.682   0.731
  623TCM    cl3 3282   2.509   3.553   0.634
  624TCM     c1 3283   3.962   3.665   3.372
  624TCM    cl1 3284   4.015   3.573   3.227
  624TCM    cl2 3285   3.990   3.840   3.345
  624TCM     h1 3286   3.855   3.647   3.389
  624TCM    cl3 3287   4.055   3.612   3.515
  625TCM     c1 3288   0.269   4.444   3.930
  625TCM    cl1 3289   0.108   4.523   3.923
  625TCM    cl2 3290   0.343   4.475   4.090
  625TCM     h1 3291   0.258   4.336   3.914
  625TCM    cl3 3292   0.374   4.514   3.803
  626TCM     c1 3293   4.088   0.099   3.371
  626TCM    cl1 3294   4.248   0.096   3.453
  626TCM    cl2 3295   3.968   0.179   3.479
  626TCM     h1 3296   4.096   0.155   3.278
  626TCM    cl3 3297   4.035  -0.068   3.335
  627TCM     c1 3298   2.165   2.424   3.208
  627TCM    cl1 3299   2.076   2.545   3.306
  627TCM    cl2 3300   2.154   2.263   3.286
  627TCM     h1 3301   2.122   2.419   3.108
  627TCM    cl3 3302   2.338   2.472   3.195
  628TCM     c1 3303   4.962   4.299   2.643
  628TCM    cl1 3304   4.894   4.459   2.601
  628TCM    cl2 3305   4.975   4.284   2.821
  628TCM     h1 3306   4.897   4.220   2.605
  628TCM    cl3 3307   5.125   4.283   2.570
  629TCM     c1 3308   2.484   0.554   1.900
  629TCM    cl1 3309   2.371   0.439   1.820
  629TCM    cl2 3310   2.599   0.461   2.001
  629TCM     h1 3311   2.539   0.609   1.823
  629TCM    cl3 3312   2.392   0.668   2.002
  630TCM     c1 3313   0.516   2.247   2.613
  630TCM    cl1 3314   0.374   2.224   2.505
  630TCM    cl2 3315   0.459   2.273   2.781
  630TCM     h1 3316   0.580   2.158   2.609
  630TCM    cl3 3317   0.609   2.391   2.560
  631TCM     c1 3318   1.173   3.971   0.655
  631TCM    cl1 3319   1.052   3.949   0.524
  631TCM    cl2 3320   1.305   3.851   0.636
  631TCM     h1 3321   1.214   4.072   0.650
  631TCM    cl3 3322   1.093   3.946   0.814
  632TCM     c1 3323   2.554   3.216   0.392
  632TCM    cl1 3324   2.625   3.357   0.307
  632TCM    cl2 3325   2.385   3.254   0.438
  632TCM     h1 3326   2.555   3.129   0.326
  632TCM    cl3 3327   2.649   3.181   0.540
  633TCM     c1 3328   0.499   0.306   0.614
  633TCM    cl1 3329   0.632   0.399   0.690
  633TCM    cl2 3330   0.475   0.364   0.446
  633TCM     h1 3331   0.524   0.200   0.613
  633TCM    cl3 3332   0.348   0.330   0.709
  634TCM     c1 3333   0.121   2.221   2.900
  634TCM    cl1 3334  -0.003   2.286   3.011
  634TCM    cl2 3335   0.085   2.276   2.733
  634TCM     h1 3336   0.220   2.256   2.930
  634TCM    cl3 3337   0.118   2.041   2.904
  635TCM     c1 3338   2.504   0.947   3.053
  635TCM    cl1 3339   2.490   0.789   3.137
  635TCM    cl2 3340   2.649   1.034   3.112
  635TCM     h1 3341   2.512   0.930   2.945
  635TCM    cl3 3342   2.358   1.046   3.086
  636TCM     c1 3343   0.088   0.832   2.080
  636TCM    cl1 3344   0.039   0.998   2.128
  636TCM    cl2 3345   0.266   0.818   2.089
  636TCM     h1 3346   0.042   0.759   2.148
  636TCM    cl3 3347   0.035   0.798   1.912
  637TCM     c1 3348   3.907   0.057   4.325
  637TCM    cl1 3349   3.825  -0.025   4.462
  637TCM    cl2 3350   4.085   0.057   4.353
  637TCM     h1 3351   3.885   0.003   4.232
  637TCM    cl3 3352   3.849   0.226   4.312
  638TCM     c1 3353   0.131   0.853   4.850
  638TCM    cl1 3354   0.123   0.740   4.991
  638TCM    cl2 3355   0.264   0.971   4.875
  638TCM     h1 3356   0.151   0.796   4.759
  638TCM    cl3 3357  -0.025   0.940   4.834
  639TCM     c1 3358   2.903   0.388   1.222
  639TCM    cl1 3359   3.005   0.478   1.338
  639TCM    cl2 3360   2.740   0.361   1.293
  639TCM     h1 3361   2.893   0.445   1.129
  639TCM    cl3 3362   2.978   0.229   1.186
  640TCM     c1 3363   1.908   1.110   3.470
  640TCM    cl1 3364   1.824   1.213   3.590
  640TCM    cl2 3365   1.978   0.968   3.554
  640TCM     h1 3366   1.837   1.077   3.394
  640TCM    cl3 3367   2.040   1.202   3.391
   5.00000   5.00000   5.00000
