FOO
 3367
    1MOP     C1    1   0.963   0.453   1.533
    1MOP     O2    2   0.858   0.462   1.470
    1MOP     C3    3   1.067   0.559   1.516
    1MOP     C4    4   1.173   0.569   1.609
    1MOP     C5    5   1.277   0.661   1.588
    1MOP     C6    6   1.279   0.744   1.474
    1MOP     C7    7   1.393   0.837   1.448
    1MOP     C8    8   1.529   0.799   1.470
    1MOP     C9    9   1.633   0.891   1.444
    1MOP    C10   10   1.607   1.019   1.393
    1MOP    O11   11   1.716   1.101   1.365
    1MOP    C12   12   1.690   1.232   1.310
    1MOP    C13   13   1.472   1.057   1.371
    1MOP    C14   14   1.367   0.967   1.397
    1MOP    C15   15   1.570   0.663   1.511
    1MOP    C16   16   1.557   0.556   1.421
    1MOP    C17   17   1.600   0.427   1.458
    1MOP    C18   18   1.655   0.405   1.586
    1MOP    C19   19   1.667   0.512   1.679
    1MOP    C20   20   1.623   0.641   1.640
    1MOP    C21   21   1.708   0.486   1.825
    1MOP    N22   22   1.773   0.596   1.901
    1MOP    C23   23   1.791   0.357   1.847
    1MOP    C24   24   1.169   0.739   1.384
    1MOP    C25   25   1.064   0.647   1.405
    1MOP    H26   26   1.177   0.505   1.696
    1MOP    H27   27   1.355   0.668   1.663
    1MOP    H28   28   1.736   0.860   1.459
    1MOP    H29   29   1.785   1.282   1.291
    1MOP    H30   30   1.632   1.291   1.382
    1MOP    H31   31   1.636   1.223   1.216
    1MOP    H32   32   1.446   1.156   1.334
    1MOP    H33   33   1.265   0.999   1.380
    1MOP    H34   34   1.516   0.573   1.322
    1MOP    H35   35   1.592   0.344   1.388
    1MOP    H36   36   1.684   0.304   1.611
    1MOP    H37   37   1.627   0.724   1.709
    1MOP    H38   38   1.614   0.467   1.878
    1MOP    H39   39   1.769   0.591   2.002
    1MOP    H40   40   1.823   0.352   1.952
    1MOP    H41   41   1.880   0.357   1.783
    1MOP    H42   42   1.730   0.269   1.826
    1MOP    H43   43   1.167   0.802   1.296
    1MOP    H44   44   0.982   0.642   1.334
    2MOP    C45   45   1.858   0.698   1.863
    2MOP    O46   46   1.896   0.768   1.955
    2MOP    C47   47   1.914   0.723   1.728
    2MOP    C48   48   1.983   0.622   1.656
    2MOP    C49   49   2.052   0.655   1.537
    2MOP    C50   50   2.055   0.788   1.491
    2MOP    C51   51   2.144   0.827   1.379
    2MOP    C52   52   2.127   0.779   1.247
    2MOP    C53   53   2.222   0.813   1.148
    2MOP    C54   54   2.332   0.895   1.178
    2MOP    O55   55   2.419   0.925   1.073
    2MOP    C56   56   2.523   1.023   1.098
    2MOP    C57   57   2.349   0.942   1.310
    2MOP    C58   58   2.257   0.907   1.410
    2MOP    C59   59   2.012   0.694   1.208
    2MOP    C60   60   1.880   0.738   1.226
    2MOP    C61   61   1.772   0.659   1.183
    2MOP    C62   62   1.795   0.531   1.127
    2MOP    C63   63   1.928   0.484   1.109
    2MOP    C64   64   2.035   0.568   1.148
    2MOP    C65   65   1.958   0.341   1.065
    2MOP    N66   66   2.077   0.320   0.980
    2MOP    C67   67   1.841   0.262   1.001
    2MOP    C68   68   1.984   0.888   1.561
    2MOP    C69   69   1.913   0.855   1.678
    2MOP    H70   70   1.987   0.521   1.694
    2MOP    H71   71   2.107   0.577   1.484
    2MOP    H72   72   2.209   0.777   1.046
    2MOP    H73   73   2.578   1.040   1.005
    2MOP    H74   74   2.593   0.986   1.174
    2MOP    H75   75   2.478   1.118   1.130
    2MOP    H76   76   2.433   1.005   1.338
    2MOP    H77   77   2.272   0.941   1.512
    2MOP    H78   78   1.861   0.836   1.270
    2MOP    H79   79   1.671   0.696   1.195
    2MOP    H80   80   1.709   0.471   1.100
    2MOP    H81   81   2.137   0.534   1.134
    2MOP    H82   82   1.979   0.287   1.158
    2MOP    H83   83   2.119   0.227   0.979
    2MOP    H84   84   1.806   0.312   0.910
    2MOP    H85   85   1.759   0.254   1.073
    2MOP    H86   86   1.875   0.162   0.975
    2MOP    H87   87   1.985   0.990   1.525
    2MOP    H88   88   1.860   0.933   1.732
    3MOP    C89   89   2.142   0.398   0.885
    3MOP    O90   90   2.239   0.343   0.836
    3MOP    C91   91   2.100   0.531   0.831
    3MOP    C92   92   1.964   0.563   0.805
    3MOP    C93   93   1.931   0.681   0.736
    3MOP    C94   94   2.032   0.768   0.689
    3MOP    C95   95   1.998   0.882   0.599
    3MOP    C96   96   1.895   0.977   0.628
    3MOP    C97   97   1.859   1.073   0.531
    3MOP    C98   98   1.923   1.078   0.406
    3MOP    O99   99   1.879   1.176   0.317
    3MOP   C100  100   1.941   1.181   0.186
    3MOP   C101  101   2.026   0.985   0.377
    3MOP   C102  102   2.063   0.889   0.474
    3MOP   C103  103   1.825   0.983   0.760
    3MOP   C104  104   1.898   0.976   0.881
    3MOP   C105  105   1.832   0.988   1.004
    3MOP   C106  106   1.692   1.007   1.008
    3MOP   C107  107   1.618   1.017   0.888
    3MOP   C108  108   1.685   1.003   0.765
    3MOP   C109  109   1.465   1.034   0.888
    3MOP   N110  110   1.412   1.144   0.804
    3MOP   C111  111   1.399   1.046   1.027
    3MOP   C112  112   2.167   0.739   0.718
    3MOP   C113  113   2.200   0.622   0.789
    3MOP   H114  114   1.884   0.496   0.833
    3MOP   H115  115   1.826   0.702   0.713
    3MOP   H116  116   1.783   1.146   0.551
    3MOP   H117  117   1.894   1.262   0.130
    3MOP   H118  118   1.924   1.086   0.134
    3MOP   H119  119   2.048   1.202   0.196
    3MOP   H120  120   2.078   0.985   0.282
    3MOP   H121  121   2.139   0.816   0.448
    3MOP   H122  122   2.006   0.963   0.879
    3MOP   H123  123   1.888   0.984   1.096
    3MOP   H124  124   1.646   1.014   1.106
    3MOP   H125  125   1.628   1.008   0.672
    3MOP   H126  126   1.426   0.942   0.845
    3MOP   H127  127   1.314   1.141   0.779
    3MOP   H128  128   1.434   1.136   1.077
    3MOP   H129  129   1.423   0.957   1.086
    3MOP   H130  130   1.290   1.052   1.014
    3MOP   H131  131   2.246   0.805   0.684
    3MOP   H132  132   2.305   0.598   0.807
    4MOP   C133  133   1.469   1.262   0.761
    4MOP   O134  134   1.394   1.332   0.695
    4MOP   C135  135   1.602   1.318   0.799
    4MOP   C136  136   1.636   1.339   0.934
    4MOP   C137  137   1.752   1.413   0.968
    4MOP   C138  138   1.834   1.467   0.866
    4MOP   C139  139   1.940   1.568   0.899
    4MOP   C140  140   2.029   1.556   1.011
    4MOP   C141  141   2.114   1.664   1.043
    4MOP   C142  142   2.118   1.781   0.965
    4MOP   O143  143   2.206   1.882   1.004
    4MOP   C144  144   2.223   1.994   0.913
    4MOP   C145  145   2.034   1.790   0.851
    4MOP   C146  146   1.945   1.685   0.820
    4MOP   C147  147   2.045   1.429   1.088
    4MOP   C148  148   2.064   1.307   1.021
    4MOP   C149  149   2.088   1.189   1.094
    4MOP   C150  150   2.090   1.192   1.235
    4MOP   C151  151   2.072   1.313   1.304
    4MOP   C152  152   2.052   1.432   1.230
    4MOP   C153  153   2.076   1.314   1.457
    4MOP   N154  154   1.946   1.355   1.514
    4MOP   C155  155   2.198   1.393   1.509
    4MOP   C156  156   1.803   1.440   0.731
    4MOP   C157  157   1.687   1.366   0.698
    4MOP   H158  158   1.570   1.305   1.013
    4MOP   H159  159   1.773   1.435   1.072
    4MOP   H160  160   2.182   1.658   1.127
    4MOP   H161  161   2.297   2.062   0.957
    4MOP   H162  162   2.129   2.047   0.901
    4MOP   H163  163   2.261   1.958   0.817
    4MOP   H164  164   2.032   1.878   0.787
    4MOP   H165  165   1.877   1.698   0.737
    4MOP   H166  166   2.062   1.303   0.912
    4MOP   H167  167   2.106   1.095   1.042
    4MOP   H168  168   2.106   1.099   1.289
    4MOP   H169  169   2.041   1.528   1.281
    4MOP   H170  170   2.092   1.211   1.490
    4MOP   H171  171   1.873   1.285   1.517
    4MOP   H172  172   2.197   1.495   1.469
    4MOP   H173  173   2.290   1.343   1.476
    4MOP   H174  174   2.195   1.396   1.618
    4MOP   H175  175   1.865   1.480   0.651
    4MOP   H176  176   1.662   1.352   0.593
    5CAP   C177  177   0.889   0.246   1.627
    5CAP   O178  178   0.990   0.350   1.620
    5CAP   H179  179   0.794   0.289   1.661
    5CAP   H180  180   0.922   0.170   1.698
    5CAP   H181  181   0.876   0.201   1.528
    6CAP   C182  182   1.539   1.573   1.478
    6CAP   C183  183   1.688   1.612   1.490
    6CAP   C184  184   1.727   1.685   1.358
    6CAP   C185  185   1.701   1.704   1.615
    6CAP   O186  186   1.755   1.484   1.507
    6CAP   C187  187   1.891   1.481   1.510
    6CAP   O188  188   1.964   1.579   1.516
    6CAP   H189  189   1.478   1.663   1.460
    6CAP   H190  190   1.526   1.503   1.396
    6CAP   H191  191   1.507   1.526   1.571
    6CAP   H192  192   1.728   1.613   1.276
    6CAP   H193  193   1.826   1.730   1.368
    6CAP   H194  194   1.655   1.764   1.337
    6CAP   H195  195   1.674   1.647   1.704
    6CAP   H196  196   1.803   1.741   1.624
    6CAP   H197  197   1.633   1.789   1.604
    7TCM     c1  198   4.524   0.447   2.647
    7TCM    cl1  199   4.626   0.461   2.500
    7TCM    cl2  200   4.489   0.611   2.712
    7TCM     h1  201   4.431   0.397   2.622
    7TCM    cl3  202   4.612   0.352   2.771
    8TCM     c1  203   1.623   2.395   4.493
    8TCM    cl1  204   1.519   2.254   4.452
    8TCM    cl2  205   1.540   2.496   4.615
    8TCM     h1  206   1.718   2.359   4.533
    8TCM    cl3  207   1.653   2.493   4.346
    9TCM     c1  208   1.741   2.054   1.022
    9TCM    cl1  209   1.844   1.955   1.130
    9TCM    cl2  210   1.826   2.082   0.866
    9TCM     h1  211   1.647   2.002   1.004
    9TCM    cl3  212   1.708   2.213   1.100
   10TCM     c1  213   2.641   0.450   3.886
   10TCM    cl1  214   2.614   0.344   3.744
   10TCM    cl2  215   2.565   0.374   4.029
   10TCM     h1  216   2.748   0.463   3.902
   10TCM    cl3  217   2.564   0.609   3.857
   11TCM     c1  218   2.287   1.620   2.640
   11TCM    cl1  219   2.253   1.495   2.516
   11TCM    cl2  220   2.340   1.538   2.790
   11TCM     h1  221   2.367   1.687   2.604
   11TCM    cl3  222   2.138   1.714   2.671
   12TCM     c1  223   4.928   1.478   0.434
   12TCM    cl1  224   5.062   1.362   0.462
   12TCM    cl2  225   4.822   1.483   0.578
   12TCM     h1  226   4.969   1.577   0.415
   12TCM    cl3  227   4.833   1.424   0.291
   13TCM     c1  228   2.757   0.854   2.639
   13TCM    cl1  229   2.735   0.809   2.467
   13TCM    cl2  230   2.620   0.958   2.693
   13TCM     h1  231   2.761   0.765   2.701
   13TCM    cl3  232   2.910   0.946   2.656
   14TCM     c1  233   3.460   3.982   4.430
   14TCM    cl1  234   3.437   4.142   4.354
   14TCM    cl2  235   3.511   4.003   4.601
   14TCM     h1  236   3.366   3.926   4.427
   14TCM    cl3  237   3.587   3.892   4.340
   15TCM     c1  238   0.348   3.957   3.489
   15TCM    cl1  239   0.393   3.794   3.427
   15TCM    cl2  240   0.479   4.072   3.449
   15TCM     h1  241   0.255   3.990   3.443
   15TCM    cl3  242   0.328   3.948   3.667
   16TCM     c1  243   3.774   1.064   2.577
   16TCM    cl1  244   3.878   1.035   2.720
   16TCM    cl2  245   3.873   1.037   2.429
   16TCM     h1  246   3.690   0.994   2.578
   16TCM    cl3  247   3.714   1.233   2.579
   17TCM     c1  248   0.038   2.980   4.273
   17TCM    cl1  249  -0.127   2.975   4.344
   17TCM    cl2  250   0.117   2.822   4.297
   17TCM     h1  251   0.030   3.002   4.166
   17TCM    cl3  252   0.134   3.108   4.354
   18TCM     c1  253   0.348   2.671   1.309
   18TCM    cl1  254   0.232   2.708   1.440
   18TCM    cl2  255   0.295   2.523   1.222
   18TCM     h1  256   0.352   2.755   1.239
   18TCM    cl3  257   0.511   2.643   1.380
   19TCM     c1  258   1.298   1.777   2.054
   19TCM    cl1  259   1.411   1.811   2.189
   19TCM    cl2  260   1.161   1.893   2.060
   19TCM     h1  261   1.351   1.787   1.959
   19TCM    cl3  262   1.234   1.609   2.069
   20TCM     c1  263   4.201   4.377   0.513
   20TCM    cl1  264   4.372   4.367   0.566
   20TCM    cl2  265   4.122   4.217   0.531
   20TCM     h1  266   4.148   4.451   0.574
   20TCM    cl3  267   4.195   4.427   0.340
   21TCM     c1  268   2.386   0.074   3.885
   21TCM    cl1  269   2.380  -0.096   3.944
   21TCM    cl2  270   2.242   0.163   3.945
   21TCM     h1  271   2.477   0.122   3.922
   21TCM    cl3  272   2.385   0.075   3.706
   22TCM     c1  273   2.818   1.749   2.827
   22TCM    cl1  274   2.874   1.622   2.714
   22TCM    cl2  275   2.649   1.713   2.876
   22TCM     h1  276   2.882   1.750   2.915
   22TCM    cl3  277   2.825   1.909   2.746
   23TCM     c1  278   0.728   2.919   4.778
   23TCM    cl1  279   0.903   2.915   4.819
   23TCM    cl2  280   0.708   2.908   4.600
   23TCM     h1  281   0.678   2.835   4.826
   23TCM    cl3  282   0.658   3.073   4.836
   24TCM     c1  283   4.416   3.384   2.041
   24TCM    cl1  284   4.329   3.304   1.906
   24TCM    cl2  285   4.376   3.301   2.195
   24TCM     h1  286   4.523   3.378   2.023
   24TCM    cl3  287   4.365   3.556   2.051
   25TCM     c1  288   0.365   3.801   4.698
   25TCM    cl1  289   0.208   3.719   4.673
   25TCM    cl2  290   0.363   3.894   4.851
   25TCM     h1  291   0.446   3.727   4.701
   25TCM    cl3  292   0.392   3.913   4.561
   26TCM     c1  293   2.188   1.194   3.389
   26TCM    cl1  294   2.268   1.229   3.231
   26TCM    cl2  295   2.199   1.018   3.421
   26TCM     h1  296   2.238   1.249   3.468
   26TCM    cl3  297   2.016   1.242   3.381
   27TCM     c1  298   1.178   2.007   2.548
   27TCM    cl1  299   1.337   1.930   2.521
   27TCM    cl2  300   1.064   1.958   2.418
   27TCM     h1  301   1.138   1.975   2.645
   27TCM    cl3  302   1.196   2.185   2.548
   28TCM     c1  303   3.007   4.769   4.835
   28TCM    cl1  304   3.128   4.853   4.732
   28TCM    cl2  305   3.069   4.608   4.884
   28TCM     h1  306   2.987   4.829   4.924
   28TCM    cl3  307   2.856   4.749   4.741
   29TCM     c1  308   2.226   2.270   2.038
   29TCM    cl1  309   2.054   2.303   1.997
   29TCM    cl2  310   2.306   2.422   2.090
   29TCM     h1  311   2.231   2.197   2.119
   29TCM    cl3  312   2.310   2.206   1.894
   30TCM     c1  313   2.848   2.134   0.004
   30TCM    cl1  314   2.906   2.185   0.166
   30TCM    cl2  315   2.899   2.255  -0.118
   30TCM     h1  316   2.891   2.037  -0.020
   30TCM    cl3  317   2.669   2.122   0.006
   31TCM     c1  318   0.013   0.062   1.174
   31TCM    cl1  319   0.002  -0.108   1.119
   31TCM    cl2  320  -0.108   0.089   1.304
   31TCM     h1  321   0.113   0.081   1.213
   31TCM    cl3  322  -0.022   0.172   1.037
   32TCM     c1  323   2.869   0.645   0.915
   32TCM    cl1  324   2.813   0.494   0.994
   32TCM    cl2  325   2.748   0.774   0.943
   32TCM     h1  326   2.965   0.675   0.957
   32TCM    cl3  327   2.887   0.617   0.738
   33TCM     c1  328   3.758   3.347   1.927
   33TCM    cl1  329   3.682   3.196   1.866
   33TCM    cl2  330   3.931   3.316   1.964
   33TCM     h1  331   3.750   3.425   1.850
   33TCM    cl3  332   3.673   3.401   2.075
   34TCM     c1  333   0.920   0.949   3.470
   34TCM    cl1  334   0.891   1.020   3.308
   34TCM    cl2  335   0.829   1.041   3.594
   34TCM     h1  336   0.887   0.844   3.471
   34TCM    cl3  337   1.095   0.957   3.507
   35TCM     c1  338   0.684   0.064   4.011
   35TCM    cl1  339   0.683   0.243   3.996
   35TCM    cl2  340   0.617   0.018   4.171
   35TCM     h1  341   0.624   0.020   3.932
   35TCM    cl3  342   0.853   0.006   3.999
   36TCM     c1  343   2.714   3.570   3.253
   36TCM    cl1  344   2.797   3.431   3.331
   36TCM    cl2  345   2.835   3.667   3.162
   36TCM     h1  346   2.637   3.533   3.185
   36TCM    cl3  347   2.638   3.672   3.379
   37TCM     c1  348   0.390   0.992   2.470
   37TCM    cl1  349   0.295   0.947   2.615
   37TCM    cl2  350   0.470   0.846   2.403
   37TCM     h1  351   0.324   1.035   2.395
   37TCM    cl3  352   0.516   1.112   2.515
   38TCM     c1  353   4.984   2.032   1.984
   38TCM    cl1  354   4.980   2.085   2.155
   38TCM    cl2  355   4.984   2.176   1.876
   38TCM     h1  356   5.074   1.973   1.966
   38TCM    cl3  357   4.839   1.931   1.949
   39TCM     c1  358   1.267   3.533   2.094
   39TCM    cl1  359   1.344   3.414   2.204
   39TCM    cl2  360   1.270   3.469   1.926
   39TCM     h1  361   1.163   3.550   2.125
   39TCM    cl3  362   1.357   3.688   2.100
   40TCM     c1  363   3.701   1.327   2.054
   40TCM    cl1  364   3.644   1.166   1.997
   40TCM    cl2  365   3.752   1.314   2.225
   40TCM     h1  366   3.786   1.360   1.993
   40TCM    cl3  367   3.567   1.445   2.041
   41TCM     c1  368   0.808   2.225   1.991
   41TCM    cl1  369   0.810   2.396   2.045
   41TCM    cl2  370   0.880   2.214   1.827
   41TCM     h1  371   0.865   2.164   2.060
   41TCM    cl3  372   0.638   2.168   1.983
   42TCM     c1  373   2.258   3.716   1.746
   42TCM    cl1  374   2.226   3.784   1.909
   42TCM    cl2  375   2.213   3.836   1.622
   42TCM     h1  376   2.364   3.691   1.737
   42TCM    cl3  377   2.159   3.568   1.724
   43TCM     c1  378   1.072   4.555   0.794
   43TCM    cl1  379   1.024   4.455   0.653
   43TCM    cl2  380   1.246   4.532   0.828
   43TCM     h1  381   1.053   4.660   0.772
   43TCM    cl3  382   0.976   4.505   0.937
   44TCM     c1  383   0.274   1.139   4.624
   44TCM    cl1  384   0.100   1.109   4.653
   44TCM    cl2  385   0.324   1.287   4.712
   44TCM     h1  386   0.333   1.054   4.659
   44TCM    cl3  387   0.301   1.162   4.448
   45TCM     c1  388   1.020   3.805   4.791
   45TCM    cl1  389   1.127   3.940   4.741
   45TCM    cl2  390   1.067   3.747   4.954
   45TCM     h1  391   0.916   3.839   4.794
   45TCM    cl3  392   1.036   3.669   4.675
   46TCM     c1  393   0.271   0.666   4.564
   46TCM    cl1  394   0.409   0.769   4.615
   46TCM    cl2  395   0.332   0.507   4.506
   46TCM     h1  396   0.204   0.650   4.649
   46TCM    cl3  397   0.182   0.747   4.431
   47TCM     c1  398   1.135   4.236   1.866
   47TCM    cl1  399   1.165   4.340   2.009
   47TCM    cl2  400   1.075   4.338   1.731
   47TCM     h1  401   1.227   4.186   1.837
   47TCM    cl3  402   1.009   4.115   1.907
   48TCM     c1  403   3.317   4.147   0.028
   48TCM    cl1  404   3.300   4.003  -0.077
   48TCM    cl2  405   3.363   4.097   0.194
   48TCM     h1  406   3.394   4.213  -0.013
   48TCM    cl3  407   3.159   4.234   0.035
   49TCM     c1  408   1.120   1.438   1.334
   49TCM    cl1  409   1.207   1.480   1.485
   49TCM    cl2  410   1.209   1.307   1.250
   49TCM     h1  411   1.019   1.405   1.359
   49TCM    cl3  412   1.113   1.583   1.229
   50TCM     c1  413   3.200   0.756   2.271
   50TCM    cl1  414   3.026   0.737   2.230
   50TCM    cl2  415   3.273   0.593   2.294
   50TCM     h1  416   3.251   0.808   2.189
   50TCM    cl3  417   3.216   0.850   2.422
   51TCM     c1  418   0.027   0.398   1.759
   51TCM    cl1  419  -0.048   0.493   1.892
   51TCM    cl2  420   0.160   0.493   1.685
   51TCM     h1  421   0.067   0.304   1.799
   51TCM    cl3  422  -0.097   0.362   1.634
   52TCM     c1  423   3.372   2.455   1.045
   52TCM    cl1  424   3.491   2.328   1.003
   52TCM    cl2  425   3.447   2.617   1.021
   52TCM     h1  426   3.284   2.445   0.981
   52TCM    cl3  427   3.324   2.436   1.217
   53TCM     c1  428   4.006   0.079   0.539
   53TCM    cl1  429   4.026  -0.023   0.392
   53TCM    cl2  430   3.927   0.233   0.494
   53TCM     h1  431   3.944   0.026   0.612
   53TCM    cl3  432   4.167   0.112   0.611
   54TCM     c1  433   0.022   1.561   3.244
   54TCM    cl1  434  -0.143   1.522   3.185
   54TCM    cl2  435   0.050   1.478   3.401
   54TCM     h1  436   0.096   1.528   3.171
   54TCM    cl3  437   0.035   1.738   3.267
   55TCM     c1  438   2.127   3.535   2.162
   55TCM    cl1  439   1.994   3.513   2.043
   55TCM    cl2  440   2.280   3.473   2.091
   55TCM     h1  441   2.138   3.641   2.186
   55TCM    cl3  442   2.090   3.441   2.310
   56TCM     c1  443   0.451   0.169   4.586
   56TCM    cl1  444   0.376   0.182   4.749
   56TCM    cl2  445   0.490  -0.003   4.552
   56TCM     h1  446   0.381   0.206   4.511
   56TCM    cl3  447   0.601   0.268   4.581
   57TCM     c1  448   4.511   0.482   4.437
   57TCM    cl1  449   4.464   0.526   4.270
   57TCM    cl2  450   4.372   0.511   4.547
   57TCM     h1  451   4.538   0.376   4.441
   57TCM    cl3  452   4.650   0.582   4.489
   58TCM     c1  453   3.505   4.278   1.596
   58TCM    cl1  454   3.556   4.420   1.692
   58TCM    cl2  455   3.514   4.316   1.421
   58TCM     h1  456   3.570   4.193   1.618
   58TCM    cl3  457   3.335   4.236   1.637
   59TCM     c1  458   4.627   4.526   4.604
   59TCM    cl1  459   4.497   4.519   4.727
   59TCM    cl2  460   4.763   4.421   4.655
   59TCM     h1  461   4.588   4.490   4.508
   59TCM    cl3  462   4.683   4.695   4.587
   60TCM     c1  463   3.990   4.187   1.740
   60TCM    cl1  464   3.864   4.216   1.616
   60TCM    cl2  465   3.965   4.026   1.814
   60TCM     h1  466   4.089   4.192   1.694
   60TCM    cl3  467   3.976   4.312   1.868
   61TCM     c1  468   3.626   4.009   3.275
   61TCM    cl1  469   3.741   3.874   3.246
   61TCM    cl2  470   3.636   4.057   3.448
   61TCM     h1  471   3.653   4.094   3.212
   61TCM    cl3  472   3.459   3.956   3.236
   62TCM     c1  473   0.568   0.745   3.207
   62TCM    cl1  474   0.556   0.923   3.208
   62TCM    cl2  475   0.418   0.674   3.275
   62TCM     h1  476   0.582   0.709   3.104
   62TCM    cl3  477   0.707   0.693   3.308
   63TCM     c1  478   3.024   2.405   2.713
   63TCM    cl1  479   3.048   2.550   2.817
   63TCM    cl2  480   2.933   2.454   2.566
   63TCM     h1  481   3.121   2.364   2.684
   63TCM    cl3  482   2.930   2.282   2.803
   64TCM     c1  483   3.620   2.293   2.342
   64TCM    cl1  484   3.617   2.410   2.206
   64TCM    cl2  485   3.470   2.194   2.340
   64TCM     h1  486   3.707   2.228   2.331
   64TCM    cl3  487   3.632   2.383   2.497
   65TCM     c1  488   0.052   0.528   2.377
   65TCM    cl1  489   0.168   0.637   2.460
   65TCM    cl2  490   0.137   0.377   2.331
   65TCM     h1  491  -0.031   0.505   2.444
   65TCM    cl3  492  -0.009   0.610   2.230
   66TCM     c1  493   0.169   0.279   2.862
   66TCM    cl1  494   0.256   0.123   2.884
   66TCM    cl2  495  -0.007   0.252   2.889
   66TCM     h1  496   0.206   0.352   2.934
   66TCM    cl3  497   0.197   0.338   2.696
   67TCM     c1  498   4.920   3.696   1.270
   67TCM    cl1  499   4.782   3.746   1.168
   67TCM    cl2  500   4.892   3.750   1.439
   67TCM     h1  501   4.930   3.587   1.268
   67TCM    cl3  502   5.072   3.770   1.208
   68TCM     c1  503   1.639   3.437   0.849
   68TCM    cl1  504   1.699   3.529   0.991
   68TCM    cl2  505   1.778   3.388   0.746
   68TCM     h1  506   1.585   3.348   0.882
   68TCM    cl3  507   1.528   3.542   0.754
   69TCM     c1  508   2.726   4.515   3.970
   69TCM    cl1  509   2.737   4.483   4.146
   69TCM    cl2  510   2.575   4.604   3.934
   69TCM     h1  511   2.812   4.575   3.938
   69TCM    cl3  512   2.725   4.359   3.881
   70TCM     c1  513   4.608   1.804   0.394
   70TCM    cl1  514   4.525   1.648   0.424
   70TCM    cl2  515   4.501   1.910   0.296
   70TCM     h1  516   4.631   1.853   0.490
   70TCM    cl3  517   4.760   1.775   0.304
   71TCM     c1  518   2.956   4.844   4.375
   71TCM    cl1  519   3.053   4.693   4.387
   71TCM    cl2  520   2.870   4.847   4.218
   71TCM     h1  521   2.884   4.846   4.457
   71TCM    cl3  522   3.065   4.986   4.387
   72TCM     c1  523   3.685   4.129   2.030
   72TCM    cl1  524   3.594   4.077   1.885
   72TCM    cl2  525   3.634   4.032   2.172
   72TCM     h1  526   3.792   4.115   2.013
   72TCM    cl3  527   3.652   4.302   2.062
   73TCM     c1  528   1.003   0.360   3.257
   73TCM    cl1  529   0.824   0.362   3.256
   73TCM    cl2  530   1.063   0.353   3.088
   73TCM     h1  531   1.041   0.450   3.306
   73TCM    cl3  532   1.061   0.215   3.346
   74TCM     c1  533   0.766   1.364   2.442
   74TCM    cl1  534   0.741   1.500   2.327
   74TCM    cl2  535   0.700   1.409   2.602
   74TCM     h1  536   0.716   1.275   2.405
   74TCM    cl3  537   0.942   1.333   2.458
   75TCM     c1  538   1.179   0.535   2.065
   75TCM    cl1  539   1.045   0.478   1.959
   75TCM    cl2  540   1.302   0.619   1.965
   75TCM     h1  541   1.139   0.604   2.140
   75TCM    cl3  542   1.253   0.394   2.146
   76TCM     c1  543   2.808   0.987   3.880
   76TCM    cl1  544   2.730   1.134   3.947
   76TCM    cl2  545   2.705   0.918   3.751
   76TCM     h1  546   2.906   1.014   3.838
   76TCM    cl3  547   2.831   0.866   4.010
   77TCM     c1  548   4.559   0.044   0.950
   77TCM    cl1  549   4.532   0.153   0.809
   77TCM    cl2  550   4.594   0.142   1.096
   77TCM     h1  551   4.469  -0.016   0.967
   77TCM    cl3  552   4.698  -0.065   0.917
   78TCM     c1  553   0.590   4.485   0.297
   78TCM    cl1  554   0.525   4.652   0.294
   78TCM    cl2  555   0.470   4.373   0.226
   78TCM     h1  556   0.683   4.481   0.240
   78TCM    cl3  557   0.622   4.438   0.468
   79TCM     c1  558   2.424   3.281   1.829
   79TCM    cl1  559   2.494   3.444   1.802
   79TCM    cl2  560   2.512   3.199   1.962
   79TCM     h1  561   2.318   3.291   1.855
   79TCM    cl3  562   2.440   3.186   1.678
   80TCM     c1  563   0.369   3.081   0.745
   80TCM    cl1  564   0.389   2.949   0.625
   80TCM    cl2  565   0.430   3.027   0.905
   80TCM     h1  566   0.425   3.168   0.713
   80TCM    cl3  567   0.195   3.122   0.757
   81TCM     c1  568   3.230   3.639   1.001
   81TCM    cl1  569   3.157   3.668   1.162
   81TCM    cl2  570   3.279   3.796   0.930
   81TCM     h1  571   3.318   3.574   1.012
   81TCM    cl3  572   3.110   3.559   0.894
   82TCM     c1  573   3.052   3.002   4.910
   82TCM    cl1  574   3.036   3.179   4.882
   82TCM    cl2  575   3.065   2.969   5.086
   82TCM     h1  576   2.963   2.952   4.870
   82TCM    cl3  577   3.198   2.941   4.826
   83TCM     c1  578   1.061   1.099   1.722
   83TCM    cl1  579   1.063   1.128   1.546
   83TCM    cl2  580   1.151   0.948   1.760
   83TCM     h1  581   1.107   1.183   1.774
   83TCM    cl3  582   0.891   1.080   1.777
   84TCM     c1  583   1.938   2.539   4.848
   84TCM    cl1  584   1.892   2.567   4.677
   84TCM    cl2  585   2.057   2.404   4.856
   84TCM     h1  586   1.983   2.629   4.890
   84TCM    cl3  587   1.791   2.496   4.942
   85TCM     c1  588   2.202   3.926   3.979
   85TCM    cl1  589   2.316   3.804   3.913
   85TCM    cl2  590   2.207   3.920   4.158
   85TCM     h1  591   2.230   4.026   3.944
   85TCM    cl3  592   2.036   3.887   3.922
   86TCM     c1  593   0.744   0.186   4.898
   86TCM    cl1  594   0.900   0.219   4.814
   86TCM    cl2  595   0.764   0.220   5.073
   86TCM     h1  596   0.666   0.250   4.857
   86TCM    cl3  597   0.698   0.014   4.874
   87TCM     c1  598   1.046   0.710   3.029
   87TCM    cl1  599   1.077   0.875   2.966
   87TCM    cl2  600   0.877   0.663   2.990
   87TCM     h1  601   1.115   0.639   2.982
   87TCM    cl3  602   1.069   0.708   3.207
   88TCM     c1  603   4.591   2.971   3.239
   88TCM    cl1  604   4.565   2.896   3.079
   88TCM    cl2  605   4.638   3.143   3.217
   88TCM     h1  606   4.500   2.965   3.298
   88TCM    cl3  607   4.724   2.885   3.324
   89TCM     c1  608   3.101   4.722   0.289
   89TCM    cl1  609   3.250   4.763   0.197
   89TCM    cl2  610   2.960   4.798   0.209
   89TCM     h1  611   3.088   4.614   0.291
   89TCM    cl3  612   3.115   4.784   0.457
   90TCM     c1  613   1.821   0.207   3.528
   90TCM    cl1  614   1.674   0.288   3.463
   90TCM    cl2  615   1.771   0.092   3.656
   90TCM     h1  616   1.871   0.152   3.447
   90TCM    cl3  617   1.933   0.329   3.596
   91TCM     c1  618   0.900   0.822   3.988
   91TCM    cl1  619   0.888   0.662   4.068
   91TCM    cl2  620   0.735   0.886   3.957
   91TCM     h1  621   0.954   0.892   4.052
   91TCM    cl3  622   0.986   0.804   3.832
   92TCM     c1  623   2.002   0.242   2.265
   92TCM    cl1  624   1.829   0.276   2.232
   92TCM    cl2  625   2.073   0.154   2.126
   92TCM     h1  626   2.056   0.337   2.281
   92TCM    cl3  627   2.014   0.140   2.413
   93TCM     c1  628   1.190   1.109   2.169
   93TCM    cl1  629   1.283   0.958   2.148
   93TCM    cl2  630   1.213   1.214   2.025
   93TCM     h1  631   1.084   1.086   2.181
   93TCM    cl3  632   1.248   1.196   2.315
   94TCM     c1  633   1.598   1.711   0.151
   94TCM    cl1  634   1.655   1.869   0.213
   94TCM    cl2  635   1.707   1.580   0.209
   94TCM     h1  636   1.496   1.692   0.186
   94TCM    cl3  637   1.599   1.713  -0.029
   95TCM     c1  638   4.361   2.974   2.353
   95TCM    cl1  639   4.473   2.932   2.219
   95TCM    cl2  640   4.451   3.056   2.485
   95TCM     h1  641   4.283   3.041   2.316
   95TCM    cl3  642   4.285   2.824   2.416
   96TCM     c1  643   2.793   4.722   1.206
   96TCM    cl1  644   2.774   4.892   1.258
   96TCM    cl2  645   2.718   4.614   1.328
   96TCM     h1  646   2.744   4.707   1.109
   96TCM    cl3  647   2.968   4.683   1.191
   97TCM     c1  648   4.226   2.519   2.962
   97TCM    cl1  649   4.349   2.573   3.082
   97TCM    cl2  650   4.107   2.412   3.042
   97TCM     h1  651   4.175   2.607   2.921
   97TCM    cl3  652   4.307   2.428   2.830
   98TCM     c1  653   4.206   0.593   3.474
   98TCM    cl1  654   4.251   0.527   3.635
   98TCM    cl2  655   4.181   0.457   3.360
   98TCM     h1  656   4.114   0.651   3.483
   98TCM    cl3  657   4.339   0.697   3.412
   99TCM     c1  658   4.051   0.930   3.000
   99TCM    cl1  659   3.895   0.876   3.071
   99TCM    cl2  660   4.184   0.840   3.079
   99TCM     h1  661   4.051   0.910   2.893
   99TCM    cl3  662   4.072   1.106   3.027
  100TCM     c1  663   1.997   0.343   3.115
  100TCM    cl1  664   1.888   0.444   3.216
  100TCM    cl2  665   1.920   0.313   2.956
  100TCM     h1  666   2.092   0.395   3.101
  100TCM    cl3  667   2.026   0.186   3.198
  101TCM     c1  668   0.280   4.470   3.539
  101TCM    cl1  669   0.359   4.567   3.668
  101TCM    cl2  670   0.249   4.304   3.601
  101TCM     h1  671   0.185   4.516   3.511
  101TCM    cl3  672   0.387   4.461   3.395
  102TCM     c1  673   0.328   1.886   4.788
  102TCM    cl1  674   0.415   1.872   4.944
  102TCM    cl2  675   0.337   1.729   4.702
  102TCM     h1  676   0.223   1.911   4.807
  102TCM    cl3  677   0.403   2.015   4.689
  103TCM     c1  678   0.932   4.911   0.264
  103TCM    cl1  679   1.008   5.043   0.359
  103TCM    cl2  680   0.990   4.921   0.095
  103TCM     h1  681   0.959   4.815   0.307
  103TCM    cl3  682   0.753   4.929   0.268
  104TCM     c1  683   0.591   2.274   1.134
  104TCM    cl1  684   0.551   2.266   1.309
  104TCM    cl2  685   0.731   2.166   1.101
  104TCM     h1  686   0.505   2.243   1.075
  104TCM    cl3  687   0.635   2.443   1.091
  105TCM     c1  688   4.947   1.667   2.193
  105TCM    cl1  689   4.961   1.758   2.346
  105TCM    cl2  690   4.942   1.491   2.229
  105TCM     h1  691   4.856   1.696   2.140
  105TCM    cl3  692   5.090   1.702   2.090
  106TCM     c1  693   2.922   1.245   2.399
  106TCM    cl1  694   2.756   1.220   2.463
  106TCM    cl2  695   2.922   1.382   2.283
  106TCM     h1  696   2.990   1.267   2.481
  106TCM    cl3  697   2.975   1.096   2.314
  107TCM     c1  698   2.957   0.522   2.734
  107TCM    cl1  699   2.780   0.495   2.716
  107TCM    cl2  700   2.987   0.633   2.871
  107TCM     h1  701   3.006   0.426   2.752
  107TCM    cl3  702   3.021   0.596   2.585
  108TCM     c1  703   2.302   4.669   1.059
  108TCM    cl1  704   2.434   4.749   1.150
  108TCM    cl2  705   2.299   4.731   0.891
  108TCM     h1  706   2.319   4.561   1.058
  108TCM    cl3  707   2.145   4.703   1.139
  109TCM     c1  708   0.307   3.174   3.994
  109TCM    cl1  709   0.157   3.269   4.020
  109TCM    cl2  710   0.383   3.222   3.838
  109TCM     h1  711   0.377   3.193   4.076
  109TCM    cl3  712   0.266   2.999   3.989
  110TCM     c1  713   2.221   0.171   1.648
  110TCM    cl1  714   2.084   0.268   1.584
  110TCM    cl2  715   2.160   0.054   1.769
  110TCM     h1  716   2.270   0.117   1.566
  110TCM    cl3  717   2.340   0.280   1.726
  111TCM     c1  718   2.464   4.698   3.397
  111TCM    cl1  719   2.305   4.750   3.332
  111TCM    cl2  720   2.475   4.746   3.569
  111TCM     h1  721   2.474   4.590   3.388
  111TCM    cl3  722   2.594   4.779   3.302
  112TCM     c1  723   3.623   3.638   4.726
  112TCM    cl1  724   3.518   3.623   4.581
  112TCM    cl2  725   3.770   3.731   4.684
  112TCM     h1  726   3.569   3.689   4.806
  112TCM    cl3  727   3.670   3.474   4.781
  113TCM     c1  728   1.829   0.104   4.683
  113TCM    cl1  729   1.650   0.111   4.687
  113TCM    cl2  730   1.880  -0.066   4.655
  113TCM     h1  731   1.867   0.167   4.602
  113TCM    cl3  732   1.895   0.162   4.839
  114TCM     c1  733   3.290   3.808   1.836
  114TCM    cl1  734   3.164   3.681   1.829
  114TCM    cl2  735   3.393   3.780   1.980
  114TCM     h1  736   3.352   3.803   1.746
  114TCM    cl3  737   3.212   3.968   1.848
  115TCM     c1  738   0.127   2.610   1.951
  115TCM    cl1  739   0.146   2.778   2.011
  115TCM    cl2  740   0.081   2.613   1.778
  115TCM     h1  741   0.222   2.556   1.963
  115TCM    cl3  742  -0.001   2.527   2.045
  116TCM     c1  743   1.781   0.805   3.531
  116TCM    cl1  744   1.860   0.865   3.381
  116TCM    cl2  745   1.749   0.629   3.518
  116TCM     h1  746   1.846   0.823   3.616
  116TCM    cl3  747   1.625   0.890   3.554
  117TCM     c1  748   1.583   4.667   3.416
  117TCM    cl1  749   1.509   4.559   3.539
  117TCM    cl2  750   1.454   4.732   3.308
  117TCM     h1  751   1.634   4.749   3.466
  117TCM    cl3  752   1.699   4.573   3.317
  118TCM     c1  753   1.543   3.068   3.748
  118TCM    cl1  754   1.719   3.035   3.750
  118TCM    cl2  755   1.453   2.916   3.782
  118TCM     h1  756   1.519   3.142   3.824
  118TCM    cl3  757   1.495   3.131   3.587
  119TCM     c1  758   4.614   2.400   2.344
  119TCM    cl1  759   4.532   2.549   2.285
  119TCM    cl2  760   4.569   2.370   2.515
  119TCM     h1  761   4.582   2.314   2.283
  119TCM    cl3  762   4.791   2.419   2.331
  120TCM     c1  763   2.531   1.122   1.750
  120TCM    cl1  764   2.450   1.253   1.841
  120TCM    cl2  765   2.535   1.163   1.575
  120TCM     h1  766   2.634   1.109   1.787
  120TCM    cl3  767   2.439   0.969   1.772
  121TCM     c1  768   1.380   0.064   3.607
  121TCM    cl1  769   1.208   0.070   3.658
  121TCM    cl2  770   1.390   0.074   3.428
  121TCM     h1  771   1.434   0.149   3.651
  121TCM    cl3  772   1.453  -0.089   3.663
  122TCM     c1  773   4.296   3.624   2.647
  122TCM    cl1  774   4.392   3.472   2.642
  122TCM    cl2  775   4.130   3.588   2.705
  122TCM     h1  776   4.344   3.695   2.715
  122TCM    cl3  777   4.287   3.695   2.482
  123TCM     c1  778   4.311   1.088   3.720
  123TCM    cl1  779   4.289   0.911   3.700
  123TCM    cl2  780   4.471   1.121   3.794
  123TCM     h1  781   4.305   1.137   3.622
  123TCM    cl3  782   4.182   1.152   3.826
  124TCM     c1  783   3.705   1.914   2.534
  124TCM    cl1  784   3.569   1.824   2.459
  124TCM    cl2  785   3.639   2.049   2.631
  124TCM     h1  786   3.762   1.847   2.598
  124TCM    cl3  787   3.811   1.980   2.405
  125TCM     c1  788   4.745   4.029   3.319
  125TCM    cl1  789   4.887   4.023   3.428
  125TCM    cl2  790   4.759   3.903   3.192
  125TCM     h1  791   4.654   4.011   3.378
  125TCM    cl3  792   4.736   4.191   3.243
  126TCM     c1  793   0.540   1.916   0.360
  126TCM    cl1  794   0.550   1.886   0.536
  126TCM    cl2  795   0.413   2.040   0.330
  126TCM     h1  796   0.636   1.953   0.323
  126TCM    cl3  797   0.496   1.764   0.276
  127TCM     c1  798   3.566   1.528   3.359
  127TCM    cl1  799   3.483   1.685   3.384
  127TCM    cl2  800   3.654   1.532   3.203
  127TCM     h1  801   3.636   1.510   3.441
  127TCM    cl3  802   3.443   1.396   3.354
  128TCM     c1  803   1.624   2.316   2.678
  128TCM    cl1  804   1.506   2.442   2.627
  128TCM    cl2  805   1.535   2.172   2.737
  128TCM     h1  806   1.687   2.289   2.594
  128TCM    cl3  807   1.725   2.381   2.811
  129TCM     c1  808   0.357   2.824   0.065
  129TCM    cl1  809   0.375   2.999   0.034
  129TCM    cl2  810   0.397   2.791   0.237
  129TCM     h1  811   0.254   2.793   0.045
  129TCM    cl3  812   0.469   2.733  -0.040
  130TCM     c1  813   0.643   4.641   4.868
  130TCM    cl1  814   0.749   4.678   5.007
  130TCM    cl2  815   0.578   4.475   4.889
  130TCM     h1  816   0.560   4.713   4.864
  130TCM    cl3  817   0.739   4.650   4.717
  131TCM     c1  818   4.791   4.580   0.082
  131TCM    cl1  819   4.819   4.664  -0.074
  131TCM    cl2  820   4.945   4.507   0.138
  131TCM     h1  821   4.754   4.651   0.156
  131TCM    cl3  822   4.670   4.449   0.057
  132TCM     c1  823   0.655   1.535   0.509
  132TCM    cl1  824   0.679   1.428   0.368
  132TCM    cl2  825   0.806   1.627   0.543
  132TCM     h1  826   0.574   1.605   0.488
  132TCM    cl3  827   0.613   1.437   0.653
  133TCM     c1  828   2.423   0.288   3.401
  133TCM    cl1  829   2.305   0.387   3.308
  133TCM    cl2  830   2.584   0.367   3.394
  133TCM     h1  831   2.391   0.281   3.505
  133TCM    cl3  832   2.432   0.124   3.330
  134TCM     c1  833   0.553   1.337   2.942
  134TCM    cl1  834   0.430   1.269   3.053
  134TCM    cl2  835   0.716   1.322   3.017
  134TCM     h1  836   0.552   1.282   2.848
  134TCM    cl3  837   0.516   1.510   2.913
  135TCM     c1  838   0.167   4.268   4.959
  135TCM    cl1  839   0.286   4.267   4.824
  135TCM    cl2  840   0.205   4.136   5.074
  135TCM     h1  841   0.171   4.364   5.010
  135TCM    cl3  842   0.002   4.243   4.892
  136TCM     c1  843   4.125   1.165   2.101
  136TCM    cl1  844   4.181   1.177   2.271
  136TCM    cl2  845   4.069   1.326   2.044
  136TCM     h1  846   4.208   1.131   2.037
  136TCM    cl3  847   3.989   1.049   2.090
  137TCM     c1  848   1.258   0.172   1.735
  137TCM    cl1  849   1.155   0.124   1.874
  137TCM    cl2  850   1.355   0.031   1.681
  137TCM     h1  851   1.196   0.208   1.653
  137TCM    cl3  852   1.370   0.303   1.787
  138TCM     c1  853   2.221   1.589   3.123
  138TCM    cl1  854   2.104   1.686   3.028
  138TCM    cl2  855   2.155   1.564   3.288
  138TCM     h1  856   2.237   1.492   3.074
  138TCM    cl3  857   2.377   1.676   3.136
  139TCM     c1  858   2.602   3.601   3.801
  139TCM    cl1  859   2.640   3.765   3.741
  139TCM    cl2  860   2.607   3.601   3.980
  139TCM     h1  861   2.503   3.571   3.767
  139TCM    cl3  862   2.724   3.485   3.737
  140TCM     c1  863   0.579   1.307   3.551
  140TCM    cl1  864   0.613   1.264   3.380
  140TCM    cl2  865   0.416   1.383   3.560
  140TCM     h1  866   0.582   1.218   3.613
  140TCM    cl3  867   0.702   1.425   3.608
  141TCM     c1  868   0.706   4.357   1.653
  141TCM    cl1  869   0.611   4.294   1.514
  141TCM    cl2  870   0.602   4.365   1.799
  141TCM     h1  871   0.791   4.291   1.672
  141TCM    cl3  872   0.767   4.522   1.615
  142TCM     c1  873   3.595   4.253   2.546
  142TCM    cl1  874   3.759   4.183   2.520
  142TCM    cl2  875   3.472   4.123   2.531
  142TCM     h1  876   3.590   4.297   2.646
  142TCM    cl3  877   3.564   4.379   2.422
  143TCM     c1  878   0.215   2.498   3.255
  143TCM    cl1  879   0.282   2.593   3.119
  143TCM    cl2  880   0.234   2.323   3.220
  143TCM     h1  881   0.269   2.522   3.347
  143TCM    cl3  882   0.041   2.536   3.276
  144TCM     c1  883   1.942   3.627   1.416
  144TCM    cl1  884   1.900   3.728   1.274
  144TCM    cl2  885   1.893   3.457   1.386
  144TCM     h1  886   2.050   3.632   1.434
  144TCM    cl3  887   1.854   3.689   1.560
  145TCM     c1  888   1.397   1.473   2.499
  145TCM    cl1  889   1.252   1.562   2.442
  145TCM    cl2  890   1.349   1.355   2.625
  145TCM     h1  891   1.443   1.421   2.415
  145TCM    cl3  892   1.515   1.589   2.570
  146TCM     c1  893   3.913   0.023   3.994
  146TCM    cl1  894   4.000  -0.082   3.878
  146TCM    cl2  895   4.000   0.022   4.151
  146TCM     h1  896   3.908   0.125   3.955
  146TCM    cl3  897   3.746  -0.039   4.019
  147TCM     c1  898   0.179   4.708   4.638
  147TCM    cl1  899   0.356   4.681   4.656
  147TCM    cl2  900   0.134   4.860   4.722
  147TCM     h1  901   0.154   4.716   4.532
  147TCM    cl3  902   0.092   4.569   4.710
  148TCM     c1  903   0.930   2.081   0.575
  148TCM    cl1  904   1.108   2.086   0.590
  148TCM    cl2  905   0.863   1.979   0.708
  148TCM     h1  906   0.889   2.182   0.583
  148TCM    cl3  907   0.885   2.010   0.417
  149TCM     c1  908   2.714   2.894   0.151
  149TCM    cl1  909   2.706   3.017   0.020
  149TCM    cl2  910   2.592   2.767   0.120
  149TCM     h1  911   2.814   2.850   0.154
  149TCM    cl3  912   2.677   2.973   0.307
  150TCM     c1  913   3.607   1.157   3.112
  150TCM    cl1  914   3.545   0.991   3.080
  150TCM    cl2  915   3.689   1.220   2.966
  150TCM     h1  916   3.523   1.223   3.138
  150TCM    cl3  917   3.723   1.152   3.249
  151TCM     c1  918   3.291   0.363   1.930
  151TCM    cl1  919   3.447   0.411   2.006
  151TCM    cl2  920   3.316   0.338   1.754
  151TCM     h1  921   3.255   0.270   1.975
  151TCM    cl3  922   3.171   0.494   1.956
  152TCM     c1  923   3.658   2.459   1.363
  152TCM    cl1  924   3.746   2.518   1.507
  152TCM    cl2  925   3.628   2.282   1.379
  152TCM     h1  926   3.562   2.511   1.354
  152TCM    cl3  927   3.756   2.489   1.216
  153TCM     c1  928   2.891   4.287   2.586
  153TCM    cl1  929   2.793   4.313   2.733
  153TCM    cl2  930   3.044   4.205   2.631
  153TCM     h1  931   2.836   4.226   2.515
  153TCM    cl3  932   2.929   4.446   2.511
  154TCM     c1  933   4.396   0.985   2.611
  154TCM    cl1  934   4.265   0.913   2.711
  154TCM    cl2  935   4.414   0.889   2.460
  154TCM     h1  936   4.372   1.088   2.587
  154TCM    cl3  937   4.550   0.980   2.703
  155TCM     c1  938   1.039   1.906   4.734
  155TCM    cl1  939   0.959   2.064   4.768
  155TCM    cl2  940   1.057   1.815   4.888
  155TCM     h1  941   0.979   1.849   4.664
  155TCM    cl3  942   1.202   1.935   4.664
  156TCM     c1  943   2.483   4.646   4.431
  156TCM    cl1  944   2.661   4.658   4.451
  156TCM    cl2  945   2.431   4.477   4.462
  156TCM     h1  946   2.433   4.714   4.500
  156TCM    cl3  947   2.441   4.692   4.263
  157TCM     c1  948   2.203   0.005   0.337
  157TCM    cl1  949   2.040  -0.010   0.410
  157TCM    cl2  950   2.306   0.112   0.438
  157TCM     h1  951   2.249  -0.094   0.333
  157TCM    cl3  952   2.190   0.070   0.171
  158TCM     c1  953   1.875   1.416   2.889
  158TCM    cl1  954   1.895   1.383   3.064
  158TCM    cl2  955   1.729   1.333   2.828
  158TCM     h1  956   1.866   1.524   2.872
  158TCM    cl3  957   2.020   1.354   2.802
  159TCM     c1  958   1.805   2.220   0.283
  159TCM    cl1  959   1.830   2.344   0.409
  159TCM    cl2  960   1.943   2.221   0.168
  159TCM     h1  961   1.798   2.121   0.329
  159TCM    cl3  962   1.653   2.254   0.194
  160TCM     c1  963   2.173   1.822   1.539
  160TCM    cl1  964   2.336   1.748   1.526
  160TCM    cl2  965   2.113   1.862   1.374
  160TCM     h1  966   2.104   1.752   1.587
  160TCM    cl3  967   2.184   1.972   1.636
  161TCM     c1  968   2.567   2.778   0.631
  161TCM    cl1  969   2.555   2.700   0.792
  161TCM    cl2  970   2.415   2.867   0.596
  161TCM     h1  971   2.652   2.848   0.630
  161TCM    cl3  972   2.592   2.652   0.506
  162TCM     c1  973   2.882   1.864   2.243
  162TCM    cl1  974   2.738   1.943   2.171
  162TCM    cl2  975   2.954   1.751   2.123
  162TCM     h1  976   2.955   1.940   2.270
  162TCM    cl3  977   2.833   1.771   2.389
  163TCM     c1  978   4.655   4.539   2.619
  163TCM    cl1  979   4.718   4.613   2.769
  163TCM    cl2  980   4.678   4.652   2.481
  163TCM     h1  981   4.709   4.446   2.599
  163TCM    cl3  982   4.480   4.504   2.638
  164TCM     c1  983   3.087   0.246   4.674
  164TCM    cl1  984   3.137   0.358   4.804
  164TCM    cl2  985   3.099   0.330   4.516
  164TCM     h1  986   3.152   0.158   4.674
  164TCM    cl3  987   2.917   0.194   4.703
  165TCM     c1  988   3.626   3.997   3.982
  165TCM    cl1  989   3.448   3.985   3.972
  165TCM    cl2  990   3.671   4.161   4.041
  165TCM     h1  991   3.664   3.922   4.052
  165TCM    cl3  992   3.699   3.970   3.820
  166TCM     c1  993   1.879   1.327   2.464
  166TCM    cl1  994   1.711   1.264   2.469
  166TCM    cl2  995   1.877   1.503   2.500
  166TCM     h1  996   1.940   1.275   2.538
  166TCM    cl3  997   1.949   1.300   2.301
  167TCM     c1  998   2.652   0.145   4.966
  167TCM    cl1  999   2.743  -0.008   4.990
  167TCM    cl2 1000   2.553   0.180   5.111
  167TCM     h1 1001   2.722   0.227   4.949
  167TCM    cl3 1002   2.544   0.127   4.824
  168TCM     c1 1003   2.292   2.785   1.990
  168TCM    cl1 1004   2.373   2.869   2.126
  168TCM    cl2 1005   2.283   2.894   1.849
  168TCM     h1 1006   2.349   2.695   1.964
  168TCM    cl3 1007   2.126   2.737   2.040
  169TCM     c1 1008   0.923   4.841   1.481
  169TCM    cl1 1009   0.785   4.901   1.579
  169TCM    cl2 1010   1.052   4.966   1.480
  169TCM     h1 1011   0.961   4.749   1.525
  169TCM    cl3 1012   0.869   4.810   1.313
  170TCM     c1 1013   3.953   2.325   4.501
  170TCM    cl1 1014   3.843   2.424   4.602
  170TCM    cl2 1015   3.887   2.158   4.487
  170TCM     h1 1016   3.961   2.369   4.401
  170TCM    cl3 1017   4.115   2.319   4.577
  171TCM     c1 1018   1.814   4.893   0.104
  171TCM    cl1 1019   1.944   4.817   0.006
  171TCM    cl2 1020   1.779   4.791   0.247
  171TCM     h1 1021   1.847   4.992   0.136
  171TCM    cl3 1022   1.666   4.908   0.004
  172TCM     c1 1023   3.325   3.690   0.502
  172TCM    cl1 1024   3.318   3.525   0.432
  172TCM    cl2 1025   3.448   3.693   0.632
  172TCM     h1 1026   3.351   3.762   0.425
  172TCM    cl3 1027   3.164   3.730   0.570
  173TCM     c1 1028   4.547   1.090   0.396
  173TCM    cl1 1029   4.548   1.251   0.475
  173TCM    cl2 1030   4.670   1.086   0.266
  173TCM     h1 1031   4.570   1.013   0.470
  173TCM    cl3 1032   4.384   1.060   0.326
  174TCM     c1 1033   3.855   1.747   2.043
  174TCM    cl1 1034   4.012   1.829   2.072
  174TCM    cl2 1035   3.795   1.676   2.197
  174TCM     h1 1036   3.782   1.820   2.006
  174TCM    cl3 1037   3.876   1.617   1.921
  175TCM     c1 1038   3.755   1.694   0.073
  175TCM    cl1 1039   3.801   1.580  -0.059
  175TCM    cl2 1040   3.577   1.709   0.080
  175TCM     h1 1041   3.793   1.656   0.168
  175TCM    cl3 1042   3.827   1.855   0.039
  176TCM     c1 1043   3.926   3.252   4.929
  176TCM    cl1 1044   4.033   3.384   4.988
  176TCM    cl2 1045   3.790   3.229   5.044
  176TCM     h1 1046   3.887   3.278   4.831
  176TCM    cl3 1047   4.021   3.100   4.919
  177TCM     c1 1048   0.907   0.458   3.702
  177TCM    cl1 1049   1.041   0.437   3.820
  177TCM    cl2 1050   0.851   0.296   3.649
  177TCM     h1 1051   0.825   0.513   3.749
  177TCM    cl3 1052   0.968   0.550   3.560
  178TCM     c1 1053   3.093   0.247   1.300
  178TCM    cl1 1054   3.034   0.111   1.402
  178TCM    cl2 1055   3.097   0.196   1.128
  178TCM     h1 1056   3.027   0.333   1.311
  178TCM    cl3 1057   3.259   0.291   1.352
  179TCM     c1 1058   1.193   0.167   4.015
  179TCM    cl1 1059   1.338   0.250   3.950
  179TCM    cl2 1060   1.112   0.274   4.135
  179TCM     h1 1061   1.124   0.144   3.933
  179TCM    cl3 1062   1.243   0.015   4.095
  180TCM     c1 1063   3.051   0.257   3.456
  180TCM    cl1 1064   3.107   0.374   3.332
  180TCM    cl2 1065   2.926   0.334   3.558
  180TCM     h1 1066   3.008   0.170   3.407
  180TCM    cl3 1067   3.189   0.207   3.560
  181TCM     c1 1068   2.059   0.949   4.200
  181TCM    cl1 1069   2.092   0.854   4.052
  181TCM    cl2 1070   2.190   1.070   4.223
  181TCM     h1 1071   1.963   1.000   4.190
  181TCM    cl3 1072   2.054   0.839   4.342
  182TCM     c1 1073   3.239   0.533   0.438
  182TCM    cl1 1074   3.417   0.541   0.417
  182TCM    cl2 1075   3.198   0.389   0.537
  182TCM     h1 1076   3.204   0.623   0.488
  182TCM    cl3 1077   3.162   0.518   0.277
  183TCM     c1 1078   1.697   1.885   2.452
  183TCM    cl1 1079   1.772   1.867   2.615
  183TCM    cl2 1080   1.809   1.820   2.328
  183TCM     h1 1081   1.603   1.830   2.449
  183TCM    cl3 1082   1.669   2.058   2.419
  184TCM     c1 1083   4.949   3.987   4.553
  184TCM    cl1 1084   4.981   3.873   4.418
  184TCM    cl2 1085   4.806   4.088   4.512
  184TCM     h1 1086   4.930   3.931   4.644
  184TCM    cl3 1087   5.091   4.093   4.576
  185TCM     c1 1088   0.758   0.956   2.801
  185TCM    cl1 1089   0.832   1.108   2.740
  185TCM    cl2 1090   0.761   0.833   2.670
  185TCM     h1 1091   0.815   0.920   2.887
  185TCM    cl3 1092   0.588   0.987   2.849
  186TCM     c1 1093   4.637   0.866   3.540
  186TCM    cl1 1094   4.756   0.903   3.669
  186TCM    cl2 1095   4.716   0.764   3.415
  186TCM     h1 1096   4.552   0.812   3.582
  186TCM    cl3 1097   4.580   1.018   3.463
  187TCM     c1 1098   0.131   4.694   0.493
  187TCM    cl1 1099   0.246   4.829   0.471
  187TCM    cl2 1100   0.190   4.551   0.400
  187TCM     h1 1101   0.124   4.668   0.599
  187TCM    cl3 1102  -0.030   4.743   0.431
  188TCM     c1 1103   0.693   3.077   0.206
  188TCM    cl1 1104   0.838   3.170   0.256
  188TCM    cl2 1105   0.577   3.072   0.343
  188TCM     h1 1106   0.646   3.126   0.120
  188TCM    cl3 1107   0.740   2.910   0.161
  189TCM     c1 1108   1.129   2.344   4.636
  189TCM    cl1 1109   1.257   2.284   4.747
  189TCM    cl2 1110   1.147   2.267   4.475
  189TCM     h1 1111   1.031   2.320   4.677
  189TCM    cl3 1112   1.145   2.522   4.620
  190TCM     c1 1113   0.695   3.303   0.604
  190TCM    cl1 1114   0.723   3.138   0.668
  190TCM    cl2 1115   0.853   3.384   0.576
  190TCM     h1 1116   0.640   3.298   0.510
  190TCM    cl3 1117   0.600   3.397   0.724
  191TCM     c1 1118   3.977   1.463   2.486
  191TCM    cl1 1119   4.090   1.539   2.368
  191TCM    cl2 1120   3.892   1.591   2.578
  191TCM     h1 1121   3.904   1.402   2.432
  191TCM    cl3 1122   4.070   1.358   2.598
  192TCM     c1 1123   2.121   0.314   4.269
  192TCM    cl1 1124   2.300   0.316   4.269
  192TCM    cl2 1125   2.061   0.480   4.297
  192TCM     h1 1126   2.085   0.277   4.172
  192TCM    cl3 1127   2.063   0.207   4.400
  193TCM     c1 1128   0.483   0.064   2.462
  193TCM    cl1 1129   0.537  -0.105   2.436
  193TCM    cl2 1130   0.519   0.112   2.631
  193TCM     h1 1131   0.535   0.131   2.393
  193TCM    cl3 1132   0.306   0.075   2.434
  194TCM     c1 1133   2.014   4.610   4.550
  194TCM    cl1 1134   2.008   4.487   4.419
  194TCM    cl2 1135   2.151   4.721   4.519
  194TCM     h1 1136   1.920   4.666   4.553
  194TCM    cl3 1137   2.038   4.527   4.708
  195TCM     c1 1138   4.313   4.528   1.446
  195TCM    cl1 1139   4.265   4.510   1.274
  195TCM    cl2 1140   4.482   4.473   1.466
  195TCM     h1 1141   4.305   4.633   1.475
  195TCM    cl3 1142   4.204   4.429   1.549
  196TCM     c1 1143   1.099   2.508   0.373
  196TCM    cl1 1144   1.241   2.417   0.311
  196TCM    cl2 1145   0.959   2.396   0.384
  196TCM     h1 1146   1.122   2.549   0.471
  196TCM    cl3 1147   1.061   2.642   0.260
  197TCM     c1 1148   1.275   0.632   4.040
  197TCM    cl1 1149   1.394   0.556   4.149
  197TCM    cl2 1150   1.344   0.643   3.874
  197TCM     h1 1151   1.183   0.572   4.038
  197TCM    cl3 1152   1.239   0.798   4.099
  198TCM     c1 1153   1.443   1.714   1.028
  198TCM    cl1 1154   1.432   1.851   1.142
  198TCM    cl2 1155   1.456   1.561   1.121
  198TCM     h1 1156   1.354   1.711   0.964
  198TCM    cl3 1157   1.589   1.734   0.925
  199TCM     c1 1158   1.166   4.562   1.253
  199TCM    cl1 1159   1.297   4.445   1.215
  199TCM    cl2 1160   1.240   4.713   1.315
  199TCM     h1 1161   1.109   4.583   1.162
  199TCM    cl3 1162   1.059   4.493   1.379
  200TCM     c1 1163   0.086   2.714   2.531
  200TCM    cl1 1164  -0.044   2.609   2.595
  200TCM    cl2 1165   0.156   2.641   2.383
  200TCM     h1 1166   0.045   2.812   2.507
  200TCM    cl3 1167   0.216   2.730   2.655
  201TCM     c1 1168   0.747   2.169   0.058
  201TCM    cl1 1169   0.648   2.227  -0.080
  201TCM    cl2 1170   0.742   1.990   0.063
  201TCM     h1 1171   0.850   2.203   0.046
  201TCM    cl3 1172   0.679   2.234   0.212
  202TCM     c1 1173   3.468   4.477   3.174
  202TCM    cl1 1174   3.525   4.572   3.033
  202TCM    cl2 1175   3.600   4.370   3.231
  202TCM     h1 1176   3.439   4.545   3.255
  202TCM    cl3 1177   3.327   4.377   3.126
  203TCM     c1 1178   2.037   0.792   2.243
  203TCM    cl1 1179   2.200   0.815   2.316
  203TCM    cl2 1180   1.923   0.910   2.315
  203TCM     h1 1181   2.043   0.808   2.135
  203TCM    cl3 1182   1.981   0.625   2.276
  204TCM     c1 1183   0.772   4.683   4.303
  204TCM    cl1 1184   0.603   4.700   4.361
  204TCM    cl2 1185   0.771   4.659   4.126
  204TCM     h1 1186   0.828   4.774   4.327
  204TCM    cl3 1187   0.850   4.542   4.383
  205TCM     c1 1188   2.069   4.839   3.598
  205TCM    cl1 1189   2.058   4.879   3.772
  205TCM    cl2 1190   2.100   4.989   3.504
  205TCM     h1 1191   2.150   4.767   3.581
  205TCM    cl3 1192   1.913   4.767   3.545
  206TCM     c1 1193   1.129   0.003   1.069
  206TCM    cl1 1194   1.124  -0.163   1.001
  206TCM    cl2 1195   0.965   0.074   1.060
  206TCM     h1 1196   1.163  -0.001   1.173
  206TCM    cl3 1197   1.242   0.102   0.971
  207TCM     c1 1198   2.431   3.203   0.952
  207TCM    cl1 1199   2.331   3.214   1.100
  207TCM    cl2 1200   2.476   3.032   0.925
  207TCM     h1 1201   2.374   3.240   0.866
  207TCM    cl3 1202   2.579   3.302   0.972
  208TCM     c1 1203   0.736   3.875   0.719
  208TCM    cl1 1204   0.655   3.903   0.561
  208TCM    cl2 1205   0.855   3.742   0.701
  208TCM     h1 1206   0.787   3.966   0.751
  208TCM    cl3 1207   0.612   3.829   0.841
  209TCM     c1 1208   3.504   2.018   2.015
  209TCM    cl1 1209   3.671   2.071   2.052
  209TCM    cl2 1210   3.494   1.840   2.030
  209TCM     h1 1211   3.434   2.065   2.085
  209TCM    cl3 1212   3.461   2.066   1.847
  210TCM     c1 1213   2.552   2.323   0.940
  210TCM    cl1 1214   2.536   2.330   0.762
  210TCM    cl2 1215   2.693   2.422   0.992
  210TCM     h1 1216   2.461   2.362   0.987
  210TCM    cl3 1217   2.577   2.153   0.991
  211TCM     c1 1218   2.770   3.372   4.274
  211TCM    cl1 1219   2.792   3.543   4.326
  211TCM    cl2 1220   2.830   3.351   4.106
  211TCM     h1 1221   2.826   3.307   4.341
  211TCM    cl3 1222   2.596   3.331   4.282
  212TCM     c1 1223   1.365   2.715   4.281
  212TCM    cl1 1224   1.356   2.774   4.450
  212TCM    cl2 1225   1.302   2.841   4.170
  212TCM     h1 1226   1.469   2.693   4.256
  212TCM    cl3 1227   1.266   2.566   4.265
  213TCM     c1 1228   1.618   2.946   3.300
  213TCM    cl1 1229   1.518   2.814   3.370
  213TCM    cl2 1230   1.657   2.909   3.129
  213TCM     h1 1231   1.563   3.040   3.306
  213TCM    cl3 1232   1.771   2.961   3.394
  214TCM     c1 1233   3.680   4.613   3.666
  214TCM    cl1 1234   3.559   4.571   3.540
  214TCM    cl2 1235   3.606   4.596   3.828
  214TCM     h1 1236   3.766   4.546   3.658
  214TCM    cl3 1237   3.734   4.782   3.642
  215TCM     c1 1238   0.238   3.279   0.342
  215TCM    cl1 1239   0.341   3.311   0.485
  215TCM    cl2 1240   0.193   3.105   0.341
  215TCM     h1 1241   0.147   3.340   0.347
  215TCM    cl3 1242   0.329   3.319   0.193
  216TCM     c1 1243   1.287   2.111   0.123
  216TCM    cl1 1244   1.351   1.994   0.004
  216TCM    cl2 1245   1.343   2.064   0.287
  216TCM     h1 1246   1.322   2.211   0.100
  216TCM    cl3 1247   1.107   2.108   0.119
  217TCM     c1 1248   0.342   1.875   2.862
  217TCM    cl1 1249   0.335   1.809   2.696
  217TCM    cl2 1250   0.511   1.875   2.921
  217TCM     h1 1251   0.303   1.978   2.863
  217TCM    cl3 1252   0.241   1.772   2.969
  218TCM     c1 1253   3.513   0.278   4.682
  218TCM    cl1 1254   3.416   0.146   4.609
  218TCM    cl2 1255   3.489   0.275   4.860
  218TCM     h1 1256   3.619   0.263   4.659
  218TCM    cl3 1257   3.458   0.435   4.617
  219TCM     c1 1258   1.726   2.435   1.952
  219TCM    cl1 1259   1.787   2.599   1.992
  219TCM    cl2 1260   1.772   2.394   1.783
  219TCM     h1 1261   1.769   2.362   2.020
  219TCM    cl3 1262   1.548   2.434   1.966
  220TCM     c1 1263   4.099   0.520   4.075
  220TCM    cl1 1264   4.077   0.363   3.992
  220TCM    cl2 1265   3.942   0.606   4.084
  220TCM     h1 1266   4.137   0.504   4.176
  220TCM    cl3 1267   4.215   0.620   3.983
  221TCM     c1 1268   0.181   3.959   1.525
  221TCM    cl1 1269   0.111   4.080   1.413
  221TCM    cl2 1270   0.105   3.975   1.687
  221TCM     h1 1271   0.163   3.858   1.487
  221TCM    cl3 1272   0.358   3.986   1.539
  222TCM     c1 1273   0.296   1.584   0.742
  222TCM    cl1 1274   0.130   1.556   0.803
  222TCM    cl2 1275   0.374   1.714   0.838
  222TCM     h1 1276   0.354   1.491   0.751
  222TCM    cl3 1277   0.288   1.633   0.570
  223TCM     c1 1278   3.560   2.363   2.850
  223TCM    cl1 1279   3.663   2.510   2.850
  223TCM    cl2 1280   3.394   2.407   2.799
  223TCM     h1 1281   3.602   2.289   2.781
  223TCM    cl3 1282   3.555   2.294   3.016
  224TCM     c1 1283   0.223   4.762   2.856
  224TCM    cl1 1284   0.358   4.650   2.891
  224TCM    cl2 1285   0.067   4.677   2.882
  224TCM     h1 1286   0.228   4.848   2.923
  224TCM    cl3 1287   0.234   4.817   2.686
  225TCM     c1 1288   0.284   4.555   2.208
  225TCM    cl1 1289   0.127   4.473   2.180
  225TCM    cl2 1290   0.255   4.712   2.291
  225TCM     h1 1291   0.347   4.492   2.271
  225TCM    cl3 1292   0.365   4.584   2.051
  226TCM     c1 1293   0.406   2.419   2.265
  226TCM    cl1 1294   0.264   2.320   2.217
  226TCM    cl2 1295   0.454   2.524   2.127
  226TCM     h1 1296   0.380   2.481   2.351
  226TCM    cl3 1297   0.542   2.311   2.308
  227TCM     c1 1298   0.429   4.081   2.930
  227TCM    cl1 1299   0.309   4.016   2.814
  227TCM    cl2 1300   0.595   4.047   2.869
  227TCM     h1 1301   0.416   4.189   2.942
  227TCM    cl3 1302   0.407   4.001   3.089
  228TCM     c1 1303   2.211   0.586   3.788
  228TCM    cl1 1304   2.174   0.520   3.950
  228TCM    cl2 1305   2.062   0.658   3.718
  228TCM     h1 1306   2.288   0.663   3.796
  228TCM    cl3 1307   2.269   0.453   3.682
  229TCM     c1 1308   1.811   1.963   1.951
  229TCM    cl1 1309   1.714   1.813   1.962
  229TCM    cl2 1310   1.982   1.930   1.996
  229TCM     h1 1311   1.808   2.001   1.848
  229TCM    cl3 1312   1.742   2.087   2.061
  230TCM     c1 1313   0.797   3.390   2.239
  230TCM    cl1 1314   0.926   3.399   2.115
  230TCM    cl2 1315   0.858   3.456   2.394
  230TCM     h1 1316   0.710   3.449   2.206
  230TCM    cl3 1317   0.747   3.219   2.262
  231TCM     c1 1318   4.648   3.612   2.994
  231TCM    cl1 1319   4.592   3.725   2.866
  231TCM    cl2 1320   4.658   3.446   2.925
  231TCM     h1 1321   4.746   3.642   3.030
  231TCM    cl3 1322   4.531   3.612   3.130
  232TCM     c1 1323   4.254   0.873   4.465
  232TCM    cl1 1324   4.432   0.874   4.443
  232TCM    cl2 1325   4.180   0.753   4.354
  232TCM     h1 1326   4.230   0.846   4.568
  232TCM    cl3 1327   4.188   1.036   4.429
  233TCM     c1 1328   0.163   2.832   4.661
  233TCM    cl1 1329   0.325   2.909   4.679
  233TCM    cl2 1330   0.037   2.959   4.673
  233TCM     h1 1331   0.157   2.782   4.564
  233TCM    cl3 1332   0.138   2.712   4.792
  234TCM     c1 1333   1.032   1.640   0.204
  234TCM    cl1 1334   1.043   1.485   0.294
  234TCM    cl2 1335   1.124   1.767   0.291
  234TCM     h1 1336   1.073   1.627   0.104
  234TCM    cl3 1337   0.859   1.688   0.191
  235TCM     c1 1338   1.680   2.118   1.562
  235TCM    cl1 1339   1.577   2.084   1.705
  235TCM    cl2 1340   1.603   2.048   1.416
  235TCM     h1 1341   1.691   2.226   1.549
  235TCM    cl3 1342   1.840   2.043   1.586
  236TCM     c1 1343   2.385   4.369   3.721
  236TCM    cl1 1344   2.243   4.470   3.679
  236TCM    cl2 1345   2.504   4.377   3.586
  236TCM     h1 1346   2.431   4.406   3.812
  236TCM    cl3 1347   2.334   4.198   3.745
  237TCM     c1 1348   3.076   0.633   1.627
  237TCM    cl1 1349   2.927   0.731   1.651
  237TCM    cl2 1350   3.175   0.706   1.497
  237TCM     h1 1351   3.133   0.630   1.720
  237TCM    cl3 1352   3.031   0.466   1.580
  238TCM     c1 1353   2.368   4.812   4.882
  238TCM    cl1 1354   2.298   4.656   4.938
  238TCM    cl2 1355   2.239   4.916   4.813
  238TCM     h1 1356   2.415   4.863   4.966
  238TCM    cl3 1357   2.491   4.779   4.756
  239TCM     c1 1358   2.725   1.662   3.308
  239TCM    cl1 1359   2.672   1.763   3.447
  239TCM    cl2 1360   2.836   1.534   3.367
  239TCM     h1 1361   2.637   1.616   3.260
  239TCM    cl3 1362   2.810   1.765   3.189
  240TCM     c1 1363   0.705   1.713   4.635
  240TCM    cl1 1364   0.714   1.721   4.814
  240TCM    cl2 1365   0.845   1.619   4.573
  240TCM     h1 1366   0.612   1.664   4.605
  240TCM    cl3 1367   0.710   1.879   4.568
  241TCM     c1 1368   2.735   1.188   2.966
  241TCM    cl1 1369   2.858   1.066   3.011
  241TCM    cl2 1370   2.798   1.287   2.829
  241TCM     h1 1371   2.643   1.138   2.935
  241TCM    cl3 1372   2.702   1.296   3.105
  242TCM     c1 1373   3.494   0.829   1.629
  242TCM    cl1 1374   3.659   0.831   1.558
  242TCM    cl2 1375   3.477   0.965   1.744
  242TCM     h1 1376   3.421   0.839   1.549
  242TCM    cl3 1377   3.467   0.674   1.715
  243TCM     c1 1378   0.563   0.225   0.398
  243TCM    cl1 1379   0.730   0.271   0.446
  243TCM    cl2 1380   0.452   0.362   0.433
  243TCM     h1 1381   0.560   0.201   0.292
  243TCM    cl3 1382   0.511   0.083   0.494
  244TCM     c1 1383   0.506   3.655   3.836
  244TCM    cl1 1384   0.662   3.659   3.926
  244TCM    cl2 1385   0.383   3.573   3.937
  244TCM     h1 1386   0.474   3.758   3.814
  244TCM    cl3 1387   0.528   3.565   3.683
  245TCM     c1 1388   0.028   4.387   4.382
  245TCM    cl1 1389   0.206   4.403   4.391
  245TCM    cl2 1390  -0.018   4.293   4.237
  245TCM     h1 1391  -0.010   4.337   4.472
  245TCM    cl3 1392  -0.045   4.551   4.370
  246TCM     c1 1393   3.428   1.776   0.784
  246TCM    cl1 1394   3.472   1.949   0.771
  246TCM    cl2 1395   3.458   1.719   0.951
  246TCM     h1 1396   3.322   1.763   0.759
  246TCM    cl3 1397   3.528   1.681   0.669
  247TCM     c1 1398   3.337   4.288   3.654
  247TCM    cl1 1399   3.223   4.173   3.732
  247TCM    cl2 1400   3.331   4.263   3.476
  247TCM     h1 1401   3.308   4.391   3.677
  247TCM    cl3 1402   3.503   4.257   3.714
  248TCM     c1 1403   1.809   4.865   3.137
  248TCM    cl1 1404   1.974   4.809   3.177
  248TCM    cl2 1405   1.813   4.962   2.986
  248TCM     h1 1406   1.743   4.779   3.122
  248TCM    cl3 1407   1.746   4.966   3.271
  249TCM     c1 1408   2.465   0.384   2.478
  249TCM    cl1 1409   2.442   0.322   2.645
  249TCM    cl2 1410   2.446   0.562   2.477
  249TCM     h1 1411   2.565   0.357   2.443
  249TCM    cl3 1412   2.341   0.310   2.370
  250TCM     c1 1413   3.230   2.157   4.051
  250TCM    cl1 1414   3.217   2.132   4.228
  250TCM    cl2 1415   3.403   2.179   4.007
  250TCM     h1 1416   3.190   2.070   3.999
  250TCM    cl3 1417   3.137   2.303   4.005
  251TCM     c1 1418   2.898   2.552   0.318
  251TCM    cl1 1419   2.919   2.718   0.382
  251TCM    cl2 1420   3.030   2.449   0.381
  251TCM     h1 1421   2.801   2.512   0.349
  251TCM    cl3 1422   2.907   2.558   0.138
  252TCM     c1 1423   1.399   0.489   4.717
  252TCM    cl1 1424   1.431   0.445   4.546
  252TCM    cl2 1425   1.397   0.668   4.734
  252TCM     h1 1426   1.302   0.448   4.747
  252TCM    cl3 1427   1.528   0.422   4.821
  253TCM     c1 1428   0.839   1.515   1.670
  253TCM    cl1 1429   0.980   1.468   1.772
  253TCM    cl2 1430   0.777   1.370   1.585
  253TCM     h1 1431   0.760   1.557   1.733
  253TCM    cl3 1432   0.891   1.635   1.548
  254TCM     c1 1433   4.819   3.056   0.372
  254TCM    cl1 1434   4.794   2.884   0.328
  254TCM    cl2 1435   4.880   3.066   0.540
  254TCM     h1 1436   4.892   3.100   0.304
  254TCM    cl3 1437   4.663   3.144   0.357
  255TCM     c1 1438   0.384   1.588   3.859
  255TCM    cl1 1439   0.529   1.511   3.930
  255TCM    cl2 1440   0.341   1.734   3.955
  255TCM     h1 1441   0.405   1.617   3.756
  255TCM    cl3 1442   0.247   1.473   3.864
  256TCM     c1 1443   0.792   0.617   0.031
  256TCM    cl1 1444   0.701   0.576   0.180
  256TCM    cl2 1445   0.699   0.560  -0.112
  256TCM     h1 1446   0.807   0.725   0.025
  256TCM    cl3 1447   0.952   0.535   0.033
  257TCM     c1 1448   3.488   4.867   4.831
  257TCM    cl1 1449   3.507   4.930   4.998
  257TCM    cl2 1450   3.440   4.694   4.837
  257TCM     h1 1451   3.412   4.924   4.778
  257TCM    cl3 1452   3.645   4.882   4.745
  258TCM     c1 1453   3.093   3.780   3.400
  258TCM    cl1 1454   2.974   3.715   3.518
  258TCM    cl2 1455   3.199   3.647   3.343
  258TCM     h1 1456   3.040   3.823   3.314
  258TCM    cl3 1457   3.191   3.907   3.480
  259TCM     c1 1458   2.772   4.353   3.105
  259TCM    cl1 1459   2.750   4.526   3.063
  259TCM    cl2 1460   2.660   4.309   3.238
  259TCM     h1 1461   2.751   4.291   3.017
  259TCM    cl3 1462   2.941   4.326   3.159
  260TCM     c1 1463   3.240   1.047   2.735
  260TCM    cl1 1464   3.148   1.201   2.742
  260TCM    cl2 1465   3.203   0.946   2.879
  260TCM     h1 1466   3.213   0.992   2.645
  260TCM    cl3 1467   3.416   1.082   2.732
  261TCM     c1 1468   4.573   1.970   4.897
  261TCM    cl1 1469   4.703   1.856   4.946
  261TCM    cl2 1470   4.414   1.898   4.934
  261TCM     h1 1471   4.584   2.064   4.951
  261TCM    cl3 1472   4.584   2.001   4.720
  262TCM     c1 1473   2.899   2.165   0.589
  262TCM    cl1 1474   3.013   2.042   0.523
  262TCM    cl2 1475   2.854   2.121   0.757
  262TCM     h1 1476   2.948   2.263   0.589
  262TCM    cl3 1477   2.751   2.170   0.488
  263TCM     c1 1478   4.660   4.802   1.276
  263TCM    cl1 1479   4.747   4.647   1.248
  263TCM    cl2 1480   4.643   4.830   1.452
  263TCM     h1 1481   4.716   4.884   1.230
  263TCM    cl3 1482   4.497   4.792   1.202
  264TCM     c1 1483   4.560   0.640   3.112
  264TCM    cl1 1484   4.418   0.541   3.066
  264TCM    cl2 1485   4.545   0.803   3.038
  264TCM     h1 1486   4.563   0.649   3.221
  264TCM    cl3 1487   4.710   0.561   3.054
  265TCM     c1 1488   3.372   2.117   0.448
  265TCM    cl1 1489   3.498   2.224   0.519
  265TCM    cl2 1490   3.448   1.966   0.388
  265TCM     h1 1491   3.298   2.092   0.525
  265TCM    cl3 1492   3.291   2.201   0.312
  266TCM     c1 1493   1.678   0.245   2.557
  266TCM    cl1 1494   1.651   0.167   2.717
  266TCM    cl2 1495   1.781   0.390   2.579
  266TCM     h1 1496   1.728   0.175   2.490
  266TCM    cl3 1497   1.519   0.293   2.488
  267TCM     c1 1498   1.097   4.543   4.807
  267TCM    cl1 1499   1.240   4.594   4.711
  267TCM    cl2 1500   1.121   4.593   4.978
  267TCM     h1 1501   1.007   4.590   4.767
  267TCM    cl3 1502   1.080   4.364   4.798
  268TCM     c1 1503   4.982   0.338   4.509
  268TCM    cl1 1504   5.110   0.214   4.483
  268TCM    cl2 1505   4.965   0.370   4.685
  268TCM     h1 1506   5.009   0.430   4.458
  268TCM    cl3 1507   4.827   0.276   4.444
  269TCM     c1 1508   4.383   4.677   0.132
  269TCM    cl1 1509   4.231   4.763   0.171
  269TCM    cl2 1510   4.489   4.675   0.278
  269TCM     h1 1511   4.361   4.574   0.102
  269TCM    cl3 1512   4.468   4.762  -0.001
  270TCM     c1 1513   0.283   2.220   3.696
  270TCM    cl1 1514   0.308   2.364   3.592
  270TCM    cl2 1515   0.312   2.264   3.867
  270TCM     h1 1516   0.180   2.184   3.684
  270TCM    cl3 1517   0.397   2.090   3.646
  271TCM     c1 1518   3.769   1.186   1.646
  271TCM    cl1 1519   3.802   1.177   1.470
  271TCM    cl2 1520   3.733   1.356   1.691
  271TCM     h1 1521   3.684   1.123   1.670
  271TCM    cl3 1522   3.913   1.130   1.737
  272TCM     c1 1523   1.312   4.794   0.236
  272TCM    cl1 1524   1.400   4.949   0.261
  272TCM    cl2 1525   1.226   4.751   0.387
  272TCM     h1 1526   1.240   4.806   0.154
  272TCM    cl3 1527   1.430   4.665   0.194
  273TCM     c1 1528   3.040   1.164   3.619
  273TCM    cl1 1529   3.024   0.989   3.585
  273TCM    cl2 1530   3.112   1.186   3.782
  273TCM     h1 1531   3.105   1.211   3.544
  273TCM    cl3 1532   2.878   1.242   3.615
  274TCM     c1 1533   4.347   3.366   3.522
  274TCM    cl1 1534   4.314   3.454   3.369
  274TCM    cl2 1535   4.383   3.194   3.487
  274TCM     h1 1536   4.432   3.412   3.573
  274TCM    cl3 1537   4.203   3.377   3.629
  275TCM     c1 1538   1.332   0.104   4.885
  275TCM    cl1 1539   1.276   0.153   4.722
  275TCM    cl2 1540   1.310  -0.073   4.904
  275TCM     h1 1541   1.438   0.129   4.898
  275TCM    cl3 1542   1.234   0.190   5.008
  276TCM     c1 1543   0.989   1.919   1.056
  276TCM    cl1 1544   1.055   1.941   1.221
  276TCM    cl2 1545   0.860   1.794   1.059
  276TCM     h1 1546   0.947   2.013   1.020
  276TCM    cl3 1547   1.120   1.865   0.946
  277TCM     c1 1548   3.367   3.064   2.194
  277TCM    cl1 1549   3.536   3.010   2.168
  277TCM    cl2 1550   3.337   3.214   2.099
  277TCM     h1 1551   3.298   2.986   2.160
  277TCM    cl3 1552   3.340   3.096   2.368
  278TCM     c1 1553   3.038   3.170   2.592
  278TCM    cl1 1554   2.947   3.325   2.592
  278TCM    cl2 1555   2.922   3.034   2.605
  278TCM     h1 1556   3.094   3.161   2.499
  278TCM    cl3 1557   3.151   3.166   2.731
  279TCM     c1 1558   1.353   1.199   0.397
  279TCM    cl1 1559   1.530   1.210   0.370
  279TCM    cl2 1560   1.317   1.046   0.484
  279TCM     h1 1561   1.320   1.284   0.457
  279TCM    cl3 1562   1.268   1.199   0.239
  280TCM     c1 1563   3.021   0.098   0.684
  280TCM    cl1 1564   2.967   0.238   0.783
  280TCM    cl2 1565   2.918  -0.044   0.721
  280TCM     h1 1566   3.013   0.123   0.578
  280TCM    cl3 1567   3.192   0.060   0.725
  281TCM     c1 1568   2.056   3.510   0.941
  281TCM    cl1 1569   2.026   3.679   0.890
  281TCM    cl2 1570   2.122   3.508   1.107
  281TCM     h1 1571   1.963   3.453   0.938
  281TCM    cl3 1572   2.175   3.436   0.829
  282TCM     c1 1573   2.744   3.742   1.733
  282TCM    cl1 1574   2.868   3.870   1.711
  282TCM    cl2 1575   2.611   3.806   1.835
  282TCM     h1 1576   2.705   3.712   1.636
  282TCM    cl3 1577   2.818   3.600   1.814
  283TCM     c1 1578   4.487   0.202   4.041
  283TCM    cl1 1579   4.644   0.218   4.126
  283TCM    cl2 1580   4.461   0.345   3.937
  283TCM     h1 1581   4.488   0.112   3.980
  283TCM    cl3 1582   4.355   0.192   4.162
  284TCM     c1 1583   4.725   2.778   4.630
  284TCM    cl1 1584   4.839   2.658   4.560
  284TCM    cl2 1585   4.742   2.779   4.809
  284TCM     h1 1586   4.748   2.878   4.591
  284TCM    cl3 1587   4.557   2.734   4.586
  285TCM     c1 1588   1.174   4.680   1.837
  285TCM    cl1 1589   1.018   4.769   1.834
  285TCM    cl2 1590   1.292   4.769   1.938
  285TCM     h1 1591   1.159   4.580   1.878
  285TCM    cl3 1592   1.238   4.666   1.669
  286TCM     c1 1593   0.105   0.241   0.203
  286TCM    cl1 1594  -0.048   0.212   0.291
  286TCM    cl2 1595   0.079   0.216   0.027
  286TCM     h1 1596   0.138   0.343   0.221
  286TCM    cl3 1597   0.230   0.126   0.262
  287TCM     c1 1598   4.570   0.384   3.596
  287TCM    cl1 1599   4.563   0.405   3.418
  287TCM    cl2 1600   4.628   0.536   3.672
  287TCM     h1 1601   4.471   0.360   3.634
  287TCM    cl3 1602   4.683   0.250   3.637
  288TCM     c1 1603   3.512   4.917   4.312
  288TCM    cl1 1604   3.422   4.825   4.437
  288TCM    cl2 1605   3.657   4.994   4.387
  288TCM     h1 1606   3.544   4.850   4.232
  288TCM    cl3 1607   3.406   5.045   4.244
  289TCM     c1 1608   1.191   1.870   1.590
  289TCM    cl1 1609   1.253   2.020   1.515
  289TCM    cl2 1610   1.058   1.911   1.703
  289TCM     h1 1611   1.154   1.802   1.513
  289TCM    cl3 1612   1.323   1.790   1.682
  290TCM     c1 1613   0.204   0.033   1.569
  290TCM    cl1 1614   0.074   0.039   1.692
  290TCM    cl2 1615   0.202   0.185   1.473
  290TCM     h1 1616   0.301   0.022   1.618
  290TCM    cl3 1617   0.175  -0.106   1.460
  291TCM     c1 1618   3.228   1.550   2.691
  291TCM    cl1 1619   3.171   1.537   2.521
  291TCM    cl2 1620   3.226   1.722   2.741
  291TCM     h1 1621   3.161   1.493   2.756
  291TCM    cl3 1622   3.394   1.485   2.704
  292TCM     c1 1623   3.571   0.186   0.359
  292TCM    cl1 1624   3.478   0.243   0.216
  292TCM    cl2 1625   3.670   0.044   0.312
  292TCM     h1 1626   3.635   0.266   0.395
  292TCM    cl3 1627   3.457   0.137   0.488
  293TCM     c1 1628   0.684   1.209   2.027
  293TCM    cl1 1629   0.639   1.354   1.931
  293TCM    cl2 1630   0.566   1.187   2.160
  293TCM     h1 1631   0.684   1.121   1.962
  293TCM    cl3 1632   0.848   1.234   2.095
  294TCM     c1 1633   2.808   3.731   1.206
  294TCM    cl1 1634   2.768   3.571   1.135
  294TCM    cl2 1635   2.841   3.710   1.381
  294TCM     h1 1636   2.897   3.771   1.157
  294TCM    cl3 1637   2.671   3.844   1.184
  295TCM     c1 1638   2.171   2.527   4.395
  295TCM    cl1 1639   2.124   2.370   4.470
  295TCM    cl2 1640   2.216   2.644   4.524
  295TCM     h1 1641   2.256   2.512   4.328
  295TCM    cl3 1642   2.032   2.591   4.302
  296TCM     c1 1643   0.462   2.213   0.715
  296TCM    cl1 1644   0.615   2.254   0.630
  296TCM    cl2 1645   0.400   2.359   0.800
  296TCM     h1 1646   0.388   2.180   0.642
  296TCM    cl3 1647   0.493   2.084   0.835
  297TCM     c1 1648   2.347   0.508   1.314
  297TCM    cl1 1649   2.459   0.552   1.181
  297TCM    cl2 1650   2.431   0.520   1.472
  297TCM     h1 1651   2.262   0.577   1.314
  297TCM    cl3 1652   2.287   0.340   1.292
  298TCM     c1 1653   2.363   3.823   0.032
  298TCM    cl1 1654   2.391   3.646   0.030
  298TCM    cl2 1655   2.291   3.872   0.189
  298TCM     h1 1656   2.458   3.876   0.017
  298TCM    cl3 1657   2.250   3.865  -0.101
  299TCM     c1 1658   0.299   3.353   4.712
  299TCM    cl1 1659   0.208   3.240   4.817
  299TCM    cl2 1660   0.407   3.260   4.602
  299TCM     h1 1661   0.229   3.413   4.653
  299TCM    cl3 1662   0.399   3.461   4.816
  300TCM     c1 1663   3.720   1.787   1.604
  300TCM    cl1 1664   3.579   1.697   1.670
  300TCM    cl2 1665   3.775   1.909   1.724
  300TCM     h1 1666   3.801   1.718   1.582
  300TCM    cl3 1667   3.671   1.872   1.453
  301TCM     c1 1668   2.066   2.952   2.342
  301TCM    cl1 1669   1.908   2.898   2.277
  301TCM    cl2 1670   2.144   2.816   2.429
  301TCM     h1 1671   2.131   2.984   2.259
  301TCM    cl3 1672   2.041   3.088   2.455
  302TCM     c1 1673   4.502   2.834   0.633
  302TCM    cl1 1674   4.459   2.826   0.458
  302TCM    cl2 1675   4.529   3.005   0.680
  302TCM     h1 1676   4.420   2.793   0.692
  302TCM    cl3 1677   4.651   2.739   0.663
  303TCM     c1 1678   0.185   4.357   1.804
  303TCM    cl1 1679   0.269   4.235   1.905
  303TCM    cl2 1680   0.008   4.326   1.807
  303TCM     h1 1681   0.206   4.457   1.843
  303TCM    cl3 1682   0.245   4.346   1.635
  304TCM     c1 1683   3.125   1.669   3.614
  304TCM    cl1 1684   3.164   1.500   3.566
  304TCM    cl2 1685   3.258   1.734   3.716
  304TCM     h1 1686   3.115   1.730   3.524
  304TCM    cl3 1687   2.971   1.670   3.706
  305TCM     c1 1688   0.916   3.806   2.108
  305TCM    cl1 1689   0.991   3.739   1.960
  305TCM    cl2 1690   1.017   3.762   2.250
  305TCM     h1 1691   0.909   3.914   2.100
  305TCM    cl3 1692   0.752   3.736   2.128
  306TCM     c1 1693   2.937   4.036   2.103
  306TCM    cl1 1694   2.952   3.858   2.089
  306TCM    cl2 1695   2.899   4.080   2.273
  306TCM     h1 1696   3.031   4.083   2.073
  306TCM    cl3 1697   2.804   4.093   1.996
  307TCM     c1 1698   1.552   2.868   2.136
  307TCM    cl1 1699   1.573   2.744   2.265
  307TCM    cl2 1700   1.489   3.019   2.209
  307TCM     h1 1701   1.647   2.887   2.087
  307TCM    cl3 1702   1.434   2.806   2.015
  308TCM     c1 1703   4.699   0.049   4.993
  308TCM    cl1 1704   4.820   0.021   4.863
  308TCM    cl2 1705   4.693   0.224   5.033
  308TCM     h1 1706   4.601   0.016   4.959
  308TCM    cl3 1707   4.745  -0.045   5.140
  309TCM     c1 1708   4.378   4.761   2.318
  309TCM    cl1 1709   4.276   4.907   2.292
  309TCM    cl2 1710   4.479   4.732   2.173
  309TCM     h1 1711   4.442   4.776   2.405
  309TCM    cl3 1712   4.271   4.620   2.347
  310TCM     c1 1713   1.412   0.186   3.045
  310TCM    cl1 1714   1.337   0.230   2.888
  310TCM    cl2 1715   1.563   0.280   3.068
  310TCM     h1 1716   1.342   0.207   3.127
  310TCM    cl3 1717   1.451   0.011   3.045
  311TCM     c1 1718   3.310   4.871   3.691
  311TCM    cl1 1719   3.435   4.930   3.805
  311TCM    cl2 1720   3.270   4.700   3.726
  311TCM     h1 1721   3.220   4.932   3.702
  311TCM    cl3 1722   3.369   4.884   3.522
  312TCM     c1 1723   3.599   2.212   4.914
  312TCM    cl1 1724   3.730   2.141   4.815
  312TCM    cl2 1725   3.557   2.100   5.048
  312TCM     h1 1726   3.633   2.307   4.956
  312TCM    cl3 1727   3.455   2.240   4.812
  313TCM     c1 1728   4.656   4.236   2.336
  313TCM    cl1 1729   4.816   4.315   2.320
  313TCM    cl2 1730   4.527   4.353   2.293
  313TCM     h1 1731   4.651   4.149   2.269
  313TCM    cl3 1732   4.635   4.182   2.506
  314TCM     c1 1733   4.893   2.977   2.240
  314TCM    cl1 1734   5.062   2.999   2.298
  314TCM    cl2 1735   4.786   3.094   2.324
  314TCM     h1 1736   4.889   2.996   2.132
  314TCM    cl3 1737   4.839   2.810   2.275
  315TCM     c1 1738   1.466   2.111   0.620
  315TCM    cl1 1739   1.446   2.288   0.598
  315TCM    cl2 1740   1.456   2.071   0.795
  315TCM     h1 1741   1.386   2.058   0.566
  315TCM    cl3 1742   1.625   2.060   0.556
  316TCM     c1 1743   0.832   1.782   3.776
  316TCM    cl1 1744   0.864   1.633   3.871
  316TCM    cl2 1745   0.926   1.917   3.848
  316TCM     h1 1746   0.862   1.767   3.672
  316TCM    cl3 1747   0.657   1.822   3.783
  317TCM     c1 1748   3.999   3.682   1.220
  317TCM    cl1 1749   3.991   3.859   1.195
  317TCM    cl2 1750   3.840   3.621   1.277
  317TCM     h1 1751   4.025   3.633   1.126
  317TCM    cl3 1752   4.124   3.646   1.343
  318TCM     c1 1753   0.123   4.982   2.094
  318TCM    cl1 1754   0.270   4.938   2.001
  318TCM    cl2 1755  -0.009   4.868   2.052
  318TCM     h1 1756   0.144   4.976   2.201
  318TCM    cl3 1757   0.073   5.149   2.051
  319TCM     c1 1758   1.209   2.322   1.751
  319TCM    cl1 1759   1.160   2.457   1.859
  319TCM    cl2 1760   1.260   2.182   1.851
  319TCM     h1 1761   1.125   2.293   1.687
  319TCM    cl3 1762   1.346   2.374   1.647
  320TCM     c1 1763   0.653   2.159   4.071
  320TCM    cl1 1764   0.685   2.196   3.898
  320TCM    cl2 1765   0.808   2.126   4.154
  320TCM     h1 1766   0.603   2.244   4.118
  320TCM    cl3 1767   0.547   2.014   4.082
  321TCM     c1 1768   1.150   0.839   0.001
  321TCM    cl1 1769   1.022   0.882  -0.117
  321TCM    cl2 1770   1.090   0.868   0.168
  321TCM     h1 1771   1.176   0.734  -0.010
  321TCM    cl3 1772   1.296   0.940  -0.028
  322TCM     c1 1773   3.357   2.721   0.614
  322TCM    cl1 1774   3.287   2.826   0.742
  322TCM    cl2 1775   3.270   2.750   0.460
  322TCM     h1 1776   3.463   2.745   0.601
  322TCM    cl3 1777   3.339   2.549   0.662
  323TCM     c1 1778   3.477   0.186   3.106
  323TCM    cl1 1779   3.450   0.216   3.281
  323TCM    cl2 1780   3.345   0.262   3.011
  323TCM     h1 1781   3.573   0.229   3.076
  323TCM    cl3 1782   3.479   0.009   3.075
  324TCM     c1 1783   4.586   3.391   4.934
  324TCM    cl1 1784   4.647   3.333   4.776
  324TCM    cl2 1785   4.436   3.486   4.909
  324TCM     h1 1786   4.564   3.306   4.999
  324TCM    cl3 1787   4.710   3.495   5.011
  325TCM     c1 1788   4.532   2.670   2.701
  325TCM    cl1 1789   4.628   2.755   2.576
  325TCM    cl2 1790   4.409   2.784   2.767
  325TCM     h1 1791   4.482   2.584   2.658
  325TCM    cl3 1792   4.641   2.617   2.834
  326TCM     c1 1793   2.159   4.340   3.292
  326TCM    cl1 1794   2.322   4.403   3.253
  326TCM    cl2 1795   2.059   4.473   3.359
  326TCM     h1 1796   2.112   4.301   3.201
  326TCM    cl3 1797   2.174   4.209   3.413
  327TCM     c1 1798   3.195   2.130   0.942
  327TCM    cl1 1799   3.077   2.217   1.045
  327TCM    cl2 1800   3.212   2.218   0.786
  327TCM     h1 1801   3.292   2.127   0.993
  327TCM    cl3 1802   3.139   1.963   0.911
  328TCM     c1 1803   2.339   1.792   2.242
  328TCM    cl1 1804   2.454   1.810   2.378
  328TCM    cl2 1805   2.346   1.940   2.140
  328TCM     h1 1806   2.365   1.705   2.182
  328TCM    cl3 1807   2.173   1.774   2.306
  329TCM     c1 1808   2.973   2.563   3.335
  329TCM    cl1 1809   2.979   2.742   3.316
  329TCM    cl2 1810   2.952   2.487   3.174
  329TCM     h1 1811   3.066   2.528   3.380
  329TCM    cl3 1812   2.834   2.519   3.439
  330TCM     c1 1813   0.146   1.723   1.654
  330TCM    cl1 1814   0.099   1.743   1.482
  330TCM    cl2 1815   0.010   1.649   1.745
  330TCM     h1 1816   0.234   1.658   1.661
  330TCM    cl3 1817   0.184   1.883   1.725
  331TCM     c1 1818   1.550   1.203   3.360
  331TCM    cl1 1819   1.387   1.221   3.434
  331TCM    cl2 1820   1.675   1.234   3.484
  331TCM     h1 1821   1.561   1.101   3.322
  331TCM    cl3 1822   1.569   1.320   3.226
  332TCM     c1 1823   3.313   4.213   2.201
  332TCM    cl1 1824   3.211   4.308   2.314
  332TCM    cl2 1825   3.281   4.268   2.034
  332TCM     h1 1826   3.419   4.229   2.226
  332TCM    cl3 1827   3.273   4.039   2.217
  333TCM     c1 1828   2.154   3.671   0.452
  333TCM    cl1 1829   2.301   3.579   0.404
  333TCM    cl2 1830   2.199   3.795   0.573
  333TCM     h1 1831   2.112   3.720   0.364
  333TCM    cl3 1832   2.033   3.559   0.522
  334TCM     c1 1833   4.513   2.128   3.005
  334TCM    cl1 1834   4.587   2.185   2.852
  334TCM    cl2 1835   4.339   2.094   2.979
  334TCM     h1 1836   4.563   2.037   3.038
  334TCM    cl3 1837   4.530   2.255   3.131
  335TCM     c1 1838   2.229   3.974   1.216
  335TCM    cl1 1839   2.382   4.063   1.187
  335TCM    cl2 1840   2.265   3.808   1.272
  335TCM     h1 1841   2.170   4.027   1.292
  335TCM    cl3 1842   2.136   3.966   1.063
  336TCM     c1 1843   1.016   4.963   4.538
  336TCM    cl1 1844   1.007   4.887   4.700
  336TCM    cl2 1845   0.850   5.006   4.484
  336TCM     h1 1846   1.077   5.053   4.543
  336TCM    cl3 1847   1.088   4.847   4.422
  337TCM     c1 1848   3.490   3.369   3.501
  337TCM    cl1 1849   3.409   3.285   3.637
  337TCM    cl2 1850   3.488   3.262   3.357
  337TCM     h1 1851   3.438   3.462   3.479
  337TCM    cl3 1852   3.660   3.403   3.546
  338TCM     c1 1853   3.563   3.901   1.117
  338TCM    cl1 1854   3.670   3.828   0.993
  338TCM    cl2 1855   3.654   4.022   1.213
  338TCM     h1 1856   3.478   3.950   1.068
  338TCM    cl3 1857   3.503   3.771   1.226
  339TCM     c1 1858   2.390   1.089   3.795
  339TCM    cl1 1859   2.262   1.195   3.862
  339TCM    cl2 1860   2.454   1.161   3.644
  339TCM     h1 1861   2.471   1.079   3.868
  339TCM    cl3 1862   2.321   0.928   3.758
  340TCM     c1 1863   2.147   3.587   4.680
  340TCM    cl1 1864   1.991   3.634   4.755
  340TCM    cl2 1865   2.119   3.545   4.508
  340TCM     h1 1866   2.218   3.670   4.687
  340TCM    cl3 1867   2.214   3.443   4.765
  341TCM     c1 1868   4.188   3.750   3.125
  341TCM    cl1 1869   4.269   3.829   2.986
  341TCM    cl2 1870   4.020   3.708   3.077
  341TCM     h1 1871   4.242   3.659   3.153
  341TCM    cl3 1872   4.185   3.863   3.264
  342TCM     c1 1873   3.159   1.969   4.635
  342TCM    cl1 1874   3.169   2.143   4.593
  342TCM    cl2 1875   3.187   1.869   4.488
  342TCM     h1 1876   3.236   1.946   4.710
  342TCM    cl3 1877   2.997   1.934   4.702
  343TCM     c1 1878   0.438   0.654   4.100
  343TCM    cl1 1879   0.543   0.576   3.978
  343TCM    cl2 1880   0.356   0.795   4.027
  343TCM     h1 1881   0.362   0.582   4.135
  343TCM    cl3 1882   0.537   0.707   4.240
  344TCM     c1 1883   3.149   1.037   1.831
  344TCM    cl1 1884   3.008   1.126   1.897
  344TCM    cl2 1885   3.136   1.031   1.651
  344TCM     h1 1886   3.241   1.089   1.858
  344TCM    cl3 1887   3.153   0.870   1.897
  345TCM     c1 1888   2.567   4.607   2.458
  345TCM    cl1 1889   2.686   4.706   2.367
  345TCM    cl2 1890   2.603   4.616   2.633
  345TCM     h1 1891   2.466   4.645   2.439
  345TCM    cl3 1892   2.577   4.436   2.404
  346TCM     c1 1893   0.806   0.822   2.230
  346TCM    cl1 1894   0.851   0.681   2.330
  346TCM    cl2 1895   0.925   0.842   2.097
  346TCM     h1 1896   0.706   0.807   2.188
  346TCM    cl3 1897   0.807   0.971   2.331
  347TCM     c1 1898   2.339   4.461   2.818
  347TCM    cl1 1899   2.190   4.474   2.918
  347TCM    cl2 1900   2.298   4.393   2.657
  347TCM     h1 1901   2.384   4.559   2.805
  347TCM    cl3 1902   2.457   4.352   2.900
  348TCM     c1 1903   4.102   1.901   4.746
  348TCM    cl1 1904   4.207   1.931   4.603
  348TCM    cl2 1905   3.940   1.847   4.692
  348TCM     h1 1906   4.147   1.823   4.809
  348TCM    cl3 1907   4.087   2.052   4.841
  349TCM     c1 1908   0.362   0.522   0.032
  349TCM    cl1 1909   0.271   0.576   0.177
  349TCM    cl2 1910   0.252   0.514  -0.109
  349TCM     h1 1911   0.443   0.592   0.012
  349TCM    cl3 1912   0.431   0.359   0.063
  350TCM     c1 1913   3.704   3.821   0.131
  350TCM    cl1 1914   3.779   3.668   0.074
  350TCM    cl2 1915   3.568   3.783   0.241
  350TCM     h1 1916   3.779   3.880   0.184
  350TCM    cl3 1917   3.643   3.913  -0.011
  351TCM     c1 1918   2.052   2.077   2.489
  351TCM    cl1 1919   1.967   2.202   2.585
  351TCM    cl2 1920   2.226   2.076   2.531
  351TCM     h1 1921   2.008   1.979   2.510
  351TCM    cl3 1922   2.033   2.115   2.315
  352TCM     c1 1923   1.857   4.160   1.367
  352TCM    cl1 1924   1.953   4.311   1.351
  352TCM    cl2 1925   1.948   4.042   1.466
  352TCM     h1 1926   1.761   4.183   1.415
  352TCM    cl3 1927   1.826   4.091   1.204
  353TCM     c1 1928   4.050   3.667   1.732
  353TCM    cl1 1929   3.955   3.536   1.656
  353TCM    cl2 1930   4.225   3.639   1.703
  353TCM     h1 1931   4.022   3.764   1.689
  353TCM    cl3 1932   4.018   3.670   1.909
  354TCM     c1 1933   2.623   4.651   0.651
  354TCM    cl1 1934   2.749   4.573   0.549
  354TCM    cl2 1935   2.594   4.817   0.590
  354TCM     h1 1936   2.530   4.593   0.645
  354TCM    cl3 1937   2.679   4.656   0.821
  355TCM     c1 1938   2.586   2.378   4.750
  355TCM    cl1 1939   2.683   2.456   4.620
  355TCM    cl2 1940   2.415   2.367   4.697
  355TCM     h1 1941   2.625   2.278   4.770
  355TCM    cl3 1942   2.595   2.477   4.899
  356TCM     c1 1943   1.682   3.305   2.330
  356TCM    cl1 1944   1.718   3.479   2.352
  356TCM    cl2 1945   1.702   3.219   2.485
  356TCM     h1 1946   1.579   3.293   2.294
  356TCM    cl3 1947   1.795   3.236   2.208
  357TCM     c1 1948   0.539   4.220   4.546
  357TCM    cl1 1949   0.615   4.147   4.400
  357TCM    cl2 1950   0.546   4.398   4.533
  357TCM     h1 1951   0.435   4.188   4.553
  357TCM    cl3 1952   0.630   4.167   4.691
  358TCM     c1 1953   0.302   2.230   1.692
  358TCM    cl1 1954   0.443   2.126   1.657
  358TCM    cl2 1955   0.289   2.360   1.569
  358TCM     h1 1956   0.210   2.170   1.690
  358TCM    cl3 1957   0.322   2.304   1.855
  359TCM     c1 1958   4.506   0.856   4.087
  359TCM    cl1 1959   4.640   0.974   4.112
  359TCM    cl2 1960   4.532   0.770   3.932
  359TCM     h1 1961   4.506   0.784   4.169
  359TCM    cl3 1962   4.350   0.944   4.083
  360TCM     c1 1963   3.991   1.296   0.295
  360TCM    cl1 1964   4.038   1.309   0.467
  360TCM    cl2 1965   3.837   1.384   0.267
  360TCM     h1 1966   4.069   1.339   0.233
  360TCM    cl3 1967   3.969   1.123   0.251
  361TCM     c1 1968   1.822   1.585   3.458
  361TCM    cl1 1969   1.799   1.653   3.294
  361TCM    cl2 1970   1.666   1.588   3.546
  361TCM     h1 1971   1.857   1.481   3.450
  361TCM    cl3 1972   1.943   1.683   3.547
  362TCM     c1 1973   0.623   1.796   1.901
  362TCM    cl1 1974   0.746   1.698   1.986
  362TCM    cl2 1975   0.490   1.691   1.842
  362TCM     h1 1976   0.583   1.872   1.968
  362TCM    cl3 1977   0.699   1.877   1.760
  363TCM     c1 1978   1.393   0.519   3.464
  363TCM    cl1 1979   1.324   0.683   3.485
  363TCM    cl2 1980   1.345   0.455   3.304
  363TCM     h1 1981   1.502   0.523   3.471
  363TCM    cl3 1982   1.328   0.411   3.592
  364TCM     c1 1983   2.040   4.342   0.924
  364TCM    cl1 1984   2.088   4.458   0.797
  364TCM    cl2 1985   1.889   4.400   1.002
  364TCM     h1 1986   2.023   4.243   0.879
  364TCM    cl3 1987   2.170   4.330   1.047
  365TCM     c1 1988   3.218   1.724   4.128
  365TCM    cl1 1989   3.229   1.562   4.050
  365TCM    cl2 1990   3.087   1.819   4.050
  365TCM     h1 1991   3.195   1.712   4.234
  365TCM    cl3 1992   3.374   1.811   4.109
  366TCM     c1 1993   2.276   3.443   4.082
  366TCM    cl1 1994   2.281   3.432   3.903
  366TCM    cl2 1995   2.254   3.279   4.152
  366TCM     h1 1996   2.369   3.486   4.119
  366TCM    cl3 1997   2.139   3.548   4.130
  367TCM     c1 1998   2.791   0.609   4.807
  367TCM    cl1 1999   2.685   0.466   4.827
  367TCM    cl2 2000   2.874   0.600   4.649
  367TCM     h1 2001   2.730   0.700   4.812
  367TCM    cl3 2002   2.913   0.612   4.939
  368TCM     c1 2003   3.190   2.631   2.391
  368TCM    cl1 2004   3.266   2.697   2.243
  368TCM    cl2 2005   3.180   2.761   2.515
  368TCM     h1 2006   3.090   2.595   2.368
  368TCM    cl3 2007   3.289   2.495   2.454
  369TCM     c1 2008   4.522   4.009   0.858
  369TCM    cl1 2009   4.363   4.037   0.780
  369TCM    cl2 2010   4.500   3.994   1.035
  369TCM     h1 2011   4.566   3.917   0.819
  369TCM    cl3 2012   4.631   4.147   0.821
  370TCM     c1 2013   1.791   2.820   4.443
  370TCM    cl1 2014   1.684   2.855   4.582
  370TCM    cl2 2015   1.944   2.912   4.461
  370TCM     h1 2016   1.813   2.713   4.441
  370TCM    cl3 2017   1.709   2.867   4.291
  371TCM     c1 2018   2.586   3.947   4.132
  371TCM    cl1 2019   2.752   3.888   4.163
  371TCM    cl2 2020   2.584   4.044   3.981
  371TCM     h1 2021   2.518   3.862   4.121
  371TCM    cl3 2022   2.534   4.050   4.270
  372TCM     c1 2023   4.513   0.041   2.610
  372TCM    cl1 2024   4.362   0.136   2.593
  372TCM    cl2 2025   4.588   0.021   2.448
  372TCM     h1 2026   4.582   0.093   2.676
  372TCM    cl3 2027   4.473  -0.119   2.678
  373TCM     c1 2028   1.779   3.797   1.903
  373TCM    cl1 2029   1.615   3.818   1.835
  373TCM    cl2 2030   1.771   3.808   2.082
  373TCM     h1 2031   1.818   3.698   1.875
  373TCM    cl3 2032   1.888   3.924   1.840
  374TCM     c1 2033   3.268   0.521   1.060
  374TCM    cl1 2034   3.220   0.531   0.887
  374TCM    cl2 2035   3.132   0.579   1.162
  374TCM     h1 2036   3.292   0.418   1.086
  374TCM    cl3 2037   3.412   0.625   1.088
  375TCM     c1 2038   0.152   3.732   3.064
  375TCM    cl1 2039   0.222   3.570   3.092
  375TCM    cl2 2040   0.105   3.804   3.221
  375TCM     h1 2041   0.225   3.796   3.014
  375TCM    cl3 2042   0.006   3.717   2.960
  376TCM     c1 2043   2.729   2.802   4.691
  376TCM    cl1 2044   2.786   2.968   4.655
  376TCM    cl2 2045   2.558   2.808   4.745
  376TCM     h1 2046   2.736   2.740   4.601
  376TCM    cl3 2047   2.832   2.731   4.820
  377TCM     c1 2048   2.035   0.465   0.479
  377TCM    cl1 2049   1.892   0.551   0.412
  377TCM    cl2 2050   2.151   0.431   0.346
  377TCM     h1 2051   2.083   0.527   0.554
  377TCM    cl3 2052   1.981   0.311   0.554
  378TCM     c1 2053   2.953   0.373   2.256
  378TCM    cl1 2054   3.056   0.305   2.385
  378TCM    cl2 2055   2.803   0.441   2.327
  378TCM     h1 2056   3.007   0.453   2.203
  378TCM    cl3 2057   2.911   0.242   2.140
  379TCM     c1 2058   1.785   3.383   4.596
  379TCM    cl1 2059   1.678   3.428   4.733
  379TCM    cl2 2060   1.742   3.482   4.452
  379TCM     h1 2061   1.889   3.401   4.622
  379TCM    cl3 2062   1.760   3.210   4.557
  380TCM     c1 2063   0.628   2.693   0.514
  380TCM    cl1 2064   0.790   2.767   0.492
  380TCM    cl2 2065   0.607   2.648   0.686
  380TCM     h1 2066   0.551   2.764   0.485
  380TCM    cl3 2067   0.615   2.546   0.411
  381TCM     c1 2068   2.783   0.218   3.040
  381TCM    cl1 2069   2.662   0.350   3.047
  381TCM    cl2 2070   2.786   0.131   3.197
  381TCM     h1 2071   2.758   0.149   2.960
  381TCM    cl3 2072   2.945   0.290   3.010
  382TCM     c1 2073   2.023   3.031   0.945
  382TCM    cl1 2074   1.891   2.920   0.895
  382TCM    cl2 2075   1.951   3.179   1.018
  382TCM     h1 2076   2.087   2.982   1.018
  382TCM    cl3 2077   2.120   3.077   0.801
  383TCM     c1 2078   2.928   0.105   3.981
  383TCM    cl1 2079   2.961   0.273   3.928
  383TCM    cl2 2080   3.042  -0.007   3.900
  383TCM     h1 2081   2.942   0.098   4.089
  383TCM    cl3 2082   2.759   0.062   3.939
  384TCM     c1 2083   2.849   3.397   0.084
  384TCM    cl1 2084   2.990   3.507   0.073
  384TCM    cl2 2085   2.703   3.493   0.122
  384TCM     h1 2086   2.836   3.345  -0.011
  384TCM    cl3 2087   2.878   3.278   0.215
  385TCM     c1 2088   0.208   0.330   4.112
  385TCM    cl1 2089   0.117   0.456   4.203
  385TCM    cl2 2090   0.361   0.295   4.199
  385TCM     h1 2091   0.147   0.239   4.105
  385TCM    cl3 2092   0.245   0.391   3.948
  386TCM     c1 2093   2.434   2.578   3.744
  386TCM    cl1 2094   2.399   2.547   3.918
  386TCM    cl2 2095   2.288   2.543   3.646
  386TCM     h1 2096   2.463   2.682   3.731
  386TCM    cl3 2097   2.567   2.470   3.690
  387TCM     c1 2098   0.833   1.374   4.995
  387TCM    cl1 2099   0.957   1.462   4.899
  387TCM    cl2 2100   0.899   1.216   5.047
  387TCM     h1 2101   0.806   1.433   5.082
  387TCM    cl3 2102   0.687   1.348   4.893
  388TCM     c1 2103   4.664   2.968   1.862
  388TCM    cl1 2104   4.694   3.014   1.691
  388TCM    cl2 2105   4.678   3.114   1.966
  388TCM     h1 2106   4.564   2.926   1.871
  388TCM    cl3 2107   4.786   2.847   1.912
  389TCM     c1 2108   3.077   3.250   0.519
  389TCM    cl1 2109   2.997   3.089   0.506
  389TCM    cl2 2110   3.211   3.239   0.638
  389TCM     h1 2111   3.116   3.280   0.422
  389TCM    cl3 2112   2.958   3.372   0.575
  390TCM     c1 2113   2.471   4.886   1.491
  390TCM    cl1 2114   2.459   5.031   1.387
  390TCM    cl2 2115   2.309   4.810   1.505
  390TCM     h1 2116   2.542   4.815   1.447
  390TCM    cl3 2117   2.529   4.935   1.654
  391TCM     c1 2118   2.767   3.860   4.757
  391TCM    cl1 2119   2.598   3.917   4.775
  391TCM    cl2 2120   2.809   3.847   4.583
  391TCM     h1 2121   2.835   3.930   4.806
  391TCM    cl3 2122   2.780   3.698   4.833
  392TCM     c1 2123   3.860   3.818   2.688
  392TCM    cl1 2124   3.978   3.929   2.766
  392TCM    cl2 2125   3.889   3.817   2.511
  392TCM     h1 2126   3.873   3.717   2.728
  392TCM    cl3 2127   3.694   3.876   2.722
  393TCM     c1 2128   2.450   1.347   2.210
  393TCM    cl1 2129   2.299   1.428   2.157
  393TCM    cl2 2130   2.411   1.216   2.326
  393TCM     h1 2131   2.501   1.305   2.123
  393TCM    cl3 2132   2.556   1.469   2.289
  394TCM     c1 2133   0.020   2.334   0.534
  394TCM    cl1 2134   0.179   2.284   0.468
  394TCM    cl2 2135   0.038   2.375   0.707
  394TCM     h1 2136  -0.017   2.421   0.479
  394TCM    cl3 2137  -0.097   2.198   0.517
  395TCM     c1 2138   4.114   0.563   2.855
  395TCM    cl1 2139   4.163   0.425   2.751
  395TCM    cl2 2140   4.045   0.501   3.009
  395TCM     h1 2141   4.202   0.625   2.877
  395TCM    cl3 2142   3.990   0.661   2.770
  396TCM     c1 2143   4.863   2.178   0.113
  396TCM    cl1 2144   4.962   2.312   0.181
  396TCM    cl2 2145   4.868   2.187  -0.066
  396TCM     h1 2146   4.903   2.082   0.147
  396TCM    cl3 2147   4.693   2.195   0.169
  397TCM     c1 2148   3.202   1.006   1.252
  397TCM    cl1 2149   3.367   0.957   1.306
  397TCM    cl2 2150   3.170   0.937   1.090
  397TCM     h1 2151   3.128   0.969   1.323
  397TCM    cl3 2152   3.193   1.185   1.243
  398TCM     c1 2153   2.786   4.312   4.477
  398TCM    cl1 2154   2.689   4.189   4.563
  398TCM    cl2 2155   2.905   4.231   4.369
  398TCM     h1 2156   2.720   4.376   4.418
  398TCM    cl3 2157   2.874   4.411   4.599
  399TCM     c1 2158   1.466   4.999   0.621
  399TCM    cl1 2159   1.360   5.139   0.583
  399TCM    cl2 2160   1.369   4.873   0.704
  399TCM     h1 2161   1.508   4.958   0.528
  399TCM    cl3 2162   1.598   5.053   0.729
  400TCM     c1 2163   1.534   3.241   4.252
  400TCM    cl1 2164   1.555   3.145   4.102
  400TCM    cl2 2165   1.439   3.145   4.371
  400TCM     h1 2166   1.632   3.265   4.295
  400TCM    cl3 2167   1.446   3.392   4.213
  401TCM     c1 2168   1.290   2.319   2.178
  401TCM    cl1 2169   1.326   2.450   2.295
  401TCM    cl2 2170   1.118   2.268   2.196
  401TCM     h1 2171   1.306   2.356   2.077
  401TCM    cl3 2172   1.397   2.179   2.210
  402TCM     c1 2173   1.392   1.409   4.920
  402TCM    cl1 2174   1.532   1.324   4.994
  402TCM    cl2 2175   1.312   1.512   5.043
  402TCM     h1 2176   1.427   1.472   4.837
  402TCM    cl3 2177   1.275   1.288   4.858
  403TCM     c1 2178   0.475   0.327   3.156
  403TCM    cl1 2179   0.302   0.318   3.200
  403TCM    cl2 2180   0.494   0.419   3.003
  403TCM     h1 2181   0.531   0.377   3.236
  403TCM    cl3 2182   0.540   0.161   3.133
  404TCM     c1 2183   2.647   3.761   0.391
  404TCM    cl1 2184   2.803   3.685   0.437
  404TCM    cl2 2185   2.665   3.842   0.232
  404TCM     h1 2186   2.569   3.685   0.386
  404TCM    cl3 2187   2.603   3.885   0.514
  405TCM     c1 2188   0.054   1.909   0.750
  405TCM    cl1 2189   0.190   1.981   0.658
  405TCM    cl2 2190  -0.062   1.833   0.636
  405TCM     h1 2191   0.093   1.834   0.819
  405TCM    cl3 2192  -0.029   2.038   0.843
  406TCM     c1 2193   3.226   4.555   4.097
  406TCM    cl1 2194   3.337   4.695   4.099
  406TCM    cl2 2195   3.298   4.423   3.999
  406TCM     h1 2196   3.208   4.520   4.199
  406TCM    cl3 2197   3.070   4.605   4.023
  407TCM     c1 2198   0.399   3.180   3.366
  407TCM    cl1 2199   0.308   3.101   3.499
  407TCM    cl2 2200   0.462   3.054   3.255
  407TCM     h1 2201   0.332   3.247   3.310
  407TCM    cl3 2202   0.535   3.274   3.435
  408TCM     c1 2203   2.662   0.466   1.827
  408TCM    cl1 2204   2.699   0.370   1.680
  408TCM    cl2 2205   2.584   0.621   1.778
  408TCM     h1 2206   2.594   0.410   1.891
  408TCM    cl3 2207   2.813   0.502   1.916
  409TCM     c1 2208   4.852   4.961   4.277
  409TCM    cl1 2209   4.933   4.903   4.426
  409TCM    cl2 2210   4.771   4.824   4.194
  409TCM     h1 2211   4.778   5.037   4.303
  409TCM    cl3 2212   4.974   5.033   4.167
  410TCM     c1 2213   3.665   0.726   2.052
  410TCM    cl1 2214   3.753   0.814   1.923
  410TCM    cl2 2215   3.496   0.787   2.062
  410TCM     h1 2216   3.664   0.619   2.030
  410TCM    cl3 2217   3.747   0.754   2.209
  411TCM     c1 2218   2.210   4.808   2.442
  411TCM    cl1 2219   2.265   4.774   2.610
  411TCM    cl2 2220   2.193   4.652   2.355
  411TCM     h1 2221   2.114   4.860   2.444
  411TCM    cl3 2222   2.332   4.909   2.358
  412TCM     c1 2223   2.073   2.570   0.588
  412TCM    cl1 2224   2.063   2.746   0.553
  412TCM    cl2 2225   1.961   2.530   0.722
  412TCM     h1 2226   2.046   2.513   0.499
  412TCM    cl3 2227   2.241   2.528   0.637
  413TCM     c1 2228   2.127   4.606   0.438
  413TCM    cl1 2229   2.148   4.428   0.443
  413TCM    cl2 2230   2.137   4.661   0.267
  413TCM     h1 2231   2.030   4.634   0.480
  413TCM    cl3 2232   2.259   4.685   0.531
  414TCM     c1 2233   3.412   1.169   2.272
  414TCM    cl1 2234   3.517   1.035   2.328
  414TCM    cl2 2235   3.305   1.220   2.407
  414TCM     h1 2236   3.473   1.253   2.240
  414TCM    cl3 2237   3.310   1.112   2.136
  415TCM     c1 2238   3.443   4.123   0.610
  415TCM    cl1 2239   3.560   4.031   0.510
  415TCM    cl2 2240   3.466   4.081   0.783
  415TCM     h1 2241   3.458   4.230   0.595
  415TCM    cl3 2242   3.276   4.079   0.560
  416TCM     c1 2243   1.628   4.274   1.796
  416TCM    cl1 2244   1.641   4.148   1.669
  416TCM    cl2 2245   1.650   4.199   1.957
  416TCM     h1 2246   1.705   4.350   1.780
  416TCM    cl3 2247   1.466   4.350   1.787
  417TCM     c1 2248   4.823   2.959   2.818
  417TCM    cl1 2249   4.926   2.850   2.916
  417TCM    cl2 2250   4.901   2.988   2.659
  417TCM     h1 2251   4.724   2.914   2.803
  417TCM    cl3 2252   4.806   3.116   2.903
  418TCM     c1 2253   1.543   1.159   1.770
  418TCM    cl1 2254   1.515   0.983   1.792
  418TCM    cl2 2255   1.412   1.229   1.671
  418TCM     h1 2256   1.545   1.207   1.868
  418TCM    cl3 2257   1.701   1.185   1.688
  419TCM     c1 2258   0.974   4.368   0.237
  419TCM    cl1 2259   0.869   4.343   0.093
  419TCM    cl2 2260   0.927   4.249   0.362
  419TCM     h1 2261   1.079   4.354   0.209
  419TCM    cl3 2262   0.949   4.535   0.299
  420TCM     c1 2263   2.986   2.625   0.737
  420TCM    cl1 2264   2.863   2.505   0.686
  420TCM    cl2 2265   3.053   2.576   0.896
  420TCM     h1 2266   3.066   2.629   0.663
  420TCM    cl3 2267   2.909   2.787   0.751
  421TCM     c1 2268   0.724   1.956   2.569
  421TCM    cl1 2269   0.575   2.056   2.580
  421TCM    cl2 2270   0.681   1.782   2.574
  421TCM     h1 2271   0.776   1.977   2.476
  421TCM    cl3 2272   0.832   1.994   2.708
  422TCM     c1 2273   2.322   0.535   4.570
  422TCM    cl1 2274   2.372   0.370   4.622
  422TCM    cl2 2275   2.446   0.653   4.623
  422TCM     h1 2276   2.313   0.538   4.461
  422TCM    cl3 2277   2.165   0.575   4.646
  423TCM     c1 2278   0.423   4.372   3.970
  423TCM    cl1 2279   0.505   4.246   3.872
  423TCM    cl2 2280   0.484   4.369   4.138
  423TCM     h1 2281   0.443   4.470   3.925
  423TCM    cl3 2282   0.246   4.343   3.971
  424TCM     c1 2283   4.727   4.189   1.462
  424TCM    cl1 2284   4.758   4.097   1.614
  424TCM    cl2 2285   4.751   4.079   1.322
  424TCM     h1 2286   4.625   4.226   1.462
  424TCM    cl3 2287   4.842   4.327   1.451
  425TCM     c1 2288   2.422   2.273   0.238
  425TCM    cl1 2289   2.321   2.281   0.386
  425TCM    cl2 2290   2.564   2.383   0.255
  425TCM     h1 2291   2.457   2.171   0.224
  425TCM    cl3 2292   2.324   2.324   0.097
  426TCM     c1 2293   0.159   4.904   3.328
  426TCM    cl1 2294   0.103   4.957   3.166
  426TCM    cl2 2295   0.338   4.917   3.337
  426TCM     h1 2296   0.114   4.968   3.405
  426TCM    cl3 2297   0.110   4.734   3.356
  427TCM     c1 2298   3.134   2.266   2.072
  427TCM    cl1 2299   3.295   2.341   2.050
  427TCM    cl2 2300   3.045   2.352   2.202
  427TCM     h1 2301   3.077   2.272   1.979
  427TCM    cl3 2302   3.155   2.094   2.118
  428TCM     c1 2303   4.058   1.136   4.871
  428TCM    cl1 2304   4.110   1.284   4.959
  428TCM    cl2 2305   4.200   1.032   4.840
  428TCM     h1 2306   3.984   1.082   4.930
  428TCM    cl3 2307   3.984   1.185   4.714
  429TCM     c1 2308   0.948   1.793   4.212
  429TCM    cl1 2309   1.000   1.883   4.358
  429TCM    cl2 2310   0.774   1.751   4.224
  429TCM     h1 2311   0.965   1.854   4.123
  429TCM    cl3 2312   1.044   1.641   4.199
  430TCM     c1 2313   0.428   0.342   1.993
  430TCM    cl1 2314   0.374   0.248   1.850
  430TCM    cl2 2315   0.435   0.234   2.137
  430TCM     h1 2316   0.527   0.383   1.974
  430TCM    cl3 2317   0.312   0.475   2.024
  431TCM     c1 2318   3.616   0.300   0.855
  431TCM    cl1 2319   3.481   0.245   0.959
  431TCM    cl2 2320   3.552   0.412   0.729
  431TCM     h1 2321   3.690   0.353   0.916
  431TCM    cl3 2322   3.694   0.159   0.776
  432TCM     c1 2323   2.981   2.103   3.553
  432TCM    cl1 2324   3.065   2.237   3.467
  432TCM    cl2 2325   3.071   2.063   3.704
  432TCM     h1 2326   2.879   2.134   3.578
  432TCM    cl3 2327   2.977   1.960   3.447
  433TCM     c1 2328   3.467   2.937   3.556
  433TCM    cl1 2329   3.432   2.931   3.732
  433TCM    cl2 2330   3.433   2.778   3.482
  433TCM     h1 2331   3.404   3.013   3.509
  433TCM    cl3 2332   3.640   2.980   3.532
  434TCM     c1 2333   2.986   4.385   1.620
  434TCM    cl1 2334   2.834   4.467   1.669
  434TCM    cl2 2335   3.001   4.389   1.441
  434TCM     h1 2336   3.072   4.436   1.665
  434TCM    cl3 2337   2.981   4.215   1.675
  435TCM     c1 2338   0.432   1.183   4.056
  435TCM    cl1 2339   0.258   1.147   4.078
  435TCM    cl2 2340   0.479   1.143   3.887
  435TCM     h1 2341   0.450   1.290   4.074
  435TCM    cl3 2342   0.529   1.086   4.170
  436TCM     c1 2343   0.546   1.909   1.377
  436TCM    cl1 2344   0.724   1.916   1.399
  436TCM    cl2 2345   0.479   1.773   1.473
  436TCM     h1 2346   0.502   2.003   1.411
  436TCM    cl3 2347   0.510   1.885   1.203
  437TCM     c1 2348   0.025   2.752   0.953
  437TCM    cl1 2349   0.197   2.750   0.902
  437TCM    cl2 2350  -0.055   2.900   0.891
  437TCM     h1 2351  -0.026   2.663   0.914
  437TCM    cl3 2352   0.017   2.753   1.132
  438TCM     c1 2353   0.769   3.498   4.923
  438TCM    cl1 2354   0.668   3.401   5.034
  438TCM    cl2 2355   0.703   3.665   4.912
  438TCM     h1 2356   0.872   3.502   4.961
  438TCM    cl3 2357   0.768   3.424   4.760
  439TCM     c1 2358   3.356   1.375   1.613
  439TCM    cl1 2359   3.187   1.397   1.558
  439TCM    cl2 2360   3.433   1.244   1.518
  439TCM     h1 2361   3.412   1.468   1.598
  439TCM    cl3 2362   3.357   1.329   1.786
  440TCM     c1 2363   3.592   1.912   4.567
  440TCM    cl1 2364   3.578   1.773   4.455
  440TCM    cl2 2365   3.508   1.872   4.721
  440TCM     h1 2366   3.698   1.933   4.587
  440TCM    cl3 2367   3.516   2.055   4.492
  441TCM     c1 2368   0.377   3.931   4.206
  441TCM    cl1 2369   0.266   4.066   4.246
  441TCM    cl2 2370   0.422   3.939   4.033
  441TCM     h1 2371   0.467   3.939   4.267
  441TCM    cl3 2372   0.296   3.774   4.240
  442TCM     c1 2373   3.416   3.288   0.088
  442TCM    cl1 2374   3.391   3.261  -0.088
  442TCM    cl2 2375   3.260   3.268   0.175
  442TCM     h1 2376   3.489   3.215   0.125
  442TCM    cl3 2377   3.478   3.454   0.114
  443TCM     c1 2378   0.896   2.382   1.415
  443TCM    cl1 2379   0.915   2.212   1.469
  443TCM    cl2 2380   0.973   2.401   1.254
  443TCM     h1 2381   0.790   2.407   1.408
  443TCM    cl3 2382   0.976   2.491   1.532
  444TCM     c1 2383   4.364   0.180   0.197
  444TCM    cl1 2384   4.406   0.059   0.323
  444TCM    cl2 2385   4.211   0.263   0.241
  444TCM     h1 2386   4.445   0.254   0.190
  444TCM    cl3 2387   4.344   0.097   0.040
  445TCM     c1 2388   4.490   1.400   0.137
  445TCM    cl1 2389   4.480   1.280   0.004
  445TCM    cl2 2390   4.334   1.403   0.225
  445TCM     h1 2391   4.570   1.373   0.206
  445TCM    cl3 2392   4.521   1.562   0.069
  446TCM     c1 2393   2.908   0.675   3.259
  446TCM    cl1 2394   2.769   0.700   3.148
  446TCM    cl2 2395   2.849   0.669   3.428
  446TCM     h1 2396   2.958   0.581   3.234
  446TCM    cl3 2397   3.025   0.810   3.240
  447TCM     c1 2398   4.308   1.479   4.739
  447TCM    cl1 2399   4.432   1.605   4.710
  447TCM    cl2 2400   4.349   1.330   4.649
  447TCM     h1 2401   4.303   1.457   4.846
  447TCM    cl3 2402   4.148   1.540   4.685
  448TCM     c1 2403   4.919   2.109   3.507
  448TCM    cl1 2404   4.778   2.090   3.397
  448TCM    cl2 2405   4.932   2.280   3.560
  448TCM     h1 2406   4.905   2.045   3.594
  448TCM    cl3 2407   5.070   2.063   3.422
  449TCM     c1 2408   4.704   4.890   3.666
  449TCM    cl1 2409   4.642   4.721   3.661
  449TCM    cl2 2410   4.859   4.900   3.576
  449TCM     h1 2411   4.631   4.957   3.620
  449TCM    cl3 2412   4.730   4.938   3.837
  450TCM     c1 2413   3.157   0.630   3.747
  450TCM    cl1 2414   2.981   0.622   3.782
  450TCM    cl2 2415   3.183   0.645   3.570
  450TCM     h1 2416   3.200   0.716   3.797
  450TCM    cl3 2417   3.236   0.480   3.806
  451TCM     c1 2418   3.663   3.799   1.568
  451TCM    cl1 2419   3.820   3.873   1.524
  451TCM    cl2 2420   3.533   3.922   1.554
  451TCM     h1 2421   3.642   3.715   1.501
  451TCM    cl3 2422   3.671   3.741   1.737
  452TCM     c1 2423   0.552   0.156   1.358
  452TCM    cl1 2424   0.554   0.178   1.536
  452TCM    cl2 2425   0.504  -0.012   1.320
  452TCM     h1 2426   0.481   0.226   1.314
  452TCM    cl3 2427   0.716   0.187   1.292
  453TCM     c1 2428   2.180   3.688   3.592
  453TCM    cl1 2429   2.325   3.587   3.559
  453TCM    cl2 2430   2.047   3.639   3.482
  453TCM     h1 2431   2.149   3.674   3.696
  453TCM    cl3 2432   2.221   3.860   3.564
  454TCM     c1 2433   4.319   3.972   1.403
  454TCM    cl1 2434   4.458   3.894   1.486
  454TCM    cl2 2435   4.363   4.140   1.358
  454TCM     h1 2436   4.294   3.915   1.313
  454TCM    cl3 2437   4.178   3.975   1.514
  455TCM     c1 2438   3.216   4.338   4.645
  455TCM    cl1 2439   3.241   4.410   4.483
  455TCM    cl2 2440   3.371   4.342   4.736
  455TCM     h1 2441   3.141   4.396   4.699
  455TCM    cl3 2442   3.161   4.168   4.628
  456TCM     c1 2443   1.792   2.157   4.831
  456TCM    cl1 2444   1.616   2.192   4.829
  456TCM    cl2 2445   1.856   2.166   4.664
  456TCM     h1 2446   1.843   2.230   4.894
  456TCM    cl3 2447   1.820   1.992   4.897
  457TCM     c1 2448   1.613   3.369   1.846
  457TCM    cl1 2449   1.636   3.476   1.988
  457TCM    cl2 2450   1.594   3.200   1.901
  457TCM     h1 2451   1.524   3.400   1.791
  457TCM    cl3 2452   1.758   3.382   1.740
  458TCM     c1 2453   1.911   4.982   1.356
  458TCM    cl1 2454   2.072   5.035   1.297
  458TCM    cl2 2455   1.797   5.121   1.351
  458TCM     h1 2456   1.874   4.901   1.293
  458TCM    cl3 2457   1.925   4.924   1.525
  459TCM     c1 2458   3.920   4.235   3.607
  459TCM    cl1 2459   3.876   4.346   3.473
  459TCM    cl2 2460   3.870   4.310   3.763
  459TCM     h1 2461   3.868   4.140   3.595
  459TCM    cl3 2462   4.097   4.210   3.608
  460TCM     c1 2463   0.493   0.805   3.687
  460TCM    cl1 2464   0.647   0.717   3.657
  460TCM    cl2 2465   0.356   0.691   3.669
  460TCM     h1 2466   0.493   0.846   3.789
  460TCM    cl3 2467   0.477   0.939   3.569
  461TCM     c1 2468   1.469   4.396   0.510
  461TCM    cl1 2469   1.523   4.560   0.559
  461TCM    cl2 2470   1.308   4.408   0.432
  461TCM     h1 2471   1.541   4.353   0.439
  461TCM    cl3 2472   1.457   4.291   0.655
  462TCM     c1 2473   3.124   0.191   0.135
  462TCM    cl1 2474   2.959   0.257   0.106
  462TCM    cl2 2475   3.160   0.065   0.012
  462TCM     h1 2476   3.197   0.271   0.128
  462TCM    cl3 2477   3.129   0.118   0.299
  463TCM     c1 2478   3.628   0.615   3.104
  463TCM    cl1 2479   3.664   0.486   2.984
  463TCM    cl2 2480   3.726   0.588   3.252
  463TCM     h1 2481   3.652   0.713   3.062
  463TCM    cl3 2482   3.453   0.610   3.145
  464TCM     c1 2483   4.884   4.444   3.664
  464TCM    cl1 2484   4.918   4.420   3.489
  464TCM    cl2 2485   4.987   4.576   3.727
  464TCM     h1 2486   4.779   4.470   3.677
  464TCM    cl3 2487   4.919   4.292   3.753
  465TCM     c1 2488   4.189   1.736   0.192
  465TCM    cl1 2489   4.152   1.911   0.183
  465TCM    cl2 2490   4.156   1.659   0.034
  465TCM     h1 2491   4.294   1.722   0.219
  465TCM    cl3 2492   4.085   1.660   0.317
  466TCM     c1 2493   0.536   0.467   2.624
  466TCM    cl1 2494   0.714   0.467   2.647
  466TCM    cl2 2495   0.498   0.455   2.449
  466TCM     h1 2496   0.493   0.382   2.677
  466TCM    cl3 2497   0.468   0.619   2.691
  467TCM     c1 2498   0.403   1.978   2.232
  467TCM    cl1 2499   0.300   1.874   2.335
  467TCM    cl2 2500   0.342   1.972   2.063
  467TCM     h1 2501   0.400   2.080   2.269
  467TCM    cl3 2502   0.572   1.917   2.237
  468TCM     c1 2503   3.363   2.050   1.444
  468TCM    cl1 2504   3.352   2.043   1.265
  468TCM    cl2 2505   3.302   1.897   1.514
  468TCM     h1 2506   3.468   2.064   1.473
  468TCM    cl3 2507   3.265   2.188   1.504
  469TCM     c1 2508   2.528   0.758   4.185
  469TCM    cl1 2509   2.480   0.898   4.085
  469TCM    cl2 2510   2.381   0.666   4.231
  469TCM     h1 2511   2.595   0.693   4.128
  469TCM    cl3 2512   2.611   0.816   4.333
  470TCM     c1 2513   4.434   2.403   4.810
  470TCM    cl1 2514   4.396   2.565   4.877
  470TCM    cl2 2515   4.394   2.277   4.932
  470TCM     h1 2516   4.376   2.386   4.719
  470TCM    cl3 2517   4.609   2.394   4.772
  471TCM     c1 2518   3.539   0.666   2.682
  471TCM    cl1 2519   3.366   0.654   2.726
  471TCM    cl2 2520   3.620   0.786   2.789
  471TCM     h1 2521   3.587   0.569   2.693
  471TCM    cl3 2522   3.554   0.722   2.512
  472TCM     c1 2523   3.145   2.073   3.134
  472TCM    cl1 2524   3.090   1.949   3.015
  472TCM    cl2 2525   3.190   2.223   3.047
  472TCM     h1 2526   3.063   2.095   3.203
  472TCM    cl3 2527   3.287   2.012   3.225
  473TCM     c1 2528   3.582   1.518   1.241
  473TCM    cl1 2529   3.439   1.589   1.323
  473TCM    cl2 2530   3.546   1.349   1.193
  473TCM     h1 2531   3.606   1.577   1.152
  473TCM    cl3 2532   3.721   1.519   1.355
  474TCM     c1 2533   0.238   3.420   1.458
  474TCM    cl1 2534   0.061   3.406   1.436
  474TCM    cl2 2535   0.284   3.348   1.616
  474TCM     h1 2536   0.289   3.366   1.377
  474TCM    cl3 2537   0.285   3.593   1.455
  475TCM     c1 2538   2.481   3.736   4.467
  475TCM    cl1 2539   2.503   3.603   4.586
  475TCM    cl2 2540   2.346   3.841   4.519
  475TCM     h1 2541   2.573   3.795   4.460
  475TCM    cl3 2542   2.443   3.667   4.306
  476TCM     c1 2543   2.032   1.499   1.940
  476TCM    cl1 2544   1.972   1.578   2.089
  476TCM    cl2 2545   2.134   1.614   1.848
  476TCM     h1 2546   2.091   1.410   1.967
  476TCM    cl3 2547   1.891   1.450   1.841
  477TCM     c1 2548   4.632   2.580   0.246
  477TCM    cl1 2549   4.720   2.558   0.092
  477TCM    cl2 2550   4.730   2.515   0.381
  477TCM     h1 2551   4.614   2.687   0.263
  477TCM    cl3 2552   4.475   2.494   0.239
  478TCM     c1 2553   2.987   4.455   3.504
  478TCM    cl1 2554   2.831   4.531   3.460
  478TCM    cl2 2555   3.008   4.462   3.682
  478TCM     h1 2556   2.988   4.351   3.471
  478TCM    cl3 2557   3.122   4.544   3.425
  479TCM     c1 2558   0.090   3.761   0.047
  479TCM    cl1 2559   0.090   3.590  -0.010
  479TCM    cl2 2560   0.016   3.768   0.210
  479TCM     h1 2561   0.192   3.798   0.052
  479TCM    cl3 2562  -0.005   3.863  -0.066
  480TCM     c1 2563   1.456   2.557   2.991
  480TCM    cl1 2564   1.359   2.704   3.026
  480TCM    cl2 2565   1.346   2.417   2.967
  480TCM     h1 2566   1.516   2.573   2.901
  480TCM    cl3 2567   1.566   2.524   3.130
  481TCM     c1 2568   2.328   2.735   1.064
  481TCM    cl1 2569   2.217   2.735   0.923
  481TCM    cl2 2570   2.343   2.568   1.127
  481TCM     h1 2571   2.426   2.772   1.033
  481TCM    cl3 2572   2.260   2.842   1.191
  482TCM     c1 2573   4.851   3.490   3.401
  482TCM    cl1 2574   4.880   3.481   3.224
  482TCM    cl2 2575   4.691   3.418   3.439
  482TCM     h1 2576   4.929   3.435   3.454
  482TCM    cl3 2577   4.852   3.662   3.453
  483TCM     c1 2578   2.340   4.940   3.011
  483TCM    cl1 2579   2.407   4.778   2.973
  483TCM    cl2 2580   2.188   4.965   2.919
  483TCM     h1 2581   2.319   4.947   3.119
  483TCM    cl3 2582   2.458   5.066   2.965
  484TCM     c1 2583   4.949   2.641   3.975
  484TCM    cl1 2584   5.124   2.649   3.934
  484TCM    cl2 2585   4.886   2.807   3.997
  484TCM     h1 2586   4.895   2.592   3.894
  484TCM    cl3 2587   4.927   2.548   4.127
  485TCM     c1 2588   2.627   2.142   3.244
  485TCM    cl1 2589   2.638   2.146   3.423
  485TCM    cl2 2590   2.542   1.994   3.191
  485TCM     h1 2591   2.572   2.230   3.209
  485TCM    cl3 2592   2.792   2.144   3.174
  486TCM     c1 2593   1.806   0.437   3.950
  486TCM    cl1 2594   1.880   0.275   3.972
  486TCM    cl2 2595   1.755   0.501   4.109
  486TCM     h1 2596   1.879   0.505   3.905
  486TCM    cl3 2597   1.662   0.424   3.842
  487TCM     c1 2598   0.717   4.852   0.716
  487TCM    cl1 2599   0.757   4.814   0.886
  487TCM    cl2 2600   0.568   4.763   0.669
  487TCM     h1 2601   0.701   4.959   0.704
  487TCM    cl3 2602   0.853   4.799   0.610
  488TCM     c1 2603   4.048   1.054   3.382
  488TCM    cl1 2604   3.999   1.173   3.507
  488TCM    cl2 2605   3.997   0.889   3.432
  488TCM     h1 2606   4.001   1.079   3.287
  488TCM    cl3 2607   4.227   1.058   3.364
  489TCM     c1 2608   3.122   4.837   3.231
  489TCM    cl1 2609   3.216   4.752   3.105
  489TCM    cl2 2610   2.950   4.790   3.216
  489TCM     h1 2611   3.160   4.808   3.330
  489TCM    cl3 2612   3.138   5.014   3.211
  490TCM     c1 2613   2.251   2.024   2.969
  490TCM    cl1 2614   2.087   2.029   2.896
  490TCM    cl2 2615   2.309   2.191   2.998
  490TCM     h1 2616   2.247   1.969   3.063
  490TCM    cl3 2617   2.363   1.940   2.856
  491TCM     c1 2618   1.544   0.713   0.106
  491TCM    cl1 2619   1.693   0.613   0.104
  491TCM    cl2 2620   1.548   0.822   0.249
  491TCM     h1 2621   1.540   0.773   0.014
  491TCM    cl3 2622   1.401   0.606   0.116
  492TCM     c1 2623   2.226   4.396   4.119
  492TCM    cl1 2624   2.112   4.273   4.056
  492TCM    cl2 2625   2.202   4.550   4.029
  492TCM     h1 2626   2.208   4.413   4.225
  492TCM    cl3 2627   2.394   4.338   4.095
  493TCM     c1 2628   0.708   3.691   4.453
  493TCM    cl1 2629   0.687   3.771   4.294
  493TCM    cl2 2630   0.564   3.590   4.489
  493TCM     h1 2631   0.798   3.629   4.452
  493TCM    cl3 2632   0.726   3.818   4.580
  494TCM     c1 2633   0.103   2.981   1.698
  494TCM    cl1 2634   0.040   3.042   1.541
  494TCM    cl2 2635   0.051   3.092   1.829
  494TCM     h1 2636   0.064   2.881   1.717
  494TCM    cl3 2637   0.282   2.976   1.692
  495TCM     c1 2638   3.165   1.134   3.196
  495TCM    cl1 2639   3.276   1.070   3.321
  495TCM    cl2 2640   3.261   1.229   3.077
  495TCM     h1 2641   3.114   1.052   3.145
  495TCM    cl3 2642   3.045   1.242   3.273
  496TCM     c1 2643   0.291   1.328   1.883
  496TCM    cl1 2644   0.333   1.154   1.872
  496TCM    cl2 2645   0.124   1.347   1.944
  496TCM     h1 2646   0.361   1.378   1.951
  496TCM    cl3 2647   0.304   1.402   1.720
  497TCM     c1 2648   1.536   4.909   1.064
  497TCM    cl1 2649   1.481   4.739   1.043
  497TCM    cl2 2650   1.715   4.915   1.057
  497TCM     h1 2651   1.494   4.971   0.984
  497TCM    cl3 2652   1.481   4.971   1.223
  498TCM     c1 2653   2.680   2.854   3.497
  498TCM    cl1 2654   2.743   2.814   3.660
  498TCM    cl2 2655   2.736   3.019   3.450
  498TCM     h1 2656   2.717   2.781   3.425
  498TCM    cl3 2657   2.501   2.850   3.500
  499TCM     c1 2658   0.156   3.127   1.123
  499TCM    cl1 2659   0.224   3.292   1.099
  499TCM    cl2 2660  -0.012   3.140   1.183
  499TCM     h1 2661   0.157   3.073   1.028
  499TCM    cl3 2662   0.257   3.039   1.243
  500TCM     c1 2663   1.704   0.274   0.251
  500TCM    cl1 2664   1.582   0.242   0.125
  500TCM    cl2 2665   1.868   0.267   0.178
  500TCM     h1 2666   1.688   0.373   0.295
  500TCM    cl3 2667   1.692   0.149   0.379
  501TCM     c1 2668   0.962   1.593   2.760
  501TCM    cl1 2669   1.031   1.437   2.817
  501TCM    cl2 2670   1.094   1.712   2.735
  501TCM     h1 2671   0.909   1.578   2.666
  501TCM    cl3 2672   0.848   1.657   2.883
  502TCM     c1 2673   2.633   3.734   2.197
  502TCM    cl1 2674   2.654   3.567   2.133
  502TCM    cl2 2675   2.702   3.743   2.362
  502TCM     h1 2676   2.683   3.805   2.131
  502TCM    cl3 2677   2.458   3.772   2.204
  503TCM     c1 2678   1.521   0.545   2.792
  503TCM    cl1 2679   1.504   0.631   2.635
  503TCM    cl2 2680   1.381   0.587   2.897
  503TCM     h1 2681   1.524   0.437   2.775
  503TCM    cl3 2682   1.673   0.598   2.872
  504TCM     c1 2683   4.963   0.042   2.572
  504TCM    cl1 2684   4.960  -0.056   2.422
  504TCM    cl2 2685   4.869  -0.042   2.700
  504TCM     h1 2686   5.067   0.055   2.605
  504TCM    cl3 2687   4.890   0.203   2.540
  505TCM     c1 2688   2.525   3.960   3.120
  505TCM    cl1 2689   2.377   4.061   3.125
  505TCM    cl2 2690   2.640   4.027   3.000
  505TCM     h1 2691   2.571   3.958   3.219
  505TCM    cl3 2692   2.480   3.792   3.073
  506TCM     c1 2693   0.265   4.783   0.099
  506TCM    cl1 2694   0.377   4.894   0.014
  506TCM    cl2 2695   0.275   4.621   0.022
  506TCM     h1 2696   0.294   4.775   0.204
  506TCM    cl3 2697   0.097   4.844   0.087
  507TCM     c1 2698   1.272   4.127   0.011
  507TCM    cl1 2699   1.117   4.077   0.087
  507TCM    cl2 2700   1.395   4.000   0.039
  507TCM     h1 2701   1.257   4.141  -0.096
  507TCM    cl3 2702   1.326   4.282   0.085
  508TCM     c1 2703   0.482   1.739   3.282
  508TCM    cl1 2704   0.380   1.593   3.253
  508TCM    cl2 2705   0.563   1.723   3.441
  508TCM     h1 2706   0.557   1.747   3.203
  508TCM    cl3 2707   0.379   1.886   3.282
  509TCM     c1 2708   4.542   0.031   4.627
  509TCM    cl1 2709   4.549   0.200   4.686
  509TCM    cl2 2710   4.540   0.032   4.448
  509TCM     h1 2711   4.630  -0.024   4.662
  509TCM    cl3 2712   4.394  -0.048   4.689
  510TCM     c1 2713   4.144   2.404   2.338
  510TCM    cl1 2714   4.268   2.282   2.294
  510TCM    cl2 2715   4.188   2.480   2.495
  510TCM     h1 2716   4.139   2.480   2.260
  510TCM    cl3 2717   3.984   2.324   2.353
  511TCM     c1 2718   3.192   4.772   1.497
  511TCM    cl1 2719   3.273   4.615   1.530
  511TCM    cl2 2720   3.275   4.902   1.589
  511TCM     h1 2721   3.196   4.793   1.390
  511TCM    cl3 2722   3.021   4.762   1.550
  512TCM     c1 2723   0.013   0.083   0.619
  512TCM    cl1 2724   0.160   0.187   0.616
  512TCM    cl2 2725  -0.129   0.182   0.666
  512TCM     h1 2726  -0.003   0.040   0.520
  512TCM    cl3 2727   0.037  -0.047   0.740
  513TCM     c1 2728   3.837   0.137   4.994
  513TCM    cl1 2729   3.981   0.035   5.027
  513TCM    cl2 2730   3.834   0.179   4.820
  513TCM     h1 2731   3.746   0.083   5.021
  513TCM    cl3 2732   3.849   0.288   5.090
  514TCM     c1 2733   0.827   0.195   2.114
  514TCM    cl1 2734   0.780   0.332   2.220
  514TCM    cl2 2735   0.767   0.227   1.948
  514TCM     h1 2736   0.936   0.185   2.113
  514TCM    cl3 2737   0.752   0.044   2.175
  515TCM     c1 2738   2.531   0.084   4.413
  515TCM    cl1 2739   2.550   0.049   4.238
  515TCM    cl2 2740   2.672   0.019   4.502
  515TCM     h1 2741   2.526   0.193   4.428
  515TCM    cl3 2742   2.381   0.007   4.473
  516TCM     c1 2743   4.468   4.045   1.827
  516TCM    cl1 2744   4.324   3.951   1.880
  516TCM    cl2 2745   4.557   4.103   1.972
  516TCM     h1 2746   4.533   3.981   1.767
  516TCM    cl3 2747   4.414   4.185   1.729
  517TCM     c1 2748   3.144   3.675   4.777
  517TCM    cl1 2749   3.294   3.634   4.866
  517TCM    cl2 2750   3.074   3.525   4.708
  517TCM     h1 2751   3.072   3.720   4.846
  517TCM    cl3 2752   3.182   3.789   4.645
  518TCM     c1 2753   2.811   0.435   4.326
  518TCM    cl1 2754   2.643   0.451   4.386
  518TCM    cl2 2755   2.836   0.541   4.183
  518TCM     h1 2756   2.881   0.463   4.405
  518TCM    cl3 2757   2.839   0.264   4.280
  519TCM     c1 2758   3.439   3.441   1.605
  519TCM    cl1 2759   3.364   3.587   1.532
  519TCM    cl2 2760   3.441   3.459   1.783
  519TCM     h1 2761   3.382   3.353   1.577
  519TCM    cl3 2762   3.608   3.426   1.545
  520TCM     c1 2763   0.018   3.079   3.207
  520TCM    cl1 2764   0.121   3.197   3.119
  520TCM    cl2 2765  -0.025   3.148   3.367
  520TCM     h1 2766  -0.073   3.060   3.149
  520TCM    cl3 2767   0.108   2.926   3.230
  521TCM     c1 2768   1.738   3.407   2.843
  521TCM    cl1 2769   1.769   3.514   2.984
  521TCM    cl2 2770   1.618   3.484   2.734
  521TCM     h1 2771   1.832   3.391   2.789
  521TCM    cl3 2772   1.675   3.249   2.900
  522TCM     c1 2773   2.657   4.111   1.548
  522TCM    cl1 2774   2.557   3.970   1.501
  522TCM    cl2 2775   2.595   4.177   1.703
  522TCM     h1 2776   2.761   4.079   1.561
  522TCM    cl3 2777   2.648   4.236   1.420
  523TCM     c1 2778   0.199   1.465   2.753
  523TCM    cl1 2779   0.083   1.520   2.628
  523TCM    cl2 2780   0.273   1.309   2.702
  523TCM     h1 2781   0.278   1.540   2.766
  523TCM    cl3 2782   0.113   1.441   2.908
  524TCM     c1 2783   4.357   3.267   3.032
  524TCM    cl1 2784   4.401   3.180   2.881
  524TCM    cl2 2785   4.268   3.154   3.141
  524TCM     h1 2786   4.447   3.302   3.082
  524TCM    cl3 2787   4.252   3.407   2.994
  525TCM     c1 2788   2.714   0.029   2.523
  525TCM    cl1 2789   2.573  -0.022   2.620
  525TCM    cl2 2790   2.807   0.152   2.615
  525TCM     h1 2791   2.778  -0.058   2.503
  525TCM    cl3 2792   2.658   0.099   2.368
  526TCM     c1 2793   2.846   2.922   2.266
  526TCM    cl1 2794   2.747   2.949   2.119
  526TCM    cl2 2795   3.007   2.999   2.245
  526TCM     h1 2796   2.796   2.965   2.353
  526TCM    cl3 2797   2.868   2.745   2.291
  527TCM     c1 2798   1.915   3.107   4.068
  527TCM    cl1 2799   1.967   3.219   3.937
  527TCM    cl2 2800   1.902   3.198   4.222
  527TCM     h1 2801   1.818   3.064   4.042
  527TCM    cl3 2802   2.035   2.975   4.085
  528TCM     c1 2803   0.146   1.852   0.183
  528TCM    cl1 2804   0.055   1.874   0.031
  528TCM    cl2 2805   0.142   1.679   0.229
  528TCM     h1 2806   0.250   1.884   0.169
  528TCM    cl3 2807   0.071   1.950   0.313
  529TCM     c1 2808   1.992   3.163   1.917
  529TCM    cl1 2809   2.118   3.155   2.044
  529TCM    cl2 2810   1.905   3.006   1.910
  529TCM     h1 2811   1.921   3.243   1.939
  529TCM    cl3 2812   2.071   3.195   1.759
  530TCM     c1 2813   1.817   0.622   4.570
  530TCM    cl1 2814   1.694   0.687   4.457
  530TCM    cl2 2815   1.810   0.443   4.570
  530TCM     h1 2816   1.916   0.655   4.539
  530TCM    cl3 2817   1.783   0.683   4.736
  531TCM     c1 2818   0.144   4.976   3.846
  531TCM    cl1 2819   0.279   5.027   3.953
  531TCM    cl2 2820   0.211   4.909   3.695
  531TCM     h1 2821   0.083   4.901   3.897
  531TCM    cl3 2822   0.042   5.120   3.809
  532TCM     c1 2823   1.577   4.602   1.460
  532TCM    cl1 2824   1.689   4.688   1.350
  532TCM    cl2 2825   1.608   4.655   1.629
  532TCM     h1 2826   1.474   4.625   1.433
  532TCM    cl3 2827   1.606   4.426   1.446
  533TCM     c1 2828   4.853   0.601   3.957
  533TCM    cl1 2829   4.799   0.620   4.127
  533TCM    cl2 2830   4.871   0.426   3.921
  533TCM     h1 2831   4.780   0.645   3.889
  533TCM    cl3 2832   5.011   0.682   3.934
  534TCM     c1 2833   2.358   3.069   0.114
  534TCM    cl1 2834   2.219   3.076  -0.000
  534TCM    cl2 2835   2.301   3.017   0.276
  534TCM     h1 2836   2.432   2.998   0.076
  534TCM    cl3 2837   2.431   3.232   0.127
  535TCM     c1 2838   2.662   4.257   1.057
  535TCM    cl1 2839   2.826   4.325   1.086
  535TCM    cl2 2840   2.661   4.167   0.902
  535TCM     h1 2841   2.636   4.190   1.139
  535TCM    cl3 2842   2.543   4.391   1.048
  536TCM     c1 2843   1.634   0.833   3.993
  536TCM    cl1 2844   1.701   0.889   4.149
  536TCM    cl2 2845   1.768   0.785   3.885
  536TCM     h1 2846   1.567   0.747   4.010
  536TCM    cl3 2847   1.542   0.967   3.916
  537TCM     c1 2848   1.517   1.031   2.681
  537TCM    cl1 2849   1.474   0.988   2.512
  537TCM    cl2 2850   1.677   0.962   2.722
  537TCM     h1 2851   1.520   1.140   2.691
  537TCM    cl3 2852   1.393   0.964   2.792
  538TCM     c1 2853   2.077   3.095   3.567
  538TCM    cl1 2854   2.144   3.034   3.412
  538TCM    cl2 2855   2.140   3.261   3.597
  538TCM     h1 2856   1.968   3.098   3.561
  538TCM    cl3 2857   2.128   2.986   3.700
  539TCM     c1 2858   3.763   4.193   2.896
  539TCM    cl1 2859   3.861   4.161   3.043
  539TCM    cl2 2860   3.780   4.366   2.850
  539TCM     h1 2861   3.798   4.130   2.815
  539TCM    cl3 2862   3.591   4.158   2.930
  540TCM     c1 2863   2.707   0.216   0.441
  540TCM    cl1 2864   2.773   0.058   0.387
  540TCM    cl2 2865   2.839   0.337   0.442
  540TCM     h1 2866   2.628   0.248   0.373
  540TCM    cl3 2867   2.640   0.199   0.606
  541TCM     c1 2868   1.750   3.544   3.904
  541TCM    cl1 2869   1.907   3.554   3.816
  541TCM    cl2 2870   1.780   3.519   4.079
  541TCM     h1 2871   1.694   3.636   3.889
  541TCM    cl3 2872   1.655   3.405   3.841
  542TCM     c1 2873   2.123   2.183   1.204
  542TCM    cl1 2874   2.296   2.200   1.249
  542TCM    cl2 2875   2.089   2.288   1.063
  542TCM     h1 2876   2.102   2.078   1.179
  542TCM    cl3 2877   2.020   2.234   1.342
  543TCM     c1 2878   2.820   4.869   3.573
  543TCM    cl1 2879   2.993   4.906   3.546
  543TCM    cl2 2880   2.727   5.023   3.580
  543TCM     h1 2881   2.783   4.808   3.490
  543TCM    cl3 2882   2.804   4.779   3.727
  544TCM     c1 2883   2.045   1.063   1.944
  544TCM    cl1 2884   2.094   1.144   1.792
  544TCM    cl2 2885   1.884   1.122   1.994
  544TCM     h1 2886   2.041   0.954   1.929
  544TCM    cl3 2887   2.166   1.101   2.071
  545TCM     c1 2888   2.167   2.694   0.198
  545TCM    cl1 2889   2.037   2.571   0.211
  545TCM    cl2 2890   2.217   2.711   0.026
  545TCM     h1 2891   2.130   2.790   0.236
  545TCM    cl3 2892   2.308   2.642   0.295
  546TCM     c1 2893   3.482   2.373   4.325
  546TCM    cl1 2894   3.470   2.424   4.497
  546TCM    cl2 2895   3.654   2.381   4.272
  546TCM     h1 2896   3.446   2.270   4.314
  546TCM    cl3 2897   3.382   2.483   4.225
  547TCM     c1 2898   0.738   0.574   1.790
  547TCM    cl1 2899   0.589   0.524   1.704
  547TCM    cl2 2900   0.701   0.592   1.965
  547TCM     h1 2901   0.816   0.498   1.777
  547TCM    cl3 2902   0.798   0.731   1.726
  548TCM     c1 2903   0.033   2.816   3.570
  548TCM    cl1 2904   0.037   2.944   3.696
  548TCM    cl2 2905  -0.091   2.693   3.614
  548TCM     h1 2906   0.007   2.860   3.474
  548TCM    cl3 2907   0.194   2.736   3.559
  549TCM     c1 2908   4.410   4.722   0.665
  549TCM    cl1 2909   4.372   4.757   0.837
  549TCM    cl2 2910   4.531   4.841   0.605
  549TCM     h1 2911   4.451   4.621   0.656
  549TCM    cl3 2912   4.259   4.735   0.569
  550TCM     c1 2913   0.043   4.186   1.036
  550TCM    cl1 2914  -0.064   4.046   1.002
  550TCM    cl2 2915  -0.056   4.329   1.081
  550TCM     h1 2916   0.110   4.161   1.119
  550TCM    cl3 2917   0.140   4.224   0.890
  551TCM     c1 2918   2.177   1.994   3.417
  551TCM    cl1 2919   2.259   2.146   3.369
  551TCM    cl2 2920   2.300   1.868   3.450
  551TCM     h1 2921   2.117   2.011   3.506
  551TCM    cl3 2922   2.071   1.940   3.283
  552TCM     c1 2923   0.445   4.144   1.217
  552TCM    cl1 2924   0.355   4.007   1.146
  552TCM    cl2 2925   0.345   4.293   1.209
  552TCM     h1 2926   0.469   4.122   1.322
  552TCM    cl3 2927   0.598   4.169   1.126
  553TCM     c1 2928   1.437   3.941   0.398
  553TCM    cl1 2929   1.409   3.819   0.526
  553TCM    cl2 2930   1.591   4.028   0.429
  553TCM     h1 2931   1.442   3.891   0.301
  553TCM    cl3 2932   1.302   4.059   0.398
  554TCM     c1 2933   3.132   2.007   2.553
  554TCM    cl1 2934   3.208   1.908   2.424
  554TCM    cl2 2935   3.003   2.108   2.481
  554TCM     h1 2936   3.089   1.942   2.629
  554TCM    cl3 2937   3.255   2.113   2.628
  555TCM     c1 2938   1.856   2.539   2.352
  555TCM    cl1 2939   1.842   2.585   2.525
  555TCM    cl2 2940   1.742   2.405   2.317
  555TCM     h1 2941   1.832   2.625   2.289
  555TCM    cl3 2942   2.023   2.485   2.318
  556TCM     c1 2943   3.017   4.998   1.844
  556TCM    cl1 2944   2.985   5.166   1.788
  556TCM    cl2 2945   2.869   4.930   1.919
  556TCM     h1 2946   3.046   4.937   1.759
  556TCM    cl3 2947   3.150   5.002   1.965
  557TCM     c1 2948   0.866   2.481   4.342
  557TCM    cl1 2949   0.878   2.646   4.413
  557TCM    cl2 2950   0.756   2.488   4.200
  557TCM     h1 2951   0.965   2.447   4.311
  557TCM    cl3 2952   0.797   2.368   4.464
  558TCM     c1 2953   4.678   3.704   4.689
  558TCM    cl1 2954   4.846   3.640   4.686
  558TCM    cl2 2955   4.622   3.729   4.521
  558TCM     h1 2956   4.612   3.632   4.739
  558TCM    cl3 2957   4.674   3.860   4.777
  559TCM     c1 2958   0.073   1.768   3.706
  559TCM    cl1 2959   0.213   1.752   3.594
  559TCM    cl2 2960  -0.080   1.756   3.614
  559TCM     h1 2961   0.077   1.690   3.782
  559TCM    cl3 2962   0.080   1.929   3.785
  560TCM     c1 2963   4.047   2.148   2.764
  560TCM    cl1 2964   3.926   2.274   2.721
  560TCM    cl2 2965   4.165   2.131   2.631
  560TCM     h1 2966   4.098   2.176   2.856
  560TCM    cl3 2967   3.963   1.991   2.788
  561TCM     c1 2968   1.369   2.636   4.886
  561TCM    cl1 2969   1.506   2.752   4.891
  561TCM    cl2 2970   1.219   2.720   4.936
  561TCM     h1 2971   1.358   2.597   4.785
  561TCM    cl3 2972   1.402   2.500   4.998
  562TCM     c1 2973   3.569   1.850   2.980
  562TCM    cl1 2974   3.443   1.956   2.908
  562TCM    cl2 2975   3.700   1.952   3.049
  562TCM     h1 2976   3.525   1.790   3.059
  562TCM    cl3 2977   3.637   1.743   2.853
  563TCM     c1 2978   2.466   0.134   0.953
  563TCM    cl1 2979   2.561   0.228   1.072
  563TCM    cl2 2980   2.315   0.074   1.030
  563TCM     h1 2981   2.441   0.197   0.867
  563TCM    cl3 2982   2.565  -0.006   0.900
  564TCM     c1 2983   1.747   3.900   0.813
  564TCM    cl1 2984   1.862   4.038   0.810
  564TCM    cl2 2985   1.769   3.801   0.665
  564TCM     h1 2986   1.767   3.838   0.901
  564TCM    cl3 2987   1.579   3.962   0.820
  565TCM     c1 2988   4.928   3.110   4.992
  565TCM    cl1 2989   4.974   3.250   5.094
  565TCM    cl2 2990   4.752   3.082   5.007
  565TCM     h1 2991   4.954   3.130   4.888
  565TCM    cl3 2992   5.016   2.964   5.049
  566TCM     c1 2993   2.933   4.829   2.851
  566TCM    cl1 2994   3.037   4.975   2.860
  566TCM    cl2 2995   2.924   4.775   2.680
  566TCM     h1 2996   2.976   4.750   2.913
  566TCM    cl3 2997   2.769   4.870   2.909
  567TCM     c1 2998   4.463   3.766   3.637
  567TCM    cl1 2999   4.540   3.621   3.708
  567TCM    cl2 3000   4.284   3.751   3.649
  567TCM     h1 3001   4.496   3.856   3.690
  567TCM    cl3 3002   4.508   3.780   3.463
  568TCM     c1 3003   1.528   0.846   3.105
  568TCM    cl1 3004   1.658   0.970   3.095
  568TCM    cl2 3005   1.384   0.917   3.185
  568TCM     h1 3006   1.502   0.812   3.005
  568TCM    cl3 3007   1.586   0.706   3.203
  569TCM     c1 3008   3.105   2.554   4.487
  569TCM    cl1 3009   3.025   2.425   4.391
  569TCM    cl2 3010   3.114   2.504   4.659
  569TCM     h1 3011   3.205   2.572   4.449
  569TCM    cl3 3012   3.008   2.705   4.475
  570TCM     c1 3013   2.398   4.170   0.634
  570TCM    cl1 3014   2.250   4.129   0.726
  570TCM    cl2 3015   2.440   4.342   0.663
  570TCM     h1 3016   2.480   4.106   0.666
  570TCM    cl3 3017   2.368   4.144   0.459
  571TCM     c1 3018   3.244   1.902   0.065
  571TCM    cl1 3019   3.201   2.056  -0.015
  571TCM    cl2 3020   3.229   1.768  -0.053
  571TCM     h1 3021   3.347   1.907   0.103
  571TCM    cl3 3022   3.131   1.873   0.202
  572TCM     c1 3023   2.425   1.540   3.580
  572TCM    cl1 3024   2.546   1.505   3.708
  572TCM    cl2 3025   2.262   1.485   3.633
  572TCM     h1 3026   2.422   1.648   3.561
  572TCM    cl3 3027   2.470   1.453   3.430
  573TCM     c1 3028   1.186   0.768   2.556
  573TCM    cl1 3029   1.209   0.690   2.396
  573TCM    cl2 3030   1.092   0.660   2.664
  573TCM     h1 3031   1.284   0.788   2.601
  573TCM    cl3 3032   1.098   0.923   2.536
  574TCM     c1 3033   2.624   4.298   4.986
  574TCM    cl1 3034   2.496   4.180   5.029
  574TCM    cl2 3035   2.572   4.394   4.843
  574TCM     h1 3036   2.641   4.365   5.070
  574TCM    cl3 3037   2.775   4.210   4.946
  575TCM     c1 3038   2.271   4.390   1.501
  575TCM    cl1 3039   2.274   4.211   1.506
  575TCM    cl2 3040   2.354   4.447   1.353
  575TCM     h1 3041   2.167   4.424   1.500
  575TCM    cl3 3042   2.353   4.456   1.646
  576TCM     c1 3043   0.885   2.563   4.948
  576TCM    cl1 3044   0.758   2.555   5.074
  576TCM    cl2 3045   0.808   2.558   4.786
  576TCM     h1 3046   0.942   2.656   4.959
  576TCM    cl3 3047   0.995   2.423   4.966
  577TCM     c1 3048   1.636   1.411   2.087
  577TCM    cl1 3049   1.562   1.255   2.136
  577TCM    cl2 3050   1.621   1.527   2.222
  577TCM     h1 3051   1.741   1.396   2.063
  577TCM    cl3 3052   1.549   1.475   1.944
  578TCM     c1 3053   0.185   3.464   3.628
  578TCM    cl1 3054   0.133   3.627   3.680
  578TCM    cl2 3055   0.207   3.463   3.450
  578TCM     h1 3056   0.280   3.438   3.677
  578TCM    cl3 3057   0.059   3.344   3.673
  579TCM     c1 3058   0.423   0.329   3.634
  579TCM    cl1 3059   0.531   0.397   3.508
  579TCM    cl2 3060   0.493   0.176   3.695
  579TCM     h1 3061   0.413   0.401   3.716
  579TCM    cl3 3062   0.262   0.296   3.563
  580TCM     c1 3063   4.257   0.100   3.121
  580TCM    cl1 3064   4.363   0.122   3.265
  580TCM    cl2 3065   4.324   0.194   2.983
  580TCM     h1 3066   4.252  -0.006   3.095
  580TCM    cl3 3067   4.092   0.160   3.160
  581TCM     c1 3068   3.135   4.047   1.383
  581TCM    cl1 3069   3.242   4.044   1.239
  581TCM    cl2 3070   3.168   3.904   1.485
  581TCM     h1 3071   3.153   4.138   1.440
  581TCM    cl3 3072   2.963   4.044   1.331
  582TCM     c1 3073   4.469   4.222   3.569
  582TCM    cl1 3074   4.545   4.379   3.527
  582TCM    cl2 3075   4.591   4.118   3.651
  582TCM     h1 3076   4.385   4.239   3.637
  582TCM    cl3 3077   4.412   4.140   3.420
  583TCM     c1 3078   0.903   3.710   0.330
  583TCM    cl1 3079   1.062   3.785   0.365
  583TCM    cl2 3080   0.928   3.556   0.242
  583TCM     h1 3081   0.851   3.690   0.424
  583TCM    cl3 3082   0.805   3.822   0.229
  584TCM     c1 3083   0.262   2.362   0.003
  584TCM    cl1 3084   0.257   2.184   0.017
  584TCM    cl2 3085   0.339   2.407  -0.153
  584TCM     h1 3086   0.160   2.402   0.005
  584TCM    cl3 3087   0.356   2.430   0.140
  585TCM     c1 3088   1.037   0.175   2.491
  585TCM    cl1 3089   0.864   0.134   2.520
  585TCM    cl2 3090   1.053   0.352   2.467
  585TCM     h1 3091   1.097   0.144   2.576
  585TCM    cl3 3092   1.094   0.091   2.343
  586TCM     c1 3093   0.878   1.305   4.090
  586TCM    cl1 3094   0.745   1.379   4.185
  586TCM    cl2 3095   0.818   1.261   3.927
  586TCM     h1 3096   0.960   1.376   4.081
  586TCM    cl3 3097   0.934   1.156   4.174
  587TCM     c1 3098   3.713   2.777   4.212
  587TCM    cl1 3099   3.650   2.693   4.066
  587TCM    cl2 3100   3.865   2.697   4.265
  587TCM     h1 3101   3.733   2.882   4.188
  587TCM    cl3 3102   3.592   2.767   4.344
  588TCM     c1 3103   2.071   3.404   0.090
  588TCM    cl1 3104   1.938   3.330  -0.005
  588TCM    cl2 3105   2.085   3.321   0.248
  588TCM     h1 3106   2.166   3.394   0.036
  588TCM    cl3 3107   2.036   3.578   0.118
  589TCM     c1 3108   1.261   0.384   1.272
  589TCM    cl1 3109   1.272   0.241   1.379
  589TCM    cl2 3110   1.103   0.381   1.187
  589TCM     h1 3111   1.269   0.475   1.332
  589TCM    cl3 3112   1.394   0.378   1.151
  590TCM     c1 3113   0.459   3.687   0.328
  590TCM    cl1 3114   0.578   3.560   0.373
  590TCM    cl2 3115   0.306   3.661   0.417
  590TCM     h1 3116   0.500   3.785   0.354
  590TCM    cl3 3117   0.428   3.678   0.152
  591TCM     c1 3118   3.180   1.556   3.145
  591TCM    cl1 3119   3.145   1.691   3.258
  591TCM    cl2 3120   3.330   1.593   3.054
  591TCM     h1 3121   3.194   1.464   3.203
  591TCM    cl3 3122   3.044   1.535   3.030
  592TCM     c1 3123   2.596   4.690   0.234
  592TCM    cl1 3124   2.487   4.831   0.229
  592TCM    cl2 3125   2.660   4.660   0.069
  592TCM     h1 3126   2.679   4.709   0.303
  592TCM    cl3 3127   2.505   4.544   0.286
  593TCM     c1 3128   3.637   3.489   3.103
  593TCM    cl1 3129   3.783   3.437   3.193
  593TCM    cl2 3130   3.686   3.587   2.961
  593TCM     h1 3131   3.582   3.401   3.070
  593TCM    cl3 3132   3.533   3.588   3.211
  594TCM     c1 3133   2.947   3.888   0.811
  594TCM    cl1 3134   2.967   3.973   0.968
  594TCM    cl2 3135   2.910   4.007   0.682
  594TCM     h1 3136   3.039   3.835   0.787
  594TCM    cl3 3137   2.812   3.771   0.825
  595TCM     c1 3138   4.518   4.463   1.022
  595TCM    cl1 3139   4.643   4.515   0.904
  595TCM    cl2 3140   4.585   4.337   1.131
  595TCM     h1 3141   4.486   4.549   1.082
  595TCM    cl3 3142   4.377   4.396   0.933
  596TCM     c1 3143   4.371   2.981   0.001
  596TCM    cl1 3144   4.366   3.135   0.093
  596TCM    cl2 3145   4.478   2.865   0.086
  596TCM     h1 3146   4.270   2.940  -0.006
  596TCM    cl3 3147   4.434   3.012  -0.164
  597TCM     c1 3148   2.702   0.936   2.116
  597TCM    cl1 3149   2.776   0.860   1.971
  597TCM    cl2 3150   2.536   0.872   2.138
  597TCM     h1 3151   2.763   0.914   2.204
  597TCM    cl3 3152   2.694   1.113   2.090
  598TCM     c1 3153   3.213   4.531   2.732
  598TCM    cl1 3154   3.281   4.696   2.749
  598TCM    cl2 3155   3.093   4.502   2.862
  598TCM     h1 3156   3.165   4.521   2.634
  598TCM    cl3 3157   3.346   4.411   2.744
  599TCM     c1 3158   3.436   3.721   3.713
  599TCM    cl1 3159   3.550   3.640   3.825
  599TCM    cl2 3160   3.286   3.622   3.701
  599TCM     h1 3161   3.411   3.820   3.751
  599TCM    cl3 3162   3.511   3.734   3.551
  600TCM     c1 3163   4.162   0.367   4.877
  600TCM    cl1 3164   4.322   0.439   4.916
  600TCM    cl2 3165   4.179   0.255   4.738
  600TCM     h1 3166   4.124   0.312   4.964
  600TCM    cl3 3167   4.047   0.498   4.834
  601TCM     c1 3168   3.095   3.099   3.386
  601TCM    cl1 3169   3.109   3.017   3.545
  601TCM    cl2 3170   3.219   3.034   3.275
  601TCM     h1 3171   2.995   3.081   3.344
  601TCM    cl3 3172   3.120   3.275   3.408
  602TCM     c1 3173   0.611   2.548   1.786
  602TCM    cl1 3174   0.747   2.664   1.784
  602TCM    cl2 3175   0.636   2.426   1.657
  602TCM     h1 3176   0.608   2.497   1.883
  602TCM    cl3 3177   0.457   2.635   1.759
  603TCM     c1 3178   0.068   4.249   3.101
  603TCM    cl1 3179   0.186   4.340   3.001
  603TCM    cl2 3180   0.147   4.202   3.256
  603TCM     h1 3181  -0.019   4.311   3.121
  603TCM    cl3 3182   0.018   4.101   3.013
  604TCM     c1 3183   2.455   3.486   1.365
  604TCM    cl1 3184   2.575   3.353   1.373
  604TCM    cl2 3185   2.503   3.617   1.478
  604TCM     h1 3186   2.450   3.526   1.263
  604TCM    cl3 3187   2.293   3.425   1.415
  605TCM     c1 3188   0.309   1.502   2.315
  605TCM    cl1 3189   0.403   1.540   2.167
  605TCM    cl2 3190   0.407   1.545   2.459
  605TCM     h1 3191   0.216   1.559   2.316
  605TCM    cl3 3192   0.271   1.326   2.319
  606TCM     c1 3193   3.720   3.185   3.840
  606TCM    cl1 3194   3.626   3.296   3.946
  606TCM    cl2 3195   3.744   3.028   3.923
  606TCM     h1 3196   3.665   3.169   3.746
  606TCM    cl3 3197   3.880   3.258   3.803
  607TCM     c1 3198   1.777   3.363   3.323
  607TCM    cl1 3199   1.901   3.267   3.237
  607TCM    cl2 3200   1.793   3.337   3.500
  607TCM     h1 3201   1.789   3.469   3.300
  607TCM    cl3 3202   1.613   3.309   3.271
  608TCM     c1 3203   2.503   3.300   2.314
  608TCM    cl1 3204   2.374   3.176   2.321
  608TCM    cl2 3205   2.660   3.227   2.362
  608TCM     h1 3206   2.511   3.339   2.212
  608TCM    cl3 3207   2.462   3.434   2.426
  609TCM     c1 3208   1.807   2.917   0.111
  609TCM    cl1 3209   1.731   2.769   0.180
  609TCM    cl2 3210   1.882   2.877  -0.047
  609TCM     h1 3211   1.731   2.994   0.096
  609TCM    cl3 3212   1.933   2.976   0.224
  610TCM     c1 3213   4.831   0.737   2.698
  610TCM    cl1 3214   4.905   0.575   2.718
  610TCM    cl2 3215   4.813   0.773   2.523
  610TCM     h1 3216   4.733   0.739   2.746
  610TCM    cl3 3217   4.937   0.860   2.774
  611TCM     c1 3218   0.147   2.061   1.195
  611TCM    cl1 3219   0.238   2.173   1.089
  611TCM    cl2 3220   0.218   2.064   1.359
  611TCM     h1 3221   0.042   2.092   1.200
  611TCM    cl3 3222   0.157   1.895   1.127
  612TCM     c1 3223   3.033   3.834   0.200
  612TCM    cl1 3224   3.202   3.774   0.184
  612TCM    cl2 3225   2.979   3.903   0.044
  612TCM     h1 3226   2.968   3.751   0.229
  612TCM    cl3 3227   3.027   3.961   0.326
  613TCM     c1 3228   2.745   4.009   3.499
  613TCM    cl1 3229   2.815   4.149   3.587
  613TCM    cl2 3230   2.820   4.000   3.336
  613TCM     h1 3231   2.765   3.917   3.554
  613TCM    cl3 3232   2.568   4.032   3.482
  614TCM     c1 3233   2.001   4.502   1.766
  614TCM    cl1 3234   1.996   4.323   1.747
  614TCM    cl2 3235   1.870   4.553   1.879
  614TCM     h1 3236   2.098   4.533   1.806
  614TCM    cl3 3237   1.974   4.578   1.606
  615TCM     c1 3238   1.458   1.628   0.576
  615TCM    cl1 3239   1.344   1.754   0.634
  615TCM    cl2 3240   1.620   1.701   0.553
  615TCM     h1 3241   1.464   1.547   0.649
  615TCM    cl3 3242   1.400   1.563   0.419
  616TCM     c1 3243   0.519   2.771   4.293
  616TCM    cl1 3244   0.469   2.942   4.313
  616TCM    cl2 3245   0.449   2.706   4.141
  616TCM     h1 3246   0.628   2.765   4.288
  616TCM    cl3 3247   0.460   2.675   4.432
  617TCM     c1 3248   0.380   1.561   4.386
  617TCM    cl1 3249   0.435   1.727   4.348
  617TCM    cl2 3250   0.517   1.465   4.451
  617TCM     h1 3251   0.300   1.565   4.461
  617TCM    cl3 3252   0.318   1.483   4.237
  618TCM     c1 3253   0.130   2.721   0.465
  618TCM    cl1 3254  -0.004   2.715   0.583
  618TCM    cl2 3255   0.076   2.651   0.309
  618TCM     h1 3256   0.161   2.825   0.450
  618TCM    cl3 3257   0.267   2.625   0.529
  619TCM     c1 3258   2.190   4.196   4.595
  619TCM    cl1 3259   2.219   4.182   4.419
  619TCM    cl2 3260   2.342   4.165   4.685
  619TCM     h1 3261   2.154   4.296   4.619
  619TCM    cl3 3262   2.066   4.075   4.644
  620TCM     c1 3263   3.092   3.406   3.064
  620TCM    cl1 3264   3.066   3.504   2.916
  620TCM    cl2 3265   3.265   3.359   3.075
  620TCM     h1 3266   3.065   3.466   3.152
  620TCM    cl3 3267   2.989   3.259   3.058
  621TCM     c1 3268   2.891   4.280   0.304
  621TCM    cl1 3269   2.979   4.303   0.458
  621TCM    cl2 3270   2.893   4.435   0.212
  621TCM     h1 3271   2.940   4.203   0.244
  621TCM    cl3 3272   2.721   4.233   0.337
  622TCM     c1 3273   3.457   4.482   0.285
  622TCM    cl1 3274   3.461   4.459   0.107
  622TCM    cl2 3275   3.587   4.383   0.361
  622TCM     h1 3276   3.472   4.587   0.309
  622TCM    cl3 3277   3.298   4.427   0.348
  623TCM     c1 3278   2.406   3.702   0.851
  623TCM    cl1 3279   2.464   3.871   0.852
  623TCM    cl2 3280   2.434   3.629   1.013
  623TCM     h1 3281   2.299   3.700   0.828
  623TCM    cl3 3282   2.496   3.607   0.728
  624TCM     c1 3283   3.888   3.702   3.557
  624TCM    cl1 3284   3.987   3.606   3.442
  624TCM    cl2 3285   3.942   3.873   3.553
  624TCM     h1 3286   3.783   3.695   3.528
  624TCM    cl3 3287   3.909   3.637   3.723
  625TCM     c1 3288   0.276   4.689   4.163
  625TCM    cl1 3289   0.122   4.681   4.072
  625TCM    cl2 3290   0.267   4.823   4.283
  625TCM     h1 3291   0.294   4.595   4.216
  625TCM    cl3 3292   0.411   4.720   4.048
  626TCM     c1 3293   4.141   0.142   3.553
  626TCM    cl1 3294   4.296   0.143   3.644
  626TCM    cl2 3295   4.014   0.222   3.652
  626TCM     h1 3296   4.153   0.195   3.459
  626TCM    cl3 3297   4.093  -0.028   3.519
  627TCM     c1 3298   2.524   2.564   3.147
  627TCM    cl1 3299   2.630   2.706   3.170
  627TCM    cl2 3300   2.492   2.486   3.306
  627TCM     h1 3301   2.429   2.595   3.102
  627TCM    cl3 3302   2.605   2.446   3.038
  628TCM     c1 3303   0.073   4.410   2.559
  628TCM    cl1 3304   0.018   4.578   2.528
  628TCM    cl2 3305  -0.030   4.335   2.685
  628TCM     h1 3306   0.065   4.352   2.466
  628TCM    cl3 3307   0.244   4.412   2.613
  629TCM     c1 3308   2.272   0.570   1.941
  629TCM    cl1 3309   2.121   0.477   1.964
  629TCM    cl2 3310   2.387   0.530   2.073
  629TCM     h1 3311   2.316   0.545   1.845
  629TCM    cl3 3312   2.234   0.745   1.945
  630TCM     c1 3313   0.280   2.386   2.784
  630TCM    cl1 3314   0.275   2.351   2.608
  630TCM    cl2 3315   0.360   2.249   2.869
  630TCM     h1 3316   0.337   2.478   2.802
  630TCM    cl3 3317   0.114   2.406   2.847
  631TCM     c1 3318   1.187   4.048   0.754
  631TCM    cl1 3319   1.042   4.059   0.649
  631TCM    cl2 3320   1.194   3.885   0.828
  631TCM     h1 3321   1.277   4.066   0.695
  631TCM    cl3 3322   1.174   4.172   0.883
  632TCM     c1 3323   2.530   3.225   0.508
  632TCM    cl1 3324   2.599   3.378   0.445
  632TCM    cl2 3325   2.373   3.258   0.588
  632TCM     h1 3326   2.514   3.155   0.425
  632TCM    cl3 3327   2.644   3.153   0.626
  633TCM     c1 3328   0.360   0.110   0.925
  633TCM    cl1 3329   0.339   0.210   1.072
  633TCM    cl2 3330   0.347  -0.064   0.969
  633TCM     h1 3331   0.283   0.135   0.852
  633TCM    cl3 3332   0.522   0.141   0.855
  634TCM     c1 3333   4.960   2.060   3.055
  634TCM    cl1 3334   4.899   2.226   3.088
  634TCM    cl2 3335   5.033   2.055   2.891
  634TCM     h1 3336   5.035   2.033   3.130
  634TCM    cl3 3337   4.823   1.944   3.061
  635TCM     c1 3338   2.553   0.974   3.343
  635TCM    cl1 3339   2.518   0.960   3.168
  635TCM    cl2 3340   2.725   1.018   3.366
  635TCM     h1 3341   2.490   1.052   3.386
  635TCM    cl3 3342   2.518   0.818   3.425
  636TCM     c1 3343   0.254   0.821   2.071
  636TCM    cl1 3344   0.194   0.962   2.164
  636TCM    cl2 3345   0.431   0.837   2.046
  636TCM     h1 3346   0.232   0.729   2.126
  636TCM    cl3 3347   0.173   0.816   1.911
  637TCM     c1 3348   3.900   0.284   4.405
  637TCM    cl1 3349   3.835   0.394   4.531
  637TCM    cl2 3350   4.072   0.324   4.376
  637TCM     h1 3351   3.891   0.180   4.438
  637TCM    cl3 3352   3.806   0.307   4.254
  638TCM     c1 3353   0.031   0.856   4.911
  638TCM    cl1 3354  -0.016   0.765   4.764
  638TCM    cl2 3355   0.209   0.877   4.914
  638TCM     h1 3356  -0.018   0.954   4.910
  638TCM    cl3 3357  -0.022   0.764   5.056
  639TCM     c1 3358   2.729   0.743   1.314
  639TCM    cl1 3359   2.872   0.846   1.280
  639TCM    cl2 3360   2.641   0.811   1.454
  639TCM     h1 3361   2.663   0.741   1.226
  639TCM    cl3 3362   2.784   0.576   1.350
  640TCM     c1 3363   1.869   1.172   3.784
  640TCM    cl1 3364   1.882   1.159   3.962
  640TCM    cl2 3365   1.970   1.044   3.708
  640TCM     h1 3366   1.765   1.160   3.753
  640TCM    cl3 3367   1.929   1.333   3.731
   5.00000   5.00000   5.00000
