FOO
 3367
    1MOP     C1    1   1.090   0.343   0.058
    1MOP     O2    2   1.128   0.254   0.133
    1MOP     C3    3   1.040   0.470   0.117
    1MOP     C4    4   0.936   0.543   0.054
    1MOP     C5    5   0.886   0.661   0.113
    1MOP     C6    6   0.938   0.708   0.236
    1MOP     C7    7   0.884   0.832   0.300
    1MOP     C8    8   0.744   0.859   0.309
    1MOP     C9    9   0.699   0.979   0.369
    1MOP    C10   10   0.789   1.072   0.422
    1MOP    O11   11   0.735   1.186   0.482
    1MOP    C12   12   0.826   1.277   0.548
    1MOP    C13   13   0.928   1.046   0.413
    1MOP    C14   14   0.974   0.926   0.354
    1MOP    C15   15   0.641   0.764   0.261
    1MOP    C16   16   0.627   0.637   0.321
    1MOP    C17   17   0.526   0.550   0.279
    1MOP    C18   18   0.440   0.587   0.173
    1MOP    C19   19   0.455   0.712   0.108
    1MOP    C20   20   0.557   0.799   0.153
    1MOP    C21   21   0.379   0.743  -0.022
    1MOP    N22   22   0.359   0.885  -0.060
    1MOP    C23   23   0.242   0.670  -0.037
    1MOP    C24   24   1.042   0.636   0.298
    1MOP    C25   25   1.091   0.518   0.240
    1MOP    H26   26   0.892   0.507  -0.039
    1MOP    H27   27   0.808   0.716   0.061
    1MOP    H28   28   0.593   0.998   0.376
    1MOP    H29   29   0.768   1.357   0.594
    1MOP    H30   30   0.895   1.321   0.475
    1MOP    H31   31   0.882   1.225   0.626
    1MOP    H32   32   1.002   1.116   0.450
    1MOP    H33   33   1.082   0.910   0.347
    1MOP    H34   34   0.694   0.607   0.402
    1MOP    H35   35   0.515   0.453   0.327
    1MOP    H36   36   0.365   0.515   0.141
    1MOP    H37   37   0.575   0.894   0.103
    1MOP    H38   38   0.441   0.701  -0.101
    1MOP    H39   39   0.342   0.904  -0.159
    1MOP    H40   40   0.191   0.709  -0.126
    1MOP    H41   41   0.180   0.686   0.051
    1MOP    H42   42   0.260   0.563  -0.051
    1MOP    H43   43   1.082   0.669   0.394
    1MOP    H44   44   1.169   0.462   0.292
    2MOP    C45   45   0.337   1.000   0.013
    2MOP    O46   46   0.317   1.099  -0.056
    2MOP    C47   47   0.324   1.013   0.160
    2MOP    C48   48   0.241   0.928   0.236
    2MOP    C49   49   0.219   0.953   0.373
    2MOP    C50   50   0.277   1.066   0.436
    2MOP    C51   51   0.243   1.099   0.577
    2MOP    C52   52   0.243   1.001   0.680
    2MOP    C53   53   0.200   1.038   0.810
    2MOP    C54   54   0.161   1.169   0.840
    2MOP    O55   55   0.128   1.197   0.973
    2MOP    C56   56   0.090   1.333   1.006
    2MOP    C57   57   0.162   1.266   0.737
    2MOP    C58   58   0.202   1.231   0.607
    2MOP    C59   59   0.300   0.865   0.661
    2MOP    C60   60   0.434   0.851   0.618
    2MOP    C61   61   0.493   0.724   0.611
    2MOP    C62   62   0.418   0.609   0.642
    2MOP    C63   63   0.283   0.621   0.684
    2MOP    C64   64   0.225   0.750   0.693
    2MOP    C65   65   0.197   0.495   0.707
    2MOP    N66   66   0.083   0.505   0.800
    2MOP    C67   67   0.274   0.366   0.744
    2MOP    C68   68   0.361   1.151   0.361
    2MOP    C69   69   0.385   1.125   0.224
    2MOP    H70   70   0.190   0.845   0.190
    2MOP    H71   71   0.152   0.888   0.429
    2MOP    H72   72   0.204   0.964   0.890
    2MOP    H73   73   0.068   1.336   1.113
    2MOP    H74   74  -0.000   1.361   0.951
    2MOP    H75   75   0.172   1.401   0.984
    2MOP    H76   76   0.131   1.369   0.755
    2MOP    H77   77   0.200   1.306   0.528
    2MOP    H78   78   0.492   0.940   0.593
    2MOP    H79   79   0.597   0.716   0.582
    2MOP    H80   80   0.467   0.513   0.632
    2MOP    H81   81   0.122   0.762   0.723
    2MOP    H82   82   0.152   0.474   0.609
    2MOP    H83   83   0.008   0.438   0.789
    2MOP    H84   84   0.330   0.380   0.836
    2MOP    H85   85   0.342   0.338   0.663
    2MOP    H86   86   0.203   0.284   0.758
    2MOP    H87   87   0.406   1.238   0.407
    2MOP    H88   88   0.447   1.193   0.167
    3MOP    C89   89   0.063   0.572   0.920
    3MOP    O90   90  -0.048   0.553   0.966
    3MOP    C91   91   0.157   0.662   0.995
    3MOP    C92   92   0.297   0.644   0.997
    3MOP    C93   93   0.379   0.727   1.077
    3MOP    C94   94   0.323   0.828   1.158
    3MOP    C95   95   0.407   0.909   1.250
    3MOP    C96   96   0.528   0.972   1.209
    3MOP    C97   97   0.602   1.047   1.302
    3MOP    C98   98   0.560   1.062   1.435
    3MOP    O99   99   0.638   1.142   1.517
    3MOP   C100  100   0.588   1.169   1.650
    3MOP   C101  101   0.442   0.996   1.477
    3MOP   C102  102   0.366   0.920   1.385
    3MOP   C103  103   0.573   0.975   1.069
    3MOP   C104  104   0.502   1.052   0.975
    3MOP   C105  105   0.550   1.065   0.844
    3MOP   C106  106   0.669   0.999   0.805
    3MOP   C107  107   0.739   0.918   0.898
    3MOP   C108  108   0.691   0.909   1.030
    3MOP   C109  109   0.859   0.833   0.856
    3MOP   N110  110   0.984   0.849   0.933
    3MOP   C111  111   0.897   0.842   0.706
    3MOP   C112  112   0.183   0.846   1.156
    3MOP   C113  113   0.101   0.765   1.076
    3MOP   H114  114   0.345   0.566   0.939
    3MOP   H115  115   0.487   0.710   1.078
    3MOP   H116  116   0.691   1.099   1.269
    3MOP   H117  117   0.658   1.238   1.699
    3MOP   H118  118   0.584   1.075   1.707
    3MOP   H119  119   0.490   1.215   1.643
    3MOP   H120  120   0.407   1.001   1.580
    3MOP   H121  121   0.277   0.869   1.420
    3MOP   H122  122   0.410   1.103   1.005
    3MOP   H123  123   0.496   1.124   0.770
    3MOP   H124  124   0.701   1.011   0.702
    3MOP   H125  125   0.744   0.848   1.103
    3MOP   H126  126   0.827   0.729   0.869
    3MOP   H127  127   1.057   0.779   0.919
    3MOP   H128  128   0.933   0.943   0.684
    3MOP   H129  129   0.811   0.819   0.644
    3MOP   H130  130   0.976   0.770   0.685
    3MOP   H131  131   0.138   0.924   1.217
    3MOP   H132  132  -0.006   0.780   1.079
    4MOP   C133  133   1.033   0.954   1.006
    4MOP   O134  134   1.151   0.942   1.035
    4MOP   C135  135   0.966   1.084   1.034
    4MOP   C136  136   0.935   1.175   0.931
    4MOP   C137  137   0.892   1.306   0.961
    4MOP   C138  138   0.879   1.348   1.096
    4MOP   C139  139   0.854   1.492   1.131
    4MOP   C140  140   0.768   1.579   1.057
    4MOP   C141  141   0.762   1.716   1.091
    4MOP   C142  142   0.836   1.769   1.198
    4MOP   O143  143   0.822   1.905   1.222
    4MOP   C144  144   0.890   1.961   1.337
    4MOP   C145  145   0.918   1.683   1.274
    4MOP   C146  146   0.927   1.547   1.240
    4MOP   C147  147   0.677   1.534   0.948
    4MOP   C148  148   0.588   1.425   0.967
    4MOP   C149  149   0.494   1.394   0.867
    4MOP   C150  150   0.490   1.467   0.746
    4MOP   C151  151   0.579   1.574   0.726
    4MOP   C152  152   0.670   1.609   0.828
    4MOP   C153  153   0.576   1.654   0.594
    4MOP   N154  154   0.702   1.636   0.519
    4MOP   C155  155   0.538   1.802   0.620
    4MOP   C156  156   0.906   1.254   1.199
    4MOP   C157  157   0.949   1.124   1.169
    4MOP   H158  158   0.949   1.145   0.827
    4MOP   H159  159   0.876   1.376   0.880
    4MOP   H160  160   0.697   1.784   1.037
    4MOP   H161  161   0.866   2.067   1.342
    4MOP   H162  162   0.998   1.949   1.325
    4MOP   H163  163   0.856   1.912   1.428
    4MOP   H164  164   0.979   1.719   1.356
    4MOP   H165  165   0.995   1.485   1.297
    4MOP   H166  166   0.591   1.368   1.059
    4MOP   H167  167   0.423   1.313   0.883
    4MOP   H168  168   0.418   1.440   0.670
    4MOP   H169  169   0.737   1.694   0.816
    4MOP   H170  170   0.496   1.612   0.532
    4MOP   H171  171   0.710   1.552   0.463
    4MOP   H172  172   0.608   1.847   0.691
    4MOP   H173  173   0.438   1.806   0.662
    4MOP   H174  174   0.541   1.856   0.526
    4MOP   H175  175   0.895   1.282   1.303
    4MOP   H176  176   0.974   1.055   1.249
    5CAP   C177  177   1.162   0.424  -0.155
    5CAP   O178  178   1.092   0.323  -0.077
    5CAP   H179  179   1.111   0.520  -0.148
    5CAP   H180  180   1.164   0.392  -0.259
    5CAP   H181  181   1.265   0.433  -0.118
    6CAP   C182  182   1.150   1.509   0.518
    6CAP   C183  183   1.064   1.626   0.571
    6CAP   C184  184   1.070   1.619   0.726
    6CAP   C185  185   1.126   1.756   0.514
    6CAP   O186  186   0.930   1.598   0.518
    6CAP   C187  187   0.827   1.678   0.557
    6CAP   O188  188   0.839   1.790   0.607
    6CAP   H189  189   1.253   1.518   0.556
    6CAP   H190  190   1.108   1.414   0.552
    6CAP   H191  191   1.152   1.511   0.409
    6CAP   H192  192   1.030   1.523   0.760
    6CAP   H193  193   1.011   1.700   0.770
    6CAP   H194  194   1.174   1.629   0.759
    6CAP   H195  195   1.117   1.756   0.405
    6CAP   H196  196   1.076   1.844   0.555
    6CAP   H197  197   1.232   1.760   0.541
    7TCM     c1  198   4.515   0.538   2.730
    7TCM    cl1  199   4.561   0.537   2.556
    7TCM    cl2  200   4.489   0.707   2.785
    7TCM     h1  201   4.424   0.480   2.744
    7TCM    cl3  202   4.648   0.465   2.826
    8TCM     c1  203   1.618   2.607   4.587
    8TCM    cl1  204   1.617   2.428   4.582
    8TCM    cl2  205   1.558   2.662   4.747
    8TCM     h1  206   1.720   2.643   4.571
    8TCM    cl3  207   1.511   2.670   4.457
    9TCM     c1  208   1.457   2.168   1.197
    9TCM    cl1  209   1.493   2.010   1.119
    9TCM    cl2  210   1.543   2.298   1.108
    9TCM     h1  211   1.350   2.187   1.195
    9TCM    cl3  212   1.513   2.165   1.368
   10TCM     c1  213   2.769   0.467   3.749
   10TCM    cl1  214   2.779   0.477   3.570
   10TCM    cl2  215   2.647   0.344   3.793
   10TCM     h1  216   2.866   0.440   3.790
   10TCM    cl3  217   2.717   0.626   3.814
   11TCM     c1  218   2.225   1.806   2.851
   11TCM    cl1  219   2.050   1.831   2.886
   11TCM    cl2  220   2.266   1.633   2.870
   11TCM     h1  221   2.246   1.838   2.748
   11TCM    cl3  222   2.323   1.903   2.965
   12TCM     c1  223   4.968   1.330   0.237
   12TCM    cl1  224   5.121   1.340   0.144
   12TCM    cl2  225   4.977   1.439   0.379
   12TCM     h1  226   4.884   1.360   0.173
   12TCM    cl3  227   4.943   1.161   0.295
   13TCM     c1  228   2.858   0.749   2.685
   13TCM    cl1  229   2.701   0.814   2.626
   13TCM    cl2  230   2.854   0.744   2.864
   13TCM     h1  231   2.874   0.649   2.645
   13TCM    cl3  232   2.989   0.858   2.630
   14TCM     c1  233   3.671   4.126   4.420
   14TCM    cl1  234   3.640   4.254   4.298
   14TCM    cl2  235   3.624   4.185   4.583
   14TCM     h1  236   3.612   4.037   4.396
   14TCM    cl3  237   3.845   4.083   4.420
   15TCM     c1  238   0.422   4.096   3.397
   15TCM    cl1  239   0.314   3.977   3.317
   15TCM    cl2  240   0.547   4.148   3.280
   15TCM     h1  241   0.363   4.182   3.429
   15TCM    cl3  242   0.500   4.019   3.539
   16TCM     c1  243   3.899   1.203   2.596
   16TCM    cl1  244   4.039   1.267   2.687
   16TCM    cl2  245   3.959   1.098   2.464
   16TCM     h1  246   3.834   1.146   2.663
   16TCM    cl3  247   3.805   1.339   2.524
   17TCM     c1  248   0.133   3.104   4.303
   17TCM    cl1  249  -0.036   3.125   4.359
   17TCM    cl2  250   0.188   2.938   4.343
   17TCM     h1  251   0.137   3.118   4.194
   17TCM    cl3  252   0.237   3.224   4.384
   18TCM     c1  253   0.511   2.524   1.335
   18TCM    cl1  254   0.441   2.623   1.467
   18TCM    cl2  255   0.382   2.422   1.263
   18TCM     h1  256   0.554   2.589   1.259
   18TCM    cl3  257   0.639   2.417   1.401
   19TCM     c1  258   1.395   1.814   2.240
   19TCM    cl1  259   1.478   1.885   2.382
   19TCM    cl2  260   1.219   1.802   2.271
   19TCM     h1  261   1.413   1.876   2.152
   19TCM    cl3  262   1.461   1.649   2.211
   20TCM     c1  263   4.314   4.388   0.512
   20TCM    cl1  264   4.331   4.330   0.681
   20TCM    cl2  265   4.191   4.289   0.427
   20TCM     h1  266   4.282   4.493   0.513
   20TCM    cl3  267   4.471   4.373   0.428
   21TCM     c1  268   2.477   0.037   3.840
   21TCM    cl1  269   2.489  -0.139   3.878
   21TCM    cl2  270   2.329   0.105   3.916
   21TCM     h1  271   2.565   0.088   3.880
   21TCM    cl3  272   2.468   0.061   3.662
   22TCM     c1  273   2.823   1.719   2.836
   22TCM    cl1  274   2.838   1.548   2.787
   22TCM    cl2  275   2.659   1.778   2.796
   22TCM     h1  276   2.841   1.729   2.944
   22TCM    cl3  277   2.943   1.817   2.746
   23TCM     c1  278   0.765   3.023   4.745
   23TCM    cl1  279   0.941   3.014   4.777
   23TCM    cl2  280   0.736   3.028   4.568
   23TCM     h1  281   0.715   2.936   4.788
   23TCM    cl3  282   0.700   3.172   4.821
   24TCM     c1  283   4.522   3.471   2.121
   24TCM    cl1  284   4.548   3.507   1.947
   24TCM    cl2  285   4.564   3.299   2.153
   24TCM     h1  286   4.586   3.536   2.182
   24TCM    cl3  287   4.350   3.499   2.163
   25TCM     c1  288   0.445   3.748   4.759
   25TCM    cl1  289   0.290   3.722   4.673
   25TCM    cl2  290   0.412   3.788   4.931
   25TCM     h1  291   0.506   3.657   4.753
   25TCM    cl3  292   0.533   3.885   4.684
   26TCM     c1  293   2.323   1.184   3.248
   26TCM    cl1  294   2.356   1.309   3.123
   26TCM    cl2  295   2.468   1.080   3.266
   26TCM     h1  296   2.300   1.232   3.343
   26TCM    cl3  297   2.183   1.084   3.197
   27TCM     c1  298   1.298   2.038   2.712
   27TCM    cl1  299   1.423   1.920   2.763
   27TCM    cl2  300   1.181   1.959   2.601
   27TCM     h1  301   1.245   2.076   2.800
   27TCM    cl3  302   1.378   2.174   2.627
   28TCM     c1  303   3.107   4.623   4.682
   28TCM    cl1  304   3.192   4.546   4.544
   28TCM    cl2  305   2.983   4.510   4.746
   28TCM     h1  306   3.180   4.646   4.760
   28TCM    cl3  307   3.030   4.775   4.626
   29TCM     c1  308   2.705   2.419   2.360
   29TCM    cl1  309   2.623   2.576   2.391
   29TCM    cl2  310   2.872   2.449   2.300
   29TCM     h1  311   2.709   2.360   2.452
   29TCM    cl3  312   2.614   2.329   2.235
   30TCM     c1  313   3.057   2.011   0.021
   30TCM    cl1  314   3.165   2.103  -0.089
   30TCM    cl2  315   2.916   1.950  -0.072
   30TCM     h1  316   3.112   1.927   0.065
   30TCM    cl3  317   2.999   2.120   0.151
   31TCM     c1  318   0.020   0.280   1.126
   31TCM    cl1  319   0.193   0.320   1.151
   31TCM    cl2  320  -0.036   0.169   1.255
   31TCM     h1  321  -0.040   0.372   1.128
   31TCM    cl3  322  -0.000   0.200   0.966
   32TCM     c1  323   3.331   0.761   1.220
   32TCM    cl1  324   3.324   0.774   1.041
   32TCM    cl2  325   3.256   0.907   1.293
   32TCM     h1  326   3.277   0.671   1.252
   32TCM    cl3  327   3.502   0.751   1.271
   33TCM     c1  328   3.824   3.427   1.933
   33TCM    cl1  329   3.775   3.271   1.861
   33TCM    cl2  330   3.885   3.401   2.100
   33TCM     h1  331   3.903   3.472   1.872
   33TCM    cl3  332   3.682   3.538   1.938
   34TCM     c1  333   1.225   0.858   3.679
   34TCM    cl1  334   1.076   0.876   3.581
   34TCM    cl2  335   1.230   0.987   3.803
   34TCM     h1  336   1.226   0.760   3.727
   34TCM    cl3  337   1.368   0.873   3.572
   35TCM     c1  338   0.843   0.057   4.132
   35TCM    cl1  339   0.828   0.192   4.249
   35TCM    cl2  340   0.980  -0.048   4.183
   35TCM     h1  341   0.750  -0.001   4.131
   35TCM    cl3  342   0.875   0.122   3.968
   36TCM     c1  343   2.791   3.550   3.319
   36TCM    cl1  344   2.874   3.432   3.426
   36TCM    cl2  345   2.907   3.677   3.270
   36TCM     h1  346   2.752   3.499   3.230
   36TCM    cl3  347   2.656   3.625   3.409
   37TCM     c1  348   0.264   1.100   2.487
   37TCM    cl1  349   0.192   0.935   2.480
   37TCM    cl2  350   0.441   1.090   2.458
   37TCM     h1  351   0.218   1.162   2.410
   37TCM    cl3  352   0.234   1.171   2.649
   38TCM     c1  353   4.899   2.030   2.091
   38TCM    cl1  354   4.980   2.052   2.249
   38TCM    cl2  355   5.008   2.086   1.960
   38TCM     h1  356   4.875   1.925   2.076
   38TCM    cl3  357   4.749   2.128   2.087
   39TCM     c1  358   1.363   3.512   2.136
   39TCM    cl1  359   1.463   3.419   2.253
   39TCM    cl2  360   1.374   3.434   1.974
   39TCM     h1  361   1.259   3.513   2.169
   39TCM    cl3  362   1.424   3.680   2.125
   40TCM     c1  363   3.749   1.438   2.050
   40TCM    cl1  364   3.690   1.269   2.034
   40TCM    cl2  365   3.686   1.509   2.202
   40TCM     h1  366   3.858   1.438   2.052
   40TCM    cl3  367   3.691   1.534   1.911
   41TCM     c1  368   0.866   1.893   1.985
   41TCM    cl1  369   0.895   1.937   2.156
   41TCM    cl2  370   0.979   1.985   1.880
   41TCM     h1  371   0.882   1.786   1.971
   41TCM    cl3  372   0.696   1.934   1.942
   42TCM     c1  373   2.338   3.730   1.783
   42TCM    cl1  374   2.427   3.818   1.654
   42TCM    cl2  375   2.221   3.617   1.707
   42TCM     h1  376   2.409   3.674   1.844
   42TCM    cl3  377   2.250   3.848   1.886
   43TCM     c1  378   1.197   4.249   0.749
   43TCM    cl1  379   1.153   4.165   0.596
   43TCM    cl2  380   1.350   4.182   0.813
   43TCM     h1  381   1.209   4.356   0.729
   43TCM    cl3  382   1.067   4.223   0.870
   44TCM     c1  383   0.325   1.305   4.702
   44TCM    cl1  384   0.178   1.392   4.759
   44TCM    cl2  385   0.470   1.387   4.766
   44TCM     h1  386   0.322   1.202   4.738
   44TCM    cl3  387   0.330   1.306   4.523
   45TCM     c1  388   1.138   3.871   4.825
   45TCM    cl1  389   1.232   4.005   4.750
   45TCM    cl2  390   1.185   3.853   4.997
   45TCM     h1  391   1.032   3.894   4.818
   45TCM    cl3  392   1.174   3.718   4.737
   46TCM     c1  393   0.295   0.797   4.504
   46TCM    cl1  394   0.310   0.646   4.600
   46TCM    cl2  395   0.403   0.787   4.361
   46TCM     h1  396   0.192   0.809   4.471
   46TCM    cl3  397   0.344   0.937   4.605
   47TCM     c1  398   1.419   4.015   1.770
   47TCM    cl1  399   1.364   4.056   1.936
   47TCM    cl2  400   1.282   4.036   1.656
   47TCM     h1  401   1.502   4.080   1.741
   47TCM    cl3  402   1.473   3.844   1.767
   48TCM     c1  403   3.428   4.178   4.928
   48TCM    cl1  404   3.410   4.012   4.862
   48TCM    cl2  405   3.516   4.169   5.084
   48TCM     h1  406   3.485   4.239   4.857
   48TCM    cl3  407   3.266   4.251   4.954
   49TCM     c1  408   1.343   1.426   1.338
   49TCM    cl1  409   1.223   1.455   1.467
   49TCM    cl2  410   1.477   1.545   1.354
   49TCM     h1  411   1.384   1.325   1.347
   49TCM    cl3  412   1.266   1.446   1.177
   50TCM     c1  413   3.363   0.697   2.275
   50TCM    cl1  414   3.303   0.529   2.255
   50TCM    cl2  415   3.542   0.695   2.268
   50TCM     h1  416   3.324   0.759   2.195
   50TCM    cl3  417   3.309   0.761   2.434
   51TCM     c1  418   0.176   0.552   1.736
   51TCM    cl1  419   0.081   0.629   1.867
   51TCM    cl2  420   0.337   0.630   1.728
   51TCM     h1  421   0.187   0.445   1.757
   51TCM    cl3  422   0.091   0.575   1.579
   52TCM     c1  423   3.596   2.472   1.072
   52TCM    cl1  424   3.680   2.314   1.087
   52TCM    cl2  425   3.716   2.600   1.035
   52TCM     h1  426   3.522   2.466   0.992
   52TCM    cl3  427   3.513   2.510   1.227
   53TCM     c1  428   4.052   0.087   0.620
   53TCM    cl1  429   3.886   0.076   0.552
   53TCM    cl2  430   4.159   0.172   0.503
   53TCM     h1  431   4.050   0.143   0.714
   53TCM    cl3  432   4.114  -0.079   0.650
   54TCM     c1  433   0.032   1.545   3.219
   54TCM    cl1  434  -0.042   1.504   3.060
   54TCM    cl2  435   0.165   1.430   3.255
   54TCM     h1  436   0.071   1.647   3.215
   54TCM    cl3  437  -0.094   1.535   3.347
   55TCM     c1  438   2.174   3.604   2.184
   55TCM    cl1  439   2.060   3.574   2.049
   55TCM    cl2  440   2.340   3.571   2.128
   55TCM     h1  441   2.166   3.709   2.217
   55TCM    cl3  442   2.134   3.495   2.321
   56TCM     c1  443   0.606   0.128   4.530
   56TCM    cl1  444   0.676   0.275   4.604
   56TCM    cl2  445   0.466   0.173   4.426
   56TCM     h1  446   0.682   0.079   4.469
   56TCM    cl3  447   0.550   0.015   4.658
   57TCM     c1  448   4.587   0.473   4.419
   57TCM    cl1  449   4.451   0.453   4.303
   57TCM    cl2  450   4.528   0.560   4.565
   57TCM     h1  451   4.625   0.375   4.448
   57TCM    cl3  452   4.718   0.568   4.341
   58TCM     c1  453   3.902   4.576   1.476
   58TCM    cl1  454   4.018   4.627   1.603
   58TCM    cl2  455   3.898   4.700   1.346
   58TCM     h1  456   3.935   4.480   1.433
   58TCM    cl3  457   3.739   4.557   1.547
   59TCM     c1  458   4.552   4.525   4.668
   59TCM    cl1  459   4.475   4.549   4.507
   59TCM    cl2  460   4.427   4.475   4.786
   59TCM     h1  461   4.629   4.448   4.660
   59TCM    cl3  462   4.626   4.679   4.722
   60TCM     c1  463   4.020   4.208   1.692
   60TCM    cl1  464   3.894   4.218   1.564
   60TCM    cl2  465   4.028   4.040   1.754
   60TCM     h1  466   4.117   4.237   1.651
   60TCM    cl3  467   3.976   4.319   1.827
   61TCM     c1  468   3.679   3.917   3.290
   61TCM    cl1  469   3.745   3.751   3.273
   61TCM    cl2  470   3.736   3.985   3.446
   61TCM     h1  471   3.715   3.979   3.207
   61TCM    cl3  472   3.500   3.912   3.288
   62TCM     c1  473   0.491   0.905   3.222
   62TCM    cl1  474   0.451   1.059   3.306
   62TCM    cl2  475   0.597   0.805   3.327
   62TCM     h1  476   0.399   0.851   3.200
   62TCM    cl3  477   0.577   0.941   3.068
   63TCM     c1  478   3.057   2.351   2.755
   63TCM    cl1  479   3.102   2.435   2.907
   63TCM    cl2  480   2.931   2.445   2.669
   63TCM     h1  481   3.146   2.341   2.691
   63TCM    cl3  482   2.993   2.189   2.795
   64TCM     c1  483   3.726   2.404   2.361
   64TCM    cl1  484   3.717   2.504   2.213
   64TCM    cl2  485   3.572   2.312   2.381
   64TCM     h1  486   3.809   2.334   2.353
   64TCM    cl3  487   3.750   2.509   2.504
   65TCM     c1  488   0.103   0.557   2.371
   65TCM    cl1  489   0.272   0.566   2.431
   65TCM    cl2  490   0.074   0.392   2.305
   65TCM     h1  491   0.033   0.577   2.452
   65TCM    cl3  492   0.079   0.677   2.239
   66TCM     c1  493   0.245   0.372   2.934
   66TCM    cl1  494   0.270   0.199   2.897
   66TCM    cl2  495   0.070   0.401   2.965
   66TCM     h1  496   0.303   0.400   3.022
   66TCM    cl3  497   0.298   0.470   2.793
   67TCM     c1  498   0.021   3.434   1.233
   67TCM    cl1  499  -0.121   3.461   1.126
   67TCM    cl2  500  -0.005   3.522   1.388
   67TCM     h1  501   0.032   3.327   1.253
   67TCM    cl3  502   0.168   3.497   1.153
   68TCM     c1  503   1.533   3.475   0.762
   68TCM    cl1  504   1.529   3.609   0.882
   68TCM    cl2  505   1.691   3.390   0.775
   68TCM     h1  506   1.452   3.405   0.783
   68TCM    cl3  507   1.515   3.542   0.597
   69TCM     c1  508   2.820   4.447   3.918
   69TCM    cl1  509   2.704   4.349   4.013
   69TCM    cl2  510   2.742   4.494   3.764
   69TCM     h1  511   2.847   4.537   3.974
   69TCM    cl3  512   2.967   4.350   3.883
   70TCM     c1  513   4.739   1.695   0.311
   70TCM    cl1  514   4.629   1.594   0.409
   70TCM    cl2  515   4.676   1.863   0.303
   70TCM     h1  516   4.839   1.696   0.356
   70TCM    cl3  517   4.749   1.628   0.145
   71TCM     c1  518   2.972   4.720   4.241
   71TCM    cl1  519   2.992   4.543   4.223
   71TCM    cl2  520   2.892   4.784   4.093
   71TCM     h1  521   2.910   4.742   4.328
   71TCM    cl3  522   3.133   4.797   4.259
   72TCM     c1  523   3.729   4.065   1.986
   72TCM    cl1  524   3.634   4.155   1.862
   72TCM    cl2  525   3.655   3.904   2.013
   72TCM     h1  526   3.832   4.052   1.951
   72TCM    cl3  527   3.729   4.158   2.139
   73TCM     c1  528   1.054   0.341   3.217
   73TCM    cl1  529   0.897   0.279   3.279
   73TCM    cl2  530   1.076   0.286   3.048
   73TCM     h1  531   1.054   0.451   3.221
   73TCM    cl3  532   1.186   0.276   3.319
   74TCM     c1  533   0.771   1.482   2.541
   74TCM    cl1  534   0.769   1.320   2.465
   74TCM    cl2  535   0.607   1.555   2.534
   74TCM     h1  536   0.802   1.473   2.646
   74TCM    cl3  537   0.888   1.587   2.454
   75TCM     c1  538   1.087   0.796   2.079
   75TCM    cl1  539   1.044   0.661   2.189
   75TCM    cl2  540   1.031   0.756   1.913
   75TCM     h1  541   1.038   0.888   2.113
   75TCM    cl3  542   1.264   0.819   2.078
   76TCM     c1  543   2.808   1.147   3.830
   76TCM    cl1  544   2.672   1.199   3.935
   76TCM    cl2  545   2.760   1.163   3.658
   76TCM     h1  546   2.895   1.209   3.850
   76TCM    cl3  547   2.847   0.975   3.866
   77TCM     c1  548   4.540   4.943   0.897
   77TCM    cl1  549   4.453   5.046   0.779
   77TCM    cl2  550   4.421   4.859   1.003
   77TCM     h1  551   4.599   4.868   0.843
   77TCM    cl3  552   4.649   5.044   0.997
   78TCM     c1  553   0.648   4.215   0.142
   78TCM    cl1  554   0.543   4.354   0.100
   78TCM    cl2  555   0.631   4.088   0.017
   78TCM     h1  556   0.752   4.248   0.147
   78TCM    cl3  557   0.599   4.149   0.301
   79TCM     c1  558   2.545   3.239   1.860
   79TCM    cl1  559   2.518   3.416   1.860
   79TCM    cl2  560   2.571   3.183   2.028
   79TCM     h1  561   2.458   3.189   1.817
   79TCM    cl3  562   2.691   3.202   1.762
   80TCM     c1  563   0.499   3.049   0.768
   80TCM    cl1  564   0.608   2.926   0.838
   80TCM    cl2  565   0.501   3.197   0.871
   80TCM     h1  566   0.531   3.075   0.667
   80TCM    cl3  567   0.332   2.983   0.763
   81TCM     c1  568   3.140   3.507   0.934
   81TCM    cl1  569   3.016   3.501   1.064
   81TCM    cl2  570   3.245   3.650   0.960
   81TCM     h1  571   3.200   3.416   0.937
   81TCM    cl3  572   3.059   3.520   0.774
   82TCM     c1  573   3.085   2.975   4.757
   82TCM    cl1  574   3.012   3.139   4.747
   82TCM    cl2  575   3.104   2.928   4.929
   82TCM     h1  576   3.021   2.903   4.706
   82TCM    cl3  577   3.246   2.978   4.678
   83TCM     c1  578   1.005   1.160   1.771
   83TCM    cl1  579   1.050   1.117   1.602
   83TCM    cl2  580   1.142   1.124   1.881
   83TCM     h1  581   0.980   1.266   1.776
   83TCM    cl3  582   0.863   1.062   1.822
   84TCM     c1  583   2.020   2.591   4.833
   84TCM    cl1  584   2.006   2.698   4.690
   84TCM    cl2  585   2.185   2.521   4.839
   84TCM     h1  586   2.001   2.647   4.924
   84TCM    cl3  587   1.899   2.459   4.816
   85TCM     c1  588   2.181   3.950   4.001
   85TCM    cl1  589   2.269   3.794   3.993
   85TCM    cl2  590   2.149   3.991   4.173
   85TCM     h1  591   2.241   4.029   3.955
   85TCM    cl3  592   2.024   3.936   3.915
   86TCM     c1  593   0.809   0.124   0.090
   86TCM    cl1  594   0.798   0.107  -0.088
   86TCM    cl2  595   0.735  -0.019   0.168
   86TCM     h1  596   0.914   0.132   0.120
   86TCM    cl3  597   0.719   0.271   0.141
   87TCM     c1  598   0.938   0.704   2.970
   87TCM    cl1  599   0.938   0.878   3.012
   87TCM    cl2  600   0.844   0.612   3.093
   87TCM     h1  601   0.893   0.690   2.872
   87TCM    cl3  602   1.107   0.644   2.969
   88TCM     c1  603   4.715   2.948   3.216
   88TCM    cl1  604   4.652   2.925   3.049
   88TCM    cl2  605   4.756   3.122   3.238
   88TCM     h1  606   4.639   2.918   3.288
   88TCM    cl3  607   4.862   2.849   3.238
   89TCM     c1  608   3.075   4.624   0.200
   89TCM    cl1  609   3.163   4.704   0.334
   89TCM    cl2  610   3.154   4.660   0.043
   89TCM     h1  611   3.074   4.516   0.216
   89TCM    cl3  612   2.906   4.685   0.196
   90TCM     c1  613   1.967   0.126   3.568
   90TCM    cl1  614   1.855   0.237   3.482
   90TCM    cl2  615   1.882   0.057   3.710
   90TCM     h1  616   1.998   0.046   3.501
   90TCM    cl3  617   2.111   0.218   3.622
   91TCM     c1  618   1.073   0.692   4.052
   91TCM    cl1  619   0.999   0.548   4.128
   91TCM    cl2  620   0.976   0.741   3.910
   91TCM     h1  621   1.076   0.774   4.124
   91TCM    cl3  622   1.241   0.655   3.998
   92TCM     c1  623   2.316   0.055   2.487
   92TCM    cl1  624   2.234   0.213   2.513
   92TCM    cl2  625   2.218  -0.045   2.374
   92TCM     h1  626   2.415   0.072   2.443
   92TCM    cl3  627   2.332  -0.029   2.644
   93TCM     c1  628   1.136   1.283   2.393
   93TCM    cl1  629   1.227   1.139   2.334
   93TCM    cl2  630   1.185   1.426   2.297
   93TCM     h1  631   1.029   1.265   2.380
   93TCM    cl3  632   1.171   1.311   2.566
   94TCM     c1  633   1.460   1.715   0.125
   94TCM    cl1  634   1.638   1.733   0.118
   94TCM    cl2  635   1.411   1.657   0.288
   94TCM     h1  636   1.413   1.812   0.105
   94TCM    cl3  637   1.407   1.596   0.002
   95TCM     c1  638   4.510   2.999   2.348
   95TCM    cl1  639   4.627   2.939   2.227
   95TCM    cl2  640   4.597   3.071   2.488
   95TCM     h1  641   4.446   3.075   2.303
   95TCM    cl3  642   4.407   2.862   2.404
   96TCM     c1  643   2.996   4.723   1.352
   96TCM    cl1  644   2.970   4.892   1.406
   96TCM    cl2  645   2.953   4.611   1.486
   96TCM     h1  646   2.933   4.701   1.265
   96TCM    cl3  647   3.168   4.700   1.309
   97TCM     c1  648   4.370   2.516   2.927
   97TCM    cl1  649   4.476   2.574   3.059
   97TCM    cl2  650   4.240   2.413   2.995
   97TCM     h1  651   4.326   2.601   2.875
   97TCM    cl3  652   4.467   2.418   2.811
   98TCM     c1  653   4.249   0.593   3.537
   98TCM    cl1  654   4.366   0.470   3.595
   98TCM    cl2  655   4.155   0.526   3.400
   98TCM     h1  656   4.182   0.621   3.618
   98TCM    cl3  657   4.341   0.737   3.482
   99TCM     c1  658   4.256   0.951   3.012
   99TCM    cl1  659   4.085   0.998   2.992
   99TCM    cl2  660   4.267   0.825   3.140
   99TCM     h1  661   4.296   0.912   2.918
   99TCM    cl3  662   4.351   1.095   3.063
  100TCM     c1  663   2.127   0.271   3.053
  100TCM    cl1  664   1.980   0.360   3.003
  100TCM    cl2  665   2.169   0.149   2.928
  100TCM     h1  666   2.210   0.341   3.064
  100TCM    cl3  667   2.097   0.187   3.209
  101TCM     c1  668   0.323   4.463   3.614
  101TCM    cl1  669   0.389   4.556   3.753
  101TCM    cl2  670   0.279   4.298   3.669
  101TCM     h1  671   0.234   4.513   3.574
  101TCM    cl3  672   0.448   4.452   3.486
  102TCM     c1  673   0.255   1.787   4.640
  102TCM    cl1  674   0.382   1.738   4.757
  102TCM    cl2  675   0.245   1.664   4.509
  102TCM     h1  676   0.159   1.795   4.691
  102TCM    cl3  677   0.300   1.946   4.569
  103TCM     c1  678   1.292   4.929   4.936
  103TCM    cl1  679   1.358   4.856   5.086
  103TCM    cl2  680   1.346   5.099   4.924
  103TCM     h1  681   1.328   4.873   4.849
  103TCM    cl3  682   1.113   4.923   4.942
  104TCM     c1  683   0.812   2.444   1.038
  104TCM    cl1  684   0.640   2.424   0.992
  104TCM    cl2  685   0.863   2.303   1.137
  104TCM     h1  686   0.874   2.450   0.948
  104TCM    cl3  687   0.829   2.594   1.135
  105TCM     c1  688   4.723   1.640   2.223
  105TCM    cl1  689   4.873   1.708   2.294
  105TCM    cl2  690   4.765   1.502   2.116
  105TCM     h1  691   4.657   1.605   2.303
  105TCM    cl3  692   4.640   1.767   2.127
  106TCM     c1  693   2.908   1.301   2.524
  106TCM    cl1  694   2.836   1.190   2.645
  106TCM    cl2  695   2.782   1.347   2.404
  106TCM     h1  696   2.945   1.391   2.575
  106TCM    cl3  697   3.043   1.218   2.441
  107TCM     c1  698   3.223   0.489   2.771
  107TCM    cl1  699   3.049   0.449   2.749
  107TCM    cl2  700   3.242   0.667   2.787
  107TCM     h1  701   3.261   0.440   2.861
  107TCM    cl3  702   3.315   0.433   2.628
  108TCM     c1  703   2.347   4.476   1.131
  108TCM    cl1  704   2.379   4.620   1.232
  108TCM    cl2  705   2.390   4.511   0.960
  108TCM     h1  706   2.407   4.392   1.167
  108TCM    cl3  707   2.173   4.434   1.141
  109TCM     c1  708   0.329   3.374   3.894
  109TCM    cl1  709   0.178   3.392   3.798
  109TCM    cl2  710   0.467   3.345   3.783
  109TCM     h1  711   0.346   3.465   3.951
  109TCM    cl3  712   0.312   3.234   4.005
  110TCM     c1  713   2.580   4.867   2.033
  110TCM    cl1  714   2.541   4.996   2.151
  110TCM    cl2  715   2.430   4.774   1.997
  110TCM     h1  716   2.618   4.911   1.941
  110TCM    cl3  717   2.703   4.757   2.103
  111TCM     c1  718   2.507   4.766   3.392
  111TCM    cl1  719   2.354   4.857   3.369
  111TCM    cl2  720   2.526   4.724   3.565
  111TCM     h1  721   2.504   4.674   3.333
  111TCM    cl3  722   2.645   4.867   3.340
  112TCM     c1  723   3.615   3.713   4.705
  112TCM    cl1  724   3.554   3.813   4.569
  112TCM    cl2  725   3.792   3.741   4.724
  112TCM     h1  726   3.564   3.741   4.797
  112TCM    cl3  727   3.587   3.539   4.668
  113TCM     c1  728   1.600   0.001   4.498
  113TCM    cl1  729   1.533  -0.029   4.662
  113TCM    cl2  730   1.464   0.007   4.381
  113TCM     h1  731   1.654   0.096   4.497
  113TCM    cl3  732   1.710  -0.133   4.455
  114TCM     c1  733   3.335   3.634   1.986
  114TCM    cl1  734   3.187   3.533   1.980
  114TCM    cl2  735   3.364   3.687   2.155
  114TCM     h1  736   3.420   3.576   1.950
  114TCM    cl3  737   3.312   3.778   1.881
  115TCM     c1  738   0.241   2.647   1.900
  115TCM    cl1  739   0.273   2.801   1.985
  115TCM    cl2  740   0.186   2.680   1.733
  115TCM     h1  741   0.332   2.586   1.897
  115TCM    cl3  742   0.113   2.557   1.988
  116TCM     c1  743   1.890   0.745   3.534
  116TCM    cl1  744   1.981   0.871   3.445
  116TCM    cl2  745   1.945   0.582   3.481
  116TCM     h1  746   1.907   0.756   3.641
  116TCM    cl3  747   1.715   0.763   3.497
  117TCM     c1  748   1.647   4.726   3.557
  117TCM    cl1  749   1.547   4.648   3.685
  117TCM    cl2  750   1.539   4.791   3.430
  117TCM     h1  751   1.706   4.807   3.601
  117TCM    cl3  752   1.756   4.604   3.484
  118TCM     c1  753   1.544   3.082   3.722
  118TCM    cl1  754   1.686   3.018   3.811
  118TCM    cl2  755   1.560   3.042   3.548
  118TCM     h1  756   1.453   3.037   3.762
  118TCM    cl3  757   1.538   3.260   3.742
  119TCM     c1  758   4.774   2.414   2.327
  119TCM    cl1  759   4.696   2.570   2.286
  119TCM    cl2  760   4.760   2.383   2.503
  119TCM     h1  761   4.725   2.333   2.272
  119TCM    cl3  762   4.948   2.420   2.282
  120TCM     c1  763   2.476   1.342   1.994
  120TCM    cl1  764   2.457   1.255   2.150
  120TCM    cl2  765   2.350   1.468   1.980
  120TCM     h1  766   2.575   1.388   1.989
  120TCM    cl3  767   2.458   1.225   1.859
  121TCM     c1  768   1.454   0.170   3.639
  121TCM    cl1  769   1.276   0.158   3.648
  121TCM    cl2  770   1.507   0.154   3.468
  121TCM     h1  771   1.487   0.267   3.679
  121TCM    cl3  772   1.526   0.037   3.736
  122TCM     c1  773   4.418   3.610   2.687
  122TCM    cl1  774   4.446   3.482   2.565
  122TCM    cl2  775   4.247   3.605   2.742
  122TCM     h1  776   4.484   3.595   2.772
  122TCM    cl3  777   4.451   3.771   2.613
  123TCM     c1  778   4.489   1.145   3.709
  123TCM    cl1  779   4.395   0.994   3.734
  123TCM    cl2  780   4.642   1.136   3.804
  123TCM     h1  781   4.513   1.157   3.603
  123TCM    cl3  782   4.393   1.286   3.765
  124TCM     c1  783   3.727   1.972   2.518
  124TCM    cl1  784   3.607   1.934   2.389
  124TCM    cl2  785   3.644   2.059   2.651
  124TCM     h1  786   3.770   1.879   2.556
  124TCM    cl3  787   3.856   2.076   2.452
  125TCM     c1  788   4.800   4.082   3.349
  125TCM    cl1  789   4.960   4.046   3.423
  125TCM    cl2  790   4.769   3.966   3.216
  125TCM     h1  791   4.722   4.073   3.425
  125TCM    cl3  792   4.801   4.249   3.284
  126TCM     c1  793   0.345   2.113   0.390
  126TCM    cl1  794   0.291   2.057   0.551
  126TCM    cl2  795   0.205   2.179   0.301
  126TCM     h1  796   0.422   2.190   0.402
  126TCM    cl3  797   0.411   1.975   0.297
  127TCM     c1  798   3.599   1.516   3.399
  127TCM    cl1  799   3.562   1.691   3.394
  127TCM    cl2  800   3.630   1.455   3.233
  127TCM     h1  801   3.688   1.499   3.461
  127TCM    cl3  802   3.460   1.426   3.469
  128TCM     c1  803   1.530   2.422   2.929
  128TCM    cl1  804   1.456   2.496   2.784
  128TCM    cl2  805   1.437   2.276   2.976
  128TCM     h1  806   1.634   2.394   2.907
  128TCM    cl3  807   1.527   2.541   3.064
  129TCM     c1  808   0.465   2.709   0.051
  129TCM    cl1  809   0.512   2.877   0.006
  129TCM    cl2  810   0.555   2.660   0.199
  129TCM     h1  811   0.358   2.705   0.071
  129TCM    cl3  812   0.506   2.598  -0.084
  130TCM     c1  813   0.882   4.632   4.880
  130TCM    cl1  814   0.858   4.487   4.984
  130TCM    cl2  815   0.726   4.718   4.859
  130TCM     h1  816   0.954   4.699   4.928
  130TCM    cl3  817   0.944   4.581   4.719
  131TCM     c1  818   4.838   4.585   4.999
  131TCM    cl1  819   4.972   4.583   4.881
  131TCM    cl2  820   4.906   4.587   5.165
  131TCM     h1  821   4.776   4.674   4.984
  131TCM    cl3  822   4.738   4.437   4.978
  132TCM     c1  823   0.841   1.918   0.300
  132TCM    cl1  824   0.756   2.051   0.384
  132TCM    cl2  825   0.941   1.987   0.169
  132TCM     h1  826   0.905   1.864   0.371
  132TCM    cl3  827   0.720   1.806   0.228
  133TCM     c1  828   2.470   0.236   3.289
  133TCM    cl1  829   2.414   0.398   3.237
  133TCM    cl2  830   2.641   0.247   3.341
  133TCM     h1  831   2.409   0.200   3.372
  133TCM    cl3  832   2.459   0.122   3.150
  134TCM     c1  833   0.542   1.420   3.190
  134TCM    cl1  834   0.544   1.446   3.368
  134TCM    cl2  835   0.674   1.309   3.143
  134TCM     h1  836   0.446   1.378   3.161
  134TCM    cl3  837   0.567   1.578   3.107
  135TCM     c1  838   0.226   4.205   0.021
  135TCM    cl1  839   0.277   4.157  -0.144
  135TCM    cl2  840   0.274   4.077   0.137
  135TCM     h1  841   0.273   4.300   0.048
  135TCM    cl3  842   0.047   4.225   0.027
  136TCM     c1  843   4.176   1.174   2.075
  136TCM    cl1  844   4.306   1.293   2.044
  136TCM    cl2  845   4.036   1.257   2.150
  136TCM     h1  846   4.145   1.128   1.981
  136TCM    cl3  847   4.235   1.047   2.188
  137TCM     c1  848   1.358   0.651   1.746
  137TCM    cl1  849   1.292   0.496   1.809
  137TCM    cl2  850   1.250   0.713   1.616
  137TCM     h1  851   1.362   0.724   1.827
  137TCM    cl3  852   1.522   0.625   1.680
  138TCM     c1  853   2.106   1.556   3.198
  138TCM    cl1  854   1.964   1.665   3.191
  138TCM    cl2  855   2.077   1.431   3.323
  138TCM     h1  856   2.120   1.508   3.100
  138TCM    cl3  857   2.252   1.649   3.241
  139TCM     c1  858   2.790   3.596   3.752
  139TCM    cl1  859   2.827   3.766   3.706
  139TCM    cl2  860   2.671   3.594   3.886
  139TCM     h1  861   2.749   3.543   3.666
  139TCM    cl3  862   2.942   3.515   3.804
  140TCM     c1  863   0.808   1.112   3.571
  140TCM    cl1  864   0.819   1.093   3.393
  140TCM    cl2  865   0.648   1.182   3.614
  140TCM     h1  866   0.819   1.014   3.618
  140TCM    cl3  867   0.938   1.221   3.627
  141TCM     c1  868   0.879   4.172   1.609
  141TCM    cl1  869   0.928   4.146   1.439
  141TCM    cl2  870   0.731   4.076   1.643
  141TCM     h1  871   0.959   4.141   1.676
  141TCM    cl3  872   0.843   4.346   1.635
  142TCM     c1  873   3.564   4.117   2.563
  142TCM    cl1  874   3.741   4.111   2.595
  142TCM    cl2  875   3.525   4.012   2.423
  142TCM     h1  876   3.510   4.082   2.651
  142TCM    cl3  877   3.517   4.286   2.525
  143TCM     c1  878   0.610   2.647   3.237
  143TCM    cl1  879   0.525   2.683   3.082
  143TCM    cl2  880   0.682   2.483   3.227
  143TCM     h1  881   0.689   2.721   3.254
  143TCM    cl3  882   0.491   2.653   3.372
  144TCM     c1  883   1.830   3.829   1.594
  144TCM    cl1  884   1.958   3.800   1.472
  144TCM    cl2  885   1.752   3.989   1.564
  144TCM     h1  886   1.754   3.750   1.588
  144TCM    cl3  887   1.903   3.829   1.757
  145TCM     c1  888   1.518   1.567   2.564
  145TCM    cl1  889   1.348   1.619   2.591
  145TCM    cl2  890   1.518   1.409   2.479
  145TCM     h1  891   1.569   1.642   2.503
  145TCM    cl3  892   1.602   1.549   2.722
  146TCM     c1  893   4.034   0.031   3.980
  146TCM    cl1  894   4.123  -0.096   3.890
  146TCM    cl2  895   4.075   0.019   4.155
  146TCM     h1  896   4.063   0.129   3.943
  146TCM    cl3  897   3.858   0.008   3.959
  147TCM     c1  898   4.983   4.651   4.471
  147TCM    cl1  899   5.127   4.571   4.541
  147TCM    cl2  900   4.936   4.791   4.573
  147TCM     h1  901   5.006   4.686   4.370
  147TCM    cl3  902   4.848   4.533   4.464
  148TCM     c1  903   1.284   2.109   0.436
  148TCM    cl1  904   1.115   2.152   0.477
  148TCM    cl2  905   1.376   2.258   0.398
  148TCM     h1  906   1.330   2.059   0.522
  148TCM    cl3  907   1.284   2.000   0.294
  149TCM     c1  908   2.792   2.942   0.136
  149TCM    cl1  909   2.753   3.030  -0.016
  149TCM    cl2  910   2.679   2.804   0.154
  149TCM     h1  911   2.895   2.906   0.133
  149TCM    cl3  912   2.769   3.054   0.274
  150TCM     c1  913   3.673   1.142   3.066
  150TCM    cl1  914   3.586   0.999   3.003
  150TCM    cl2  915   3.785   1.206   2.942
  150TCM     h1  916   3.601   1.219   3.094
  150TCM    cl3  917   3.766   1.093   3.211
  151TCM     c1  918   3.367   0.244   1.915
  151TCM    cl1  919   3.480   0.345   2.012
  151TCM    cl2  920   3.418   0.248   1.743
  151TCM     h1  921   3.371   0.141   1.952
  151TCM    cl3  922   3.200   0.308   1.929
  152TCM     c1  923   3.856   2.527   1.374
  152TCM    cl1  924   3.912   2.643   1.499
  152TCM    cl2  925   3.795   2.378   1.453
  152TCM     h1  926   3.775   2.573   1.316
  152TCM    cl3  927   3.992   2.486   1.265
  153TCM     c1  928   3.051   4.206   2.616
  153TCM    cl1  929   2.951   4.189   2.764
  153TCM    cl2  930   3.209   4.126   2.644
  153TCM     h1  931   3.000   4.158   2.532
  153TCM    cl3  932   3.078   4.379   2.582
  154TCM     c1  933   4.299   0.987   2.568
  154TCM    cl1  934   4.185   0.870   2.645
  154TCM    cl2  935   4.421   0.897   2.473
  154TCM     h1  936   4.243   1.054   2.502
  154TCM    cl3  937   4.381   1.081   2.696
  155TCM     c1  938   1.150   1.995   4.799
  155TCM    cl1  939   1.055   2.135   4.859
  155TCM    cl2  940   1.206   1.897   4.938
  155TCM     h1  941   1.087   1.933   4.734
  155TCM    cl3  942   1.291   2.054   4.706
  156TCM     c1  943   2.576   4.564   4.388
  156TCM    cl1  944   2.714   4.615   4.491
  156TCM    cl2  945   2.565   4.385   4.388
  156TCM     h1  946   2.483   4.607   4.427
  156TCM    cl3  947   2.602   4.622   4.220
  157TCM     c1  948   2.301   4.965   4.964
  157TCM    cl1  949   2.283   5.079   5.100
  157TCM    cl2  950   2.262   5.048   4.809
  157TCM     h1  951   2.404   4.929   4.960
  157TCM    cl3  952   2.190   4.826   4.986
  158TCM     c1  953   1.971   1.249   2.838
  158TCM    cl1  954   1.931   1.282   3.010
  158TCM    cl2  955   1.948   1.074   2.804
  158TCM     h1  956   1.905   1.308   2.774
  158TCM    cl3  957   2.142   1.293   2.807
  159TCM     c1  958   2.023   2.173   0.098
  159TCM    cl1  959   1.984   2.342   0.143
  159TCM    cl2  960   2.111   2.172  -0.058
  159TCM     h1  961   2.085   2.128   0.176
  159TCM    cl3  962   1.871   2.080   0.081
  160TCM     c1  963   2.021   1.597   1.767
  160TCM    cl1  964   2.056   1.716   1.898
  160TCM    cl2  965   1.992   1.436   1.840
  160TCM     h1  966   1.932   1.629   1.712
  160TCM    cl3  967   2.161   1.588   1.656
  161TCM     c1  968   2.695   2.734   0.624
  161TCM    cl1  969   2.781   2.816   0.758
  161TCM    cl2  970   2.593   2.853   0.536
  161TCM     h1  971   2.768   2.691   0.555
  161TCM    cl3  972   2.592   2.604   0.691
  162TCM     c1  973   2.877   1.838   2.234
  162TCM    cl1  974   2.727   1.885   2.147
  162TCM    cl2  975   2.967   1.716   2.137
  162TCM     h1  976   2.940   1.926   2.248
  162TCM    cl3  977   2.835   1.767   2.393
  163TCM     c1  978   4.742   4.661   2.630
  163TCM    cl1  979   4.828   4.750   2.760
  163TCM    cl2  980   4.709   4.772   2.494
  163TCM     h1  981   4.804   4.578   2.596
  163TCM    cl3  982   4.587   4.598   2.695
  164TCM     c1  983   3.186   0.256   4.633
  164TCM    cl1  984   3.210   0.337   4.791
  164TCM    cl2  985   3.198   0.378   4.502
  164TCM     h1  986   3.262   0.180   4.618
  164TCM    cl3  987   3.023   0.180   4.630
  165TCM     c1  988   3.733   4.073   3.890
  165TCM    cl1  989   3.765   3.994   4.048
  165TCM    cl2  990   3.677   4.241   3.917
  165TCM     h1  991   3.824   4.074   3.830
  165TCM    cl3  992   3.605   3.981   3.803
  166TCM     c1  993   1.936   1.485   2.469
  166TCM    cl1  994   1.870   1.320   2.498
  166TCM    cl2  995   1.965   1.565   2.627
  166TCM     h1  996   2.031   1.478   2.415
  166TCM    cl3  997   1.819   1.581   2.374
  167TCM     c1  998   2.712   0.068   4.809
  167TCM    cl1  999   2.720  -0.105   4.765
  167TCM    cl2 1000   2.639   0.085   4.972
  167TCM     h1 1001   2.814   0.110   4.810
  167TCM    cl3 1002   2.612   0.158   4.691
  168TCM     c1 1003   2.385   2.778   2.039
  168TCM    cl1 1004   2.452   2.848   2.190
  168TCM    cl2 1005   2.350   2.910   1.922
  168TCM     h1 1006   2.457   2.708   1.995
  168TCM    cl3 1007   2.233   2.690   2.076
  169TCM     c1 1008   0.942   4.703   1.583
  169TCM    cl1 1009   0.841   4.840   1.641
  169TCM    cl2 1010   1.113   4.757   1.571
  169TCM     h1 1011   0.934   4.620   1.653
  169TCM    cl3 1012   0.884   4.651   1.421
  170TCM     c1 1013   3.902   2.288   4.629
  170TCM    cl1 1014   3.834   2.262   4.793
  170TCM    cl2 1015   3.897   2.133   4.539
  170TCM     h1 1016   3.842   2.363   4.576
  170TCM    cl3 1017   4.071   2.345   4.642
  171TCM     c1 1018   1.845   4.873   4.908
  171TCM    cl1 1019   1.818   4.711   4.837
  171TCM    cl2 1020   1.691   4.934   4.978
  171TCM     h1 1021   1.921   4.867   4.986
  171TCM    cl3 1022   1.900   4.983   4.778
  172TCM     c1 1023   3.355   3.698   0.540
  172TCM    cl1 1024   3.248   3.600   0.434
  172TCM    cl2 1025   3.436   3.591   0.659
  172TCM     h1 1026   3.431   3.748   0.479
  172TCM    cl3 1027   3.256   3.820   0.626
  173TCM     c1 1028   4.811   0.837   0.816
  173TCM    cl1 1029   4.846   0.984   0.913
  173TCM    cl2 1030   4.866   0.865   0.647
  173TCM     h1 1031   4.864   0.751   0.858
  173TCM    cl3 1032   4.635   0.805   0.817
  174TCM     c1 1033   3.958   1.766   2.026
  174TCM    cl1 1034   4.049   1.902   1.952
  174TCM    cl2 1035   3.917   1.807   2.196
  174TCM     h1 1036   3.865   1.750   1.970
  174TCM    cl3 1037   4.059   1.618   2.024
  175TCM     c1 1038   3.893   1.560   4.971
  175TCM    cl1 1039   3.982   1.408   5.003
  175TCM    cl2 1040   3.771   1.584   5.101
  175TCM     h1 1041   3.963   1.644   4.970
  175TCM    cl3 1042   3.811   1.549   4.812
  176TCM     c1 1043   3.912   3.346   4.788
  176TCM    cl1 1044   3.973   3.466   4.906
  176TCM    cl2 1045   3.772   3.257   4.858
  176TCM     h1 1046   3.881   3.397   4.696
  176TCM    cl3 1047   4.043   3.229   4.749
  177TCM     c1 1048   0.966   0.450   3.605
  177TCM    cl1 1049   1.129   0.507   3.653
  177TCM    cl2 1050   0.894   0.566   3.489
  177TCM     h1 1051   0.975   0.352   3.557
  177TCM    cl3 1052   0.862   0.437   3.750
  178TCM     c1 1053   3.349   0.122   1.329
  178TCM    cl1 1054   3.310   0.013   1.466
  178TCM    cl2 1055   3.336   0.031   1.175
  178TCM     h1 1056   3.280   0.206   1.328
  178TCM    cl3 1057   3.517   0.182   1.347
  179TCM     c1 1058   1.268   0.200   4.084
  179TCM    cl1 1059   1.446   0.207   4.060
  179TCM    cl2 1060   1.189   0.301   3.960
  179TCM     h1 1061   1.234   0.097   4.075
  179TCM    cl3 1062   1.227   0.262   4.248
  180TCM     c1 1063   3.248   0.291   3.389
  180TCM    cl1 1064   3.369   0.387   3.297
  180TCM    cl2 1065   3.106   0.393   3.427
  180TCM     h1 1066   3.216   0.206   3.328
  180TCM    cl3 1067   3.323   0.231   3.541
  181TCM     c1 1068   2.110   0.833   4.190
  181TCM    cl1 1069   2.196   0.796   4.037
  181TCM    cl2 1070   2.114   1.011   4.217
  181TCM     h1 1071   2.007   0.799   4.184
  181TCM    cl3 1072   2.193   0.750   4.326
  182TCM     c1 1073   3.187   0.398   0.294
  182TCM    cl1 1074   3.173   0.336   0.462
  182TCM    cl2 1075   3.054   0.330   0.195
  182TCM     h1 1076   3.181   0.507   0.294
  182TCM    cl3 1077   3.344   0.346   0.223
  183TCM     c1 1078   1.739   2.075   2.586
  183TCM    cl1 1079   1.733   2.149   2.749
  183TCM    cl2 1080   1.774   1.899   2.601
  183TCM     h1 1081   1.643   2.089   2.536
  183TCM    cl3 1082   1.869   2.153   2.490
  184TCM     c1 1083   4.837   4.130   4.715
  184TCM    cl1 1084   4.882   4.010   4.590
  184TCM    cl2 1085   4.664   4.175   4.696
  184TCM     h1 1086   4.853   4.088   4.815
  184TCM    cl3 1087   4.938   4.277   4.694
  185TCM     c1 1088   0.756   1.157   2.826
  185TCM    cl1 1089   0.893   1.273   2.817
  185TCM    cl2 1090   0.783   1.024   2.710
  185TCM     h1 1091   0.749   1.117   2.928
  185TCM    cl3 1092   0.604   1.243   2.785
  186TCM     c1 1093   4.694   0.815   3.607
  186TCM    cl1 1094   4.852   0.849   3.686
  186TCM    cl2 1095   4.698   0.650   3.538
  186TCM     h1 1096   4.614   0.823   3.681
  186TCM    cl3 1097   4.666   0.934   3.475
  187TCM     c1 1098   0.240   4.558   0.450
  187TCM    cl1 1099   0.375   4.672   0.418
  187TCM    cl2 1100   0.224   4.444   0.312
  187TCM     h1 1101   0.262   4.501   0.541
  187TCM    cl3 1102   0.088   4.650   0.472
  188TCM     c1 1103   0.736   3.212   0.177
  188TCM    cl1 1104   0.752   3.354   0.286
  188TCM    cl2 1105   0.650   3.080   0.262
  188TCM     h1 1106   0.679   3.241   0.088
  188TCM    cl3 1107   0.899   3.155   0.130
  189TCM     c1 1108   1.153   2.521   4.587
  189TCM    cl1 1109   1.266   2.420   4.684
  189TCM    cl2 1110   1.182   2.489   4.413
  189TCM     h1 1111   1.050   2.495   4.612
  189TCM    cl3 1112   1.183   2.694   4.623
  190TCM     c1 1113   0.935   3.070   0.525
  190TCM    cl1 1114   1.005   2.973   0.659
  190TCM    cl2 1115   1.051   3.197   0.475
  190TCM     h1 1116   0.913   3.004   0.440
  190TCM    cl3 1117   0.783   3.146   0.582
  191TCM     c1 1118   4.233   1.489   2.338
  191TCM    cl1 1119   4.365   1.610   2.332
  191TCM    cl2 1120   4.092   1.558   2.426
  191TCM     h1 1121   4.203   1.464   2.237
  191TCM    cl3 1122   4.290   1.341   2.423
  192TCM     c1 1123   1.711   0.442   4.192
  192TCM    cl1 1124   1.854   0.544   4.228
  192TCM    cl2 1125   1.570   0.546   4.154
  192TCM     h1 1126   1.733   0.378   4.106
  192TCM    cl3 1127   1.674   0.338   4.334
  193TCM     c1 1128   0.475   0.162   2.538
  193TCM    cl1 1129   0.486   0.024   2.652
  193TCM    cl2 1130   0.564   0.303   2.604
  193TCM     h1 1131   0.518   0.134   2.442
  193TCM    cl3 1132   0.302   0.206   2.516
  194TCM     c1 1133   1.902   4.418   4.646
  194TCM    cl1 1134   1.983   4.354   4.499
  194TCM    cl2 1135   2.003   4.382   4.790
  194TCM     h1 1136   1.890   4.527   4.636
  194TCM    cl3 1137   1.742   4.341   4.666
  195TCM     c1 1138   4.398   4.576   1.502
  195TCM    cl1 1139   4.332   4.636   1.346
  195TCM    cl2 1140   4.572   4.537   1.483
  195TCM     h1 1141   4.385   4.652   1.579
  195TCM    cl3 1142   4.309   4.427   1.549
  196TCM     c1 1143   1.022   2.570   0.388
  196TCM    cl1 1144   1.085   2.525   0.550
  196TCM    cl2 1145   1.115   2.481   0.264
  196TCM     h1 1146   0.916   2.544   0.381
  196TCM    cl3 1147   1.043   2.747   0.362
  197TCM     c1 1148   1.328   0.947   4.321
  197TCM    cl1 1149   1.505   0.974   4.331
  197TCM    cl2 1150   1.292   0.772   4.340
  197TCM     h1 1151   1.277   1.003   4.400
  197TCM    cl3 1152   1.269   1.002   4.161
  198TCM     c1 1153   1.879   1.325   1.389
  198TCM    cl1 1154   1.969   1.261   1.530
  198TCM    cl2 1155   1.885   1.505   1.391
  198TCM     h1 1156   1.925   1.289   1.296
  198TCM    cl3 1157   1.709   1.270   1.397
  199TCM     c1 1158   1.146   4.412   1.308
  199TCM    cl1 1159   1.235   4.279   1.227
  199TCM    cl2 1160   1.194   4.569   1.237
  199TCM     h1 1161   1.038   4.397   1.296
  199TCM    cl3 1162   1.186   4.411   1.483
  200TCM     c1 1163   0.219   2.704   2.551
  200TCM    cl1 1164   0.091   2.584   2.585
  200TCM    cl2 1165   0.324   2.644   2.418
  200TCM     h1 1166   0.174   2.799   2.522
  200TCM    cl3 1167   0.319   2.728   2.698
  201TCM     c1 1168   0.681   2.254   0.102
  201TCM    cl1 1169   0.689   2.280  -0.075
  201TCM    cl2 1170   0.522   2.306   0.165
  201TCM     h1 1171   0.696   2.148   0.124
  201TCM    cl3 1172   0.807   2.351   0.184
  202TCM     c1 1173   3.708   4.490   3.291
  202TCM    cl1 1174   3.870   4.551   3.340
  202TCM    cl2 1175   3.704   4.312   3.312
  202TCM     h1 1176   3.631   4.536   3.353
  202TCM    cl3 1177   3.679   4.530   3.119
  203TCM     c1 1178   2.285   1.014   2.380
  203TCM    cl1 1179   2.461   0.990   2.401
  203TCM    cl2 1180   2.238   1.174   2.446
  203TCM     h1 1181   2.259   1.009   2.273
  203TCM    cl3 1182   2.196   0.886   2.469
  204TCM     c1 1183   0.671   4.682   4.483
  204TCM    cl1 1184   0.507   4.652   4.547
  204TCM    cl2 1185   0.665   4.816   4.364
  204TCM     h1 1186   0.738   4.709   4.565
  204TCM    cl3 1187   0.732   4.534   4.401
  205TCM     c1 1188   2.102   4.720   3.810
  205TCM    cl1 1189   2.142   4.781   3.974
  205TCM    cl2 1190   2.164   4.835   3.686
  205TCM     h1 1191   2.148   4.622   3.795
  205TCM    cl3 1192   1.924   4.706   3.794
  206TCM     c1 1193   1.046   4.987   1.166
  206TCM    cl1 1194   0.957   4.842   1.112
  206TCM    cl2 1195   1.011   5.019   1.339
  206TCM     h1 1196   1.154   4.971   1.153
  206TCM    cl3 1197   0.995   5.128   1.067
  207TCM     c1 1198   2.617   3.306   0.937
  207TCM    cl1 1199   2.477   3.345   1.042
  207TCM    cl2 1200   2.749   3.234   1.035
  207TCM     h1 1201   2.586   3.234   0.861
  207TCM    cl3 1202   2.677   3.455   0.856
  208TCM     c1 1203   0.963   3.428   0.836
  208TCM    cl1 1204   0.873   3.485   0.691
  208TCM    cl2 1205   1.130   3.383   0.789
  208TCM     h1 1206   0.967   3.508   0.911
  208TCM    cl3 1207   0.880   3.285   0.905
  209TCM     c1 1208   3.633   2.115   2.072
  209TCM    cl1 1209   3.805   2.156   2.101
  209TCM    cl2 1210   3.623   1.947   2.010
  209TCM     h1 1211   3.577   2.123   2.165
  209TCM    cl3 1212   3.565   2.228   1.950
  210TCM     c1 1213   2.788   2.328   0.991
  210TCM    cl1 1214   2.711   2.262   0.843
  210TCM    cl2 1215   2.779   2.507   0.990
  210TCM     h1 1216   2.736   2.290   1.079
  210TCM    cl3 1217   2.960   2.277   0.997
  211TCM     c1 1218   2.771   3.289   4.184
  211TCM    cl1 1219   2.826   3.458   4.210
  211TCM    cl2 1220   2.756   3.257   4.008
  211TCM     h1 1221   2.843   3.220   4.228
  211TCM    cl3 1222   2.611   3.266   4.262
  212TCM     c1 1223   1.337   2.727   4.112
  212TCM    cl1 1224   1.249   2.834   4.226
  212TCM    cl2 1225   1.380   2.820   3.964
  212TCM     h1 1226   1.428   2.690   4.159
  212TCM    cl3 1227   1.231   2.590   4.066
  213TCM     c1 1228   1.846   2.863   3.381
  213TCM    cl1 1229   1.825   2.688   3.345
  213TCM    cl2 1230   1.964   2.933   3.266
  213TCM     h1 1231   1.750   2.914   3.370
  213TCM    cl3 1232   1.906   2.883   3.548
  214TCM     c1 1233   3.796   4.591   3.751
  214TCM    cl1 1234   3.677   4.499   3.654
  214TCM    cl2 1235   3.728   4.622   3.914
  214TCM     h1 1236   3.888   4.532   3.761
  214TCM    cl3 1237   3.832   4.746   3.670
  215TCM     c1 1238   0.306   3.269   0.320
  215TCM    cl1 1239   0.400   3.247   0.471
  215TCM    cl2 1240   0.275   3.108   0.245
  215TCM     h1 1241   0.211   3.318   0.342
  215TCM    cl3 1242   0.399   3.370   0.204
  216TCM     c1 1243   1.480   2.260   4.961
  216TCM    cl1 1244   1.507   2.095   5.025
  216TCM    cl2 1245   1.613   2.368   5.014
  216TCM     h1 1246   1.476   2.258   4.852
  216TCM    cl3 1247   1.325   2.324   5.025
  217TCM     c1 1248   0.513   2.013   2.861
  217TCM    cl1 1249   0.491   1.882   2.741
  217TCM    cl2 1250   0.681   2.077   2.853
  217TCM     h1 1251   0.443   2.094   2.841
  217TCM    cl3 1252   0.485   1.949   3.026
  218TCM     c1 1253   3.604   0.224   4.769
  218TCM    cl1 1254   3.531   0.116   4.645
  218TCM    cl2 1255   3.522   0.196   4.926
  218TCM     h1 1256   3.710   0.203   4.779
  218TCM    cl3 1257   3.580   0.395   4.719
  219TCM     c1 1258   1.826   2.496   2.018
  219TCM    cl1 1259   1.858   2.670   2.048
  219TCM    cl2 1260   1.910   2.446   1.868
  219TCM     h1 1261   1.863   2.437   2.102
  219TCM    cl3 1262   1.649   2.469   2.001
  220TCM     c1 1263   4.205   0.460   4.030
  220TCM    cl1 1264   4.319   0.333   3.971
  220TCM    cl2 1265   4.057   0.381   4.093
  220TCM     h1 1266   4.253   0.518   4.109
  220TCM    cl3 1267   4.162   0.568   3.893
  221TCM     c1 1268   0.255   3.773   1.474
  221TCM    cl1 1269   0.236   3.834   1.306
  221TCM    cl2 1270   0.113   3.820   1.571
  221TCM     h1 1271   0.265   3.664   1.473
  221TCM    cl3 1272   0.402   3.846   1.546
  222TCM     c1 1273   0.369   1.664   1.109
  222TCM    cl1 1274   0.467   1.641   1.257
  222TCM    cl2 1275   0.412   1.819   1.030
  222TCM     h1 1276   0.388   1.581   1.040
  222TCM    cl3 1277   0.195   1.667   1.153
  223TCM     c1 1278   3.597   2.383   2.809
  223TCM    cl1 1279   3.632   2.551   2.862
  223TCM    cl2 1280   3.431   2.376   2.741
  223TCM     h1 1281   3.669   2.353   2.732
  223TCM    cl3 1282   3.609   2.272   2.950
  224TCM     c1 1283   0.265   4.783   2.925
  224TCM    cl1 1284   0.376   4.680   2.830
  224TCM    cl2 1285   0.162   4.680   3.029
  224TCM     h1 1286   0.323   4.852   2.988
  224TCM    cl3 1287   0.161   4.877   2.813
  225TCM     c1 1288   0.253   4.758   2.480
  225TCM    cl1 1289   0.085   4.697   2.492
  225TCM    cl2 1290   0.262   4.884   2.352
  225TCM     h1 1291   0.283   4.801   2.576
  225TCM    cl3 1292   0.362   4.622   2.439
  226TCM     c1 1293   0.492   2.368   2.235
  226TCM    cl1 1294   0.324   2.314   2.266
  226TCM    cl2 1295   0.492   2.504   2.117
  226TCM     h1 1296   0.537   2.402   2.329
  226TCM    cl3 1297   0.588   2.232   2.167
  227TCM     c1 1298   0.433   4.009   2.961
  227TCM    cl1 1299   0.313   3.981   2.831
  227TCM    cl2 1300   0.572   4.102   2.895
  227TCM     h1 1301   0.387   4.066   3.042
  227TCM    cl3 1302   0.491   3.851   3.023
  228TCM     c1 1303   2.348   0.568   3.727
  228TCM    cl1 1304   2.301   0.479   3.876
  228TCM    cl2 1305   2.218   0.684   3.684
  228TCM     h1 1306   2.441   0.622   3.744
  228TCM    cl3 1307   2.369   0.451   3.593
  229TCM     c1 1308   1.857   1.980   2.093
  229TCM    cl1 1309   1.679   1.957   2.088
  229TCM    cl2 1310   1.925   1.890   2.233
  229TCM     h1 1311   1.901   1.943   2.001
  229TCM    cl3 1312   1.893   2.155   2.112
  230TCM     c1 1313   1.075   3.167   2.085
  230TCM    cl1 1314   1.240   3.132   2.145
  230TCM    cl2 1315   1.042   3.343   2.098
  230TCM     h1 1316   1.067   3.136   1.981
  230TCM    cl3 1317   0.955   3.077   2.184
  231TCM     c1 1318   4.749   3.610   3.094
  231TCM    cl1 1319   4.660   3.698   2.965
  231TCM    cl2 1320   4.776   3.441   3.040
  231TCM     h1 1321   4.845   3.659   3.113
  231TCM    cl3 1322   4.650   3.611   3.243
  232TCM     c1 1323   4.366   0.878   4.469
  232TCM    cl1 1324   4.523   0.882   4.382
  232TCM    cl2 1325   4.257   0.759   4.390
  232TCM     h1 1326   4.383   0.849   4.573
  232TCM    cl3 1327   4.290   1.041   4.463
  233TCM     c1 1328   0.210   2.853   4.683
  233TCM    cl1 1329   0.381   2.907   4.678
  233TCM    cl2 1330   0.104   2.998   4.685
  233TCM     h1 1331   0.188   2.793   4.594
  233TCM    cl3 1332   0.181   2.756   4.831
  234TCM     c1 1333   0.956   1.440   0.135
  234TCM    cl1 1334   1.065   1.315   0.204
  234TCM    cl2 1335   1.030   1.603   0.156
  234TCM     h1 1336   0.941   1.421   0.028
  234TCM    cl3 1337   0.798   1.435   0.220
  235TCM     c1 1338   1.808   2.053   1.690
  235TCM    cl1 1339   1.697   2.169   1.770
  235TCM    cl2 1340   1.759   1.886   1.731
  235TCM     h1 1341   1.804   2.068   1.581
  235TCM    cl3 1342   1.975   2.081   1.748
  236TCM     c1 1343   2.431   4.335   3.732
  236TCM    cl1 1344   2.377   4.484   3.816
  236TCM    cl2 1345   2.467   4.373   3.560
  236TCM     h1 1346   2.521   4.296   3.780
  236TCM    cl3 1347   2.300   4.212   3.740
  237TCM     c1 1348   3.194   0.477   1.569
  237TCM    cl1 1349   3.091   0.614   1.516
  237TCM    cl2 1350   3.345   0.477   1.472
  237TCM     h1 1351   3.218   0.487   1.675
  237TCM    cl3 1352   3.107   0.322   1.543
  238TCM     c1 1353   2.283   4.609   4.717
  238TCM    cl1 1354   2.336   4.449   4.656
  238TCM    cl2 1355   2.162   4.680   4.605
  238TCM     h1 1356   2.239   4.598   4.817
  238TCM    cl3 1357   2.426   4.717   4.727
  239TCM     c1 1358   2.583   1.795   3.201
  239TCM    cl1 1359   2.617   1.776   3.376
  239TCM    cl2 1360   2.591   1.635   3.120
  239TCM     h1 1361   2.483   1.838   3.189
  239TCM    cl3 1362   2.704   1.906   3.129
  240TCM     c1 1363   0.778   1.724   4.803
  240TCM    cl1 1364   0.688   1.627   4.925
  240TCM    cl2 1365   0.950   1.672   4.803
  240TCM     h1 1366   0.734   1.708   4.704
  240TCM    cl3 1367   0.768   1.898   4.846
  241TCM     c1 1368   2.899   1.096   3.005
  241TCM    cl1 1369   3.056   1.014   2.978
  241TCM    cl2 1370   2.925   1.273   3.019
  241TCM     h1 1371   2.831   1.075   2.921
  241TCM    cl3 1372   2.826   1.036   3.157
  242TCM     c1 1373   3.670   0.616   1.561
  242TCM    cl1 1374   3.758   0.500   1.457
  242TCM    cl2 1375   3.762   0.770   1.571
  242TCM     h1 1376   3.572   0.635   1.519
  242TCM    cl3 1377   3.653   0.548   1.726
  243TCM     c1 1378   0.470   0.117   0.442
  243TCM    cl1 1379   0.348   0.229   0.372
  243TCM    cl2 1380   0.397   0.029   0.580
  243TCM     h1 1381   0.502   0.045   0.366
  243TCM    cl3 1382   0.611   0.212   0.498
  244TCM     c1 1383   0.507   3.754   3.867
  244TCM    cl1 1384   0.562   3.644   3.998
  244TCM    cl2 1385   0.328   3.746   3.855
  244TCM     h1 1386   0.538   3.857   3.890
  244TCM    cl3 1387   0.580   3.702   3.712
  245TCM     c1 1388   0.227   4.233   4.489
  245TCM    cl1 1389   0.377   4.323   4.447
  245TCM    cl2 1390   0.265   4.059   4.506
  245TCM     h1 1391   0.187   4.272   4.583
  245TCM    cl3 1392   0.107   4.256   4.358
  246TCM     c1 1393   3.517   1.648   0.848
  246TCM    cl1 1394   3.366   1.701   0.767
  246TCM    cl2 1395   3.508   1.687   1.023
  246TCM     h1 1396   3.530   1.541   0.834
  246TCM    cl3 1397   3.656   1.735   0.774
  247TCM     c1 1398   3.314   4.289   3.475
  247TCM    cl1 1399   3.266   4.230   3.313
  247TCM    cl2 1400   3.383   4.454   3.457
  247TCM     h1 1401   3.227   4.293   3.541
  247TCM    cl3 1402   3.437   4.179   3.545
  248TCM     c1 1403   1.848   4.814   3.157
  248TCM    cl1 1404   1.955   4.670   3.158
  248TCM    cl2 1405   1.890   4.920   3.019
  248TCM     h1 1406   1.744   4.782   3.148
  248TCM    cl3 1407   1.869   4.906   3.310
  249TCM     c1 1408   2.592   0.470   2.430
  249TCM    cl1 1409   2.664   0.411   2.584
  249TCM    cl2 1410   2.466   0.592   2.464
  249TCM     h1 1411   2.671   0.514   2.368
  249TCM    cl3 1412   2.518   0.332   2.342
  250TCM     c1 1413   3.279   2.111   4.136
  250TCM    cl1 1414   3.295   2.128   4.314
  250TCM    cl2 1415   3.441   2.129   4.060
  250TCM     h1 1416   3.238   2.013   4.112
  250TCM    cl3 1417   3.170   2.239   4.074
  251TCM     c1 1418   2.962   2.480   0.218
  251TCM    cl1 1419   2.821   2.515   0.323
  251TCM    cl2 1420   3.101   2.430   0.319
  251TCM     h1 1421   2.937   2.400   0.148
  251TCM    cl3 1422   3.005   2.629   0.127
  252TCM     c1 1423   1.574   0.344   4.765
  252TCM    cl1 1424   1.732   0.287   4.702
  252TCM    cl2 1425   1.452   0.339   4.634
  252TCM     h1 1426   1.543   0.279   4.847
  252TCM    cl3 1427   1.591   0.512   4.825
  253TCM     c1 1428   0.733   1.577   1.547
  253TCM    cl1 1429   0.570   1.526   1.603
  253TCM    cl2 1430   0.850   1.444   1.576
  253TCM     h1 1431   0.729   1.601   1.441
  253TCM    cl3 1432   0.784   1.721   1.641
  254TCM     c1 1433   4.957   2.963   0.367
  254TCM    cl1 1434   4.969   2.790   0.321
  254TCM    cl2 1435   5.037   2.989   0.526
  254TCM     h1 1436   5.006   3.024   0.291
  254TCM    cl3 1437   4.784   3.010   0.378
  255TCM     c1 1438   0.471   1.451   3.820
  255TCM    cl1 1439   0.598   1.383   3.928
  255TCM    cl2 1440   0.436   1.620   3.870
  255TCM     h1 1441   0.506   1.449   3.716
  255TCM    cl3 1442   0.322   1.353   3.837
  256TCM     c1 1443   1.799   2.186   0.850
  256TCM    cl1 1444   1.774   2.011   0.882
  256TCM    cl2 1445   1.735   2.226   0.687
  256TCM     h1 1446   1.747   2.246   0.925
  256TCM    cl3 1447   1.975   2.223   0.855
  257TCM     c1 1448   3.540   4.788   4.815
  257TCM    cl1 1449   3.554   4.831   4.989
  257TCM    cl2 1450   3.463   4.627   4.800
  257TCM     h1 1451   3.478   4.863   4.764
  257TCM    cl3 1452   3.703   4.786   4.740
  258TCM     c1 1453   3.222   3.823   3.531
  258TCM    cl1 1454   3.096   3.936   3.471
  258TCM    cl2 1455   3.164   3.654   3.517
  258TCM     h1 1456   3.313   3.835   3.473
  258TCM    cl3 1457   3.256   3.860   3.703
  259TCM     c1 1458   2.809   4.333   3.081
  259TCM    cl1 1459   2.877   4.498   3.086
  259TCM    cl2 1460   2.671   4.321   3.195
  259TCM     h1 1461   2.775   4.310   2.979
  259TCM    cl3 1462   2.937   4.217   3.130
  260TCM     c1 1463   3.329   1.195   2.696
  260TCM    cl1 1464   3.190   1.279   2.771
  260TCM    cl2 1465   3.333   1.024   2.751
  260TCM     h1 1466   3.319   1.197   2.587
  260TCM    cl3 1467   3.480   1.278   2.745
  261TCM     c1 1468   4.627   2.041   4.936
  261TCM    cl1 1469   4.774   1.938   4.944
  261TCM    cl2 1470   4.486   1.947   4.993
  261TCM     h1 1471   4.640   2.130   4.999
  261TCM    cl3 1472   4.599   2.092   4.766
  262TCM     c1 1473   3.075   2.138   0.664
  262TCM    cl1 1474   3.224   2.233   0.632
  262TCM    cl2 1475   3.121   1.972   0.716
  262TCM     h1 1476   3.017   2.186   0.742
  262TCM    cl3 1477   2.978   2.127   0.513
  263TCM     c1 1478   4.760   4.839   1.280
  263TCM    cl1 1479   4.867   4.775   1.409
  263TCM    cl2 1480   4.605   4.892   1.354
  263TCM     h1 1481   4.808   4.924   1.231
  263TCM    cl3 1482   4.728   4.710   1.160
  264TCM     c1 1483   4.692   0.715   3.174
  264TCM    cl1 1484   4.564   0.590   3.188
  264TCM    cl2 1485   4.628   0.856   3.084
  264TCM     h1 1486   4.724   0.746   3.273
  264TCM    cl3 1487   4.832   0.648   3.084
  265TCM     c1 1488   3.417   1.952   0.470
  265TCM    cl1 1489   3.546   2.074   0.496
  265TCM    cl2 1490   3.491   1.795   0.423
  265TCM     h1 1491   3.360   1.939   0.562
  265TCM    cl3 1492   3.308   2.008   0.338
  266TCM     c1 1493   1.866   0.136   2.728
  266TCM    cl1 1494   1.690   0.105   2.745
  266TCM    cl2 1495   1.891   0.288   2.637
  266TCM     h1 1496   1.911   0.145   2.828
  266TCM    cl3 1497   1.943  -0.001   2.641
  267TCM     c1 1498   1.329   4.506   4.793
  267TCM    cl1 1499   1.462   4.625   4.773
  267TCM    cl2 1500   1.231   4.553   4.936
  267TCM     h1 1501   1.266   4.505   4.704
  267TCM    cl3 1502   1.399   4.343   4.819
  268TCM     c1 1503   0.108   0.215   4.537
  268TCM    cl1 1504   0.091   0.084   4.415
  268TCM    cl2 1505   0.123   0.142   4.701
  268TCM     h1 1506   0.198   0.273   4.516
  268TCM    cl3 1507  -0.036   0.321   4.531
  269TCM     c1 1508   4.348   4.635   0.111
  269TCM    cl1 1509   4.231   4.629   0.248
  269TCM    cl2 1510   4.514   4.651   0.176
  269TCM     h1 1511   4.340   4.543   0.052
  269TCM    cl3 1512   4.311   4.776   0.007
  270TCM     c1 1513   0.621   2.550   3.711
  270TCM    cl1 1514   0.710   2.702   3.680
  270TCM    cl2 1515   0.642   2.503   3.884
  270TCM     h1 1516   0.515   2.564   3.690
  270TCM    cl3 1517   0.687   2.420   3.607
  271TCM     c1 1518   3.926   1.418   1.661
  271TCM    cl1 1519   3.954   1.334   1.505
  271TCM    cl2 1520   4.014   1.574   1.662
  271TCM     h1 1521   3.819   1.435   1.674
  271TCM    cl3 1522   3.987   1.316   1.796
  272TCM     c1 1523   1.610   4.583   0.117
  272TCM    cl1 1524   1.725   4.662   0.231
  272TCM    cl2 1525   1.469   4.520   0.208
  272TCM     h1 1526   1.576   4.656   0.043
  272TCM    cl3 1527   1.693   4.447   0.035
  273TCM     c1 1528   3.235   1.118   3.666
  273TCM    cl1 1529   3.111   1.000   3.614
  273TCM    cl2 1530   3.385   1.028   3.708
  273TCM     h1 1531   3.256   1.189   3.586
  273TCM    cl3 1532   3.175   1.205   3.811
  274TCM     c1 1533   4.432   3.449   3.484
  274TCM    cl1 1534   4.322   3.552   3.388
  274TCM    cl2 1535   4.481   3.307   3.386
  274TCM     h1 1536   4.520   3.506   3.513
  274TCM    cl3 1537   4.347   3.392   3.632
  275TCM     c1 1538   0.822   2.203   4.594
  275TCM    cl1 1539   0.697   2.088   4.535
  275TCM    cl2 1540   0.767   2.371   4.567
  275TCM     h1 1541   0.838   2.187   4.701
  275TCM    cl3 1542   0.976   2.177   4.505
  276TCM     c1 1543   1.083   1.926   0.992
  276TCM    cl1 1544   1.190   1.787   1.032
  276TCM    cl2 1545   1.105   1.970   0.820
  276TCM     h1 1546   0.979   1.899   1.010
  276TCM    cl3 1547   1.128   2.067   1.093
  277TCM     c1 1548   3.359   3.221   2.248
  277TCM    cl1 1549   3.484   3.293   2.142
  277TCM    cl2 1550   3.247   3.350   2.302
  277TCM     h1 1551   3.303   3.145   2.193
  277TCM    cl3 1552   3.436   3.146   2.392
  278TCM     c1 1553   3.099   3.362   2.629
  278TCM    cl1 1554   2.964   3.428   2.727
  278TCM    cl2 1555   3.074   3.186   2.603
  278TCM     h1 1556   3.103   3.414   2.533
  278TCM    cl3 1557   3.254   3.387   2.717
  279TCM     c1 1558   1.395   1.250   4.891
  279TCM    cl1 1559   1.457   1.111   4.795
  279TCM    cl2 1560   1.420   1.218   5.066
  279TCM     h1 1561   1.449   1.341   4.863
  279TCM    cl3 1562   1.220   1.271   4.858
  280TCM     c1 1563   3.056   0.056   0.704
  280TCM    cl1 1564   3.148   0.130   0.840
  280TCM    cl2 1565   2.880   0.069   0.736
  280TCM     h1 1566   3.080   0.109   0.611
  280TCM    cl3 1567   3.102  -0.117   0.688
  281TCM     c1 1568   2.126   3.567   0.880
  281TCM    cl1 1569   2.118   3.742   0.842
  281TCM    cl2 1570   2.153   3.545   1.056
  281TCM     h1 1571   2.032   3.519   0.852
  281TCM    cl3 1572   2.261   3.492   0.790
  282TCM     c1 1573   2.812   3.695   1.761
  282TCM    cl1 1574   2.961   3.794   1.744
  282TCM    cl2 1575   2.706   3.765   1.887
  282TCM     h1 1576   2.759   3.692   1.666
  282TCM    cl3 1577   2.860   3.529   1.809
  283TCM     c1 1578   4.717   0.176   4.106
  283TCM    cl1 1579   4.726   0.174   4.285
  283TCM    cl2 1580   4.693   0.344   4.048
  283TCM     h1 1581   4.809   0.136   4.064
  283TCM    cl3 1582   4.578   0.075   4.053
  284TCM     c1 1583   4.769   2.882   4.565
  284TCM    cl1 1584   4.887   2.768   4.492
  284TCM    cl2 1585   4.774   2.865   4.744
  284TCM     h1 1586   4.794   2.984   4.537
  284TCM    cl3 1587   4.604   2.843   4.507
  285TCM     c1 1588   1.205   4.480   1.907
  285TCM    cl1 1589   1.138   4.325   1.847
  285TCM    cl2 1590   1.076   4.605   1.903
  285TCM     h1 1591   1.240   4.467   2.010
  285TCM    cl3 1592   1.342   4.531   1.803
  286TCM     c1 1593   0.001   0.006   0.170
  286TCM    cl1 1594  -0.141  -0.057   0.259
  286TCM    cl2 1595   0.004  -0.066   0.005
  286TCM     h1 1596  -0.006   0.115   0.162
  286TCM    cl3 1597   0.150  -0.040   0.259
  287TCM     c1 1598   4.701   0.307   3.648
  287TCM    cl1 1599   4.705   0.289   3.470
  287TCM    cl2 1600   4.863   0.356   3.708
  287TCM     h1 1601   4.627   0.384   3.676
  287TCM    cl3 1602   4.655   0.150   3.721
  288TCM     c1 1603   3.512   4.893   4.298
  288TCM    cl1 1604   3.454   4.806   4.445
  288TCM    cl2 1605   3.683   4.942   4.323
  288TCM     h1 1606   3.505   4.827   4.211
  288TCM    cl3 1607   3.411   5.039   4.272
  289TCM     c1 1608   1.308   1.807   1.548
  289TCM    cl1 1609   1.398   1.935   1.634
  289TCM    cl2 1610   1.278   1.860   1.379
  289TCM     h1 1611   1.366   1.714   1.548
  289TCM    cl3 1612   1.150   1.779   1.629
  290TCM     c1 1613   0.305   0.162   1.541
  290TCM    cl1 1614   0.137   0.168   1.604
  290TCM    cl2 1615   0.358   0.329   1.501
  290TCM     h1 1616   0.371   0.120   1.617
  290TCM    cl3 1617   0.311   0.061   1.393
  291TCM     c1 1618   3.323   1.613   2.655
  291TCM    cl1 1619   3.172   1.572   2.568
  291TCM    cl2 1620   3.312   1.779   2.721
  291TCM     h1 1621   3.338   1.542   2.738
  291TCM    cl3 1622   3.463   1.604   2.542
  292TCM     c1 1623   3.546   4.986   0.434
  292TCM    cl1 1624   3.599   5.082   0.292
  292TCM    cl2 1625   3.543   4.812   0.389
  292TCM     h1 1626   3.615   5.001   0.516
  292TCM    cl3 1627   3.381   5.038   0.484
  293TCM     c1 1628   0.581   1.275   1.991
  293TCM    cl1 1629   0.422   1.304   1.914
  293TCM    cl2 1630   0.560   1.273   2.168
  293TCM     h1 1631   0.620   1.178   1.958
  293TCM    cl3 1632   0.696   1.405   1.944
  294TCM     c1 1633   2.792   3.749   1.228
  294TCM    cl1 1634   2.694   3.603   1.189
  294TCM    cl2 1635   2.832   3.746   1.402
  294TCM     h1 1636   2.883   3.749   1.168
  294TCM    cl3 1637   2.697   3.897   1.193
  295TCM     c1 1638   2.363   2.487   4.480
  295TCM    cl1 1639   2.471   2.441   4.615
  295TCM    cl2 1640   2.335   2.664   4.486
  295TCM     h1 1641   2.410   2.460   4.385
  295TCM    cl3 1642   2.207   2.400   4.497
  296TCM     c1 1643   0.772   2.108   0.734
  296TCM    cl1 1644   0.884   2.248   0.743
  296TCM    cl2 1645   0.611   2.166   0.679
  296TCM     h1 1646   0.811   2.034   0.663
  296TCM    cl3 1647   0.755   2.034   0.896
  297TCM     c1 1648   2.721   0.156   1.732
  297TCM    cl1 1649   2.867   0.053   1.726
  297TCM    cl2 1650   2.695   0.216   1.899
  297TCM     h1 1651   2.733   0.241   1.664
  297TCM    cl3 1652   2.577   0.060   1.683
  298TCM     c1 1653   2.491   3.684   0.041
  298TCM    cl1 1654   2.474   3.551  -0.079
  298TCM    cl2 1655   2.477   3.617   0.207
  298TCM     h1 1656   2.588   3.732   0.029
  298TCM    cl3 1657   2.362   3.806   0.017
  299TCM     c1 1658   0.318   3.276   4.725
  299TCM    cl1 1659   0.346   3.210   4.890
  299TCM    cl2 1660   0.451   3.389   4.682
  299TCM     h1 1661   0.315   3.194   4.653
  299TCM    cl3 1662   0.163   3.366   4.723
  300TCM     c1 1663   3.871   1.973   1.627
  300TCM    cl1 1664   3.771   1.838   1.691
  300TCM    cl2 1665   3.842   2.120   1.726
  300TCM     h1 1666   3.977   1.946   1.632
  300TCM    cl3 1667   3.825   2.006   1.457
  301TCM     c1 1668   2.189   2.839   2.453
  301TCM    cl1 1669   2.045   2.851   2.347
  301TCM    cl2 1670   2.251   2.671   2.452
  301TCM     h1 1671   2.267   2.908   2.418
  301TCM    cl3 1672   2.141   2.884   2.621
  302TCM     c1 1673   4.745   2.719   0.696
  302TCM    cl1 1674   4.647   2.715   0.546
  302TCM    cl2 1675   4.754   2.887   0.757
  302TCM     h1 1676   4.700   2.654   0.771
  302TCM    cl3 1677   4.911   2.662   0.658
  303TCM     c1 1678  -0.000   4.250   1.615
  303TCM    cl1 1679  -0.090   4.107   1.676
  303TCM    cl2 1680  -0.100   4.334   1.491
  303TCM     h1 1681   0.020   4.319   1.697
  303TCM    cl3 1682   0.155   4.197   1.542
  304TCM     c1 1683   3.109   1.650   3.605
  304TCM    cl1 1684   3.097   1.474   3.572
  304TCM    cl2 1685   3.272   1.690   3.669
  304TCM     h1 1686   3.092   1.706   3.512
  304TCM    cl3 1687   2.984   1.696   3.726
  305TCM     c1 1688   1.122   3.789   1.945
  305TCM    cl1 1689   1.126   3.663   1.818
  305TCM    cl2 1690   1.057   3.720   2.097
  305TCM     h1 1691   1.224   3.826   1.963
  305TCM    cl3 1692   1.018   3.925   1.891
  306TCM     c1 1693   3.039   3.967   2.210
  306TCM    cl1 1694   2.986   3.824   2.115
  306TCM    cl2 1695   3.140   3.911   2.348
  306TCM     h1 1696   3.097   4.033   2.146
  306TCM    cl3 1697   2.896   4.055   2.274
  307TCM     c1 1698   1.651   2.959   2.092
  307TCM    cl1 1699   1.692   2.977   2.266
  307TCM    cl2 1700   1.599   3.117   2.026
  307TCM     h1 1701   1.738   2.923   2.037
  307TCM    cl3 1702   1.517   2.840   2.075
  308TCM     c1 1703   4.646   0.079   4.887
  308TCM    cl1 1704   4.750   0.063   4.741
  308TCM    cl2 1705   4.715   0.204   4.996
  308TCM     h1 1706   4.545   0.108   4.857
  308TCM    cl3 1707   4.642  -0.077   4.974
  309TCM     c1 1708   4.307   4.787   2.547
  309TCM    cl1 1709   4.176   4.864   2.644
  309TCM    cl2 1710   4.350   4.894   2.409
  309TCM     h1 1711   4.395   4.773   2.610
  309TCM    cl3 1712   4.251   4.628   2.485
  310TCM     c1 1713   1.503   0.148   3.111
  310TCM    cl1 1714   1.418   0.199   2.961
  310TCM    cl2 1715   1.666   0.223   3.117
  310TCM     h1 1716   1.444   0.179   3.198
  310TCM    cl3 1717   1.519  -0.031   3.111
  311TCM     c1 1718   3.447   4.922   3.745
  311TCM    cl1 1719   3.486   4.887   3.916
  311TCM    cl2 1720   3.423   4.769   3.654
  311TCM     h1 1721   3.355   4.982   3.740
  311TCM    cl3 1722   3.582   5.015   3.671
  312TCM     c1 1723   3.841   1.983   0.057
  312TCM    cl1 1724   3.793   1.909  -0.099
  312TCM    cl2 1725   3.975   1.888   0.129
  312TCM     h1 1726   3.874   2.086   0.040
  312TCM    cl3 1727   3.700   1.982   0.169
  313TCM     c1 1728   4.727   4.332   2.388
  313TCM    cl1 1729   4.889   4.409   2.374
  313TCM    cl2 1730   4.600   4.451   2.344
  313TCM     h1 1731   4.722   4.246   2.321
  313TCM    cl3 1732   4.702   4.278   2.557
  314TCM     c1 1733   0.057   2.968   2.248
  314TCM    cl1 1734   0.223   2.989   2.314
  314TCM    cl2 1735  -0.055   3.081   2.330
  314TCM     h1 1736   0.058   2.988   2.141
  314TCM    cl3 1737   0.003   2.799   2.277
  315TCM     c1 1738   1.296   2.326   0.765
  315TCM    cl1 1739   1.207   2.371   0.914
  315TCM    cl2 1740   1.386   2.174   0.792
  315TCM     h1 1741   1.225   2.314   0.683
  315TCM    cl3 1742   1.413   2.456   0.724
  316TCM     c1 1743   0.878   1.636   3.772
  316TCM    cl1 1744   0.947   1.505   3.873
  316TCM    cl2 1745   0.788   1.751   3.876
  316TCM     h1 1746   0.959   1.689   3.721
  316TCM    cl3 1747   0.767   1.565   3.650
  317TCM     c1 1748   4.037   3.541   1.249
  317TCM    cl1 1749   4.044   3.695   1.157
  317TCM    cl2 1750   3.866   3.505   1.291
  317TCM     h1 1751   4.078   3.460   1.189
  317TCM    cl3 1752   4.134   3.558   1.400
  318TCM     c1 1753   0.120   0.131   2.075
  318TCM    cl1 1754   0.210   0.006   1.984
  318TCM    cl2 1755  -0.024   0.056   2.153
  318TCM     h1 1756   0.184   0.174   2.152
  318TCM    cl3 1757   0.067   0.259   1.962
  319TCM     c1 1758   1.268   2.214   1.850
  319TCM    cl1 1759   1.364   2.297   1.722
  319TCM    cl2 1760   1.193   2.337   1.956
  319TCM     h1 1761   1.190   2.153   1.803
  319TCM    cl3 1762   1.376   2.109   1.948
  320TCM     c1 1763   0.856   2.238   4.061
  320TCM    cl1 1764   0.896   2.136   3.919
  320TCM    cl2 1765   1.007   2.286   4.145
  320TCM     h1 1766   0.802   2.327   4.028
  320TCM    cl3 1767   0.752   2.144   4.174
  321TCM     c1 1768   1.137   0.821   4.932
  321TCM    cl1 1769   0.990   0.863   4.837
  321TCM    cl2 1770   1.174   0.955   5.045
  321TCM     h1 1771   1.118   0.730   4.989
  321TCM    cl3 1772   1.274   0.794   4.819
  322TCM     c1 1773   3.464   2.779   0.804
  322TCM    cl1 1774   3.407   2.785   0.974
  322TCM    cl2 1775   3.356   2.879   0.701
  322TCM     h1 1776   3.566   2.817   0.798
  322TCM    cl3 1777   3.460   2.609   0.747
  323TCM     c1 1778   3.730   4.888   3.202
  323TCM    cl1 1779   3.643   4.839   3.352
  323TCM    cl2 1780   3.810   5.046   3.228
  323TCM     h1 1781   3.805   4.812   3.178
  323TCM    cl3 1782   3.613   4.902   3.067
  324TCM     c1 1783   4.598   3.389   0.086
  324TCM    cl1 1784   4.476   3.431  -0.039
  324TCM    cl2 1785   4.515   3.340   0.237
  324TCM     h1 1786   4.660   3.307   0.050
  324TCM    cl3 1787   4.701   3.532   0.118
  325TCM     c1 1788   4.678   2.677   2.687
  325TCM    cl1 1789   4.779   2.773   2.575
  325TCM    cl2 1790   4.536   2.776   2.737
  325TCM     h1 1791   4.644   2.586   2.638
  325TCM    cl3 1792   4.775   2.634   2.832
  326TCM     c1 1793   2.136   4.428   3.367
  326TCM    cl1 1794   2.276   4.507   3.287
  326TCM    cl2 1795   2.117   4.496   3.532
  326TCM     h1 1796   2.045   4.447   3.309
  326TCM    cl3 1797   2.165   4.251   3.378
  327TCM     c1 1798   3.393   2.101   1.012
  327TCM    cl1 1799   3.321   2.264   0.991
  327TCM    cl2 1800   3.466   2.049   0.857
  327TCM     h1 1801   3.470   2.105   1.089
  327TCM    cl3 1802   3.264   1.985   1.060
  328TCM     c1 1803   2.510   1.949   2.425
  328TCM    cl1 1804   2.420   1.865   2.554
  328TCM    cl2 1805   2.630   2.061   2.498
  328TCM     h1 1806   2.562   1.876   2.363
  328TCM    cl3 1807   2.394   2.042   2.324
  329TCM     c1 1808   2.956   2.685   3.465
  329TCM    cl1 1809   2.948   2.821   3.347
  329TCM    cl2 1810   2.850   2.551   3.410
  329TCM     h1 1811   3.059   2.649   3.473
  329TCM    cl3 1812   2.900   2.744   3.625
  330TCM     c1 1813   4.944   1.767   1.653
  330TCM    cl1 1814   4.856   1.765   1.496
  330TCM    cl2 1815   4.829   1.802   1.786
  330TCM     h1 1816   4.991   1.670   1.669
  330TCM    cl3 1817   5.070   1.896   1.648
  331TCM     c1 1818   1.684   1.115   3.397
  331TCM    cl1 1819   1.533   1.087   3.304
  331TCM    cl2 1820   1.645   1.113   3.572
  331TCM     h1 1821   1.756   1.036   3.374
  331TCM    cl3 1822   1.754   1.274   3.355
  332TCM     c1 1823   3.372   4.242   2.177
  332TCM    cl1 1824   3.220   4.278   2.265
  332TCM    cl2 1825   3.405   4.372   2.058
  332TCM     h1 1826   3.455   4.236   2.249
  332TCM    cl3 1827   3.355   4.086   2.092
  333TCM     c1 1828   2.108   3.511   0.420
  333TCM    cl1 1829   2.249   3.405   0.387
  333TCM    cl2 1830   2.165   3.670   0.478
  333TCM     h1 1831   2.050   3.524   0.328
  333TCM    cl3 1832   2.005   3.434   0.545
  334TCM     c1 1833   4.643   2.112   3.005
  334TCM    cl1 1834   4.737   2.153   2.857
  334TCM    cl2 1835   4.471   2.085   2.963
  334TCM     h1 1836   4.685   2.022   3.050
  334TCM    cl3 1837   4.655   2.248   3.122
  335TCM     c1 1838   2.284   3.880   1.317
  335TCM    cl1 1839   2.391   4.025   1.322
  335TCM    cl2 1840   2.382   3.730   1.313
  335TCM     h1 1841   2.220   3.879   1.406
  335TCM    cl3 1842   2.182   3.886   1.170
  336TCM     c1 1843   1.096   4.962   4.541
  336TCM    cl1 1844   1.157   5.112   4.618
  336TCM    cl2 1845   0.924   4.937   4.588
  336TCM     h1 1846   1.103   4.971   4.433
  336TCM    cl3 1847   1.193   4.822   4.597
  337TCM     c1 1848   3.556   3.294   3.502
  337TCM    cl1 1849   3.520   3.206   3.654
  337TCM    cl2 1850   3.514   3.189   3.363
  337TCM     h1 1851   3.497   3.386   3.498
  337TCM    cl3 1852   3.731   3.334   3.496
  338TCM     c1 1853   3.563   3.717   1.117
  338TCM    cl1 1854   3.654   3.624   0.993
  338TCM    cl2 1855   3.671   3.838   1.193
  338TCM     h1 1856   3.478   3.768   1.069
  338TCM    cl3 1857   3.503   3.605   1.243
  339TCM     c1 1858   2.409   1.061   3.729
  339TCM    cl1 1859   2.307   1.116   3.866
  339TCM    cl2 1860   2.305   1.030   3.585
  339TCM     h1 1861   2.482   1.138   3.705
  339TCM    cl3 1862   2.493   0.909   3.775
  340TCM     c1 1863   2.076   3.636   4.580
  340TCM    cl1 1864   1.907   3.624   4.639
  340TCM    cl2 1865   2.117   3.487   4.488
  340TCM     h1 1866   2.085   3.723   4.514
  340TCM    cl3 1867   2.187   3.653   4.719
  341TCM     c1 1868   4.319   3.813   3.125
  341TCM    cl1 1869   4.359   3.899   2.972
  341TCM    cl2 1870   4.153   3.747   3.112
  341TCM     h1 1871   4.390   3.732   3.141
  341TCM    cl3 1872   4.329   3.930   3.261
  342TCM     c1 1873   3.197   1.887   4.595
  342TCM    cl1 1874   3.050   1.987   4.571
  342TCM    cl2 1875   3.233   1.797   4.444
  342TCM     h1 1876   3.281   1.952   4.620
  342TCM    cl3 1877   3.169   1.770   4.728
  343TCM     c1 1878   0.586   0.562   4.139
  343TCM    cl1 1879   0.633   0.430   4.027
  343TCM    cl2 1880   0.659   0.716   4.085
  343TCM     h1 1881   0.477   0.572   4.141
  343TCM    cl3 1882   0.645   0.522   4.304
  344TCM     c1 1883   3.319   0.815   1.804
  344TCM    cl1 1884   3.147   0.866   1.797
  344TCM    cl2 1885   3.386   0.811   1.638
  344TCM     h1 1886   3.375   0.886   1.865
  344TCM    cl3 1887   3.330   0.652   1.877
  345TCM     c1 1888   2.697   4.493   2.578
  345TCM    cl1 1889   2.809   4.589   2.474
  345TCM    cl2 1890   2.753   4.501   2.748
  345TCM     h1 1891   2.596   4.534   2.570
  345TCM    cl3 1892   2.698   4.322   2.523
  346TCM     c1 1893   0.808   1.035   2.254
  346TCM    cl1 1894   0.918   0.961   2.374
  346TCM    cl2 1895   0.752   0.909   2.139
  346TCM     h1 1896   0.721   1.079   2.305
  346TCM    cl3 1897   0.897   1.161   2.163
  347TCM     c1 1898   2.368   4.303   3.004
  347TCM    cl1 1899   2.333   4.136   3.061
  347TCM    cl2 1900   2.215   4.383   2.955
  347TCM     h1 1901   2.414   4.360   3.085
  347TCM    cl3 1902   2.480   4.296   2.864
  348TCM     c1 1903   4.211   1.938   4.737
  348TCM    cl1 1904   4.266   2.026   4.590
  348TCM    cl2 1905   4.077   1.826   4.692
  348TCM     h1 1906   4.294   1.880   4.778
  348TCM    cl3 1907   4.152   2.056   4.858
  349TCM     c1 1908   0.378   0.242   0.007
  349TCM    cl1 1909   0.204   0.272   0.040
  349TCM    cl2 1910   0.423   0.322  -0.147
  349TCM     h1 1911   0.439   0.284   0.089
  349TCM    cl3 1912   0.408   0.066  -0.004
  350TCM     c1 1913   3.702   3.675   0.138
  350TCM    cl1 1914   3.647   3.546   0.026
  350TCM    cl2 1915   3.615   3.659   0.294
  350TCM     h1 1916   3.810   3.665   0.154
  350TCM    cl3 1917   3.667   3.834   0.064
  351TCM     c1 1918   2.211   2.292   2.585
  351TCM    cl1 1919   2.126   2.409   2.692
  351TCM    cl2 1920   2.194   2.127   2.653
  351TCM     h1 1921   2.167   2.296   2.485
  351TCM    cl3 1922   2.385   2.335   2.576
  352TCM     c1 1923   2.034   4.211   1.511
  352TCM    cl1 1924   2.101   4.377   1.519
  352TCM    cl2 1925   2.140   4.099   1.602
  352TCM     h1 1926   1.933   4.210   1.554
  352TCM    cl3 1927   2.026   4.158   1.340
  353TCM     c1 1928   4.147   3.718   1.852
  353TCM    cl1 1929   4.175   3.543   1.827
  353TCM    cl2 1930   4.294   3.793   1.923
  353TCM     h1 1931   4.125   3.766   1.756
  353TCM    cl3 1932   4.008   3.742   1.964
  354TCM     c1 1933   2.581   4.574   0.660
  354TCM    cl1 1934   2.601   4.570   0.482
  354TCM    cl2 1935   2.573   4.745   0.716
  354TCM     h1 1936   2.488   4.523   0.688
  354TCM    cl3 1937   2.719   4.492   0.738
  355TCM     c1 1938   2.855   2.281   4.721
  355TCM    cl1 1939   2.826   2.405   4.595
  355TCM    cl2 1940   2.704   2.188   4.747
  355TCM     h1 1941   2.934   2.213   4.689
  355TCM    cl3 1942   2.902   2.361   4.874
  356TCM     c1 1943   1.793   3.301   2.382
  356TCM    cl1 1944   1.785   3.446   2.487
  356TCM    cl2 1945   1.936   3.202   2.427
  356TCM     h1 1946   1.702   3.242   2.393
  356TCM    cl3 1947   1.810   3.353   2.211
  357TCM     c1 1948   0.705   4.195   4.688
  357TCM    cl1 1949   0.702   4.169   4.511
  357TCM    cl2 1950   0.643   4.359   4.725
  357TCM     h1 1951   0.642   4.121   4.737
  357TCM    cl3 1952   0.874   4.179   4.748
  358TCM     c1 1953   0.284   2.180   1.749
  358TCM    cl1 1954   0.389   2.034   1.746
  358TCM    cl2 1955   0.321   2.285   1.609
  358TCM     h1 1956   0.179   2.149   1.746
  358TCM    cl3 1957   0.316   2.271   1.900
  359TCM     c1 1958   4.556   0.714   4.032
  359TCM    cl1 1959   4.686   0.837   4.029
  359TCM    cl2 1960   4.555   0.623   3.877
  359TCM     h1 1961   4.572   0.646   4.115
  359TCM    cl3 1962   4.397   0.796   4.051
  360TCM     c1 1963   3.918   1.134   0.233
  360TCM    cl1 1964   3.797   1.213   0.338
  360TCM    cl2 1965   3.836   1.060   0.091
  360TCM     h1 1966   3.991   1.208   0.199
  360TCM    cl3 1967   4.004   1.006   0.325
  361TCM     c1 1968   1.906   1.537   3.629
  361TCM    cl1 1969   1.760   1.475   3.713
  361TCM    cl2 1970   2.036   1.571   3.748
  361TCM     h1 1971   1.941   1.463   3.556
  361TCM    cl3 1972   1.865   1.690   3.544
  362TCM     c1 1973   0.277   1.714   1.926
  362TCM    cl1 1974   0.395   1.638   2.037
  362TCM    cl2 1975   0.117   1.727   2.006
  362TCM     h1 1976   0.312   1.814   1.898
  362TCM    cl3 1977   0.261   1.612   1.779
  363TCM     c1 1978   1.392   0.607   3.308
  363TCM    cl1 1979   1.219   0.653   3.322
  363TCM    cl2 1980   1.413   0.502   3.163
  363TCM     h1 1981   1.454   0.697   3.298
  363TCM    cl3 1982   1.442   0.515   3.454
  364TCM     c1 1983   2.133   4.153   0.852
  364TCM    cl1 1984   2.114   4.315   0.777
  364TCM    cl2 1985   1.993   4.119   0.958
  364TCM     h1 1986   2.138   4.077   0.773
  364TCM    cl3 1987   2.285   4.149   0.948
  365TCM     c1 1988   3.239   1.664   4.109
  365TCM    cl1 1989   3.226   1.528   3.993
  365TCM    cl2 1990   3.098   1.774   4.088
  365TCM     h1 1991   3.241   1.626   4.211
  365TCM    cl3 1992   3.390   1.756   4.077
  366TCM     c1 1993   2.384   3.357   3.981
  366TCM    cl1 1994   2.328   3.451   3.839
  366TCM    cl2 1995   2.402   3.185   3.933
  366TCM     h1 1996   2.480   3.396   4.015
  366TCM    cl3 1997   2.263   3.371   4.113
  367TCM     c1 1998   2.866   0.536   4.845
  367TCM    cl1 1999   2.852   0.368   4.905
  367TCM    cl2 2000   2.897   0.534   4.668
  367TCM     h1 2001   2.774   0.590   4.866
  367TCM    cl3 2002   3.003   0.617   4.929
  368TCM     c1 2003   3.235   2.605   2.421
  368TCM    cl1 2004   3.386   2.645   2.332
  368TCM    cl2 2005   3.245   2.670   2.588
  368TCM     h1 2006   3.149   2.649   2.369
  368TCM    cl3 2007   3.216   2.427   2.428
  369TCM     c1 2008   4.651   4.093   0.783
  369TCM    cl1 2009   4.580   4.044   0.626
  369TCM    cl2 2010   4.523   4.091   0.909
  369TCM     h1 2011   4.730   4.024   0.810
  369TCM    cl3 2012   4.718   4.259   0.767
  370TCM     c1 2013   2.015   2.646   4.315
  370TCM    cl1 2014   2.000   2.824   4.320
  370TCM    cl2 2015   2.104   2.596   4.167
  370TCM     h1 2016   2.069   2.612   4.404
  370TCM    cl3 2017   1.851   2.572   4.314
  371TCM     c1 2018   2.600   3.914   4.065
  371TCM    cl1 2019   2.777   3.888   4.063
  371TCM    cl2 2020   2.552   4.020   3.930
  371TCM     h1 2021   2.549   3.817   4.055
  371TCM    cl3 2022   2.553   3.992   4.220
  372TCM     c1 2023   4.538   0.136   2.702
  372TCM    cl1 2024   4.373   0.207   2.703
  372TCM    cl2 2025   4.601   0.137   2.534
  372TCM     h1 2026   4.603   0.195   2.766
  372TCM    cl3 2027   4.530  -0.032   2.763
  373TCM     c1 2028   1.832   3.837   2.105
  373TCM    cl1 2029   1.696   3.943   2.057
  373TCM    cl2 2030   1.788   3.743   2.252
  373TCM     h1 2031   1.855   3.767   2.023
  373TCM    cl3 2032   1.978   3.936   2.139
  374TCM     c1 2033   3.404   0.361   1.008
  374TCM    cl1 2034   3.383   0.426   0.843
  374TCM    cl2 2035   3.266   0.411   1.111
  374TCM     h1 2036   3.409   0.252   1.004
  374TCM    cl3 2037   3.555   0.427   1.080
  375TCM     c1 2038   0.137   3.700   3.001
  375TCM    cl1 2039   0.136   3.521   2.996
  375TCM    cl2 2040   0.091   3.756   3.165
  375TCM     h1 2041   0.236   3.737   2.975
  375TCM    cl3 2042   0.017   3.763   2.882
  376TCM     c1 2043   2.674   2.755   4.707
  376TCM    cl1 2044   2.724   2.904   4.620
  376TCM    cl2 2045   2.525   2.789   4.801
  376TCM     h1 2046   2.655   2.675   4.636
  376TCM    cl3 2047   2.806   2.706   4.819
  377TCM     c1 2048   2.379   0.030   0.586
  377TCM    cl1 2049   2.210  -0.019   0.624
  377TCM    cl2 2050   2.456   0.099   0.732
  377TCM     h1 2051   2.435  -0.058   0.552
  377TCM    cl3 2052   2.377   0.153   0.455
  378TCM     c1 2053   2.995   0.371   2.302
  378TCM    cl1 2054   3.030   0.233   2.411
  378TCM    cl2 2055   2.974   0.520   2.400
  378TCM     h1 2056   3.077   0.384   2.232
  378TCM    cl3 2057   2.843   0.339   2.212
  379TCM     c1 2058   1.834   3.272   4.554
  379TCM    cl1 2059   1.693   3.272   4.666
  379TCM    cl2 2060   1.786   3.346   4.398
  379TCM     h1 2061   1.915   3.329   4.599
  379TCM    cl3 2062   1.887   3.103   4.527
  380TCM     c1 2063   0.669   2.648   0.610
  380TCM    cl1 2064   0.710   2.785   0.501
  380TCM    cl2 2065   0.800   2.628   0.731
  380TCM     h1 2066   0.575   2.669   0.661
  380TCM    cl3 2067   0.653   2.498   0.514
  381TCM     c1 2068   2.978   0.185   3.061
  381TCM    cl1 2069   2.861   0.321   3.053
  381TCM    cl2 2070   2.964   0.103   3.219
  381TCM     h1 2071   2.957   0.115   2.980
  381TCM    cl3 2072   3.145   0.248   3.042
  382TCM     c1 2073   2.141   3.116   0.837
  382TCM    cl1 2074   2.017   3.233   0.891
  382TCM    cl2 2075   2.117   3.079   0.664
  382TCM     h1 2076   2.241   3.159   0.852
  382TCM    cl3 2077   2.125   2.966   0.935
  383TCM     c1 2078   3.045   0.163   3.942
  383TCM    cl1 2079   3.074   0.264   3.796
  383TCM    cl2 2080   3.148   0.017   3.937
  383TCM     h1 2081   3.068   0.221   4.032
  383TCM    cl3 2082   2.872   0.114   3.946
  384TCM     c1 2083   2.954   3.396   0.053
  384TCM    cl1 2084   3.051   3.533   0.116
  384TCM    cl2 2085   2.789   3.405   0.124
  384TCM     h1 2086   2.948   3.401  -0.056
  384TCM    cl3 2087   3.032   3.242   0.102
  385TCM     c1 2088   0.220   0.323   4.154
  385TCM    cl1 2089   0.041   0.316   4.150
  385TCM    cl2 2090   0.272   0.440   4.279
  385TCM     h1 2091   0.260   0.224   4.178
  385TCM    cl3 2092   0.280   0.374   3.992
  386TCM     c1 2093   2.567   2.644   3.763
  386TCM    cl1 2094   2.635   2.631   3.929
  386TCM    cl2 2095   2.392   2.681   3.773
  386TCM     h1 2096   2.618   2.725   3.710
  386TCM    cl3 2097   2.591   2.489   3.676
  387TCM     c1 2098   0.706   1.172   4.919
  387TCM    cl1 2099   0.801   1.098   5.052
  387TCM    cl2 2100   0.646   1.042   4.810
  387TCM     h1 2101   0.621   1.227   4.960
  387TCM    cl3 2102   0.812   1.283   4.828
  388TCM     c1 2103   4.802   3.006   1.892
  388TCM    cl1 2104   4.798   3.033   1.714
  388TCM    cl2 2105   4.872   3.150   1.972
  388TCM     h1 2106   4.701   2.988   1.929
  388TCM    cl3 2107   4.905   2.863   1.927
  389TCM     c1 2108   3.141   3.235   0.444
  389TCM    cl1 2109   3.090   3.063   0.435
  389TCM    cl2 2110   3.241   3.260   0.590
  389TCM     h1 2111   3.199   3.260   0.355
  389TCM    cl3 2112   2.996   3.341   0.452
  390TCM     c1 2113   2.592   4.674   1.574
  390TCM    cl1 2114   2.632   4.783   1.437
  390TCM    cl2 2115   2.417   4.690   1.612
  390TCM     h1 2116   2.615   4.571   1.547
  390TCM    cl3 2117   2.689   4.721   1.718
  391TCM     c1 2118   2.802   3.758   4.696
  391TCM    cl1 2119   2.639   3.829   4.679
  391TCM    cl2 2120   2.822   3.625   4.576
  391TCM     h1 2121   2.878   3.835   4.677
  391TCM    cl3 2122   2.821   3.693   4.862
  392TCM     c1 2123   3.940   3.792   2.807
  392TCM    cl1 2124   4.047   3.933   2.775
  392TCM    cl2 2125   3.853   3.748   2.657
  392TCM     h1 2126   4.000   3.708   2.841
  392TCM    cl3 2127   3.821   3.836   2.933
  393TCM     c1 2128   2.342   1.541   2.339
  393TCM    cl1 2129   2.223   1.665   2.287
  393TCM    cl2 2130   2.324   1.515   2.516
  393TCM     h1 2131   2.322   1.448   2.286
  393TCM    cl3 2132   2.508   1.598   2.303
  394TCM     c1 2133   4.947   2.268   0.539
  394TCM    cl1 2134   5.050   2.332   0.672
  394TCM    cl2 2135   4.783   2.341   0.551
  394TCM     h1 2136   4.992   2.295   0.443
  394TCM    cl3 2137   4.935   2.090   0.554
  395TCM     c1 2138   4.118   0.520   3.035
  395TCM    cl1 2139   4.282   0.464   2.988
  395TCM    cl2 2140   4.015   0.378   3.073
  395TCM     h1 2141   4.125   0.585   3.122
  395TCM    cl3 2142   4.047   0.611   2.897
  396TCM     c1 2143   4.937   2.293   0.106
  396TCM    cl1 2144   4.974   2.444   0.196
  396TCM    cl2 2145   4.850   2.333  -0.045
  396TCM     h1 2146   5.030   2.242   0.082
  396TCM    cl3 2147   4.835   2.186   0.207
  397TCM     c1 2148   3.496   1.258   1.185
  397TCM    cl1 2149   3.640   1.256   1.292
  397TCM    cl2 2150   3.546   1.301   1.018
  397TCM     h1 2151   3.449   1.159   1.185
  397TCM    cl3 2152   3.379   1.380   1.245
  398TCM     c1 2153   2.844   4.165   4.353
  398TCM    cl1 2154   2.856   4.002   4.428
  398TCM    cl2 2155   2.943   4.167   4.203
  398TCM     h1 2156   2.740   4.186   4.328
  398TCM    cl3 2157   2.907   4.287   4.467
  399TCM     c1 2158   1.448   0.189   0.256
  399TCM    cl1 2159   1.562   0.268   0.141
  399TCM    cl2 2160   1.401   0.307   0.382
  399TCM     h1 2161   1.359   0.154   0.202
  399TCM    cl3 2162   1.532   0.050   0.333
  400TCM     c1 2163   1.629   3.052   4.238
  400TCM    cl1 2164   1.676   2.892   4.171
  400TCM    cl2 2165   1.545   3.028   4.395
  400TCM     h1 2166   1.718   3.113   4.253
  400TCM    cl3 2167   1.518   3.134   4.123
  401TCM     c1 2168   1.396   2.302   2.259
  401TCM    cl1 2169   1.353   2.441   2.363
  401TCM    cl2 2170   1.274   2.172   2.282
  401TCM     h1 2171   1.397   2.334   2.154
  401TCM    cl3 2172   1.559   2.241   2.303
  402TCM     c1 2173   1.300   1.034   0.750
  402TCM    cl1 2174   1.254   0.878   0.675
  402TCM    cl2 2175   1.196   1.164   0.682
  402TCM     h1 2176   1.286   1.029   0.858
  402TCM    cl3 2177   1.472   1.070   0.712
  403TCM     c1 2178   0.568   0.194   3.146
  403TCM    cl1 2179   0.425   0.263   3.230
  403TCM    cl2 2180   0.617   0.304   3.013
  403TCM     h1 2181   0.650   0.184   3.217
  403TCM    cl3 2182   0.528   0.033   3.078
  404TCM     c1 2183   2.758   3.769   0.397
  404TCM    cl1 2184   2.902   3.727   0.494
  404TCM    cl2 2185   2.801   3.769   0.223
  404TCM     h1 2186   2.678   3.696   0.416
  404TCM    cl3 2187   2.701   3.933   0.441
  405TCM     c1 2188   0.119   1.748   0.650
  405TCM    cl1 2189   0.206   1.691   0.504
  405TCM    cl2 2190   0.180   1.657   0.792
  405TCM     h1 2191   0.136   1.855   0.665
  405TCM    cl3 2192  -0.057   1.716   0.630
  406TCM     c1 2193   3.276   4.513   3.980
  406TCM    cl1 2194   3.400   4.574   4.094
  406TCM    cl2 2195   3.354   4.426   3.844
  406TCM     h1 2196   3.208   4.445   4.033
  406TCM    cl3 2197   3.182   4.651   3.914
  407TCM     c1 2198   0.556   3.111   3.368
  407TCM    cl1 2199   0.547   2.997   3.506
  407TCM    cl2 2200   0.627   3.026   3.227
  407TCM     h1 2201   0.456   3.146   3.343
  407TCM    cl3 2202   0.660   3.251   3.413
  408TCM     c1 2203   2.855   0.595   1.941
  408TCM    cl1 2204   2.883   0.497   1.792
  408TCM    cl2 2205   2.801   0.759   1.895
  408TCM     h1 2206   2.778   0.547   2.002
  408TCM    cl3 2207   3.008   0.606   2.033
  409TCM     c1 2208   4.746   4.782   4.155
  409TCM    cl1 2209   4.658   4.802   4.311
  409TCM    cl2 2210   4.772   4.608   4.120
  409TCM     h1 2211   4.687   4.827   4.075
  409TCM    cl3 2212   4.905   4.865   4.167
  410TCM     c1 2213   3.808   0.870   2.014
  410TCM    cl1 2214   3.923   0.957   1.907
  410TCM    cl2 2215   3.644   0.879   1.944
  410TCM     h1 2216   3.838   0.765   2.022
  410TCM    cl3 2217   3.809   0.946   2.176
  411TCM     c1 2218   2.383   4.617   2.344
  411TCM    cl1 2219   2.304   4.529   2.478
  411TCM    cl2 2220   2.474   4.500   2.243
  411TCM     h1 2221   2.308   4.668   2.283
  411TCM    cl3 2222   2.497   4.739   2.411
  412TCM     c1 2223   2.162   2.587   0.712
  412TCM    cl1 2224   2.254   2.735   0.672
  412TCM    cl2 2225   2.102   2.595   0.881
  412TCM     h1 2226   2.076   2.578   0.644
  412TCM    cl3 2227   2.267   2.443   0.694
  413TCM     c1 2228   2.178   4.692   0.402
  413TCM    cl1 2229   2.235   4.591   0.539
  413TCM    cl2 2230   2.104   4.587   0.277
  413TCM     h1 2231   2.104   4.764   0.438
  413TCM    cl3 2232   2.318   4.779   0.332
  414TCM     c1 2233   3.538   1.135   2.322
  414TCM    cl1 2234   3.574   1.038   2.469
  414TCM    cl2 2235   3.449   1.283   2.368
  414TCM     h1 2236   3.631   1.162   2.272
  414TCM    cl3 2237   3.436   1.038   2.210
  415TCM     c1 2238   3.660   3.962   0.641
  415TCM    cl1 2239   3.744   3.808   0.605
  415TCM    cl2 2240   3.563   3.941   0.792
  415TCM     h1 2241   3.733   4.041   0.655
  415TCM    cl3 2242   3.551   4.003   0.505
  416TCM     c1 2243   1.801   4.316   1.957
  416TCM    cl1 2244   1.887   4.200   1.851
  416TCM    cl2 2245   1.838   4.280   2.129
  416TCM     h1 2246   1.834   4.418   1.934
  416TCM    cl3 2247   1.625   4.302   1.930
  417TCM     c1 2248   4.963   2.967   2.825
  417TCM    cl1 2249   5.059   2.853   2.925
  417TCM    cl2 2250   5.052   3.002   2.674
  417TCM     h1 2251   4.866   2.922   2.801
  417TCM    cl3 2252   4.937   3.119   2.916
  418TCM     c1 2253   1.534   1.223   2.164
  418TCM    cl1 2254   1.572   1.052   2.126
  418TCM    cl2 2255   1.417   1.287   2.043
  418TCM     h1 2256   1.491   1.230   2.264
  418TCM    cl3 2257   1.685   1.320   2.155
  419TCM     c1 2258   1.095   4.190   0.204
  419TCM    cl1 2259   1.117   4.216   0.028
  419TCM    cl2 2260   0.971   4.063   0.229
  419TCM     h1 2261   1.189   4.159   0.250
  419TCM    cl3 2262   1.038   4.343   0.279
  420TCM     c1 2263   3.085   2.567   0.664
  420TCM    cl1 2264   2.938   2.465   0.655
  420TCM    cl2 2265   3.106   2.621   0.834
  420TCM     h1 2266   3.172   2.509   0.633
  420TCM    cl3 2267   3.064   2.709   0.557
  421TCM     c1 2268   0.767   2.091   2.464
  421TCM    cl1 2269   0.602   2.147   2.509
  421TCM    cl2 2270   0.799   1.931   2.538
  421TCM     h1 2271   0.774   2.083   2.355
  421TCM    cl3 2272   0.888   2.209   2.523
  422TCM     c1 2273   2.506   0.588   4.560
  422TCM    cl1 2274   2.578   0.451   4.469
  422TCM    cl2 2275   2.598   0.737   4.523
  422TCM     h1 2276   2.401   0.601   4.530
  422TCM    cl3 2277   2.516   0.554   4.736
  423TCM     c1 2278   0.493   4.289   4.008
  423TCM    cl1 2279   0.534   4.148   3.904
  423TCM    cl2 2280   0.593   4.284   4.158
  423TCM     h1 2281   0.514   4.382   3.954
  423TCM    cl3 2282   0.320   4.283   4.053
  424TCM     c1 2283   4.789   3.984   1.270
  424TCM    cl1 2284   4.782   3.867   1.406
  424TCM    cl2 2285   4.759   3.897   1.116
  424TCM     h1 2286   4.712   4.061   1.284
  424TCM    cl3 2287   4.951   4.060   1.264
  425TCM     c1 2288   2.512   2.308   0.038
  425TCM    cl1 2289   2.368   2.310   0.144
  425TCM    cl2 2290   2.650   2.235   0.126
  425TCM     h1 2291   2.491   2.249  -0.052
  425TCM    cl3 2292   2.555   2.475  -0.010
  426TCM     c1 2293   0.225   4.918   3.394
  426TCM    cl1 2294   0.183   4.983   3.232
  426TCM    cl2 2295   0.401   4.937   3.422
  426TCM     h1 2296   0.170   4.973   3.471
  426TCM    cl3 2297   0.183   4.744   3.402
  427TCM     c1 2298   3.183   2.221   2.054
  427TCM    cl1 2299   3.175   2.400   2.061
  427TCM    cl2 2300   3.020   2.152   2.083
  427TCM     h1 2301   3.218   2.190   1.955
  427TCM    cl3 2302   3.295   2.161   2.180
  428TCM     c1 2303   4.142   0.987   4.900
  428TCM    cl1 2304   4.205   1.104   5.021
  428TCM    cl2 2305   4.280   0.897   4.829
  428TCM     h1 2306   4.074   0.918   4.949
  428TCM    cl3 2307   4.055   1.076   4.771
  429TCM     c1 2308   0.918   1.832   4.292
  429TCM    cl1 2309   0.955   1.819   4.468
  429TCM    cl2 2310   0.899   1.667   4.224
  429TCM     h1 2311   0.826   1.888   4.278
  429TCM    cl3 2312   1.053   1.916   4.209
  430TCM     c1 2313   0.473   0.353   2.029
  430TCM    cl1 2314   0.433   0.281   1.869
  430TCM    cl2 2315   0.466   0.226   2.156
  430TCM     h1 2316   0.573   0.396   2.026
  430TCM    cl3 2317   0.354   0.481   2.068
  431TCM     c1 2318   3.795   0.174   0.973
  431TCM    cl1 2319   3.641   0.088   0.939
  431TCM    cl2 2320   3.822   0.299   0.848
  431TCM     h1 2321   3.790   0.221   1.072
  431TCM    cl3 2322   3.931   0.057   0.969
  432TCM     c1 2323   2.983   2.070   3.493
  432TCM    cl1 2324   3.047   2.196   3.383
  432TCM    cl2 2325   3.102   2.039   3.624
  432TCM     h1 2326   2.889   2.104   3.537
  432TCM    cl3 2327   2.956   1.918   3.402
  433TCM     c1 2328   3.571   2.866   3.565
  433TCM    cl1 2329   3.576   2.855   3.744
  433TCM    cl2 2330   3.533   2.705   3.495
  433TCM     h1 2331   3.493   2.937   3.535
  433TCM    cl3 2332   3.730   2.922   3.504
  434TCM     c1 2333   3.221   4.291   1.738
  434TCM    cl1 2334   3.104   4.361   1.854
  434TCM    cl2 2335   3.171   4.329   1.570
  434TCM     h1 2336   3.321   4.332   1.757
  434TCM    cl3 2337   3.225   4.113   1.757
  435TCM     c1 2338   0.424   1.146   4.155
  435TCM    cl1 2339   0.264   1.102   4.222
  435TCM    cl2 2340   0.456   1.045   4.010
  435TCM     h1 2341   0.425   1.252   4.127
  435TCM    cl3 2342   0.551   1.116   4.278
  436TCM     c1 2343   0.474   2.071   1.362
  436TCM    cl1 2344   0.554   1.932   1.442
  436TCM    cl2 2345   0.300   2.033   1.339
  436TCM     h1 2346   0.484   2.160   1.424
  436TCM    cl3 2347   0.549   2.102   1.202
  437TCM     c1 2348   0.204   2.679   1.089
  437TCM    cl1 2349   0.372   2.723   1.045
  437TCM    cl2 2350   0.092   2.736   0.961
  437TCM     h1 2351   0.196   2.570   1.099
  437TCM    cl3 2352   0.161   2.758   1.244
  438TCM     c1 2353   0.813   3.589   4.989
  438TCM    cl1 2354   0.650   3.517   4.972
  438TCM    cl2 2355   0.811   3.756   4.922
  438TCM     h1 2356   0.841   3.593   5.095
  438TCM    cl3 2357   0.931   3.489   4.898
  439TCM     c1 2358   3.480   1.224   1.697
  439TCM    cl1 2359   3.388   1.168   1.553
  439TCM    cl2 2360   3.649   1.166   1.685
  439TCM     h1 2361   3.478   1.333   1.701
  439TCM    cl3 2362   3.404   1.157   1.845
  440TCM     c1 2363   3.618   1.909   4.584
  440TCM    cl1 2364   3.597   1.939   4.408
  440TCM    cl2 2365   3.547   1.750   4.627
  440TCM     h1 2366   3.724   1.910   4.609
  440TCM    cl3 2367   3.533   2.038   4.676
  441TCM     c1 2368   0.525   3.900   4.303
  441TCM    cl1 2369   0.397   3.939   4.184
  441TCM    cl2 2370   0.685   3.921   4.225
  441TCM     h1 2371   0.517   3.967   4.389
  441TCM    cl3 2372   0.506   3.730   4.357
  442TCM     c1 2373   3.426   3.249   0.066
  442TCM    cl1 2374   3.347   3.273  -0.093
  442TCM    cl2 2375   3.374   3.091   0.135
  442TCM     h1 2376   3.534   3.250   0.054
  442TCM    cl3 2377   3.376   3.379   0.179
  443TCM     c1 2378   1.038   2.302   1.472
  443TCM    cl1 2379   1.076   2.145   1.552
  443TCM    cl2 2380   1.173   2.347   1.363
  443TCM     h1 2381   0.945   2.292   1.414
  443TCM    cl3 2382   1.016   2.428   1.598
  444TCM     c1 2383   4.502   0.013   0.309
  444TCM    cl1 2384   4.405  -0.089   0.419
  444TCM    cl2 2385   4.586   0.141   0.404
  444TCM     h1 2386   4.576  -0.049   0.258
  444TCM    cl3 2387   4.394   0.091   0.189
  445TCM     c1 2388   4.583   1.097   0.217
  445TCM    cl1 2389   4.571   1.010   0.060
  445TCM    cl2 2390   4.429   1.080   0.307
  445TCM     h1 2391   4.665   1.055   0.276
  445TCM    cl3 2392   4.614   1.271   0.186
  446TCM     c1 2393   3.194   0.696   3.225
  446TCM    cl1 2394   3.092   0.610   3.106
  446TCM    cl2 2395   3.098   0.828   3.300
  446TCM     h1 2396   3.226   0.627   3.302
  446TCM    cl3 2397   3.337   0.767   3.143
  447TCM     c1 2398   4.431   1.316   4.848
  447TCM    cl1 2399   4.544   1.455   4.871
  447TCM    cl2 2400   4.508   1.195   4.740
  447TCM     h1 2401   4.409   1.271   4.944
  447TCM    cl3 2402   4.280   1.376   4.773
  448TCM     c1 2403   4.846   1.962   3.441
  448TCM    cl1 2404   4.722   1.920   3.319
  448TCM    cl2 2405   4.861   2.140   3.452
  448TCM     h1 2406   4.817   1.922   3.538
  448TCM    cl3 2407   5.004   1.892   3.391
  449TCM     c1 2408   4.744   4.819   3.613
  449TCM    cl1 2409   4.738   4.656   3.537
  449TCM    cl2 2410   4.895   4.902   3.564
  449TCM     h1 2411   4.658   4.877   3.581
  449TCM    cl3 2412   4.741   4.800   3.792
  450TCM     c1 2413   3.277   0.661   3.712
  450TCM    cl1 2414   3.099   0.639   3.702
  450TCM    cl2 2415   3.344   0.682   3.547
  450TCM     h1 2416   3.299   0.749   3.773
  450TCM    cl3 2417   3.350   0.516   3.789
  451TCM     c1 2418   3.791   3.766   1.541
  451TCM    cl1 2419   3.924   3.856   1.460
  451TCM    cl2 2420   3.702   3.877   1.650
  451TCM     h1 2421   3.723   3.725   1.465
  451TCM    cl3 2422   3.862   3.632   1.637
  452TCM     c1 2423   0.675   0.228   1.355
  452TCM    cl1 2424   0.684   0.154   1.518
  452TCM    cl2 2425   0.667   0.098   1.232
  452TCM     h1 2426   0.586   0.291   1.348
  452TCM    cl3 2427   0.821   0.329   1.327
  453TCM     c1 2428   2.279   3.723   3.601
  453TCM    cl1 2429   2.439   3.765   3.671
  453TCM    cl2 2430   2.302   3.655   3.436
  453TCM     h1 2431   2.229   3.649   3.664
  453TCM    cl3 2432   2.179   3.871   3.591
  454TCM     c1 2433   4.272   3.916   1.391
  454TCM    cl1 2434   4.316   3.844   1.549
  454TCM    cl2 2435   4.417   3.921   1.285
  454TCM     h1 2436   4.194   3.856   1.344
  454TCM    cl3 2437   4.211   4.083   1.418
  455TCM     c1 2438   3.231   4.148   4.409
  455TCM    cl1 2439   3.275   4.287   4.304
  455TCM    cl2 2440   3.260   4.188   4.581
  455TCM     h1 2441   3.125   4.124   4.395
  455TCM    cl3 2442   3.330   4.005   4.363
  456TCM     c1 2443   1.840   2.111   4.711
  456TCM    cl1 2444   1.662   2.091   4.694
  456TCM    cl2 2445   1.906   2.192   4.565
  456TCM     h1 2446   1.861   2.171   4.800
  456TCM    cl3 2447   1.915   1.949   4.729
  457TCM     c1 2448   1.701   3.426   1.811
  457TCM    cl1 2449   1.703   3.569   1.919
  457TCM    cl2 2450   1.852   3.333   1.834
  457TCM     h1 2451   1.615   3.363   1.835
  457TCM    cl3 2452   1.690   3.482   1.641
  458TCM     c1 2453   1.546   0.110   1.554
  458TCM    cl1 2454   1.620  -0.043   1.615
  458TCM    cl2 2455   1.620   0.152   1.396
  458TCM     h1 2456   1.439   0.096   1.542
  458TCM    cl3 2457   1.576   0.243   1.671
  459TCM     c1 2458   4.076   4.174   3.521
  459TCM    cl1 2459   4.152   4.308   3.429
  459TCM    cl2 2460   3.940   4.238   3.619
  459TCM     h1 2461   4.039   4.098   3.451
  459TCM    cl3 2462   4.198   4.101   3.630
  460TCM     c1 2463   0.519   0.786   3.760
  460TCM    cl1 2464   0.686   0.790   3.694
  460TCM    cl2 2465   0.458   0.617   3.758
  460TCM     h1 2466   0.519   0.824   3.862
  460TCM    cl3 2467   0.412   0.888   3.658
  461TCM     c1 2468   1.652   4.240   0.513
  461TCM    cl1 2469   1.757   4.308   0.384
  461TCM    cl2 2470   1.480   4.268   0.471
  461TCM     h1 2471   1.670   4.132   0.522
  461TCM    cl3 2472   1.690   4.320   0.669
  462TCM     c1 2473   3.171   0.050   5.001
  462TCM    cl1 2474   2.998   0.004   5.012
  462TCM    cl2 2475   3.240  -0.025   4.853
  462TCM     h1 2476   3.180   0.159   4.995
  462TCM    cl3 2477   3.259  -0.009   5.145
  463TCM     c1 2478   3.719   0.713   3.196
  463TCM    cl1 2479   3.685   0.632   3.040
  463TCM    cl2 2480   3.895   0.747   3.208
  463TCM     h1 2481   3.663   0.806   3.202
  463TCM    cl3 2482   3.671   0.606   3.332
  464TCM     c1 2483   4.917   4.446   3.791
  464TCM    cl1 2484   4.922   4.356   3.635
  464TCM    cl2 2485   5.030   4.585   3.783
  464TCM     h1 2486   4.816   4.482   3.809
  464TCM    cl3 2487   4.967   4.337   3.924
  465TCM     c1 2488   4.344   1.626   0.131
  465TCM    cl1 2489   4.299   1.735   0.266
  465TCM    cl2 2490   4.250   1.672  -0.015
  465TCM     h1 2491   4.451   1.636   0.110
  465TCM    cl3 2492   4.306   1.457   0.175
  466TCM     c1 2493   0.529   0.707   2.653
  466TCM    cl1 2494   0.645   0.642   2.773
  466TCM    cl2 2495   0.619   0.769   2.510
  466TCM     h1 2496   0.461   0.628   2.621
  466TCM    cl3 2497   0.436   0.840   2.729
  467TCM     c1 2498   0.376   1.926   2.305
  467TCM    cl1 2499   0.258   1.803   2.362
  467TCM    cl2 2500   0.328   1.983   2.141
  467TCM     h1 2501   0.377   2.011   2.374
  467TCM    cl3 2502   0.539   1.853   2.295
  468TCM     c1 2503   3.512   2.183   1.548
  468TCM    cl1 2504   3.481   2.151   1.374
  468TCM    cl2 2505   3.448   2.046   1.646
  468TCM     h1 2506   3.619   2.193   1.565
  468TCM    cl3 2507   3.429   2.334   1.596
  469TCM     c1 2508   2.611   0.804   4.112
  469TCM    cl1 2509   2.522   0.946   4.177
  469TCM    cl2 2510   2.514   0.656   4.141
  469TCM     h1 2511   2.627   0.817   4.005
  469TCM    cl3 2512   2.769   0.788   4.195
  470TCM     c1 2513   4.485   2.500   4.755
  470TCM    cl1 2514   4.429   2.667   4.789
  470TCM    cl2 2515   4.476   2.403   4.906
  470TCM     h1 2516   4.421   2.455   4.679
  470TCM    cl3 2517   4.654   2.505   4.697
  471TCM     c1 2518   3.773   0.740   2.681
  471TCM    cl1 2519   3.594   0.736   2.681
  471TCM    cl2 2520   3.829   0.889   2.764
  471TCM     h1 2521   3.812   0.653   2.733
  471TCM    cl3 2522   3.833   0.741   2.512
  472TCM     c1 2523   3.209   2.050   3.092
  472TCM    cl1 2524   3.077   1.932   3.061
  472TCM    cl2 2525   3.305   2.071   2.942
  472TCM     h1 2526   3.166   2.145   3.122
  472TCM    cl3 2527   3.316   1.988   3.222
  473TCM     c1 2528   3.625   1.621   1.380
  473TCM    cl1 2529   3.538   1.778   1.388
  473TCM    cl2 2530   3.599   1.531   1.533
  473TCM     h1 2531   3.587   1.562   1.296
  473TCM    cl3 2532   3.800   1.651   1.358
  474TCM     c1 2533   0.453   3.387   1.324
  474TCM    cl1 2534   0.337   3.380   1.460
  474TCM    cl2 2535   0.594   3.281   1.361
  474TCM     h1 2536   0.405   3.352   1.232
  474TCM    cl3 2537   0.509   3.556   1.303
  475TCM     c1 2538   2.493   3.670   4.398
  475TCM    cl1 2539   2.476   3.529   4.507
  475TCM    cl2 2540   2.352   3.779   4.418
  475TCM     h1 2541   2.585   3.725   4.423
  475TCM    cl3 2542   2.500   3.615   4.228
  476TCM     c1 2543   1.592   1.539   1.844
  476TCM    cl1 2544   1.706   1.619   1.957
  476TCM    cl2 2545   1.662   1.540   1.679
  476TCM     h1 2546   1.575   1.436   1.876
  476TCM    cl3 2547   1.436   1.628   1.842
  477TCM     c1 2548   4.623   2.658   0.189
  477TCM    cl1 2549   4.723   2.673   0.041
  477TCM    cl2 2550   4.616   2.486   0.240
  477TCM     h1 2551   4.667   2.719   0.269
  477TCM    cl3 2552   4.456   2.716   0.155
  478TCM     c1 2553   2.974   4.475   3.450
  478TCM    cl1 2554   2.818   4.561   3.429
  478TCM    cl2 2555   2.943   4.305   3.501
  478TCM     h1 2556   3.029   4.475   3.356
  478TCM    cl3 2557   3.070   4.557   3.577
  479TCM     c1 2558   0.085   3.773   0.044
  479TCM    cl1 2559   0.087   3.599   0.000
  479TCM    cl2 2560  -0.037   3.802   0.172
  479TCM     h1 2561   0.183   3.803   0.081
  479TCM    cl3 2562   0.045   3.872  -0.101
  480TCM     c1 2563   1.161   2.631   3.197
  480TCM    cl1 2564   0.996   2.701   3.211
  480TCM    cl2 2565   1.149   2.453   3.185
  480TCM     h1 2566   1.210   2.671   3.108
  480TCM    cl3 2567   1.256   2.675   3.342
  481TCM     c1 2568   2.520   2.891   1.016
  481TCM    cl1 2569   2.479   2.980   0.866
  481TCM    cl2 2570   2.439   2.731   1.015
  481TCM     h1 2571   2.628   2.877   1.021
  481TCM    cl3 2572   2.465   2.986   1.157
  482TCM     c1 2573   4.949   3.496   3.495
  482TCM    cl1 2574   4.991   3.450   3.327
  482TCM    cl2 2575   4.812   3.395   3.550
  482TCM     h1 2576   5.035   3.480   3.560
  482TCM    cl3 2577   4.902   3.669   3.499
  483TCM     c1 2578   2.439   4.749   2.943
  483TCM    cl1 2579   2.539   4.653   3.057
  483TCM    cl2 2580   2.280   4.784   3.017
  483TCM     h1 2581   2.490   4.843   2.919
  483TCM    cl3 2582   2.415   4.652   2.794
  484TCM     c1 2583   4.981   2.911   3.975
  484TCM    cl1 2584   5.152   2.865   4.001
  484TCM    cl2 2585   4.969   3.089   3.955
  484TCM     h1 2586   4.943   2.861   3.885
  484TCM    cl3 2587   4.883   2.861   4.117
  485TCM     c1 2588   2.549   2.197   3.411
  485TCM    cl1 2589   2.600   2.105   3.557
  485TCM    cl2 2590   2.428   2.100   3.320
  485TCM     h1 2591   2.505   2.292   3.441
  485TCM    cl3 2592   2.691   2.225   3.306
  486TCM     c1 2593   1.896   0.431   3.821
  486TCM    cl1 2594   1.959   0.322   3.949
  486TCM    cl2 2595   1.919   0.601   3.873
  486TCM     h1 2596   1.950   0.414   3.728
  486TCM    cl3 2597   1.721   0.400   3.797
  487TCM     c1 2598   2.128   2.531   3.508
  487TCM    cl1 2599   2.051   2.568   3.666
  487TCM    cl2 2600   2.264   2.417   3.533
  487TCM     h1 2601   2.054   2.487   3.441
  487TCM    cl3 2602   2.191   2.683   3.435
  488TCM     c1 2603   4.124   1.148   3.350
  488TCM    cl1 2604   4.015   1.282   3.399
  488TCM    cl2 2605   4.067   0.994   3.423
  488TCM     h1 2606   4.124   1.139   3.241
  488TCM    cl3 2607   4.290   1.181   3.408
  489TCM     c1 2608   3.260   4.776   3.304
  489TCM    cl1 2609   3.344   4.675   3.182
  489TCM    cl2 2610   3.084   4.759   3.280
  489TCM     h1 2611   3.288   4.743   3.404
  489TCM    cl3 2612   3.306   4.948   3.282
  490TCM     c1 2613   2.166   2.200   3.089
  490TCM    cl1 2614   2.029   2.184   2.975
  490TCM    cl2 2615   2.115   2.305   3.226
  490TCM     h1 2616   2.194   2.102   3.127
  490TCM    cl3 2617   2.306   2.276   3.006
  491TCM     c1 2618   1.483   0.719   0.195
  491TCM    cl1 2619   1.376   0.790   0.320
  491TCM    cl2 2620   1.535   0.848   0.081
  491TCM     h1 2621   1.570   0.674   0.242
  491TCM    cl3 2622   1.392   0.594   0.105
  492TCM     c1 2623   2.205   4.351   4.178
  492TCM    cl1 2624   2.091   4.380   4.042
  492TCM    cl2 2625   2.241   4.507   4.260
  492TCM     h1 2626   2.160   4.282   4.249
  492TCM    cl3 2627   2.357   4.281   4.113
  493TCM     c1 2628   0.878   3.655   4.524
  493TCM    cl1 2629   0.871   3.626   4.347
  493TCM    cl2 2630   0.737   3.579   4.603
  493TCM     h1 2631   0.970   3.611   4.564
  493TCM    cl3 2632   0.876   3.832   4.556
  494TCM     c1 2633   0.162   3.010   1.557
  494TCM    cl1 2634   0.066   3.128   1.462
  494TCM    cl2 2635   0.175   3.067   1.727
  494TCM     h1 2636   0.112   2.912   1.555
  494TCM    cl3 2637   0.326   2.995   1.487
  495TCM     c1 2638   3.276   1.138   3.223
  495TCM    cl1 2639   3.411   1.090   3.332
  495TCM    cl2 2640   3.334   1.262   3.108
  495TCM     h1 2641   3.241   1.050   3.168
  495TCM    cl3 2642   3.142   1.207   3.320
  496TCM     c1 2643   0.255   1.374   1.486
  496TCM    cl1 2644   0.193   1.234   1.580
  496TCM    cl2 2645   0.123   1.494   1.464
  496TCM     h1 2646   0.337   1.421   1.541
  496TCM    cl3 2647   0.314   1.319   1.325
  497TCM     c1 2648   1.479   4.856   1.214
  497TCM    cl1 2649   1.393   4.864   1.056
  497TCM    cl2 2650   1.546   4.691   1.238
  497TCM     h1 2651   1.560   4.929   1.215
  497TCM    cl3 2652   1.363   4.892   1.345
  498TCM     c1 2653   2.605   3.126   3.594
  498TCM    cl1 2654   2.655   3.010   3.721
  498TCM    cl2 2655   2.710   3.105   3.450
  498TCM     h1 2656   2.501   3.108   3.567
  498TCM    cl3 2657   2.622   3.294   3.655
  499TCM     c1 2658   0.116   3.098   1.017
  499TCM    cl1 2659   0.104   3.237   0.903
  499TCM    cl2 2660  -0.039   3.078   1.103
  499TCM     h1 2661   0.139   3.008   0.961
  499TCM    cl3 2662   0.247   3.129   1.136
  500TCM     c1 2663   1.901   0.118   0.248
  500TCM    cl1 2664   1.932   0.188   0.086
  500TCM    cl2 2665   1.988   0.213   0.372
  500TCM     h1 2666   1.793   0.121   0.269
  500TCM    cl3 2667   1.958  -0.052   0.253
  501TCM     c1 2668   0.955   1.738   2.796
  501TCM    cl1 2669   0.788   1.685   2.832
  501TCM    cl2 2670   1.069   1.604   2.829
  501TCM     h1 2671   0.963   1.768   2.691
  501TCM    cl3 2672   0.996   1.879   2.900
  502TCM     c1 2673   2.877   3.482   2.177
  502TCM    cl1 2674   2.913   3.309   2.148
  502TCM    cl2 2675   2.937   3.529   2.340
  502TCM     h1 2676   2.925   3.544   2.101
  502TCM    cl3 2677   2.699   3.507   2.171
  503TCM     c1 2678   1.526   0.447   2.710
  503TCM    cl1 2679   1.575   0.530   2.559
  503TCM    cl2 2680   1.360   0.498   2.755
  503TCM     h1 2681   1.528   0.339   2.695
  503TCM    cl3 2682   1.640   0.491   2.842
  504TCM     c1 2683   4.975   0.173   2.678
  504TCM    cl1 2684   4.960   0.055   2.544
  504TCM    cl2 2685   4.874   0.121   2.817
  504TCM     h1 2686   5.079   0.179   2.709
  504TCM    cl3 2687   4.921   0.335   2.623
  505TCM     c1 2688   2.696   3.849   3.041
  505TCM    cl1 2689   2.539   3.810   3.119
  505TCM    cl2 2690   2.678   3.996   2.940
  505TCM     h1 2691   2.771   3.868   3.118
  505TCM    cl3 2692   2.747   3.711   2.939
  506TCM     c1 2693   0.351   4.691   4.891
  506TCM    cl1 2694   0.258   4.799   4.782
  506TCM    cl2 2695   0.334   4.521   4.836
  506TCM     h1 2696   0.456   4.720   4.889
  506TCM    cl3 2697   0.289   4.704   5.058
  507TCM     c1 2698   1.605   4.107   0.005
  507TCM    cl1 2699   1.475   4.159   0.118
  507TCM    cl2 2700   1.552   3.958  -0.080
  507TCM     h1 2701   1.624   4.186  -0.068
  507TCM    cl3 2702   1.754   4.072   0.098
  508TCM     c1 2703   0.441   1.867   3.373
  508TCM    cl1 2704   0.321   1.761   3.292
  508TCM    cl2 2705   0.494   1.790   3.526
  508TCM     h1 2706   0.527   1.881   3.308
  508TCM    cl3 2707   0.364   2.025   3.408
  509TCM     c1 2708   4.459   0.039   4.512
  509TCM    cl1 2709   4.451   0.196   4.599
  509TCM    cl2 2710   4.377   0.056   4.354
  509TCM     h1 2711   4.563   0.011   4.497
  509TCM    cl3 2712   4.376  -0.087   4.609
  510TCM     c1 2713   4.195   2.541   2.473
  510TCM    cl1 2714   4.368   2.492   2.466
  510TCM    cl2 2715   4.150   2.572   2.644
  510TCM     h1 2716   4.181   2.632   2.414
  510TCM    cl3 2717   4.093   2.409   2.406
  511TCM     c1 2718   3.143   4.798   1.735
  511TCM    cl1 2719   3.270   4.679   1.689
  511TCM    cl2 2720   3.220   4.939   1.815
  511TCM     h1 2721   3.090   4.831   1.645
  511TCM    cl3 2722   3.028   4.721   1.849
  512TCM     c1 2723   4.978   4.983   0.599
  512TCM    cl1 2724   5.031   5.148   0.551
  512TCM    cl2 2725   4.807   4.990   0.653
  512TCM     h1 2726   4.987   4.915   0.513
  512TCM    cl3 2727   5.081   4.923   0.733
  513TCM     c1 2728   3.899   4.921   0.122
  513TCM    cl1 2729   3.935   4.767   0.038
  513TCM    cl2 2730   3.851   5.046   0.002
  513TCM     h1 2731   3.817   4.906   0.193
  513TCM    cl3 2732   4.045   4.978   0.210
  514TCM     c1 2733   0.837   0.370   2.249
  514TCM    cl1 2734   0.708   0.490   2.284
  514TCM    cl2 2735   0.847   0.344   2.072
  514TCM     h1 2736   0.933   0.407   2.286
  514TCM    cl3 2737   0.797   0.215   2.330
  515TCM     c1 2738   2.614   0.024   4.356
  515TCM    cl1 2739   2.605   0.009   4.177
  515TCM    cl2 2740   2.778  -0.026   4.410
  515TCM     h1 2741   2.596   0.128   4.385
  515TCM    cl3 2742   2.491  -0.082   4.430
  516TCM     c1 2743   4.553   4.154   1.710
  516TCM    cl1 2744   4.382   4.135   1.759
  516TCM    cl2 2745   4.617   4.308   1.777
  516TCM     h1 2746   4.612   4.071   1.748
  516TCM    cl3 2747   4.565   4.158   1.531
  517TCM     c1 2748   3.171   3.675   4.817
  517TCM    cl1 2749   3.327   3.660   4.904
  517TCM    cl2 2750   3.126   3.516   4.749
  517TCM     h1 2751   3.094   3.708   4.887
  517TCM    cl3 2752   3.185   3.795   4.684
  518TCM     c1 2753   2.846   0.413   4.209
  518TCM    cl1 2754   2.690   0.354   4.143
  518TCM    cl2 2755   2.943   0.484   4.075
  518TCM     h1 2756   2.828   0.489   4.285
  518TCM    cl3 2757   2.936   0.275   4.279
  519TCM     c1 2758   3.460   3.419   1.593
  519TCM    cl1 2759   3.481   3.595   1.621
  519TCM    cl2 2760   3.414   3.340   1.748
  519TCM     h1 2761   3.381   3.403   1.519
  519TCM    cl3 2762   3.614   3.351   1.533
  520TCM     c1 2763   0.160   3.059   3.211
  520TCM    cl1 2764   0.259   3.193   3.144
  520TCM    cl2 2765   0.091   3.109   3.369
  520TCM     h1 2766   0.079   3.035   3.142
  520TCM    cl3 2767   0.264   2.916   3.236
  521TCM     c1 2768   1.887   3.322   3.128
  521TCM    cl1 2769   1.753   3.228   3.201
  521TCM    cl2 2770   1.926   3.252   2.967
  521TCM     h1 2771   1.857   3.426   3.116
  521TCM    cl3 2772   2.032   3.312   3.233
  522TCM     c1 2773   2.844   4.160   1.659
  522TCM    cl1 2774   2.732   4.057   1.563
  522TCM    cl2 2775   2.833   4.114   1.833
  522TCM     h1 2776   2.946   4.146   1.624
  522TCM    cl3 2777   2.797   4.332   1.642
  523TCM     c1 2778   0.329   1.557   2.836
  523TCM    cl1 2779   0.249   1.556   2.675
  523TCM    cl2 2780   0.305   1.398   2.916
  523TCM     h1 2781   0.436   1.576   2.824
  523TCM    cl3 2782   0.255   1.684   2.938
  524TCM     c1 2783   4.464   3.272   3.026
  524TCM    cl1 2784   4.524   3.237   2.860
  524TCM    cl2 2785   4.337   3.153   3.069
  524TCM     h1 2786   4.547   3.264   3.097
  524TCM    cl3 2787   4.395   3.438   3.031
  525TCM     c1 2788   2.802   4.967   2.599
  525TCM    cl1 2789   2.684   4.871   2.695
  525TCM    cl2 2790   2.878   5.089   2.706
  525TCM     h1 2791   2.879   4.900   2.558
  525TCM    cl3 2792   2.715   5.049   2.465
  526TCM     c1 2793   2.929   2.946   2.370
  526TCM    cl1 2794   2.806   2.954   2.239
  526TCM    cl2 2795   3.093   2.959   2.299
  526TCM     h1 2796   2.913   3.028   2.441
  526TCM    cl3 2797   2.914   2.789   2.456
  527TCM     c1 2798   2.003   3.058   3.988
  527TCM    cl1 2799   2.035   3.183   3.863
  527TCM    cl2 2800   1.983   3.138   4.147
  527TCM     h1 2801   1.911   3.004   3.962
  527TCM    cl3 2802   2.140   2.943   3.994
  528TCM     c1 2803   0.175   1.776   0.084
  528TCM    cl1 2804   0.078   1.692  -0.042
  528TCM    cl2 2805   0.290   1.659   0.156
  528TCM     h1 2806   0.230   1.858   0.038
  528TCM    cl3 2807   0.064   1.840   0.210
  529TCM     c1 2808   2.117   3.198   2.093
  529TCM    cl1 2809   2.240   3.143   2.211
  529TCM    cl2 2810   2.005   3.063   2.055
  529TCM     h1 2811   2.061   3.282   2.135
  529TCM    cl3 2812   2.200   3.250   1.942
  530TCM     c1 2813   1.766   0.735   4.562
  530TCM    cl1 2814   1.833   0.851   4.442
  530TCM    cl2 2815   1.885   0.603   4.589
  530TCM     h1 2816   1.747   0.787   4.656
  530TCM    cl3 2817   1.613   0.666   4.499
  531TCM     c1 2818   0.137   4.932   3.905
  531TCM    cl1 2819   0.255   4.993   4.026
  531TCM    cl2 2820   0.223   4.898   3.751
  531TCM     h1 2821   0.090   4.841   3.942
  531TCM    cl3 2822   0.011   5.058   3.877
  532TCM     c1 2823   1.635   4.445   1.514
  532TCM    cl1 2824   1.736   4.391   1.376
  532TCM    cl2 2825   1.743   4.501   1.646
  532TCM     h1 2826   1.570   4.527   1.482
  532TCM    cl3 2827   1.537   4.307   1.571
  533TCM     c1 2828   0.070   0.751   4.075
  533TCM    cl1 2829   0.043   0.720   4.249
  533TCM    cl2 2830  -0.019   0.629   3.978
  533TCM     h1 2831   0.033   0.851   4.050
  533TCM    cl3 2832   0.245   0.740   4.038
  534TCM     c1 2833   2.425   3.073   0.137
  534TCM    cl1 2834   2.304   3.040   0.009
  534TCM    cl2 2835   2.357   3.033   0.298
  534TCM     h1 2836   2.513   3.012   0.119
  534TCM    cl3 2837   2.469   3.246   0.134
  535TCM     c1 2838   2.698   4.253   1.246
  535TCM    cl1 2839   2.873   4.214   1.248
  535TCM    cl2 2840   2.637   4.247   1.077
  535TCM     h1 2841   2.643   4.181   1.307
  535TCM    cl3 2842   2.675   4.419   1.310
  536TCM     c1 2843   1.595   0.876   3.987
  536TCM    cl1 2844   1.749   0.859   4.077
  536TCM    cl2 2845   1.597   0.769   3.843
  536TCM     h1 2846   1.511   0.848   4.052
  536TCM    cl3 2847   1.577   1.046   3.934
  537TCM     c1 2848   1.631   1.030   2.638
  537TCM    cl1 2849   1.537   1.051   2.488
  537TCM    cl2 2850   1.586   0.873   2.714
  537TCM     h1 2851   1.738   1.030   2.615
  537TCM    cl3 2852   1.594   1.164   2.751
  538TCM     c1 2853   2.218   3.100   3.487
  538TCM    cl1 2854   2.313   3.044   3.346
  538TCM    cl2 2855   2.266   3.268   3.526
  538TCM     h1 2856   2.111   3.096   3.464
  538TCM    cl3 2857   2.254   2.994   3.627
  539TCM     c1 2858   3.963   4.185   3.027
  539TCM    cl1 2859   3.988   4.076   3.167
  539TCM    cl2 2860   4.016   4.350   3.070
  539TCM     h1 2861   4.020   4.149   2.941
  539TCM    cl3 2862   3.788   4.188   2.984
  540TCM     c1 2863   2.787   0.024   0.309
  540TCM    cl1 2864   2.956   0.017   0.370
  540TCM    cl2 2865   2.729   0.193   0.317
  540TCM     h1 2866   2.784  -0.012   0.206
  540TCM    cl3 2867   2.683  -0.080   0.412
  541TCM     c1 2868   1.818   3.557   3.988
  541TCM    cl1 2869   1.992   3.558   3.944
  541TCM    cl2 2870   1.762   3.388   4.004
  541TCM     h1 2871   1.804   3.611   4.082
  541TCM    cl3 2872   1.724   3.638   3.857
  542TCM     c1 2873   1.852   1.882   1.311
  542TCM    cl1 2874   1.981   1.859   1.434
  542TCM    cl2 2875   1.849   2.054   1.260
  542TCM     h1 2876   1.872   1.819   1.224
  542TCM    cl3 2877   1.694   1.838   1.383
  543TCM     c1 2878   2.914   4.924   3.580
  543TCM    cl1 2879   3.093   4.941   3.588
  543TCM    cl2 2880   2.839   5.086   3.584
  543TCM     h1 2881   2.886   4.872   3.488
  543TCM    cl3 2882   2.857   4.829   3.721
  544TCM     c1 2883   2.009   1.177   2.105
  544TCM    cl1 2884   2.067   1.331   2.176
  544TCM    cl2 2885   1.943   1.072   2.235
  544TCM     h1 2886   1.930   1.197   2.031
  544TCM    cl3 2887   2.146   1.093   2.025
  545TCM     c1 2888   2.300   2.673   0.309
  545TCM    cl1 2889   2.159   2.573   0.356
  545TCM    cl2 2890   2.294   2.704   0.133
  545TCM     h1 2891   2.297   2.768   0.363
  545TCM    cl3 2892   2.451   2.586   0.350
  546TCM     c1 2893   3.588   2.344   4.319
  546TCM    cl1 2894   3.562   2.344   4.497
  546TCM    cl2 2895   3.756   2.394   4.286
  546TCM     h1 2896   3.571   2.243   4.280
  546TCM    cl3 2897   3.473   2.459   4.243
  547TCM     c1 2898   0.734   0.635   1.740
  547TCM    cl1 2899   0.673   0.489   1.656
  547TCM    cl2 2900   0.673   0.635   1.909
  547TCM     h1 2901   0.843   0.635   1.740
  547TCM    cl3 2902   0.675   0.782   1.655
  548TCM     c1 2903   0.217   2.877   3.612
  548TCM    cl1 2904   0.241   3.036   3.690
  548TCM    cl2 2905   0.044   2.833   3.619
  548TCM     h1 2906   0.249   2.882   3.507
  548TCM    cl3 2907   0.314   2.753   3.697
  549TCM     c1 2908   4.649   4.603   0.644
  549TCM    cl1 2909   4.760   4.648   0.777
  549TCM    cl2 2910   4.710   4.673   0.490
  549TCM     h1 2911   4.643   4.494   0.635
  549TCM    cl3 2912   4.485   4.669   0.676
  550TCM     c1 2913   0.148   3.970   0.974
  550TCM    cl1 2914   0.084   3.803   0.964
  550TCM    cl2 2915   0.030   4.082   0.897
  550TCM     h1 2916   0.161   3.998   1.079
  550TCM    cl3 2917   0.305   3.979   0.889
  551TCM     c1 2918   2.149   1.925   3.553
  551TCM    cl1 2919   2.103   1.957   3.382
  551TCM    cl2 2920   2.205   2.078   3.629
  551TCM     h1 2921   2.062   1.887   3.607
  551TCM    cl3 2922   2.282   1.805   3.558
  552TCM     c1 2923   0.477   4.151   1.344
  552TCM    cl1 2924   0.591   4.029   1.280
  552TCM    cl2 2925   0.346   4.178   1.224
  552TCM     h1 2926   0.434   4.116   1.438
  552TCM    cl3 2927   0.565   4.306   1.372
  553TCM     c1 2928   1.451   3.848   0.277
  553TCM    cl1 2929   1.442   3.670   0.258
  553TCM    cl2 2930   1.584   3.892   0.389
  553TCM     h1 2931   1.469   3.894   0.179
  553TCM    cl3 2932   1.295   3.910   0.342
  554TCM     c1 2933   3.148   2.005   2.509
  554TCM    cl1 2934   3.197   1.886   2.383
  554TCM    cl2 2935   3.016   2.109   2.447
  554TCM     h1 2936   3.114   1.951   2.598
  554TCM    cl3 2937   3.290   2.106   2.553
  555TCM     c1 2938   1.824   2.585   2.456
  555TCM    cl1 2939   1.779   2.502   2.609
  555TCM    cl2 2940   1.677   2.607   2.355
  555TCM     h1 2941   1.867   2.683   2.479
  555TCM    cl3 2942   1.943   2.485   2.366
  556TCM     c1 2943   3.076   4.923   2.157
  556TCM    cl1 2944   2.950   5.025   2.081
  556TCM    cl2 2945   3.018   4.864   2.316
  556TCM     h1 2946   3.098   4.837   2.092
  556TCM    cl3 2947   3.225   5.021   2.180
  557TCM     c1 2948   0.893   2.626   4.229
  557TCM    cl1 2949   0.903   2.729   4.375
  557TCM    cl2 2950   0.884   2.729   4.083
  557TCM     h1 2951   0.981   2.561   4.223
  557TCM    cl3 2952   0.744   2.525   4.239
  558TCM     c1 2953   4.637   3.741   4.821
  558TCM    cl1 2954   4.782   3.645   4.776
  558TCM    cl2 2955   4.560   3.807   4.673
  558TCM     h1 2956   4.565   3.676   4.873
  558TCM    cl3 2957   4.684   3.876   4.930
  559TCM     c1 2958   0.114   1.688   3.717
  559TCM    cl1 2959   0.185   1.590   3.585
  559TCM    cl2 2960  -0.065   1.693   3.697
  559TCM     h1 2961   0.138   1.643   3.813
  559TCM    cl3 2962   0.179   1.855   3.709
  560TCM     c1 2963   4.072   2.163   2.790
  560TCM    cl1 2964   3.945   2.284   2.753
  560TCM    cl2 2965   4.204   2.176   2.669
  560TCM     h1 2966   4.113   2.181   2.890
  560TCM    cl3 2967   4.001   1.998   2.782
  561TCM     c1 2968   1.429   2.695   0.087
  561TCM    cl1 2969   1.533   2.841   0.067
  561TCM    cl2 2970   1.262   2.734   0.033
  561TCM     h1 2971   1.468   2.614   0.026
  561TCM    cl3 2972   1.428   2.646   0.259
  562TCM     c1 2973   3.598   1.834   2.939
  562TCM    cl1 2974   3.685   1.741   2.812
  562TCM    cl2 2975   3.716   1.906   3.053
  562TCM     h1 2976   3.539   1.914   2.892
  562TCM    cl3 2977   3.489   1.723   3.027
  563TCM     c1 2978   2.784   4.845   1.008
  563TCM    cl1 2979   2.962   4.855   1.028
  563TCM    cl2 2980   2.706   4.975   1.104
  563TCM     h1 2981   2.759   4.856   0.903
  563TCM    cl3 2982   2.727   4.685   1.067
  564TCM     c1 2983   1.821   3.891   0.721
  564TCM    cl1 2984   1.908   4.002   0.610
  564TCM    cl2 2985   1.815   3.727   0.647
  564TCM     h1 2986   1.873   3.886   0.817
  564TCM    cl3 2987   1.654   3.951   0.747
  565TCM     c1 2988   4.987   3.189   4.989
  565TCM    cl1 2989   4.960   3.273   5.145
  565TCM    cl2 2990   4.856   3.233   4.874
  565TCM     h1 2991   5.083   3.218   4.948
  565TCM    cl3 2992   4.984   3.012   5.017
  566TCM     c1 2993   3.048   4.774   2.921
  566TCM    cl1 2994   3.172   4.903   2.934
  566TCM    cl2 2995   3.035   4.723   2.750
  566TCM     h1 2996   3.078   4.688   2.983
  566TCM    cl3 2997   2.890   4.837   2.977
  567TCM     c1 2998   4.523   3.805   3.699
  567TCM    cl1 2999   4.612   3.653   3.733
  567TCM    cl2 3000   4.346   3.772   3.697
  567TCM     h1 3001   4.545   3.879   3.777
  567TCM    cl3 3002   4.573   3.869   3.539
  568TCM     c1 3003   1.726   0.774   3.057
  568TCM    cl1 3004   1.823   0.913   3.116
  568TCM    cl2 3005   1.552   0.817   3.063
  568TCM     h1 3006   1.755   0.750   2.954
  568TCM    cl3 3007   1.756   0.632   3.162
  569TCM     c1 3008   3.211   2.483   4.533
  569TCM    cl1 3009   3.119   2.464   4.380
  569TCM    cl2 3010   3.210   2.327   4.622
  569TCM     h1 3011   3.314   2.512   4.510
  569TCM    cl3 3012   3.135   2.610   4.634
  570TCM     c1 3013   2.389   4.148   0.477
  570TCM    cl1 3014   2.281   4.020   0.543
  570TCM    cl2 3015   2.443   4.255   0.610
  570TCM     h1 3016   2.476   4.101   0.429
  570TCM    cl3 3017   2.300   4.245   0.355
  571TCM     c1 3018   3.417   1.703   0.062
  571TCM    cl1 3019   3.426   1.860  -0.023
  571TCM    cl2 3020   3.435   1.570  -0.057
  571TCM     h1 3021   3.496   1.696   0.137
  571TCM    cl3 3022   3.257   1.689   0.142
  572TCM     c1 3023   2.482   1.490   3.554
  572TCM    cl1 3024   2.578   1.484   3.706
  572TCM    cl2 3025   2.326   1.405   3.579
  572TCM     h1 3026   2.464   1.594   3.526
  572TCM    cl3 3027   2.572   1.407   3.423
  573TCM     c1 3028   1.186   0.797   2.629
  573TCM    cl1 3029   1.268   0.790   2.469
  573TCM    cl2 3030   1.025   0.719   2.616
  573TCM     h1 3031   1.247   0.745   2.703
  573TCM    cl3 3032   1.165   0.968   2.679
  574TCM     c1 3033   2.778   4.162   4.855
  574TCM    cl1 3034   2.706   4.047   4.973
  574TCM    cl2 3035   2.658   4.197   4.726
  574TCM     h1 3036   2.805   4.254   4.906
  574TCM    cl3 3037   2.924   4.088   4.782
  575TCM     c1 3038   2.410   4.298   1.745
  575TCM    cl1 3039   2.464   4.139   1.807
  575TCM    cl2 3040   2.451   4.312   1.571
  575TCM     h1 3041   2.302   4.307   1.758
  575TCM    cl3 3042   2.494   4.427   1.838
  576TCM     c1 3043   0.943   2.666   4.890
  576TCM    cl1 3044   0.864   2.727   5.039
  576TCM    cl2 3045   0.827   2.673   4.753
  576TCM     h1 3046   1.030   2.728   4.867
  576TCM    cl3 3047   0.994   2.496   4.912
  577TCM     c1 3048   1.558   1.118   1.697
  577TCM    cl1 3049   1.439   1.249   1.665
  577TCM    cl2 3050   1.476   0.986   1.787
  577TCM     h1 3051   1.597   1.080   1.603
  577TCM    cl3 3052   1.693   1.184   1.796
  578TCM     c1 3053   0.387   3.531   3.435
  578TCM    cl1 3054   0.275   3.655   3.501
  578TCM    cl2 3055   0.410   3.559   3.259
  578TCM     h1 3056   0.484   3.538   3.487
  578TCM    cl3 3057   0.317   3.369   3.461
  579TCM     c1 3058   0.499   0.253   3.694
  579TCM    cl1 3059   0.613   0.239   3.556
  579TCM    cl2 3060   0.530   0.122   3.812
  579TCM     h1 3061   0.513   0.350   3.743
  579TCM    cl3 3062   0.330   0.240   3.634
  580TCM     c1 3063   4.413   0.128   3.154
  580TCM    cl1 3064   4.363   0.241   3.284
  580TCM    cl2 3065   4.544   0.203   3.058
  580TCM     h1 3066   4.449   0.035   3.199
  580TCM    cl3 3067   4.272   0.092   3.048
  581TCM     c1 3068   3.225   3.858   1.497
  581TCM    cl1 3069   3.389   3.909   1.443
  581TCM    cl2 3070   3.188   3.696   1.428
  581TCM     h1 3071   3.222   3.853   1.606
  581TCM    cl3 3072   3.104   3.977   1.438
  582TCM     c1 3073   4.515   4.273   3.727
  582TCM    cl1 3074   4.551   4.440   3.783
  582TCM    cl2 3075   4.632   4.159   3.801
  582TCM     h1 3076   4.414   4.246   3.756
  582TCM    cl3 3077   4.531   4.266   3.548
  583TCM     c1 3078   1.035   3.550   0.378
  583TCM    cl1 3079   1.172   3.582   0.488
  583TCM    cl2 3080   1.097   3.491   0.220
  583TCM     h1 3081   0.969   3.475   0.422
  583TCM    cl3 3082   0.943   3.702   0.350
  584TCM     c1 3083   0.266   2.156   4.855
  584TCM    cl1 3084   0.111   2.067   4.872
  584TCM    cl2 3085   0.396   2.059   4.932
  584TCM     h1 3086   0.289   2.170   4.749
  584TCM    cl3 3087   0.253   2.316   4.936
  585TCM     c1 3088   1.045   0.299   2.678
  585TCM    cl1 3089   0.909   0.398   2.741
  585TCM    cl2 3090   1.100   0.368   2.521
  585TCM     h1 3091   1.127   0.301   2.749
  585TCM    cl3 3092   0.989   0.130   2.654
  586TCM     c1 3093   0.916   1.108   4.067
  586TCM    cl1 3094   0.869   1.264   4.141
  586TCM    cl2 3095   0.803   1.067   3.934
  586TCM     h1 3096   1.017   1.116   4.027
  586TCM    cl3 3097   0.909   0.980   4.192
  587TCM     c1 3098   3.770   2.747   4.064
  587TCM    cl1 3099   3.722   2.599   3.974
  587TCM    cl2 3100   3.928   2.719   4.144
  587TCM     h1 3101   3.778   2.830   3.994
  587TCM    cl3 3102   3.646   2.784   4.188
  588TCM     c1 3103   2.128   3.355   0.011
  588TCM    cl1 3104   2.058   3.324  -0.152
  588TCM    cl2 3105   2.042   3.256   0.133
  588TCM     h1 3106   2.235   3.329   0.010
  588TCM    cl3 3107   2.109   3.528   0.053
  589TCM     c1 3108   1.264   0.358   1.345
  589TCM    cl1 3109   1.306   0.236   1.220
  589TCM    cl2 3110   1.403   0.468   1.369
  589TCM     h1 3111   1.177   0.416   1.312
  589TCM    cl3 3112   1.226   0.274   1.499
  590TCM     c1 3113   0.498   3.751   0.368
  590TCM    cl1 3114   0.612   3.778   0.233
  590TCM    cl2 3115   0.552   3.609   0.464
  590TCM     h1 3116   0.495   3.840   0.432
  590TCM    cl3 3117   0.334   3.720   0.302
  591TCM     c1 3118   3.108   1.548   3.155
  591TCM    cl1 3119   3.224   1.632   3.263
  591TCM    cl2 3120   3.149   1.582   2.984
  591TCM     h1 3121   3.114   1.440   3.173
  591TCM    cl3 3122   2.942   1.606   3.191
  592TCM     c1 3123   2.564   4.570   0.092
  592TCM    cl1 3124   2.572   4.749   0.080
  592TCM    cl2 3125   2.676   4.499  -0.029
  592TCM     h1 3126   2.593   4.539   0.192
  592TCM    cl3 3127   2.397   4.515   0.057
  593TCM     c1 3128   3.495   3.508   3.096
  593TCM    cl1 3129   3.660   3.439   3.110
  593TCM    cl2 3130   3.501   3.663   3.006
  593TCM     h1 3131   3.431   3.437   3.042
  593TCM    cl3 3132   3.428   3.536   3.260
  594TCM     c1 3133   2.975   3.882   0.845
  594TCM    cl1 3134   3.029   3.946   1.004
  594TCM    cl2 3135   2.929   4.017   0.737
  594TCM     h1 3136   3.055   3.824   0.799
  594TCM    cl3 3137   2.834   3.775   0.871
  595TCM     c1 3138   4.539   4.405   1.148
  595TCM    cl1 3139   4.501   4.464   0.983
  595TCM    cl2 3140   4.696   4.318   1.148
  595TCM     h1 3141   4.545   4.490   1.216
  595TCM    cl3 3142   4.410   4.293   1.203
  596TCM     c1 3143   4.480   3.010   4.936
  596TCM    cl1 3144   4.328   3.067   5.012
  596TCM    cl2 3145   4.616   3.029   5.052
  596TCM     h1 3146   4.470   2.905   4.908
  596TCM    cl3 3147   4.514   3.108   4.789
  597TCM     c1 3148   2.849   0.920   2.291
  597TCM    cl1 3149   2.757   0.768   2.270
  597TCM    cl2 3150   2.779   1.046   2.183
  597TCM     h1 3151   2.842   0.954   2.395
  597TCM    cl3 3152   3.021   0.893   2.247
  598TCM     c1 3153   3.342   4.440   2.828
  598TCM    cl1 3154   3.414   4.604   2.832
  598TCM    cl2 3155   3.197   4.436   2.933
  598TCM     h1 3156   3.314   4.415   2.725
  598TCM    cl3 3157   3.461   4.320   2.888
  599TCM     c1 3158   3.541   3.624   3.751
  599TCM    cl1 3159   3.684   3.532   3.808
  599TCM    cl2 3160   3.395   3.520   3.763
  599TCM     h1 3161   3.528   3.713   3.812
  599TCM    cl3 3162   3.566   3.671   3.580
  600TCM     c1 3163   4.167   0.250   4.940
  600TCM    cl1 3164   4.316   0.349   4.925
  600TCM    cl2 3165   4.192   0.094   4.855
  600TCM     h1 3166   4.146   0.231   5.046
  600TCM    cl3 3167   4.029   0.337   4.866
  601TCM     c1 3168   3.094   3.120   3.529
  601TCM    cl1 3169   3.004   3.154   3.681
  601TCM    cl2 3170   3.211   2.987   3.558
  601TCM     h1 3171   3.024   3.091   3.451
  601TCM    cl3 3172   3.183   3.267   3.480
  602TCM     c1 3173   0.680   2.284   1.815
  602TCM    cl1 3174   0.831   2.313   1.906
  602TCM    cl2 3175   0.716   2.187   1.668
  602TCM     h1 3176   0.609   2.229   1.879
  602TCM    cl3 3177   0.609   2.442   1.768
  603TCM     c1 3178   0.154   4.320   3.118
  603TCM    cl1 3179   0.321   4.345   3.057
  603TCM    cl2 3180   0.154   4.340   3.296
  603TCM     h1 3181   0.087   4.394   3.072
  603TCM    cl3 3182   0.099   4.155   3.075
  604TCM     c1 3183   2.510   3.388   1.423
  604TCM    cl1 3184   2.629   3.260   1.387
  604TCM    cl2 3185   2.587   3.512   1.527
  604TCM     h1 3186   2.476   3.434   1.330
  604TCM    cl3 3187   2.370   3.317   1.511
  605TCM     c1 3188   0.132   1.451   2.277
  605TCM    cl1 3189   0.121   1.381   2.112
  605TCM    cl2 3190   0.299   1.430   2.339
  605TCM     h1 3191   0.108   1.558   2.273
  605TCM    cl3 3192   0.018   1.367   2.386
  606TCM     c1 3193   3.850   3.117   3.808
  606TCM    cl1 3194   3.740   3.120   3.949
  606TCM    cl2 3195   3.944   2.963   3.810
  606TCM     h1 3196   3.792   3.123   3.716
  606TCM    cl3 3197   3.962   3.256   3.817
  607TCM     c1 3198   1.842   3.406   3.599
  607TCM    cl1 3199   1.992   3.504   3.583
  607TCM    cl2 3200   1.876   3.237   3.550
  607TCM     h1 3201   1.808   3.408   3.703
  607TCM    cl3 3202   1.716   3.474   3.492
  608TCM     c1 3203   2.567   3.210   2.403
  608TCM    cl1 3204   2.500   3.064   2.482
  608TCM    cl2 3205   2.730   3.244   2.470
  608TCM     h1 3206   2.574   3.194   2.295
  608TCM    cl3 3207   2.460   3.351   2.435
  609TCM     c1 3208   1.891   2.871   0.160
  609TCM    cl1 3209   1.856   2.695   0.161
  609TCM    cl2 3210   1.956   2.916  -0.002
  609TCM     h1 3211   1.800   2.927   0.180
  609TCM    cl3 3212   2.013   2.908   0.286
  610TCM     c1 3213   4.860   0.762   2.702
  610TCM    cl1 3214   5.021   0.688   2.728
  610TCM    cl2 3215   4.831   0.777   2.525
  610TCM     h1 3216   4.783   0.699   2.746
  610TCM    cl3 3217   4.856   0.925   2.777
  611TCM     c1 3218   0.235   2.161   0.991
  611TCM    cl1 3219   0.112   2.257   1.080
  611TCM    cl2 3220   0.331   2.270   0.887
  611TCM     h1 3221   0.301   2.111   1.063
  611TCM    cl3 3222   0.153   2.037   0.890
  612TCM     c1 3223   3.153   3.877   0.221
  612TCM    cl1 3224   3.332   3.873   0.210
  612TCM    cl2 3225   3.086   3.926   0.062
  612TCM     h1 3226   3.116   3.778   0.248
  612TCM    cl3 3227   3.104   3.996   0.346
  613TCM     c1 3228   2.640   3.990   3.481
  613TCM    cl1 3229   2.682   4.098   3.618
  613TCM    cl2 3230   2.764   4.004   3.353
  613TCM     h1 3231   2.636   3.887   3.516
  613TCM    cl3 3232   2.480   4.036   3.414
  614TCM     c1 3233   2.189   4.479   2.017
  614TCM    cl1 3234   2.201   4.302   2.043
  614TCM    cl2 3235   2.088   4.552   2.145
  614TCM     h1 3236   2.289   4.524   2.019
  614TCM    cl3 3237   2.114   4.510   1.857
  615TCM     c1 3238   1.660   1.890   0.542
  615TCM    cl1 3239   1.500   1.869   0.620
  615TCM    cl2 3240   1.642   1.993   0.396
  615TCM     h1 3241   1.729   1.937   0.612
  615TCM    cl3 3242   1.723   1.729   0.493
  616TCM     c1 3243   0.585   2.886   4.235
  616TCM    cl1 3244   0.533   3.056   4.259
  616TCM    cl2 3245   0.521   2.826   4.079
  616TCM     h1 3246   0.694   2.881   4.234
  616TCM    cl3 3247   0.522   2.784   4.368
  617TCM     c1 3248   0.588   1.554   4.451
  617TCM    cl1 3249   0.600   1.733   4.451
  617TCM    cl2 3250   0.738   1.485   4.522
  617TCM     h1 3251   0.502   1.523   4.512
  617TCM    cl3 3252   0.566   1.494   4.284
  618TCM     c1 3253   0.250   2.668   0.521
  618TCM    cl1 3254   0.309   2.621   0.684
  618TCM    cl2 3255   0.264   2.527   0.411
  618TCM     h1 3256   0.146   2.700   0.528
  618TCM    cl3 3257   0.351   2.803   0.457
  619TCM     c1 3258   2.221   4.105   4.623
  619TCM    cl1 3259   2.300   4.142   4.466
  619TCM    cl2 3260   2.335   4.015   4.728
  619TCM     h1 3261   2.192   4.198   4.672
  619TCM    cl3 3262   2.075   4.005   4.593
  620TCM     c1 3263   3.103   3.378   3.138
  620TCM    cl1 3264   2.943   3.311   3.093
  620TCM    cl2 3265   3.137   3.524   3.039
  620TCM     h1 3266   3.103   3.406   3.244
  620TCM    cl3 3267   3.229   3.254   3.108
  621TCM     c1 3268   2.861   4.254   0.306
  621TCM    cl1 3269   2.917   4.376   0.425
  621TCM    cl2 3270   2.945   4.281   0.150
  621TCM     h1 3271   2.884   4.154   0.344
  621TCM    cl3 3272   2.684   4.271   0.282
  622TCM     c1 3273   3.424   4.459   0.332
  622TCM    cl1 3274   3.466   4.516   0.167
  622TCM    cl2 3275   3.565   4.374   0.403
  622TCM     h1 3276   3.398   4.544   0.394
  622TCM    cl3 3277   3.284   4.346   0.322
  623TCM     c1 3278   2.458   3.836   0.796
  623TCM    cl1 3279   2.564   3.981   0.799
  623TCM    cl2 3280   2.468   3.751   0.953
  623TCM     h1 3281   2.355   3.867   0.778
  623TCM    cl3 3282   2.511   3.726   0.663
  624TCM     c1 3283   3.948   3.722   3.576
  624TCM    cl1 3284   4.022   3.565   3.621
  624TCM    cl2 3285   4.054   3.806   3.459
  624TCM     h1 3286   3.850   3.705   3.531
  624TCM    cl3 3287   3.931   3.824   3.723
  625TCM     c1 3288   0.307   4.637   4.230
  625TCM    cl1 3289   0.157   4.600   4.140
  625TCM    cl2 3290   0.288   4.795   4.313
  625TCM     h1 3291   0.326   4.558   4.304
  625TCM    cl3 3292   0.445   4.646   4.116
  626TCM     c1 3293   4.142   0.169   3.572
  626TCM    cl1 3294   4.300   0.113   3.637
  626TCM    cl2 3295   4.058   0.268   3.697
  626TCM     h1 3296   4.158   0.229   3.483
  626TCM    cl3 3297   4.041   0.026   3.531
  627TCM     c1 3298   2.505   2.720   3.277
  627TCM    cl1 3299   2.627   2.774   3.157
  627TCM    cl2 3300   2.553   2.778   3.440
  627TCM     h1 3301   2.407   2.761   3.251
  627TCM    cl3 3302   2.497   2.541   3.277
  628TCM     c1 3303   0.131   4.347   2.650
  628TCM    cl1 3304   0.048   4.451   2.770
  628TCM    cl2 3305   0.055   4.185   2.651
  628TCM     h1 3306   0.122   4.391   2.551
  628TCM    cl3 3307   0.305   4.332   2.693
  629TCM     c1 3308   2.425   0.741   2.134
  629TCM    cl1 3309   2.469   0.885   2.037
  629TCM    cl2 3310   2.502   0.595   2.064
  629TCM     h1 3311   2.459   0.754   2.237
  629TCM    cl3 3312   2.246   0.722   2.134
  630TCM     c1 3313   0.319   2.421   2.894
  630TCM    cl1 3314   0.360   2.345   2.736
  630TCM    cl2 3315   0.386   2.321   3.027
  630TCM     h1 3316   0.362   2.522   2.898
  630TCM    cl3 3317   0.141   2.432   2.911
  631TCM     c1 3318   1.165   3.853   0.808
  631TCM    cl1 3319   1.013   3.836   0.714
  631TCM    cl2 3320   1.305   3.837   0.698
  631TCM     h1 3321   1.167   3.951   0.856
  631TCM    cl3 3322   1.171   3.724   0.933
  632TCM     c1 3323   2.596   3.242   0.525
  632TCM    cl1 3324   2.631   3.412   0.481
  632TCM    cl2 3325   2.446   3.235   0.623
  632TCM     h1 3326   2.582   3.182   0.434
  632TCM    cl3 3327   2.731   3.175   0.622
  633TCM     c1 3328   0.662   0.326   0.946
  633TCM    cl1 3329   0.567   0.192   0.874
  633TCM    cl2 3330   0.563   0.409   1.070
  633TCM     h1 3331   0.753   0.285   0.993
  633TCM    cl3 3332   0.708   0.443   0.818
  634TCM     c1 3333   0.092   2.003   3.047
  634TCM    cl1 3334   0.036   2.153   3.129
  634TCM    cl2 3335   0.154   2.044   2.884
  634TCM     h1 3336   0.171   1.957   3.107
  634TCM    cl3 3337  -0.046   1.889   3.032
  635TCM     c1 3338   2.678   0.793   3.372
  635TCM    cl1 3339   2.747   0.666   3.266
  635TCM    cl2 3340   2.792   0.830   3.505
  635TCM     h1 3341   2.659   0.883   3.314
  635TCM    cl3 3342   2.523   0.735   3.443
  636TCM     c1 3343   0.327   0.889   2.067
  636TCM    cl1 3344   0.253   1.040   2.127
  636TCM    cl2 3345   0.421   0.813   2.200
  636TCM     h1 3346   0.249   0.820   2.033
  636TCM    cl3 3347   0.437   0.928   1.931
  637TCM     c1 3348   3.942   0.181   4.462
  637TCM    cl1 3349   3.908   0.091   4.613
  637TCM    cl2 3350   4.097   0.270   4.479
  637TCM     h1 3351   3.949   0.110   4.379
  637TCM    cl3 3352   3.809   0.297   4.431
  638TCM     c1 3353   4.998   1.105   4.894
  638TCM    cl1 3354   5.020   1.056   4.723
  638TCM    cl2 3355   4.968   0.958   4.993
  638TCM     h1 3356   5.087   1.156   4.929
  638TCM    cl3 3357   4.857   1.215   4.907
  639TCM     c1 3358   2.863   0.284   1.228
  639TCM    cl1 3359   2.913   0.457   1.232
  639TCM    cl2 3360   2.787   0.240   1.384
  639TCM     h1 3361   2.791   0.269   1.147
  639TCM    cl3 3362   3.007   0.182   1.201
  640TCM     c1 3363   1.919   1.139   3.791
  640TCM    cl1 3364   1.973   1.233   3.933
  640TCM    cl2 3365   1.963   0.966   3.812
  640TCM     h1 3366   1.810   1.147   3.781
  640TCM    cl3 3367   1.998   1.201   3.642
   5.00000   5.00000   5.00000
