Green Red Orange Magenta Azure Cyan Skyblue
 3367
    1MOP     C1    1   1.714   3.330   3.564
    1MOP     O2    2   1.808   3.324   3.487
    1MOP     C3    3   1.644   3.212   3.619
    1MOP     C4    4   1.547   3.226   3.720
    1MOP     C5    5   1.500   3.114   3.786
    1MOP     C6    6   1.546   2.986   3.752
    1MOP     C7    7   1.497   2.869   3.823
    1MOP     C8    8   1.362   2.828   3.815
    1MOP     C9    9   1.329   2.706   3.878
    1MOP    C10   10   1.424   2.628   3.945
    1MOP    O11   11   1.385   2.503   3.986
    1MOP    C12   12   1.490   2.408   3.973
    1MOP    C13   13   1.552   2.678   3.964
    1MOP    C14   14   1.589   2.796   3.902
    1MOP    C15   15   1.257   2.902   3.741
    1MOP    C16   16   1.268   2.933   3.605
    1MOP    C17   17   1.165   2.994   3.534
    1MOP    C18   18   1.048   3.031   3.602
    1MOP    C19   19   1.034   3.010   3.739
    1MOP    C20   20   1.141   2.947   3.807
    1MOP    C21   21   0.913   3.063   3.813
    1MOP    N22   22   0.896   3.020   3.953
    1MOP    C23   23   0.778   3.061   3.738
    1MOP    C24   24   1.639   2.972   3.648
    1MOP    C25   25   1.689   3.084   3.582
    1MOP    H26   26   1.510   3.323   3.750
    1MOP    H27   27   1.426   3.126   3.865
    1MOP    H28   28   1.228   2.667   3.868
    1MOP    H29   29   1.447   2.308   3.975
    1MOP    H30   30   1.559   2.417   4.057
    1MOP    H31   31   1.544   2.416   3.879
    1MOP    H32   32   1.626   2.625   4.023
    1MOP    H33   33   1.691   2.833   3.914
    1MOP    H34   34   1.359   2.907   3.550
    1MOP    H35   35   1.174   3.012   3.428
    1MOP    H36   36   0.969   3.079   3.543
    1MOP    H37   37   1.136   2.933   3.915
    1MOP    H38   38   0.936   3.170   3.824
    1MOP    H39   39   0.894   3.096   4.021
    1MOP    H40   40   0.695   3.030   3.802
    1MOP    H41   41   0.779   2.995   3.650
    1MOP    H42   42   0.753   3.161   3.700
    1MOP    H43   43   1.675   2.874   3.619
    1MOP    H44   44   1.764   3.073   3.505
    2MOP    C45   45   0.889   2.898   4.015
    2MOP    O46   46   0.882   2.896   4.138
    2MOP    C47   47   0.899   2.771   3.941
    2MOP    C48   48   0.833   2.751   3.820
    2MOP    C49   49   0.857   2.636   3.744
    2MOP    C50   50   0.940   2.536   3.793
    2MOP    C51   51   0.955   2.413   3.714
    2MOP    C52   52   1.012   2.409   3.584
    2MOP    C53   53   1.016   2.283   3.521
    2MOP    C54   54   0.968   2.166   3.579
    2MOP    O55   55   0.988   2.053   3.506
    2MOP    C56   56   0.996   1.931   3.579
    2MOP    C57   57   0.907   2.172   3.703
    2MOP    C58   58   0.901   2.294   3.770
    2MOP    C59   59   1.078   2.522   3.512
    2MOP    C60   60   1.193   2.580   3.564
    2MOP    C61   61   1.282   2.651   3.482
    2MOP    C62   62   1.250   2.678   3.350
    2MOP    C63   63   1.130   2.633   3.296
    2MOP    C64   64   1.045   2.556   3.379
    2MOP    C65   65   1.090   2.672   3.153
    2MOP    N66   66   0.989   2.584   3.093
    2MOP    C67   67   1.198   2.706   3.049
    2MOP    C68   68   0.997   2.550   3.921
    2MOP    C69   69   0.977   2.668   3.994
    2MOP    H70   70   0.762   2.822   3.782
    2MOP    H71   71   0.808   2.625   3.648
    2MOP    H72   72   1.065   2.277   3.425
    2MOP    H73   73   1.057   1.861   3.521
    2MOP    H74   74   0.896   1.888   3.591
    2MOP    H75   75   1.044   1.942   3.677
    2MOP    H76   76   0.865   2.084   3.751
    2MOP    H77   77   0.855   2.297   3.868
    2MOP    H78   78   1.219   2.562   3.667
    2MOP    H79   79   1.377   2.683   3.523
    2MOP    H80   80   1.322   2.737   3.293
    2MOP    H81   81   0.952   2.516   3.339
    2MOP    H82   82   1.037   2.767   3.169
    2MOP    H83   83   0.906   2.632   3.059
    2MOP    H84   84   1.199   2.635   2.966
    2MOP    H85   85   1.300   2.711   3.088
    2MOP    H86   86   1.176   2.802   3.002
    2MOP    H87   87   1.060   2.472   3.963
    2MOP    H88   88   1.025   2.681   4.091
    3MOP    C89   89   0.983   2.449   3.070
    3MOP    O90   90   0.880   2.406   3.017
    3MOP    C91   91   1.087   2.354   3.115
    3MOP    C92   92   1.224   2.378   3.114
    3MOP    C93   93   1.315   2.286   3.168
    3MOP    C94   94   1.272   2.165   3.223
    3MOP    C95   95   1.368   2.070   3.284
    3MOP    C96   96   1.480   2.109   3.362
    3MOP    C97   97   1.568   2.008   3.408
    3MOP    C98   98   1.541   1.872   3.392
    3MOP    O99   99   1.629   1.787   3.453
    3MOP   C100  100   1.573   1.666   3.503
    3MOP   C101  101   1.429   1.833   3.321
    3MOP   C102  102   1.346   1.931   3.266
    3MOP   C103  103   1.498   2.243   3.428
    3MOP   C104  104   1.396   2.284   3.513
    3MOP   C105  105   1.418   2.379   3.611
    3MOP   C106  106   1.536   2.451   3.613
    3MOP   C107  107   1.642   2.418   3.528
    3MOP   C108  108   1.620   2.314   3.435
    3MOP   C109  109   1.773   2.495   3.539
    3MOP   N110  110   1.889   2.422   3.492
    3MOP   C111  111   1.810   2.564   3.672
    3MOP   C112  112   1.133   2.137   3.216
    3MOP   C113  113   1.043   2.229   3.162
    3MOP   H114  114   1.265   2.469   3.073
    3MOP   H115  115   1.421   2.311   3.166
    3MOP   H116  116   1.652   2.036   3.469
    3MOP   H117  117   1.645   1.621   3.572
    3MOP   H118  118   1.556   1.595   3.421
    3MOP   H119  119   1.480   1.684   3.559
    3MOP   H120  120   1.405   1.728   3.306
    3MOP   H121  121   1.261   1.896   3.207
    3MOP   H122  122   1.299   2.236   3.508
    3MOP   H123  123   1.342   2.397   3.685
    3MOP   H124  124   1.543   2.532   3.684
    3MOP   H125  125   1.702   2.282   3.368
    3MOP   H126  126   1.761   2.577   3.465
    3MOP   H127  127   1.953   2.475   3.434
    3MOP   H128  128   1.898   2.519   3.718
    3MOP   H129  129   1.731   2.563   3.748
    3MOP   H130  130   1.836   2.669   3.653
    3MOP   H131  131   1.093   2.045   3.257
    3MOP   H132  132   0.937   2.206   3.163
    4MOP   C133  133   1.947   2.305   3.533
    4MOP   O134  134   2.060   2.280   3.490
    4MOP   C135  135   1.878   2.203   3.617
    4MOP   C136  136   1.799   2.226   3.730
    4MOP   C137  137   1.734   2.121   3.797
    4MOP   C138  138   1.748   1.987   3.756
    4MOP   C139  139   1.689   1.870   3.828
    4MOP   C140  140   1.558   1.856   3.879
    4MOP   C141  141   1.520   1.733   3.938
    4MOP   C142  142   1.606   1.625   3.948
    4MOP   O143  143   1.552   1.512   4.003
    4MOP   C144  144   1.630   1.393   3.995
    4MOP   C145  145   1.736   1.639   3.903
    4MOP   C146  146   1.777   1.759   3.846
    4MOP   C147  147   1.448   1.956   3.868
    4MOP   C148  148   1.398   1.990   3.743
    4MOP   C149  149   1.287   2.074   3.733
    4MOP   C150  150   1.231   2.132   3.845
    4MOP   C151  151   1.274   2.098   3.973
    4MOP   C152  152   1.380   2.005   3.981
    4MOP   C153  153   1.204   2.159   4.094
    4MOP   N154  154   1.297   2.229   4.181
    4MOP   C155  155   1.109   2.062   4.163
    4MOP   C156  156   1.831   1.966   3.644
    4MOP   C157  157   1.895   2.070   3.576
    4MOP   H158  158   1.786   2.326   3.769
    4MOP   H159  159   1.673   2.143   3.884
    4MOP   H160  160   1.418   1.719   3.974
    4MOP   H161  161   1.570   1.312   4.036
    4MOP   H162  162   1.721   1.402   4.055
    4MOP   H163  163   1.654   1.369   3.890
    4MOP   H164  164   1.808   1.558   3.909
    4MOP   H165  165   1.881   1.766   3.812
    4MOP   H166  166   1.441   1.948   3.653
    4MOP   H167  167   1.245   2.092   3.635
    4MOP   H168  168   1.150   2.204   3.833
    4MOP   H169  169   1.411   1.968   4.079
    4MOP   H170  170   1.140   2.240   4.056
    4MOP   H171  171   1.328   2.319   4.148
    4MOP   H172  172   1.161   1.975   4.204
    4MOP   H173  173   1.033   2.026   4.093
    4MOP   H174  174   1.057   2.113   4.246
    4MOP   H175  175   1.845   1.866   3.604
    4MOP   H176  176   1.956   2.048   3.489
    5CAP   C177  177   1.767   3.541   3.644
    5CAP   O178  178   1.668   3.441   3.628
    5CAP   H179  179   1.849   3.502   3.704
    5CAP   H180  180   1.721   3.624   3.700
    5CAP   H181  181   1.803   3.579   3.548
    6CAP   C182  182   1.742   2.260   4.204
    6CAP   C183  183   1.637   2.170   4.269
    6CAP   C184  184   1.654   2.030   4.207
    6CAP   C185  185   1.657   2.167   4.420
    6CAP   O186  186   1.509   2.231   4.237
    6CAP   C187  187   1.392   2.164   4.253
    6CAP   O188  188   1.378   2.056   4.311
    6CAP   H189  189   1.844   2.225   4.224
    6CAP   H190  190   1.729   2.264   4.095
    6CAP   H191  191   1.733   2.364   4.239
    6CAP   H192  192   1.636   2.035   4.099
    6CAP   H193  193   1.585   1.956   4.249
    6CAP   H194  194   1.755   1.992   4.223
    6CAP   H195  195   1.650   2.267   4.461
    6CAP   H196  196   1.581   2.106   4.470
    6CAP   H197  197   1.756   2.125   4.445
    1TCM     c1  198   4.336   0.335   2.672
    1TCM    cl1  199   4.461   0.360   2.548
    1TCM    cl2  200   4.240   0.484   2.690
    1TCM     h1  201   4.270   0.251   2.642
    1TCM    cl3  202   4.414   0.296   2.828
    1TCM     c1  203   1.471   2.341   4.602
    1TCM    cl1  204   1.347   2.215   4.623
    1TCM    cl2  205   1.422   2.487   4.692
    1TCM     h1  206   1.568   2.304   4.641
    1TCM    cl3  207   1.487   2.381   4.430
    1TCM     c1  208   1.809   2.286   0.992
    1TCM    cl1  209   1.861   2.118   0.966
    1TCM    cl2  210   1.798   2.370   0.836
    1TCM     h1  211   1.709   2.287   1.042
    1TCM    cl3  212   1.927   2.369   1.096
    1TCM     c1  213   2.663   0.616   3.812
    1TCM    cl1  214   2.662   0.482   3.694
    1TCM    cl2  215   2.692   0.550   3.975
    1TCM     h1  216   2.744   0.687   3.786
    1TCM    cl3  217   2.506   0.699   3.809
    1TCM     c1  218   2.342   1.768   2.825
    1TCM    cl1  219   2.301   1.940   2.843
    1TCM    cl2  220   2.306   1.682   2.977
    1TCM     h1  221   2.282   1.724   2.743
    1TCM    cl3  222   2.515   1.752   2.787
    1TCM     c1  223   4.937   1.227   0.525
    1TCM    cl1  224   4.774   1.171   0.570
    1TCM    cl2  225   5.057   1.149   0.630
    1TCM     h1  226   4.957   1.201   0.420
    1TCM    cl3  227   4.947   1.403   0.546
    1TCM     c1  228   2.881   0.821   2.571
    1TCM    cl1  229   2.807   0.979   2.536
    1TCM    cl2  230   2.756   0.706   2.623
    1TCM     h1  231   2.930   0.782   2.479
    1TCM    cl3  232   3.003   0.839   2.699
    1TCM     c1  233   3.853   4.036   4.733
    1TCM    cl1  234   3.733   4.058   4.603
    1TCM    cl2  235   3.775   4.061   4.890
    1TCM     h1  236   3.894   3.934   4.728
    1TCM    cl3  237   3.985   4.154   4.713
    1TCM     c1  238   0.771   4.145   3.478
    1TCM    cl1  239   0.808   3.981   3.421
    1TCM    cl2  240   0.834   4.264   3.361
    1TCM     h1  241   0.661   4.158   3.488
    1TCM    cl3  242   0.849   4.172   3.636
    1TCM     c1  243   3.889   1.315   2.574
    1TCM    cl1  244   3.866   1.376   2.739
    1TCM    cl2  245   4.063   1.301   2.540
    1TCM     h1  246   3.841   1.215   2.564
    1TCM    cl3  247   3.815   1.428   2.458
    1TCM     c1  248   4.915   3.092   4.462
    1TCM    cl1  249   4.740   3.073   4.485
    1TCM    cl2  250   4.985   2.936   4.414
    1TCM     h1  251   4.934   3.167   4.383
    1TCM    cl3  252   4.989   3.146   4.615
    1TCM     c1  253   0.559   2.835   1.444
    1TCM    cl1  254   0.542   3.010   1.473
    1TCM    cl2  255   0.397   2.760   1.439
    1TCM     h1  256   0.610   2.819   1.347
    1TCM    cl3  257   0.654   2.761   1.575
    1TCM     c1  258   1.506   1.908   2.341
    1TCM    cl1  259   1.363   1.879   2.443
    1TCM    cl2  260   1.454   1.939   2.174
    1TCM     h1  261   1.561   1.995   2.380
    1TCM    cl3  262   1.611   1.764   2.345
    1TCM     c1  263   4.262   4.435   0.712
    1TCM    cl1  264   4.426   4.408   0.776
    1TCM    cl2  265   4.219   4.303   0.601
    1TCM     h1  266   4.190   4.438   0.796
    1TCM    cl3  267   4.258   4.590   0.624
    1TCM     c1  268   2.577   5.238   3.853
    1TCM    cl1  269   2.677   5.103   3.913
    1TCM    cl2  270   2.515   5.332   3.991
    1TCM     h1  271   2.639   5.304   3.788
    1TCM    cl3  272   2.440   5.174   3.759
    1TCM     c1  273   2.860   1.886   3.030
    1TCM    cl1  274   3.022   1.820   2.997
    1TCM    cl2  275   2.773   1.776   3.140
    1TCM     h1  276   2.870   1.986   3.078
    1TCM    cl3  277   2.770   1.901   2.878
    1TCM     c1  278   0.683   3.113   5.018
    1TCM    cl1  279   0.814   3.198   4.932
    1TCM    cl2  280   0.694   2.938   4.984
    1TCM     h1  281   0.693   3.130   5.127
    1TCM    cl3  282   0.526   3.174   4.962
    1TCM     c1  283   4.596   3.535   2.146
    1TCM    cl1  284   4.539   3.647   2.020
    1TCM    cl2  285   4.457   3.454   2.221
    1TCM     h1  286   4.663   3.459   2.100
    1TCM    cl3  287   4.685   3.626   2.270
    1TCM     c1  288   5.246   3.659   4.900
    1TCM    cl1  289   5.092   3.735   4.853
    1TCM    cl2  290   5.339   3.771   5.001
    1TCM     h1  291   5.225   3.566   4.958
    1TCM    cl3  292   5.339   3.618   4.755
    1TCM     c1  293   2.414   0.880   3.701
    1TCM    cl1  294   2.314   0.757   3.780
    1TCM    cl2  295   2.309   1.008   3.635
    1TCM     h1  296   2.484   0.925   3.775
    1TCM    cl3  297   2.507   0.806   3.569
    1TCM     c1  298   1.409   1.980   2.656
    1TCM    cl1  299   1.359   2.071   2.512
    1TCM    cl2  300   1.323   2.042   2.799
    1TCM     h1  301   1.385   1.872   2.642
    1TCM    cl3  302   1.584   1.999   2.680
    1TCM     c1  303   3.100   4.694   4.828
    1TCM    cl1  304   3.175   4.739   4.673
    1TCM    cl2  305   3.183   4.551   4.895
    1TCM     h1  306   3.109   4.779   4.900
    1TCM    cl3  307   2.928   4.656   4.803
    1TCM     c1  308   2.704   2.467   2.023
    1TCM    cl1  309   2.622   2.436   1.868
    1TCM    cl2  310   2.659   2.628   2.083
    1TCM     h1  311   2.673   2.390   2.097
    1TCM    cl3  312   2.880   2.460   2.000
    1TCM     c1  313   2.730   2.026   5.067
    1TCM    cl1  314   2.832   1.933   5.179
    1TCM    cl2  315   2.827   2.076   4.926
    1TCM     h1  316   2.645   1.962   5.033
    1TCM    cl3  317   2.667   2.169   5.150
    1TCM     c1  318   4.908   0.263   1.238
    1TCM    cl1  319   4.755   0.172   1.224
    1TCM    cl2  320   4.899   0.373   1.378
    1TCM     h1  321   4.992   0.192   1.252
    1TCM    cl3  322   4.934   0.358   1.090
    1TCM     c1  323   3.032   0.850   1.256
    1TCM    cl1  324   3.097   0.685   1.240
    1TCM    cl2  325   2.861   0.851   1.204
    1TCM     h1  326   3.038   0.882   1.362
    1TCM    cl3  327   3.125   0.961   1.153
    1TCM     c1  328   3.961   3.289   1.863
    1TCM    cl1  329   3.977   3.116   1.828
    1TCM    cl2  330   3.967   3.315   2.039
    1TCM     h1  331   4.044   3.345   1.815
    1TCM    cl3  332   3.806   3.349   1.800
    1TCM     c1  333   1.027   0.807   3.654
    1TCM    cl1  334   0.908   0.876   3.542
    1TCM    cl2  335   0.980   0.846   3.821
    1TCM     h1  336   1.031   0.697   3.641
    1TCM    cl3  337   1.187   0.877   3.620
    1TCM     c1  338   0.703   5.162   4.126
    1TCM    cl1  339   0.587   5.285   4.181
    1TCM    cl2  340   0.856   5.181   4.215
    1TCM     h1  341   0.661   5.061   4.146
    1TCM    cl3  342   0.732   5.181   3.952
    1TCM     c1  343   2.801   3.632   3.424
    1TCM    cl1  344   2.947   3.622   3.525
    1TCM    cl2  345   2.847   3.667   3.256
    1TCM     h1  346   2.746   3.536   3.429
    1TCM    cl3  347   2.696   3.762   3.485
    1TCM     c1  348   0.283   0.981   2.481
    1TCM    cl1  349   0.129   1.065   2.450
    1TCM    cl2  350   0.292   0.835   2.380
    1TCM     h1  351   0.368   1.048   2.455
    1TCM    cl3  352   0.293   0.935   2.652
    1TCM     c1  353   4.981   1.985   2.118
    1TCM    cl1  354   5.092   2.025   2.251
    1TCM    cl2  355   4.973   2.121   2.004
    1TCM     h1  356   5.017   1.894   2.066
    1TCM    cl3  357   4.819   1.954   2.185
    1TCM     c1  358   1.277   3.557   2.324
    1TCM    cl1  359   1.386   3.419   2.299
    1TCM    cl2  360   1.155   3.560   2.195
    1TCM     h1  361   1.226   3.547   2.422
    1TCM    cl3  362   1.370   3.708   2.321
    1TCM     c1  363   3.927   1.431   2.055
    1TCM    cl1  364   3.880   1.259   2.047
    1TCM    cl2  365   3.900   1.492   2.220
    1TCM     h1  366   4.034   1.441   2.029
    1TCM    cl3  367   3.828   1.524   1.941
    1TCM     c1  368   0.855   2.281   2.114
    1TCM    cl1  369   0.838   2.434   2.203
    1TCM    cl2  370   0.864   2.316   1.939
    1TCM     h1  371   0.947   2.230   2.146
    1TCM    cl3  372   0.714   2.178   2.146
    1TCM     c1  373   2.233   3.779   1.788
    1TCM    cl1  374   2.389   3.855   1.750
    1TCM    cl2  375   2.127   3.786   1.644
    1TCM     h1  376   2.249   3.672   1.816
    1TCM    cl3  377   2.155   3.864   1.923
    1TCM     c1  378   1.046   4.554   1.139
    1TCM    cl1  379   0.898   4.559   1.041
    1TCM    cl2  380   1.113   4.390   1.137
    1TCM     h1  381   1.120   4.625   1.098
    1TCM    cl3  382   1.007   4.600   1.306
    1TCM     c1  383   0.234   1.263   4.844
    1TCM    cl1  384   0.065   1.310   4.814
    1TCM    cl2  385   0.310   1.382   4.952
    1TCM     h1  386   0.236   1.163   4.891
    1TCM    cl3  387   0.322   1.259   4.689
    1TCM     c1  388   1.321   3.896   4.779
    1TCM    cl1  389   1.459   4.009   4.787
    1TCM    cl2  390   1.343   3.767   4.900
    1TCM     h1  391   1.227   3.951   4.800
    1TCM    cl3  392   1.313   3.824   4.617
    1TCM     c1  393   0.310   0.744   4.845
    1TCM    cl1  394   0.397   0.700   4.994
    1TCM    cl2  395   0.372   0.647   4.710
    1TCM     h1  396   0.202   0.724   4.859
    1TCM    cl3  397   0.335   0.917   4.811
    1TCM     c1  398   1.059   4.306   2.231
    1TCM    cl1  399   0.938   4.267   2.355
    1TCM    cl2  400   0.979   4.385   2.093
    1TCM     h1  401   1.135   4.375   2.273
    1TCM    cl3  402   1.138   4.157   2.176
    1TCM     c1  403   3.688   4.130   0.168
    1TCM    cl1  404   3.766   4.012   0.060
    1TCM    cl2  405   3.748   4.107   0.334
    1TCM     h1  406   3.712   4.233   0.134
    1TCM    cl3  407   3.512   4.106   0.165
    1TCM     c1  408   1.667   1.529   1.448
    1TCM    cl1  409   1.519   1.571   1.537
    1TCM    cl2  410   1.690   1.643   1.313
    1TCM     h1  411   1.754   1.535   1.517
    1TCM    cl3  412   1.653   1.363   1.384
    1TCM     c1  413   3.487   0.685   2.343
    1TCM    cl1  414   3.321   0.632   2.308
    1TCM    cl2  415   3.572   0.557   2.433
    1TCM     h1  416   3.541   0.705   2.249
    1TCM    cl3  417   3.483   0.833   2.442
    1TCM     c1  418   0.128   0.612   1.984
    1TCM    cl1  419   0.025   0.638   2.127
    1TCM    cl2  420   0.281   0.700   2.004
    1TCM     h1  421   0.149   0.504   1.973
    1TCM    cl3  422   0.044   0.672   1.839
    1TCM     c1  423   3.859   2.603   1.100
    1TCM    cl1  424   3.920   2.463   1.191
    1TCM    cl2  425   3.992   2.675   1.006
    1TCM     h1  426   3.779   2.570   1.031
    1TCM    cl3  427   3.794   2.724   1.213
    1TCM     c1  428   4.170   0.090   0.792
    1TCM    cl1  429   4.054   0.000   0.692
    1TCM    cl2  430   4.197   0.251   0.722
    1TCM     h1  431   4.130   0.100   0.895
    1TCM    cl3  432   4.325   0.001   0.797
    1TCM     c1  433   4.950   1.728   3.396
    1TCM    cl1  434   4.824   1.742   3.271
    1TCM    cl2  435   4.884   1.643   3.537
    1TCM     h1  436   5.036   1.671   3.355
    1TCM    cl3  437   5.003   1.891   3.444
    1TCM     c1  438   2.035   3.586   2.439
    1TCM    cl1  439   2.069   3.524   2.276
    1TCM    cl2  440   1.989   3.758   2.428
    1TCM     h1  441   1.952   3.528   2.485
    1TCM    cl3  442   2.181   3.571   2.540
    1TCM     c1  443   0.571   0.261   4.868
    1TCM    cl1  444   0.457   0.290   5.002
    1TCM    cl2  445   0.561   0.090   4.818
    1TCM     h1  446   0.545   0.326   4.782
    1TCM    cl3  447   0.737   0.297   4.922
    1TCM     c1  448   4.497   0.698   4.586
    1TCM    cl1  449   4.451   0.803   4.449
    1TCM    cl2  450   4.431   0.765   4.737
    1TCM     h1  451   4.457   0.596   4.569
    1TCM    cl3  452   4.674   0.690   4.596
    1TCM     c1  453   3.857   4.626   1.550
    1TCM    cl1  454   3.755   4.764   1.600
    1TCM    cl2  455   3.910   4.650   1.382
    1TCM     h1  456   3.946   4.620   1.616
    1TCM    cl3  457   3.763   4.476   1.562
    1TCM     c1  458   4.491   4.567   4.891
    1TCM    cl1  459   4.327   4.524   4.944
    1TCM    cl2  460   4.604   4.440   4.943
    1TCM     h1  461   4.493   4.576   4.781
    1TCM    cl3  462   4.538   4.722   4.964
    1TCM     c1  463   3.995   4.315   1.752
    1TCM    cl1  464   3.906   4.202   1.648
    1TCM    cl2  465   4.095   4.224   1.867
    1TCM     h1  466   4.060   4.380   1.689
    1TCM    cl3  467   3.879   4.417   1.841
    1TCM     c1  468   3.851   4.064   3.377
    1TCM    cl1  469   3.733   3.931   3.359
    1TCM    cl2  470   3.917   4.062   3.542
    1TCM     h1  471   3.932   4.050   3.303
    1TCM    cl3  472   3.769   4.219   3.348
    1TCM     c1  473   0.367   0.896   3.404
    1TCM    cl1  474   0.275   1.046   3.380
    1TCM    cl2  475   0.409   0.879   3.576
    1TCM     h1  476   0.306   0.810   3.372
    1TCM    cl3  477   0.516   0.902   3.307
    1TCM     c1  478   3.050   2.654   2.848
    1TCM    cl1  479   3.092   2.668   3.020
    1TCM    cl2  480   2.983   2.808   2.791
    1TCM     h1  481   3.141   2.629   2.790
    1TCM    cl3  482   2.929   2.525   2.827
    1TCM     c1  483   3.684   2.490   2.419
    1TCM    cl1  484   3.636   2.525   2.252
    1TCM    cl2  485   3.602   2.342   2.475
    1TCM     h1  486   3.794   2.476   2.424
    1TCM    cl3  487   3.637   2.626   2.524
    1TCM     c1  488   5.009   0.660   2.432
    1TCM    cl1  489   5.114   0.620   2.570
    1TCM    cl2  490   5.103   0.654   2.282
    1TCM     h1  491   4.925   0.587   2.427
    1TCM    cl3  492   4.943   0.824   2.454
    1TCM     c1  493   0.347   0.177   3.024
    1TCM    cl1  494   0.447   0.055   2.943
    1TCM    cl2  495   0.177   0.124   3.025
    1TCM     h1  496   0.382   0.191   3.128
    1TCM    cl3  497   0.360   0.332   2.936
    1TCM     c1  498   5.188   3.650   1.390
    1TCM    cl1  499   5.053   3.727   1.305
    1TCM    cl2  500   5.161   3.658   1.566
    1TCM     h1  501   5.196   3.543   1.359
    1TCM    cl3  502   5.340   3.734   1.350
    1TCM     c1  503   1.555   3.298   0.949
    1TCM    cl1  504   1.516   3.471   0.969
    1TCM    cl2  505   1.672   3.279   0.816
    1TCM     h1  506   1.600   3.260   1.043
    1TCM    cl3  507   1.407   3.208   0.911
    1TCM     c1  508   2.712   4.516   4.255
    1TCM    cl1  509   2.542   4.519   4.201
    1TCM    cl2  510   2.809   4.618   4.147
    1TCM     h1  511   2.718   4.555   4.359
    1TCM    cl3  512   2.773   4.349   4.250
    1TCM     c1  513   4.663   1.685   0.429
    1TCM    cl1  514   4.496   1.624   0.424
    1TCM    cl2  515   4.662   1.859   0.463
    1TCM     h1  516   4.719   1.632   0.509
    1TCM    cl3  517   4.742   1.656   0.272
    1TCM     c1  518   2.947   4.808   4.497
    1TCM    cl1  519   2.933   4.633   4.521
    1TCM    cl2  520   2.834   4.861   4.370
    1TCM     h1  521   2.923   4.860   4.592
    1TCM    cl3  522   3.113   4.848   4.449
    1TCM     c1  523   3.846   4.152   2.077
    1TCM    cl1  524   3.769   4.225   1.935
    1TCM    cl2  525   3.722   4.083   2.184
    1TCM     h1  526   3.916   4.072   2.045
    1TCM    cl3  527   3.937   4.277   2.166
    1TCM     c1  528   0.907   0.230   3.381
    1TCM    cl1  529   0.764   0.219   3.486
    1TCM    cl2  530   0.855   0.270   3.215
    1TCM     h1  531   0.974   0.309   3.419
    1TCM    cl3  532   0.992   0.074   3.380
    1TCM     c1  533   0.897   1.411   2.576
    1TCM    cl1  534   0.854   1.544   2.466
    1TCM    cl2  535   0.817   1.434   2.732
    1TCM     h1  536   0.865   1.314   2.531
    1TCM    cl3  537   1.074   1.408   2.600
    1TCM     c1  538   1.164   0.794   2.270
    1TCM    cl1  539   1.148   0.671   2.142
    1TCM    cl2  540   1.238   0.941   2.203
    1TCM     h1  541   1.064   0.818   2.311
    1TCM    cl3  542   1.268   0.730   2.400
    1TCM     c1  543   2.871   1.129   3.979
    1TCM    cl1  544   2.726   1.161   4.076
    1TCM    cl2  545   2.867   1.227   3.831
    1TCM     h1  546   2.961   1.155   4.038
    1TCM    cl3  547   2.877   0.957   3.935
    1TCM     c1  548   4.621   5.146   1.269
    1TCM    cl1  549   4.748   5.228   1.176
    1TCM    cl2  550   4.634   5.193   1.441
    1TCM     h1  551   4.521   5.176   1.231
    1TCM    cl3  552   4.640   4.970   1.254
    1TCM     c1  553   0.535   4.428   0.330
    1TCM    cl1  554   0.389   4.514   0.383
    1TCM    cl2  555   0.536   4.417   0.153
    1TCM     h1  556   0.625   4.484   0.365
    1TCM    cl3  557   0.536   4.265   0.400
    1TCM     c1  558   2.394   3.422   2.221
    1TCM    cl1  559   2.504   3.548   2.159
    1TCM    cl2  560   2.414   3.408   2.397
    1TCM     h1  561   2.289   3.450   2.198
    1TCM    cl3  562   2.432   3.267   2.144
    1TCM     c1  563   0.363   3.171   1.121
    1TCM    cl1  564   0.534   3.182   1.071
    1TCM    cl2  565   0.342   3.252   1.278
    1TCM     h1  566   0.299   3.221   1.045
    1TCM    cl3  567   0.316   3.001   1.135
    1TCM     c1  568   3.374   3.631   1.063
    1TCM    cl1  569   3.302   3.511   1.173
    1TCM    cl2  570   3.283   3.784   1.075
    1TCM     h1  571   3.480   3.649   1.092
    1TCM    cl3  572   3.366   3.571   0.896
    1TCM     c1  573   3.173   2.966   4.981
    1TCM    cl1  574   3.231   3.104   4.886
    1TCM    cl2  575   3.115   3.023   5.139
    1TCM     h1  576   3.090   2.916   4.927
    1TCM    cl3  577   3.306   2.851   5.005
    1TCM     c1  578   1.128   1.244   1.940
    1TCM    cl1  579   1.259   1.144   1.873
    1TCM    cl2  580   1.150   1.260   2.116
    1TCM     h1  581   1.131   1.344   1.893
    1TCM    cl3  582   0.972   1.167   1.907
    1TCM     c1  583   1.966   2.622   4.784
    1TCM    cl1  584   1.892   2.540   4.644
    1TCM    cl2  585   2.072   2.508   4.870
    1TCM     h1  586   2.026   2.708   4.748
    1TCM    cl3  587   1.839   2.680   4.893
    1TCM     c1  588   2.217   4.140   4.135
    1TCM    cl1  589   2.248   4.089   3.968
    1TCM    cl2  590   2.328   4.054   4.245
    1TCM     h1  591   2.234   4.249   4.144
    1TCM    cl3  592   2.049   4.102   4.179
    1TCM     c1  593   0.811   0.362   0.071
    1TCM    cl1  594   0.947   0.452   0.000
    1TCM    cl2  595   0.834   0.349   0.247
    1TCM     h1  596   0.716   0.416   0.050
    1TCM    cl3  597   0.804   0.199   0.000
    1TCM     c1  598   1.114   0.625   2.992
    1TCM    cl1  599   1.164   0.795   3.009
    1TCM    cl2  600   0.942   0.610   3.034
    1TCM     h1  601   1.130   0.592   2.887
    1TCM    cl3  602   1.211   0.523   3.101
    1TCM     c1  603   4.500   3.185   3.294
    1TCM    cl1  604   4.444   3.129   3.135
    1TCM    cl2  605   4.658   3.266   3.276
    1TCM     h1  606   4.426   3.257   3.335
    1TCM    cl3  607   4.516   3.046   3.403
    1TCM     c1  608   3.209   4.773   5.198
    1TCM    cl1  609   3.218   4.884   5.337
    1TCM    cl2  610   3.250   4.862   5.049
    1TCM     h1  611   3.280   4.689   5.212
    1TCM    cl3  612   3.043   4.709   5.184
    1TCM     c1  613   1.852   0.144   3.620
    1TCM    cl1  614   1.885   0.179   3.449
    1TCM    cl2  615   1.849   0.296   3.712
    1TCM     h1  616   1.754   0.093   3.629
    1TCM    cl3  617   1.979   0.038   3.684
    1TCM     c1  618   1.041   0.853   4.116
    1TCM    cl1  619   1.109   0.787   4.267
    1TCM    cl2  620   0.876   0.789   4.094
    1TCM     h1  621   1.037   0.963   4.123
    1TCM    cl3  622   1.142   0.804   3.979
    1TCM     c1  623   2.052   5.152   2.406
    1TCM    cl1  624   1.956   5.258   2.511
    1TCM    cl2  625   2.043   5.211   2.239
    1TCM     h1  626   2.158   5.152   2.440
    1TCM    cl3  627   1.988   4.986   2.414
    1TCM     c1  628   1.248   1.214   2.483
    1TCM    cl1  629   1.337   1.077   2.412
    1TCM    cl2  630   1.148   1.290   2.357
    1TCM     h1  631   1.183   1.178   2.565
    1TCM    cl3  632   1.364   1.333   2.547
    1TCM     c1  633   1.607   1.634   0.186
    1TCM    cl1  634   1.571   1.803   0.142
    1TCM    cl2  635   1.781   1.618   0.222
    1TCM     h1  636   1.548   1.606   0.276
    1TCM    cl3  637   1.564   1.527   0.051
    1TCM     c1  638   4.225   3.115   2.465
    1TCM    cl1  639   4.394   3.171   2.458
    1TCM    cl2  640   4.149   3.178   2.613
    1TCM     h1  641   4.170   3.152   2.376
    1TCM    cl3  642   4.221   2.937   2.468
    1TCM     c1  643   2.963   4.845   1.370
    1TCM    cl1  644   2.834   4.967   1.365
    1TCM    cl2  645   2.892   4.685   1.404
    1TCM     h1  646   3.015   4.842   1.273
    1TCM    cl3  647   3.079   4.886   1.498
    1TCM     c1  648   4.320   2.477   3.326
    1TCM    cl1  649   4.429   2.521   3.459
    1TCM    cl2  650   4.157   2.446   3.391
    1TCM     h1  651   4.315   2.561   3.253
    1TCM    cl3  652   4.380   2.331   3.244
    1TCM     c1  653   4.262   0.784   3.699
    1TCM    cl1  654   4.315   0.712   3.853
    1TCM    cl2  655   4.267   0.660   3.572
    1TCM     h1  656   4.159   0.823   3.710
    1TCM    cl3  657   4.371   0.918   3.656
    1TCM     c1  658   4.280   0.993   3.323
    1TCM    cl1  659   4.187   0.992   3.171
    1TCM    cl2  660   4.233   0.853   3.422
    1TCM     h1  661   4.388   0.988   3.300
    1TCM    cl3  662   4.245   1.143   3.412
    1TCM     c1  663   2.081   0.273   3.325
    1TCM    cl1  664   1.929   0.280   3.233
    1TCM    cl2  665   2.211   0.349   3.230
    1TCM     h1  666   2.069   0.329   3.420
    1TCM    cl3  667   2.123   0.104   3.359
    1TCM     c1  668   0.505   4.497   3.659
    1TCM    cl1  669   0.570   4.640   3.743
    1TCM    cl2  670   0.411   4.399   3.774
    1TCM     h1  671   0.440   4.529   3.575
    1TCM    cl3  672   0.640   4.399   3.596
    1TCM     c1  673   0.291   1.936   4.823
    1TCM    cl1  674   0.344   1.853   4.971
    1TCM    cl2  675   0.313   1.827   4.683
    1TCM     h1  676   0.184   1.964   4.832
    1TCM    cl3  677   0.389   2.083   4.799
    1TCM     c1  678   1.118   5.123   5.253
    1TCM    cl1  679   1.247   5.210   5.340
    1TCM    cl2  680   1.160   5.112   5.081
    1TCM     h1  681   1.108   5.021   5.296
    1TCM    cl3  682   0.965   5.211   5.271
    1TCM     c1  683   0.871   2.265   1.224
    1TCM    cl1  684   0.793   2.178   1.359
    1TCM    cl2  685   1.046   2.275   1.253
    1TCM     h1  686   0.852   2.211   1.129
    1TCM    cl3  687   0.803   2.429   1.212
    1TCM     c1  688   4.796   1.730   2.325
    1TCM    cl1  689   4.959   1.800   2.321
    1TCM    cl2  690   4.807   1.556   2.356
    1TCM     h1  691   4.738   1.778   2.406
    1TCM    cl3  692   4.716   1.758   2.169
    1TCM     c1  693   2.935   1.335   2.600
    1TCM    cl1  694   2.785   1.364   2.691
    1TCM    cl2  695   2.932   1.429   2.449
    1TCM     h1  696   3.022   1.367   2.661
    1TCM    cl3  697   2.949   1.162   2.562
    1TCM     c1  698   3.218   0.569   2.656
    1TCM    cl1  699   3.074   0.609   2.752
    1TCM    cl2  700   3.349   0.682   2.697
    1TCM     h1  701   3.250   0.465   2.679
    1TCM    cl3  702   3.180   0.582   2.483
    1TCM     c1  703   2.399   4.673   1.065
    1TCM    cl1  704   2.421   4.814   1.171
    1TCM    cl2  705   2.402   4.726   0.895
    1TCM     h1  706   2.481   4.600   1.083
    1TCM    cl3  707   2.243   4.596   1.100
    1TCM     c1  708   0.577   3.419   4.115
    1TCM    cl1  709   0.616   3.592   4.109
    1TCM    cl2  710   0.595   3.348   3.953
    1TCM     h1  711   0.646   3.368   4.186
    1TCM    cl3  712   0.410   3.398   4.170
    1TCM     c1  713   2.494   0.149   1.678
    1TCM    cl1  714   2.397   0.256   1.781
    1TCM    cl2  715   2.538   0.003   1.770
    1TCM     h1  716   2.436   0.121   1.589
    1TCM    cl3  717   2.643   0.234   1.629
    1TCM     c1  718   2.668   4.934   3.610
    1TCM    cl1  719   2.541   4.865   3.507
    1TCM    cl2  720   2.625   4.912   3.781
    1TCM     h1  721   2.764   4.883   3.589
    1TCM    cl3  722   2.685   5.108   3.575
    1TCM     c1  723   3.645   3.577   4.785
    1TCM    cl1  724   3.541   3.718   4.754
    1TCM    cl2  725   3.813   3.617   4.742
    1TCM     h1  726   3.639   3.550   4.892
    1TCM    cl3  727   3.590   3.440   4.686
    1TCM     c1  728   1.718   0.241   4.757
    1TCM    cl1  729   1.569   0.195   4.842
    1TCM    cl2  730   1.692   0.231   4.581
    1TCM     h1  731   1.746   0.345   4.784
    1TCM    cl3  732   1.850   0.130   4.803
    1TCM     c1  733   3.467   3.772   1.890
    1TCM    cl1  734   3.388   3.639   1.979
    1TCM    cl2  735   3.616   3.819   1.974
    1TCM     h1  736   3.491   3.738   1.787
    1TCM    cl3  737   3.356   3.911   1.883
    1TCM     c1  738   0.228   2.779   2.122
    1TCM    cl1  739   0.244   2.947   2.179
    1TCM    cl2  740   0.226   2.777   1.944
    1TCM     h1  741   0.313   2.719   2.159
    1TCM    cl3  742   0.076   2.710   2.183
    1TCM     c1  743   1.829   0.930   3.560
    1TCM    cl1  744   1.878   0.956   3.391
    1TCM    cl2  745   1.869   0.764   3.608
    1TCM     h1  746   1.884   1.002   3.625
    1TCM    cl3  747   1.654   0.957   3.576
    1TCM     c1  748   1.459   4.572   3.680
    1TCM    cl1  749   1.316   4.677   3.694
    1TCM    cl2  750   1.493   4.542   3.508
    1TCM     h1  751   1.546   4.621   3.727
    1TCM    cl3  752   1.427   4.417   3.761
    1TCM     c1  753   1.203   3.335   3.605
    1TCM    cl1  754   1.266   3.471   3.702
    1TCM    cl2  755   1.242   3.361   3.434
    1TCM     h1  756   1.249   3.240   3.640
    1TCM    cl3  757   1.027   3.326   3.625
    1TCM     c1  758   4.856   2.315   2.476
    1TCM    cl1  759   4.731   2.410   2.393
    1TCM    cl2  760   4.819   2.310   2.650
    1TCM     h1  761   4.857   2.212   2.436
    1TCM    cl3  762   5.015   2.391   2.451
    1TCM     c1  763   2.496   1.448   1.786
    1TCM    cl1  764   2.360   1.439   1.900
    1TCM    cl2  765   2.507   1.612   1.718
    1TCM     h1  766   2.591   1.423   1.839
    1TCM    cl3  767   2.470   1.331   1.654
    1TCM     c1  768   1.410   0.126   3.754
    1TCM    cl1  769   1.344   0.291   3.735
    1TCM    cl2  770   1.454   0.061   3.594
    1TCM     h1  771   1.501   0.130   3.818
    1TCM    cl3  772   1.288   0.022   3.829
    1TCM     c1  773   4.344   3.786   2.723
    1TCM    cl1  774   4.437   3.659   2.640
    1TCM    cl2  775   4.208   3.711   2.809
    1TCM     h1  776   4.409   3.838   2.795
    1TCM    cl3  777   4.282   3.902   2.604
    1TCM     c1  778   4.404   1.315   4.010
    1TCM    cl1  779   4.308   1.165   4.014
    1TCM    cl2  780   4.448   1.362   4.175
    1TCM     h1  781   4.496   1.298   3.950
    1TCM    cl3  782   4.308   1.444   3.935
    1TCM     c1  783   3.733   2.053   2.697
    1TCM    cl1  784   3.599   2.056   2.815
    1TCM    cl2  785   3.791   2.219   2.670
    1TCM     h1  786   3.816   1.991   2.736
    1TCM    cl3  787   3.675   1.985   2.543
    1TCM     c1  788   4.969   4.005   3.379
    1TCM    cl1  789   5.095   3.927   3.477
    1TCM    cl2  790   4.989   3.957   3.209
    1TCM     h1  791   4.869   3.973   3.415
    1TCM    cl3  792   4.984   4.181   3.393
    1TCM     c1  793   0.367   2.157   0.397
    1TCM    cl1  794   0.224   2.105   0.489
    1TCM    cl2  795   0.333   2.143   0.223
    1TCM     h1  796   0.391   2.263   0.422
    1TCM    cl3  797   0.505   2.054   0.439
    1TCM     c1  798   3.740   1.688   3.653
    1TCM    cl1  799   3.811   1.826   3.740
    1TCM    cl2  800   3.732   1.724   3.480
    1TCM     h1  801   3.804   1.598   3.669
    1TCM    cl3  802   3.577   1.656   3.715
    1TCM     c1  803   1.449   2.650   2.903
    1TCM    cl1  804   1.592   2.645   2.797
    1TCM    cl2  805   1.325   2.540   2.838
    1TCM     h1  806   1.477   2.617   3.005
    1TCM    cl3  807   1.385   2.815   2.908
    1TCM     c1  808   0.303   3.047   0.164
    1TCM    cl1  809   0.310   3.224   0.150
    1TCM    cl2  810   0.378   2.996   0.317
    1TCM     h1  811   0.197   3.014   0.163
    1TCM    cl3  812   0.390   2.973   0.028
    1TCM     c1  813   0.820   4.669   5.028
    1TCM    cl1  814   0.696   4.605   5.138
    1TCM    cl2  815   0.741   4.767   4.901
    1TCM     h1  816   0.891   4.733   5.084
    1TCM    cl3  817   0.908   4.534   4.952
    1TCM     c1  818   4.702   4.848   0.124
    1TCM    cl1  819   4.841   4.808   0.021
    1TCM    cl2  820   4.759   4.883   0.289
    1TCM     h1  821   4.650   4.937   0.083
    1TCM    cl3  822   4.589   4.711   0.128
    1TCM     c1  823   1.082   0.953   1.010
    1TCM    cl1  824   1.143   0.823   1.115
    1TCM    cl2  825   1.053   0.887   0.847
    1TCM     h1  826   0.988   0.993   1.051
    1TCM    cl3  827   1.203   1.082   1.000
    1TCM     c1  828   2.431   0.375   3.509
    1TCM    cl1  829   2.367   0.504   3.614
    1TCM    cl2  830   2.444   0.435   3.342
    1TCM     h1  831   2.531   0.344   3.546
    1TCM    cl3  832   2.321   0.235   3.514
    1TCM     c1  833   0.467   1.502   3.276
    1TCM    cl1  834   0.409   1.373   3.383
    1TCM    cl2  835   0.412   1.471   3.110
    1TCM     h1  836   0.427   1.600   3.310
    1TCM    cl3  837   0.645   1.507   3.279
    1TCM     c1  838   0.322   4.393   4.976
    1TCM    cl1  839   0.284   4.253   4.873
    1TCM    cl2  840   0.351   4.339   5.143
    1TCM     h1  841   0.413   4.444   4.937
    1TCM    cl3  842   0.185   4.507   4.973
    1TCM     c1  843   4.295   1.433   2.195
    1TCM    cl1  844   4.460   1.489   2.228
    1TCM    cl2  845   4.184   1.499   2.318
    1TCM     h1  846   4.263   1.468   2.095
    1TCM    cl3  847   4.290   1.256   2.201
    1TCM     c1  848   1.494   0.647   1.840
    1TCM    cl1  849   1.526   0.547   1.984
    1TCM    cl2  850   1.429   0.544   1.710
    1TCM     h1  851   1.420   0.726   1.865
    1TCM    cl3  852   1.645   0.722   1.785
    1TCM     c1  853   2.154   1.888   3.635
    1TCM    cl1  854   2.238   1.894   3.792
    1TCM    cl2  855   2.122   1.719   3.591
    1TCM     h1  856   2.058   1.944   3.642
    1TCM    cl3  857   2.256   1.964   3.511
    1TCM     c1  858   2.637   3.612   3.838
    1TCM    cl1  859   2.740   3.700   3.953
    1TCM    cl2  860   2.577   3.463   3.914
    1TCM     h1  861   2.551   3.676   3.808
    1TCM    cl3  862   2.732   3.570   3.693
    1TCM     c1  863   0.871   1.242   3.490
    1TCM    cl1  864   0.922   1.224   3.320
    1TCM    cl2  865   0.693   1.243   3.499
    1TCM     h1  866   0.910   1.158   3.550
    1TCM    cl3  867   0.934   1.395   3.554
    1TCM     c1  868   0.793   4.413   1.928
    1TCM    cl1  869   0.662   4.401   1.809
    1TCM    cl2  870   0.727   4.385   2.091
    1TCM     h1  871   0.870   4.337   1.906
    1TCM    cl3  872   0.866   4.575   1.920
    1TCM     c1  873   3.707   4.190   2.603
    1TCM    cl1  874   3.872   4.212   2.542
    1TCM    cl2  875   3.679   4.018   2.640
    1TCM     h1  876   3.693   4.251   2.694
    1TCM    cl3  877   3.591   4.242   2.478
    1TCM     c1  878   0.606   2.620   3.592
    1TCM    cl1  879   0.692   2.467   3.559
    1TCM    cl2  880   0.635   2.669   3.760
    1TCM     h1  881   0.644   2.698   3.523
    1TCM    cl3  882   0.432   2.597   3.566
    1TCM     c1  883   1.794   3.849   1.657
    1TCM    cl1  884   1.916   3.907   1.540
    1TCM    cl2  885   1.640   3.933   1.629
    1TCM     h1  886   1.780   3.740   1.645
    1TCM    cl3  887   1.851   3.883   1.823
    1TCM     c1  888   1.728   1.507   2.355
    1TCM    cl1  889   1.611   1.570   2.473
    1TCM    cl2  890   1.893   1.546   2.409
    1TCM     h1  891   1.717   1.397   2.347
    1TCM    cl3  892   1.698   1.581   2.197
    1TCM     c1  893   3.953   0.135   4.034
    1TCM    cl1  894   4.035   0.039   3.909
    1TCM    cl2  895   4.047   0.129   4.185
    1TCM     h1  896   3.944   0.241   4.000
    1TCM    cl3  897   3.790   0.069   4.062
    1TCM     c1  898   0.155   4.564   4.553
    1TCM    cl1  899   0.303   4.642   4.493
    1TCM    cl2  900   0.040   4.689   4.607
    1TCM     h1  901   0.109   4.504   4.471
    1TCM    cl3  902   0.195   4.457   4.689
    1TCM     c1  903   1.514   1.997   0.460
    1TCM    cl1  904   1.620   1.875   0.386
    1TCM    cl2  905   1.608   2.093   0.577
    1TCM     h1  906   1.474   2.064   0.382
    1TCM    cl3  907   1.380   1.915   0.544
    1TCM     c1  908   2.729   2.842   0.305
    1TCM    cl1  909   2.605   2.942   0.226
    1TCM    cl2  910   2.715   2.674   0.249
    1TCM     h1  911   2.830   2.881   0.279
    1TCM    cl3  912   2.707   2.849   0.481
    1TCM     c1  913   3.611   1.426   3.436
    1TCM    cl1  914   3.504   1.332   3.330
    1TCM    cl2  915   3.737   1.504   3.338
    1TCM     h1  916   3.552   1.503   3.489
    1TCM    cl3  917   3.687   1.317   3.554
    1TCM     c1  918   3.523   0.295   1.932
    1TCM    cl1  919   3.589   0.416   2.045
    1TCM    cl2  920   3.615   0.299   1.780
    1TCM     h1  921   3.531   0.194   1.977
    1TCM    cl3  922   3.352   0.332   1.899
    1TCM     c1  923   4.125   2.685   1.506
    1TCM    cl1  924   4.083   2.770   1.656
    1TCM    cl2  925   4.106   2.510   1.529
    1TCM     h1  926   4.058   2.719   1.424
    1TCM    cl3  927   4.293   2.721   1.463
    1TCM     c1  928   3.023   4.231   2.664
    1TCM    cl1  929   2.845   4.244   2.657
    1TCM    cl2  930   3.074   4.212   2.833
    1TCM     h1  931   3.056   4.143   2.605
    1TCM    cl3  932   3.095   4.379   2.596
    1TCM     c1  933   4.436   1.113   2.776
    1TCM    cl1  934   4.526   1.006   2.885
    1TCM    cl2  935   4.435   1.043   2.612
    1TCM     h1  936   4.332   1.124   2.812
    1TCM    cl3  937   4.514   1.273   2.771
    1TCM     c1  938   1.095   2.081   5.004
    1TCM    cl1  939   1.029   2.236   5.060
    1TCM    cl2  940   1.125   1.975   5.143
    1TCM     h1  941   1.021   2.032   4.936
    1TCM    cl3  942   1.247   2.109   4.917
    1TCM     c1  943   2.480   4.616   4.620
    1TCM    cl1  944   2.630   4.640   4.712
    1TCM    cl2  945   2.424   4.448   4.640
    1TCM     h1  946   2.402   4.686   4.657
    1TCM    cl3  947   2.510   4.648   4.448
    1TCM     c1  948   2.331   5.093   5.101
    1TCM    cl1  949   2.254   5.181   5.235
    1TCM    cl2  950   2.508   5.108   5.114
    1TCM     h1  951   2.303   4.986   5.106
    1TCM    cl3  952   2.277   5.162   4.946
    1TCM     c1  953   2.075   1.090   2.984
    1TCM    cl1  954   2.197   0.997   3.074
    1TCM    cl2  955   2.111   1.084   2.810
    1TCM     h1  956   1.974   1.047   3.003
    1TCM    cl3  957   2.077   1.259   3.039
    1TCM     c1  958   1.945   2.210   5.153
    1TCM    cl1  959   1.868   2.354   5.224
    1TCM    cl2  960   2.024   2.255   5.000
    1TCM     h1  961   2.020   2.170   5.224
    1TCM    cl3  962   1.821   2.086   5.121
    1TCM     c1  963   2.249   1.856   1.704
    1TCM    cl1  964   2.170   1.785   1.847
    1TCM    cl2  965   2.310   1.726   1.599
    1TCM     h1  966   2.176   1.917   1.648
    1TCM    cl3  967   2.385   1.958   1.756
    1TCM     c1  968   2.714   2.655   0.877
    1TCM    cl1  969   2.780   2.731   1.023
    1TCM    cl2  970   2.654   2.780   0.766
    1TCM     h1  971   2.793   2.596   0.826
    1TCM    cl3  972   2.580   2.546   0.922
    1TCM     c1  973   3.072   1.880   2.012
    1TCM    cl1  974   2.978   2.015   1.946
    1TCM    cl2  975   3.127   1.776   1.878
    1TCM     h1  976   3.160   1.919   2.066
    1TCM    cl3  977   2.971   1.785   2.122
    1TCM     c1  978   4.623   4.644   2.711
    1TCM    cl1  979   4.631   4.616   2.886
    1TCM    cl2  980   4.716   4.790   2.670
    1TCM     h1  981   4.666   4.557   2.657
    1TCM    cl3  982   4.454   4.666   2.661
    1TCM     c1  983   3.195   0.423   4.910
    1TCM    cl1  984   3.335   0.490   4.997
    1TCM    cl2  985   3.118   0.552   4.815
    1TCM     h1  986   3.229   0.342   4.842
    1TCM    cl3  987   3.078   0.358   5.027
    1TCM     c1  988   3.962   3.998   4.138
    1TCM    cl1  989   3.953   3.820   4.130
    1TCM    cl2  990   4.042   4.047   4.289
    1TCM     h1  991   4.021   4.035   4.051
    1TCM    cl3  992   3.798   4.065   4.133
    1TCM     c1  993   1.942   1.401   2.620
    1TCM    cl1  994   1.957   1.224   2.623
    1TCM    cl2  995   1.997   1.468   2.776
    1TCM     h1  996   2.006   1.442   2.538
    1TCM    cl3  997   1.773   1.446   2.592
    1TCM     c1  998   2.675   0.495   0.135
    1TCM    cl1  999   2.830   0.408   0.141
    1TCM    cl2 1000   2.639   0.564   0.296
    1TCM     h1 1001   2.681   0.577   0.061
    1TCM    cl3 1002   2.545   0.383   0.089
    1TCM     c1 1003   2.454   2.915   2.030
    1TCM    cl1 1004   2.509   3.060   2.118
    1TCM    cl2 1005   2.448   2.950   1.856
    1TCM     h1 1006   2.524   2.832   2.049
    1TCM    cl3 1007   2.292   2.870   2.087
    1TCM     c1 1008   1.115   4.980   1.647
    1TCM    cl1 1009   1.077   5.153   1.635
    1TCM    cl2 1010   1.290   4.959   1.670
    1TCM     h1 1011   1.060   4.936   1.734
    1TCM    cl3 1012   1.064   4.898   1.498
    1TCM     c1 1013   4.248   2.316   4.401
    1TCM    cl1 1014   4.122   2.435   4.443
    1TCM    cl2 1015   4.181   2.152   4.414
    1TCM     h1 1016   4.283   2.333   4.297
    1TCM    cl3 1017   4.385   2.333   4.513
    1TCM     c1 1018   1.923   5.141   5.151
    1TCM    cl1 1019   1.872   4.995   5.063
    1TCM    cl2 1020   1.854   5.138   5.315
    1TCM     h1 1021   2.033   5.144   5.157
    1TCM    cl3 1022   1.864   5.285   5.065
    1TCM     c1 1023   3.447   3.826   0.669
    1TCM    cl1 1024   3.527   3.707   0.564
    1TCM    cl2 1025   3.515   3.816   0.833
    1TCM     h1 1026   3.463   3.928   0.629
    1TCM    cl3 1027   3.273   3.791   0.676
    1TCM     c1 1028   4.665   0.982   1.074
    1TCM    cl1 1029   4.701   1.033   1.240
    1TCM    cl2 1030   4.571   1.109   0.992
    1TCM     h1 1031   4.760   0.965   1.019
    1TCM    cl3 1032   4.570   0.831   1.077
    1TCM     c1 1033   4.164   1.825   1.957
    1TCM    cl1 1034   4.250   1.863   1.807
    1TCM    cl2 1035   4.111   1.976   2.035
    1TCM     h1 1036   4.075   1.762   1.934
    1TCM    cl3 1037   4.272   1.737   2.067
    1TCM     c1 1038   4.131   1.740   0.167
    1TCM    cl1 1039   4.194   1.577   0.199
    1TCM    cl2 1040   3.958   1.731   0.130
    1TCM     h1 1041   4.147   1.804   0.257
    1TCM    cl3 1042   4.217   1.811   0.028
    1TCM     c1 1043   3.988   3.240   4.817
    1TCM    cl1 1044   3.937   3.395   4.748
    1TCM    cl2 1045   4.150   3.257   4.888
    1TCM     h1 1046   3.917   3.208   4.895
    1TCM    cl3 1047   3.993   3.117   4.688
    1TCM     c1 1048   1.196   0.542   3.858
    1TCM    cl1 1049   1.263   0.547   4.022
    1TCM    cl2 1050   1.298   0.640   3.749
    1TCM     h1 1051   1.194   0.437   3.822
    1TCM    cl3 1052   1.031   0.608   3.859
    1TCM     c1 1053   3.581   0.360   1.458
    1TCM    cl1 1054   3.409   0.371   1.502
    1TCM    cl2 1055   3.598   0.377   1.282
    1TCM     h1 1056   3.637   0.442   1.508
    1TCM    cl3 1057   3.646   0.203   1.509
    1TCM     c1 1058   1.273   0.277   4.085
    1TCM    cl1 1059   1.446   0.316   4.063
    1TCM    cl2 1060   1.203   0.389   4.204
    1TCM     h1 1061   1.220   0.288   3.989
    1TCM    cl3 1062   1.257   0.111   4.145
    1TCM     c1 1063   3.161   5.273   3.645
    1TCM    cl1 1064   3.212   5.319   3.481
    1TCM    cl2 1065   3.000   5.340   3.679
    1TCM     h1 1066   3.158   5.162   3.653
    1TCM    cl3 1067   3.278   5.338   3.763
    1TCM     c1 1068   2.261   1.153   4.319
    1TCM    cl1 1069   2.255   1.065   4.165
    1TCM    cl2 1070   2.368   1.294   4.302
    1TCM     h1 1071   2.159   1.187   4.347
    1TCM    cl3 1072   2.325   1.046   4.446
    1TCM     c1 1073   3.290   0.749   0.365
    1TCM    cl1 1074   3.455   0.816   0.367
    1TCM    cl2 1075   3.293   0.582   0.427
    1TCM     h1 1076   3.224   0.811   0.429
    1TCM    cl3 1077   3.228   0.749   0.198
    1TCM     c1 1078   1.776   2.217   2.530
    1TCM    cl1 1079   1.841   2.337   2.644
    1TCM    cl2 1080   1.905   2.102   2.486
    1TCM     h1 1081   1.693   2.162   2.578
    1TCM    cl3 1082   1.717   2.299   2.384
    1TCM     c1 1083   5.002   4.019   4.679
    1TCM    cl1 1084   5.072   3.887   4.583
    1TCM    cl2 1085   4.912   4.129   4.572
    1TCM     h1 1086   4.933   3.977   4.755
    1TCM    cl3 1087   5.133   4.109   4.760
    1TCM     c1 1088   0.881   0.935   2.733
    1TCM    cl1 1089   0.892   1.105   2.784
    1TCM    cl2 1090   0.858   0.928   2.556
    1TCM     h1 1091   0.974   0.882   2.760
    1TCM    cl3 1092   0.742   0.858   2.813
    1TCM     c1 1093   4.741   0.999   3.652
    1TCM    cl1 1094   4.784   0.857   3.749
    1TCM    cl2 1095   4.796   0.975   3.484
    1TCM     h1 1096   4.631   1.013   3.653
    1TCM    cl3 1097   4.820   1.143   3.720
    1TCM     c1 1098   5.104   4.799   0.649
    1TCM    cl1 1099   5.224   4.899   0.735
    1TCM    cl2 1100   5.165   4.762   0.486
    1TCM     h1 1101   5.088   4.705   0.705
    1TCM    cl3 1102   4.951   4.889   0.636
    1TCM     c1 1103   0.706   3.377   0.338
    1TCM    cl1 1104   0.868   3.434   0.382
    1TCM    cl2 1105   0.596   3.400   0.477
    1TCM     h1 1106   0.668   3.436   0.252
    1TCM    cl3 1107   0.712   3.205   0.296
    1TCM     c1 1108   1.162   2.532   4.756
    1TCM    cl1 1109   1.241   2.445   4.889
    1TCM    cl2 1110   1.283   2.628   4.668
    1TCM     h1 1111   1.115   2.459   4.686
    1TCM    cl3 1112   1.037   2.640   4.822
    1TCM     c1 1113   0.791   3.259   0.724
    1TCM    cl1 1114   0.915   3.224   0.848
    1TCM    cl2 1115   0.846   3.196   0.567
    1TCM     h1 1116   0.696   3.210   0.752
    1TCM    cl3 1117   0.767   3.434   0.713
    1TCM     c1 1118   4.247   1.630   2.604
    1TCM    cl1 1119   4.318   1.747   2.490
    1TCM    cl2 1120   4.241   1.702   2.766
    1TCM     h1 1121   4.144   1.605   2.571
    1TCM    cl3 1122   4.346   1.483   2.608
    1TCM     c1 1123   2.132   0.575   4.336
    1TCM    cl1 1124   2.155   0.467   4.197
    1TCM    cl2 1125   2.139   0.744   4.282
    1TCM     h1 1126   2.033   0.555   4.382
    1TCM    cl3 1127   2.260   0.546   4.456
    1TCM     c1 1128   0.450   0.147   2.649
    1TCM    cl1 1129   0.536   0.000   2.601
    1TCM    cl2 1130   0.530   0.220   2.790
    1TCM     h1 1131   0.450   0.220   2.565
    1TCM    cl3 1132   0.282   0.106   2.691
    1TCM     c1 1133   1.839   4.557   4.437
    1TCM    cl1 1134   1.815   4.414   4.334
    1TCM    cl2 1135   1.910   4.508   4.593
    1TCM     h1 1136   1.908   4.628   4.386
    1TCM    cl3 1137   1.683   4.636   4.466
    1TCM     c1 1138   4.279   4.616   1.505
    1TCM    cl1 1139   4.339   4.730   1.382
    1TCM    cl2 1140   4.384   4.472   1.509
    1TCM     h1 1141   4.280   4.665   1.605
    1TCM    cl3 1142   4.113   4.567   1.465
    1TCM     c1 1143   1.141   2.628   0.580
    1TCM    cl1 1144   1.311   2.624   0.633
    1TCM    cl2 1145   1.107   2.484   0.481
    1TCM     h1 1146   1.074   2.629   0.668
    1TCM    cl3 1147   1.113   2.774   0.482
    1TCM     c1 1148   1.317   0.943   4.297
    1TCM    cl1 1149   1.456   1.053   4.318
    1TCM    cl2 1150   1.338   0.849   4.148
    1TCM     h1 1151   1.311   0.874   4.384
    1TCM    cl3 1152   1.168   1.038   4.286
    1TCM     c1 1153   1.875   1.518   0.879
    1TCM    cl1 1154   1.885   1.684   0.817
    1TCM    cl2 1155   1.876   1.520   1.056
    1TCM     h1 1156   1.782   1.470   0.843
    1TCM    cl3 1157   2.015   1.425   0.820
    1TCM     c1 1158   1.227   4.560   1.447
    1TCM    cl1 1159   1.247   4.391   1.393
    1TCM    cl2 1160   1.236   4.668   1.306
    1TCM     h1 1161   1.129   4.572   1.497
    1TCM    cl3 1162   1.357   4.601   1.561
    1TCM     c1 1163   5.125   2.738   2.611
    1TCM    cl1 1164   5.013   2.750   2.749
    1TCM    cl2 1165   5.043   2.657   2.476
    1TCM     h1 1166   5.156   2.840   2.580
    1TCM    cl3 1167   5.267   2.643   2.659
    1TCM     c1 1168   0.843   2.447   0.221
    1TCM    cl1 1169   0.812   2.405   0.051
    1TCM    cl2 1170   0.688   2.454   0.309
    1TCM     h1 1171   0.908   2.370   0.267
    1TCM    cl3 1172   0.923   2.605   0.229
    1TCM     c1 1173   3.695   4.692   3.423
    1TCM    cl1 1174   3.768   4.822   3.326
    1TCM    cl2 1175   3.823   4.591   3.492
    1TCM     h1 1176   3.635   4.737   3.505
    1TCM    cl3 1177   3.589   4.592   3.321
    1TCM     c1 1178   2.165   1.011   2.429
    1TCM    cl1 1179   2.330   1.049   2.376
    1TCM    cl2 1180   2.084   1.161   2.481
    1TCM     h1 1181   2.109   0.966   2.345
    1TCM    cl3 1182   2.171   0.897   2.565
    1TCM     c1 1183   0.713   4.609   4.510
    1TCM    cl1 1184   0.618   4.578   4.657
    1TCM    cl2 1185   0.605   4.611   4.369
    1TCM     h1 1186   0.764   4.708   4.519
    1TCM    cl3 1187   0.835   4.482   4.489
    1TCM     c1 1188   2.051   4.832   3.930
    1TCM    cl1 1189   2.095   4.950   4.056
    1TCM    cl2 1190   2.179   4.826   3.807
    1TCM     h1 1191   2.039   4.731   3.976
    1TCM    cl3 1192   1.898   4.881   3.855
    1TCM     c1 1193   1.176   0.283   1.292
    1TCM    cl1 1194   1.147   0.109   1.264
    1TCM    cl2 1195   1.117   0.327   1.454
    1TCM     h1 1196   1.284   0.303   1.286
    1TCM    cl3 1197   1.089   0.378   1.170
    1TCM     c1 1198   2.466   3.109   1.099
    1TCM    cl1 1199   2.468   3.031   1.259
    1TCM    cl2 1200   2.632   3.126   1.039
    1TCM     h1 1201   2.407   3.047   1.028
    1TCM    cl3 1202   2.391   3.270   1.113
    1TCM     c1 1203   1.023   3.619   1.108
    1TCM    cl1 1204   1.067   3.737   0.982
    1TCM    cl2 1205   0.925   3.489   1.036
    1TCM     h1 1206   1.116   3.576   1.151
    1TCM    cl3 1207   0.930   3.700   1.235
    1TCM     c1 1208   3.757   2.386   2.028
    1TCM    cl1 1209   3.808   2.533   2.115
    1TCM    cl2 1210   3.803   2.243   2.123
    1TCM     h1 1211   3.647   2.388   2.015
    1TCM    cl3 1212   3.836   2.381   1.869
    1TCM     c1 1213   2.770   2.497   1.282
    1TCM    cl1 1214   2.658   2.507   1.144
    1TCM    cl2 1215   2.853   2.654   1.301
    1TCM     h1 1216   2.713   2.474   1.374
    1TCM    cl3 1217   2.890   2.370   1.253
    1TCM     c1 1218   2.752   3.503   4.302
    1TCM    cl1 1219   2.722   3.628   4.179
    1TCM    cl2 1220   2.904   3.418   4.264
    1TCM     h1 1221   2.760   3.550   4.402
    1TCM    cl3 1222   2.618   3.386   4.301
    1TCM     c1 1223   1.237   2.820   4.189
    1TCM    cl1 1224   1.274   2.817   4.363
    1TCM    cl2 1225   1.085   2.909   4.162
    1TCM     h1 1226   1.319   2.871   4.135
    1TCM    cl3 1227   1.219   2.654   4.129
    1TCM     c1 1228   1.535   2.960   3.387
    1TCM    cl1 1229   1.498   3.064   3.526
    1TCM    cl2 1230   1.703   2.987   3.335
    1TCM     h1 1231   1.521   2.854   3.416
    1TCM    cl3 1232   1.425   2.999   3.252
    1TCM     c1 1233   3.823   4.802   3.862
    1TCM    cl1 1234   3.727   4.770   3.716
    1TCM    cl2 1235   3.763   4.701   3.996
    1TCM     h1 1236   3.929   4.778   3.843
    1TCM    cl3 1237   3.808   4.974   3.906
    1TCM     c1 1238   0.160   3.224   0.516
    1TCM    cl1 1239   0.238   3.236   0.676
    1TCM    cl2 1240   0.152   3.053   0.467
    1TCM     h1 1241   0.057   3.266   0.522
    1TCM    cl3 1242   0.255   3.315   0.397
    1TCM     c1 1243   1.468   2.278   5.104
    1TCM    cl1 1244   1.493   2.111   5.159
    1TCM    cl2 1245   1.557   2.389   5.210
    1TCM     h1 1246   1.506   2.289   5.000
    1TCM    cl3 1247   1.295   2.316   5.109
    1TCM     c1 1248   0.251   1.944   3.013
    1TCM    cl1 1249   0.272   1.771   2.977
    1TCM    cl2 1250   0.390   2.036   2.951
    1TCM     h1 1251   0.158   1.981   2.966
    1TCM    cl3 1252   0.240   1.966   3.189
    1TCM     c1 1253   3.714   0.223   4.945
    1TCM    cl1 1254   3.667   0.321   4.805
    1TCM    cl2 1255   3.573   0.130   5.003
    1TCM     h1 1256   3.795   0.153   4.916
    1TCM    cl3 1257   3.772   0.330   5.075
    1TCM     c1 1258   1.821   2.771   2.160
    1TCM    cl1 1259   1.740   2.895   2.259
    1TCM    cl2 1260   1.822   2.822   1.990
    1TCM     h1 1261   1.926   2.758   2.195
    1TCM    cl3 1262   1.734   2.616   2.175
    1TCM     c1 1263   4.168   0.693   4.232
    1TCM    cl1 1264   4.216   0.560   4.124
    1TCM    cl2 1265   3.992   0.686   4.260
    1TCM     h1 1266   4.221   0.684   4.329
    1TCM    cl3 1267   4.209   0.849   4.156
    1TCM     c1 1268   0.343   3.841   1.617
    1TCM    cl1 1269   0.346   3.946   1.473
    1TCM    cl2 1270   0.177   3.829   1.678
    1TCM     h1 1271   0.380   3.740   1.589
    1TCM    cl3 1272   0.448   3.909   1.743
    1TCM     c1 1273   2.052   2.650   4.129
    1TCM    cl1 1274   1.990   2.485   4.150
    1TCM    cl2 1275   1.976   2.757   4.249
    1TCM     h1 1276   2.162   2.651   4.142
    1TCM    cl3 1277   2.011   2.707   3.965
    1TCM     c1 1278   3.726   2.552   2.852
    1TCM    cl1 1279   3.647   2.706   2.893
    1TCM    cl2 1280   3.602   2.431   2.812
    1TCM     h1 1281   3.793   2.567   2.764
    1TCM    cl3 1282   3.822   2.495   2.990
    1TCM     c1 1283   0.294   4.833   2.872
    1TCM    cl1 1284   0.381   4.678   2.863
    1TCM    cl2 1285   0.145   4.812   2.967
    1TCM     h1 1286   0.359   4.908   2.921
    1TCM    cl3 1287   0.253   4.888   2.708
    1TCM     c1 1288   0.129   4.654   2.479
    1TCM    cl1 1289   0.062   4.690   2.640
    1TCM    cl2 1290   0.193   4.804   2.408
    1TCM     h1 1291   0.210   4.580   2.488
    1TCM    cl3 1292   0.000   4.589   2.375
    1TCM     c1 1293   0.480   2.491   2.449
    1TCM    cl1 1294   0.313   2.519   2.502
    1TCM    cl2 1295   0.493   2.526   2.275
    1TCM     h1 1296   0.548   2.557   2.506
    1TCM    cl3 1297   0.524   2.321   2.478
    1TCM     c1 1298   0.616   4.024   2.843
    1TCM    cl1 1299   0.453   4.089   2.874
    1TCM    cl2 1300   0.629   3.975   2.672
    1TCM     h1 1301   0.692   4.103   2.865
    1TCM    cl3 1302   0.645   3.884   2.948
    1TCM     c1 1303   2.415   0.705   4.077
    1TCM    cl1 1304   2.475   0.689   4.244
    1TCM    cl2 1305   2.251   0.774   4.079
    1TCM     h1 1306   2.482   0.772   4.020
    1TCM    cl3 1307   2.411   0.545   4.000
    1TCM     c1 1308   1.850   1.979   2.222
    1TCM    cl1 1309   1.762   1.906   2.085
    1TCM    cl2 1310   1.833   1.873   2.365
    1TCM     h1 1311   1.957   1.989   2.196
    1TCM    cl3 1312   1.781   2.138   2.258
    1TCM     c1 1313   0.950   3.197   2.348
    1TCM    cl1 1314   0.993   3.217   2.520
    1TCM    cl2 1315   0.945   3.357   2.270
    1TCM     h1 1316   1.027   3.134   2.298
    1TCM    cl3 1317   0.791   3.119   2.335
    1TCM     c1 1318   4.766   3.758   3.051
    1TCM    cl1 1319   4.724   3.863   2.914
    1TCM    cl2 1320   4.814   3.598   2.990
    1TCM     h1 1321   4.851   3.803   3.107
    1TCM    cl3 1322   4.626   3.741   3.158
    1TCM     c1 1323   4.271   1.048   4.587
    1TCM    cl1 1324   4.447   1.038   4.615
    1TCM    cl2 1325   4.231   0.968   4.434
    1TCM     h1 1326   4.218   0.998   4.671
    1TCM    cl3 1327   4.222   1.219   4.580
    1TCM     c1 1328   0.139   3.114   4.637
    1TCM    cl1 1329   0.292   3.029   4.605
    1TCM    cl2 1330   0.137   3.172   4.805
    1TCM     h1 1331   0.129   3.200   4.568
    1TCM    cl3 1332   0.003   3.002   4.612
    1TCM     c1 1333   1.035   2.080   0.158
    1TCM    cl1 1334   0.866   2.057   0.206
    1TCM    cl2 1335   1.069   1.982   0.013
    1TCM     h1 1336   1.053   2.187   0.135
    1TCM    cl3 1337   1.142   2.029   0.290
    1TCM     c1 1338   1.917   2.157   1.792
    1TCM    cl1 1339   1.798   2.106   1.914
    1TCM    cl2 1340   1.844   2.146   1.630
    1TCM     h1 1341   1.948   2.261   1.812
    1TCM    cl3 1342   2.059   2.050   1.800
    1TCM     c1 1343   2.572   4.459   3.896
    1TCM    cl1 1344   2.452   4.579   3.950
    1TCM    cl2 1345   2.697   4.540   3.798
    1TCM     h1 1346   2.620   4.413   3.985
    1TCM    cl3 1347   2.492   4.334   3.799
    1TCM     c1 1348   3.260   0.513   1.692
    1TCM    cl1 1349   3.155   0.605   1.802
    1TCM    cl2 1350   3.256   0.587   1.531
    1TCM     h1 1351   3.364   0.514   1.731
    1TCM    cl3 1352   3.202   0.345   1.682
    1TCM     c1 1353   2.475   4.842   4.880
    1TCM    cl1 1354   2.349   4.718   4.893
    1TCM    cl2 1355   2.515   4.868   4.708
    1TCM     h1 1356   2.439   4.938   4.924
    1TCM    cl3 1357   2.621   4.789   4.967
    1TCM     c1 1358   2.655   1.866   3.412
    1TCM    cl1 1359   2.735   1.807   3.559
    1TCM    cl2 1360   2.614   1.728   3.307
    1TCM     h1 1361   2.562   1.920   3.439
    1TCM    cl3 1362   2.765   1.976   3.325
    1TCM     c1 1363   0.834   1.804   4.958
    1TCM    cl1 1364   0.848   1.727   5.118
    1TCM    cl2 1365   0.986   1.780   4.868
    1TCM     h1 1366   0.750   1.759   4.902
    1TCM    cl3 1367   0.805   1.978   4.979
    1TCM     c1 1368   3.148   1.172   3.107
    1TCM    cl1 1369   3.201   1.040   3.214
    1TCM    cl2 1370   3.278   1.211   2.992
    1TCM     h1 1371   3.058   1.140   3.051
    1TCM    cl3 1372   3.109   1.316   3.204
    1TCM     c1 1373   3.722   0.782   1.676
    1TCM    cl1 1374   3.868   0.739   1.582
    1TCM    cl2 1375   3.733   0.952   1.727
    1TCM     h1 1376   3.632   0.768   1.612
    1TCM    cl3 1377   3.711   0.677   1.819
    1TCM     c1 1378   0.527   0.133   0.589
    1TCM    cl1 1379   0.377   0.228   0.572
    1TCM    cl2 1380   0.526   0.000   0.471
    1TCM     h1 1381   0.614   0.199   0.571
    1TCM    cl3 1382   0.536   0.066   0.753
    1TCM     c1 1383   0.842   3.829   3.732
    1TCM    cl1 1384   0.890   3.974   3.824
    1TCM    cl2 1385   0.830   3.691   3.842
    1TCM     h1 1386   0.744   3.847   3.683
    1TCM    cl3 1387   0.965   3.796   3.608
    1TCM     c1 1388   5.168   4.209   4.464
    1TCM    cl1 1389   5.279   4.259   4.593
    1TCM    cl2 1390   5.248   4.228   4.306
    1TCM     h1 1391   5.140   4.102   4.478
    1TCM    cl3 1392   5.021   4.309   4.469
    1TCM     c1 1393   3.754   1.783   0.934
    1TCM    cl1 1394   3.666   1.928   0.882
    1TCM    cl2 1395   3.778   1.787   1.110
    1TCM     h1 1396   3.695   1.692   0.906
    1TCM    cl3 1397   3.912   1.777   0.853
    1TCM     c1 1398   3.389   4.508   3.802
    1TCM    cl1 1399   3.328   4.345   3.839
    1TCM    cl2 1400   3.442   4.514   3.632
    1TCM     h1 1401   3.309   4.582   3.819
    1TCM    cl3 1402   3.527   4.545   3.908
    1TCM     c1 1403   1.685   4.729   3.217
    1TCM    cl1 1404   1.712   4.554   3.199
    1TCM    cl2 1405   1.814   4.818   3.133
    1TCM     h1 1406   1.587   4.756   3.172
    1TCM    cl3 1407   1.686   4.772   3.389
    1TCM     c1 1408   2.586   0.464   2.632
    1TCM    cl1 1409   2.664   0.545   2.770
    1TCM    cl2 1410   2.484   0.581   2.545
    1TCM     h1 1411   2.664   0.425   2.564
    1TCM    cl3 1412   2.486   0.330   2.691
    1TCM     c1 1413   3.327   2.135   4.211
    1TCM    cl1 1414   3.351   2.027   4.350
    1TCM    cl2 1415   3.459   2.254   4.205
    1TCM     h1 1416   3.327   2.076   4.118
    1TCM    cl3 1417   3.171   2.220   4.228
    1TCM     c1 1418   2.961   2.439   0.601
    1TCM    cl1 1419   2.869   2.563   0.513
    1TCM    cl2 1420   3.118   2.506   0.652
    1TCM     h1 1421   2.903   2.408   0.691
    1TCM    cl3 1422   2.988   2.299   0.496
    1TCM     c1 1423   1.598   0.466   5.016
    1TCM    cl1 1424   1.631   0.545   4.860
    1TCM    cl2 1425   1.425   0.479   5.053
    1TCM     h1 1426   1.627   0.359   5.010
    1TCM    cl3 1427   1.693   0.545   5.144
    1TCM     c1 1428   0.745   1.642   1.717
    1TCM    cl1 1429   0.648   1.663   1.864
    1TCM    cl2 1430   0.822   1.482   1.720
    1TCM     h1 1431   0.679   1.649   1.628
    1TCM    cl3 1432   0.870   1.768   1.709
    1TCM     c1 1433   5.008   3.161   0.364
    1TCM    cl1 1434   4.938   3.018   0.285
    1TCM    cl2 1435   4.902   3.214   0.496
    1TCM     h1 1436   5.108   3.135   0.405
    1TCM    cl3 1437   5.024   3.292   0.245
    1TCM     c1 1438   0.630   1.723   4.045
    1TCM    cl1 1439   0.656   1.580   4.147
    1TCM    cl2 1440   0.562   1.855   4.143
    1TCM     h1 1441   0.727   1.756   4.001
    1TCM    cl3 1442   0.517   1.683   3.914
    1TCM     c1 1443   0.882   0.754   0.506
    1TCM    cl1 1444   1.055   0.769   0.468
    1TCM    cl2 1445   0.855   0.799   0.676
    1TCM     h1 1446   0.824   0.822   0.440
    1TCM    cl3 1447   0.830   0.586   0.480
    1TCM     c1 1448   3.512   4.953   4.928
    1TCM    cl1 1449   3.493   5.004   5.097
    1TCM    cl2 1450   3.496   4.777   4.916
    1TCM     h1 1451   3.434   5.002   4.866
    1TCM    cl3 1452   3.673   5.002   4.869
    1TCM     c1 1453   3.150   3.881   3.657
    1TCM    cl1 1454   3.006   3.800   3.723
    1TCM    cl2 1455   3.142   3.882   3.479
    1TCM     h1 1456   3.154   3.985   3.694
    1TCM    cl3 1457   3.296   3.794   3.709
    1TCM     c1 1458   2.830   4.337   3.318
    1TCM    cl1 1459   2.764   4.452   3.199
    1TCM    cl2 1460   2.794   4.394   3.482
    1TCM     h1 1461   2.784   4.238   3.302
    1TCM    cl3 1462   3.007   4.325   3.296
    1TCM     c1 1463   3.508   1.333   2.678
    1TCM    cl1 1464   3.369   1.443   2.681
    1TCM    cl2 1465   3.519   1.247   2.834
    1TCM     h1 1466   3.496   1.260   2.596
    1TCM    cl3 1467   3.657   1.426   2.653
    1TCM     c1 1468   4.568   2.128   5.125
    1TCM    cl1 1469   4.653   2.075   5.272
    1TCM    cl2 1470   4.439   2.013   5.085
    1TCM     h1 1471   4.524   2.229   5.142
    1TCM    cl3 1472   4.683   2.136   4.990
    1TCM     c1 1473   3.184   2.215   0.806
    1TCM    cl1 1474   3.304   2.148   0.693
    1TCM    cl2 1475   3.258   2.235   0.966
    1TCM     h1 1476   3.150   2.314   0.768
    1TCM    cl3 1477   3.045   2.105   0.817
    1TCM     c1 1478   4.628   4.835   1.565
    1TCM    cl1 1479   4.713   4.679   1.570
    1TCM    cl2 1480   4.514   4.844   1.701
    1TCM     h1 1481   4.701   4.917   1.572
    1TCM    cl3 1482   4.538   4.848   1.412
    1TCM     c1 1483   4.627   0.718   3.261
    1TCM    cl1 1484   4.650   0.546   3.299
    1TCM    cl2 1485   4.573   0.734   3.092
    1TCM     h1 1486   4.550   0.761   3.329
    1TCM    cl3 1487   4.780   0.805   3.283
    1TCM     c1 1488   3.555   2.212   0.447
    1TCM    cl1 1489   3.671   2.346   0.436
    1TCM    cl2 1490   3.636   2.067   0.511
    1TCM     h1 1491   3.472   2.241   0.515
    1TCM    cl3 1492   3.489   2.177   0.285
    1TCM     c1 1493   1.770   0.143   2.733
    1TCM    cl1 1494   1.669   0.210   2.862
    1TCM    cl2 1495   1.919   0.239   2.719
    1TCM     h1 1496   1.796   0.038   2.757
    1TCM    cl3 1497   1.681   0.149   2.579
    1TCM     c1 1498   1.216   4.685   5.031
    1TCM    cl1 1499   1.383   4.707   5.087
    1TCM    cl2 1500   1.116   4.628   5.167
    1TCM     h1 1501   1.176   4.782   4.994
    1TCM    cl3 1502   1.212   4.565   4.900
    1TCM     c1 1503   5.127   0.296   4.512
    1TCM    cl1 1504   5.182   0.215   4.364
    1TCM    cl2 1505   5.161   0.192   4.652
    1TCM     h1 1506   5.181   0.392   4.524
    1TCM    cl3 1507   4.952   0.326   4.502
    1TCM     c1 1508   4.371   4.860   0.246
    1TCM    cl1 1509   4.209   4.851   0.320
    1TCM    cl2 1510   4.495   4.851   0.373
    1TCM     h1 1511   4.384   4.776   0.175
    1TCM    cl3 1512   4.387   5.014   0.158
    1TCM     c1 1513   0.558   2.510   3.931
    1TCM    cl1 1514   0.710   2.501   3.840
    1TCM    cl2 1515   0.594   2.518   4.105
    1TCM     h1 1516   0.502   2.600   3.901
    1TCM    cl3 1517   0.460   2.365   3.898
    1TCM     c1 1518   4.073   1.371   1.677
    1TCM    cl1 1519   4.134   1.367   1.510
    1TCM    cl2 1520   4.046   1.540   1.726
    1TCM     h1 1521   3.978   1.315   1.683
    1TCM    cl3 1522   4.193   1.296   1.785
    1TCM     c1 1523   1.391   4.840   0.377
    1TCM    cl1 1524   1.490   4.983   0.338
    1TCM    cl2 1525   1.379   4.823   0.554
    1TCM     h1 1526   1.290   4.853   0.334
    1TCM    cl3 1527   1.467   4.695   0.309
    1TCM     c1 1528   3.336   1.134   4.023
    1TCM    cl1 1529   3.311   1.139   3.848
    1TCM    cl2 1530   3.457   1.009   4.062
    1TCM     h1 1531   3.373   1.232   4.059
    1TCM    cl3 1532   3.183   1.094   4.104
    1TCM     c1 1533   4.653   3.549   3.717
    1TCM    cl1 1534   4.761   3.482   3.593
    1TCM    cl2 1535   4.552   3.419   3.784
    1TCM     h1 1536   4.714   3.593   3.799
    1TCM    cl3 1537   4.550   3.674   3.645
    1TCM     c1 1538   1.540   0.688   0.472
    1TCM    cl1 1539   1.408   0.630   0.367
    1TCM    cl2 1540   1.512   0.632   0.638
    1TCM     h1 1541   1.637   0.647   0.435
    1TCM    cl3 1542   1.546   0.865   0.468
    1TCM     c1 1543   1.353   2.066   1.317
    1TCM    cl1 1544   1.515   2.104   1.381
    1TCM    cl2 1545   1.361   1.918   1.219
    1TCM     h1 1546   1.283   2.052   1.401
    1TCM    cl3 1547   1.297   2.201   1.215
    1TCM     c1 1548   3.516   3.099   2.412
    1TCM    cl1 1549   3.680   3.076   2.347
    1TCM    cl2 1550   3.509   3.253   2.500
    1TCM     h1 1551   3.443   3.101   2.328
    1TCM    cl3 1552   3.477   2.966   2.522
    1TCM     c1 1553   3.251   3.558   2.833
    1TCM    cl1 1554   3.128   3.685   2.825
    1TCM    cl2 1555   3.172   3.399   2.851
    1TCM     h1 1556   3.312   3.558   2.740
    1TCM    cl3 1557   3.357   3.587   2.973
    1TCM     c1 1558   1.376   1.227   0.282
    1TCM    cl1 1559   1.496   1.119   0.355
    1TCM    cl2 1560   1.257   1.130   0.192
    1TCM     h1 1561   1.324   1.285   0.361
    1TCM    cl3 1562   1.457   1.340   0.170
    1TCM     c1 1563   3.052   0.246   0.873
    1TCM    cl1 1564   3.124   0.292   1.029
    1TCM    cl2 1565   2.926   0.124   0.899
    1TCM     h1 1566   3.008   0.336   0.824
    1TCM    cl3 1567   3.179   0.179   0.767
    1TCM     c1 1568   1.919   3.341   1.034
    1TCM    cl1 1569   1.803   3.471   0.997
    1TCM    cl2 1570   1.953   3.340   1.208
    1TCM     h1 1571   1.875   3.244   1.004
    1TCM    cl3 1572   2.069   3.369   0.944
    1TCM     c1 1573   2.925   3.790   2.006
    1TCM    cl1 1574   3.069   3.895   2.015
    1TCM    cl2 1575   2.863   3.761   2.170
    1TCM     h1 1576   2.847   3.841   1.945
    1TCM    cl3 1577   2.969   3.635   1.931
    1TCM     c1 1578   4.588   0.467   4.130
    1TCM    cl1 1579   4.735   0.374   4.167
    1TCM    cl2 1580   4.622   0.641   4.150
    1TCM     h1 1581   4.557   0.448   4.025
    1TCM    cl3 1582   4.457   0.419   4.240
    1TCM     c1 1583   4.666   3.014   4.760
    1TCM    cl1 1584   4.816   2.969   4.675
    1TCM    cl2 1585   4.657   2.926   4.914
    1TCM     h1 1586   4.666   3.123   4.779
    1TCM    cl3 1587   4.526   2.971   4.659
    1TCM     c1 1588   1.128   4.665   2.408
    1TCM    cl1 1589   1.056   4.756   2.273
    1TCM    cl2 1590   1.164   4.777   2.542
    1TCM     h1 1591   1.056   4.588   2.443
    1TCM    cl3 1592   1.278   4.587   2.354
    1TCM     c1 1593   5.133   0.238   0.368
    1TCM    cl1 1594   4.960   0.204   0.342
    1TCM    cl2 1595   5.207   0.291   0.215
    1TCM     h1 1596   5.144   0.318   0.444
    1TCM    cl3 1597   5.215   0.091   0.425
    1TCM     c1 1598   4.580   0.465   3.655
    1TCM    cl1 1599   4.595   0.365   3.508
    1TCM    cl2 1600   4.612   0.635   3.613
    1TCM     h1 1601   4.477   0.456   3.695
    1TCM    cl3 1602   4.698   0.411   3.776
    1TCM     c1 1603   3.609   5.098   4.455
    1TCM    cl1 1604   3.566   5.221   4.575
    1TCM    cl2 1605   3.785   5.078   4.451
    1TCM     h1 1606   3.561   5.001   4.482
    1TCM    cl3 1607   3.551   5.149   4.294
    1TCM     c1 1608   1.494   1.884   1.630
    1TCM    cl1 1609   1.471   1.828   1.463
    1TCM    cl2 1610   1.344   1.860   1.723
    1TCM     h1 1611   1.577   1.827   1.677
    1TCM    cl3 1612   1.535   2.057   1.629
    1TCM     c1 1613   5.266   0.240   1.523
    1TCM    cl1 1614   5.108   0.247   1.604
    1TCM    cl2 1615   5.245   0.267   1.348
    1TCM     h1 1616   5.332   0.319   1.564
    1TCM    cl3 1617   5.340   0.080   1.550
    1TCM     c1 1618   3.319   1.738   2.800
    1TCM    cl1 1619   3.199   1.729   2.668
    1TCM    cl2 1620   3.240   1.801   2.947
    1TCM     h1 1621   3.359   1.637   2.820
    1TCM    cl3 1622   3.451   1.848   2.752
    1TCM     c1 1623   3.629   0.402   0.552
    1TCM    cl1 1624   3.693   0.565   0.519
    1TCM    cl2 1625   3.689   0.289   0.429
    1TCM     h1 1626   3.662   0.369   0.652
    1TCM    cl3 1627   3.451   0.407   0.546
    1TCM     c1 1628   0.643   1.406   2.040
    1TCM    cl1 1629   0.475   1.442   1.995
    1TCM    cl2 1630   0.661   1.232   2.070
    1TCM     h1 1631   0.711   1.437   1.958
    1TCM    cl3 1632   0.685   1.496   2.188
    1TCM     c1 1633   2.799   3.810   1.344
    1TCM    cl1 1634   2.780   3.687   1.217
    1TCM    cl2 1635   2.745   3.744   1.500
    1TCM     h1 1636   2.906   3.839   1.351
    1TCM    cl3 1637   2.702   3.953   1.302
    1TCM     c1 1638   2.465   2.562   4.338
    1TCM    cl1 1639   2.508   2.420   4.241
    1TCM    cl2 1640   2.523   2.540   4.504
    1TCM     h1 1641   2.513   2.652   4.294
    1TCM    cl3 1642   2.289   2.583   4.339
    1TCM     c1 1643   0.550   2.336   0.904
    1TCM    cl1 1644   0.724   2.351   0.871
    1TCM    cl2 1645   0.459   2.353   0.752
    1TCM     h1 1646   0.529   2.237   0.949
    1TCM    cl3 1647   0.500   2.464   1.017
    1TCM     c1 1648   2.591   0.464   1.611
    1TCM    cl1 1649   2.731   0.404   1.519
    1TCM    cl2 1650   2.629   0.461   1.785
    1TCM     h1 1651   2.569   0.569   1.581
    1TCM    cl3 1652   2.450   0.362   1.579
    1TCM     c1 1653   2.483   3.643   0.171
    1TCM    cl1 1654   2.419   3.586   0.016
    1TCM    cl2 1655   2.424   3.539   0.302
    1TCM     h1 1656   2.594   3.641   0.169
    1TCM    cl3 1657   2.429   3.810   0.200
    1TCM     c1 1658   0.150   3.440   4.970
    1TCM    cl1 1659   0.256   3.306   5.018
    1TCM    cl2 1660   0.143   3.449   4.792
    1TCM     h1 1661   0.049   3.424   5.010
    1TCM    cl3 1662   0.216   3.593   5.034
    1TCM     c1 1663   3.925   1.938   1.678
    1TCM    cl1 1664   3.788   1.839   1.733
    1TCM    cl2 1665   3.973   2.050   1.808
    1TCM     h1 1666   4.011   1.872   1.653
    1TCM    cl3 1667   3.878   2.030   1.534
    1TCM     c1 1668   2.234   2.810   2.747
    1TCM    cl1 1669   2.098   2.924   2.733
    1TCM    cl2 1670   2.277   2.749   2.586
    1TCM     h1 1671   2.321   2.862   2.792
    1TCM    cl3 1672   2.186   2.674   2.852
    1TCM     c1 1673   4.398   2.768   0.712
    1TCM    cl1 1674   4.545   2.829   0.633
    1TCM    cl2 1675   4.371   2.857   0.864
    1TCM     h1 1676   4.311   2.782   0.645
    1TCM    cl3 1677   4.417   2.595   0.748
    1TCM     c1 1678   5.109   4.297   1.804
    1TCM    cl1 1679   4.958   4.292   1.898
    1TCM    cl2 1680   5.072   4.344   1.636
    1TCM     h1 1681   5.178   4.371   1.849
    1TCM    cl3 1682   5.184   4.136   1.805
    1TCM     c1 1683   3.255   1.785   3.812
    1TCM    cl1 1684   3.221   1.611   3.812
    1TCM    cl2 1685   3.410   1.814   3.895
    1TCM     h1 1686   3.262   1.822   3.708
    1TCM    cl3 1687   3.125   1.871   3.898
    1TCM     c1 1688   0.929   3.791   2.388
    1TCM    cl1 1689   0.964   3.748   2.220
    1TCM    cl2 1690   0.974   3.656   2.495
    1TCM     h1 1691   0.988   3.881   2.416
    1TCM    cl3 1692   0.756   3.825   2.406
    1TCM     c1 1693   3.039   4.165   2.316
    1TCM    cl1 1694   2.999   4.127   2.147
    1TCM    cl2 1695   3.132   4.031   2.386
    1TCM     h1 1696   3.099   4.258   2.320
    1TCM    cl3 1697   2.889   4.188   2.409
    1TCM     c1 1698   1.329   3.063   2.336
    1TCM    cl1 1699   1.483   3.149   2.311
    1TCM    cl2 1700   1.263   3.106   2.496
    1TCM     h1 1701   1.257   3.092   2.257
    1TCM    cl3 1702   1.358   2.887   2.329
    1TCM     c1 1703   4.595   0.155   5.180
    1TCM    cl1 1704   4.700   0.270   5.094
    1TCM    cl2 1705   4.510   0.240   5.311
    1TCM     h1 1706   4.522   0.112   5.110
    1TCM    cl3 1707   4.695   0.025   5.249
    1TCM     c1 1708   4.179   4.964   2.352
    1TCM    cl1 1709   4.030   4.955   2.448
    1TCM    cl2 1710   4.139   5.008   2.184
    1TCM     h1 1711   4.246   5.040   2.395
    1TCM    cl3 1712   4.259   4.805   2.354
    1TCM     c1 1713   1.427   5.028   3.125
    1TCM    cl1 1714   1.296   5.143   3.159
    1TCM    cl2 1715   1.561   5.055   3.239
    1TCM     h1 1716   1.390   4.924   3.136
    1TCM    cl3 1717   1.485   5.052   2.958
    1TCM     c1 1718   3.394   4.985   3.745
    1TCM    cl1 1719   3.421   5.156   3.783
    1TCM    cl2 1720   3.438   4.885   3.886
    1TCM     h1 1721   3.287   4.969   3.721
    1TCM    cl3 1722   3.495   4.938   3.606
    1TCM     c1 1723   3.633   2.203   4.862
    1TCM    cl1 1724   3.796   2.167   4.801
    1TCM    cl2 1725   3.645   2.264   5.029
    1TCM     h1 1726   3.586   2.280   4.798
    1TCM    cl3 1727   3.535   2.055   4.860
    1TCM     c1 1728   4.864   4.205   2.575
    1TCM    cl1 1729   4.796   4.368   2.588
    1TCM    cl2 1730   4.786   4.119   2.439
    1TCM     h1 1731   4.973   4.212   2.557
    1TCM    cl3 1732   4.834   4.115   2.726
    1TCM     c1 1733   5.001   3.143   2.488
    1TCM    cl1 1734   5.179   3.145   2.503
    1TCM    cl2 1735   4.931   3.246   2.615
    1TCM     h1 1736   4.972   3.182   2.389
    1TCM    cl3 1737   4.942   2.977   2.507
    1TCM     c1 1738   1.446   2.377   0.931
    1TCM    cl1 1739   1.492   2.315   1.091
    1TCM    cl2 1740   1.464   2.249   0.810
    1TCM     h1 1741   1.340   2.411   0.934
    1TCM    cl3 1742   1.550   2.514   0.888
    1TCM     c1 1743   0.838   2.029   4.235
    1TCM    cl1 1744   0.921   1.882   4.180
    1TCM    cl2 1745   0.890   2.068   4.401
    1TCM     h1 1746   0.864   2.114   4.168
    1TCM    cl3 1747   0.662   2.003   4.233
    1TCM     c1 1748   4.139   3.586   1.297
    1TCM    cl1 1749   4.076   3.748   1.337
    1TCM    cl2 1750   4.035   3.511   1.174
    1TCM     h1 1751   4.242   3.595   1.257
    1TCM    cl3 1752   4.140   3.485   1.443
    1TCM     c1 1753   0.262   5.172   2.131
    1TCM    cl1 1754   0.312   5.016   2.061
    1TCM    cl2 1755   0.310   5.179   2.302
    1TCM     h1 1756   0.310   5.255   2.075
    1TCM    cl3 1757   0.085   5.188   2.118
    1TCM     c1 1758   1.320   2.547   1.754
    1TCM    cl1 1759   1.438   2.527   1.622
    1TCM    cl2 1760   1.406   2.547   1.910
    1TCM     h1 1761   1.266   2.642   1.741
    1TCM    cl3 1762   1.204   2.412   1.750
    1TCM     c1 1763   0.814   2.421   4.141
    1TCM    cl1 1764   0.820   2.545   4.014
    1TCM    cl2 1765   0.979   2.363   4.175
    1TCM     h1 1766   0.771   2.466   4.233
    1TCM    cl3 1767   0.713   2.286   4.087
    1TCM     c1 1768   1.107   0.888   5.165
    1TCM    cl1 1769   0.933   0.920   5.142
    1TCM    cl2 1770   1.146   0.896   5.338
    1TCM     h1 1771   1.131   0.787   5.125
    1TCM    cl3 1772   1.201   1.010   5.077
    1TCM     c1 1773   3.692   2.972   1.029
    1TCM    cl1 1774   3.542   2.978   1.123
    1TCM    cl2 1775   3.683   3.087   0.894
    1TCM     h1 1776   3.778   2.999   1.094
    1TCM    cl3 1777   3.716   2.808   0.965
    1TCM     c1 1778   3.681   5.013   3.027
    1TCM    cl1 1779   3.676   5.187   3.061
    1TCM    cl2 1780   3.762   4.986   2.871
    1TCM     h1 1781   3.738   4.961   3.107
    1TCM    cl3 1782   3.516   4.949   3.019
    1TCM     c1 1783   4.620   3.198   5.179
    1TCM    cl1 1784   4.509   3.301   5.086
    1TCM    cl2 1785   4.550   3.166   5.339
    1TCM     h1 1786   4.635   3.102   5.125
    1TCM    cl3 1787   4.777   3.280   5.197
    1TCM     c1 1788   4.465   2.816   2.965
    1TCM    cl1 1789   4.370   2.872   2.826
    1TCM    cl2 1790   4.354   2.763   3.094
    1TCM     h1 1791   4.529   2.730   2.935
    1TCM    cl3 1792   4.567   2.948   3.025
    1TCM     c1 1793   2.331   4.477   3.525
    1TCM    cl1 1794   2.471   4.483   3.415
    1TCM    cl2 1795   2.366   4.573   3.671
    1TCM     h1 1796   2.243   4.520   3.473
    1TCM    cl3 1797   2.298   4.309   3.570
    1TCM     c1 1798   3.576   2.269   0.949
    1TCM    cl1 1799   3.539   2.348   1.104
    1TCM    cl2 1800   3.529   2.377   0.816
    1TCM     h1 1801   3.684   2.247   0.943
    1TCM    cl3 1802   3.484   2.117   0.937
    1TCM     c1 1803   2.431   2.073   2.641
    1TCM    cl1 1804   2.457   2.222   2.735
    1TCM    cl2 1805   2.510   2.088   2.483
    1TCM     h1 1806   2.474   1.987   2.696
    1TCM    cl3 1807   2.257   2.047   2.618
    1TCM     c1 1808   2.934   2.909   3.470
    1TCM    cl1 1809   2.820   3.040   3.428
    1TCM    cl2 1810   2.855   2.752   3.447
    1TCM     h1 1811   3.023   2.916   3.405
    1TCM    cl3 1812   2.983   2.926   3.640
    1TCM     c1 1813   5.017   1.906   1.684
    1TCM    cl1 1814   4.889   1.936   1.564
    1TCM    cl2 1815   4.983   1.755   1.771
    1TCM     h1 1816   5.115   1.897   1.632
    1TCM    cl3 1817   5.024   2.041   1.799
    1TCM     c1 1818   1.674   1.314   3.598
    1TCM    cl1 1819   1.542   1.415   3.662
    1TCM    cl2 1820   1.716   1.189   3.716
    1TCM     h1 1821   1.642   1.267   3.503
    1TCM    cl3 1822   1.817   1.416   3.567
    1TCM     c1 1823   3.441   4.205   2.238
    1TCM    cl1 1824   3.389   4.165   2.404
    1TCM    cl2 1825   3.344   4.341   2.177
    1TCM     h1 1826   3.548   4.233   2.239
    1TCM    cl3 1827   3.417   4.063   2.133
    1TCM     c1 1828   2.063   3.571   0.471
    1TCM    cl1 1829   2.213   3.570   0.375
    1TCM    cl2 1830   2.034   3.735   0.532
    1TCM     h1 1831   1.978   3.540   0.406
    1TCM    cl3 1832   2.079   3.459   0.608
    1TCM     c1 1833   4.605   2.135   3.266
    1TCM    cl1 1834   4.754   2.136   3.169
    1TCM    cl2 1835   4.464   2.141   3.159
    1TCM     h1 1836   4.602   2.042   3.327
    1TCM    cl3 1837   4.604   2.276   3.375
    1TCM     c1 1838   2.430   3.896   1.458
    1TCM    cl1 1839   2.566   3.957   1.555
    1TCM    cl2 1840   2.480   3.881   1.288
    1TCM     h1 1841   2.399   3.796   1.497
    1TCM    cl3 1842   2.294   4.009   1.470
    1TCM     c1 1843   1.056   4.888   4.752
    1TCM    cl1 1844   1.201   4.988   4.776
    1TCM    cl2 1845   0.937   4.926   4.879
    1TCM     h1 1846   1.012   4.909   4.653
    1TCM    cl3 1847   1.100   4.716   4.762
    1TCM     c1 1848   3.620   3.218   3.713
    1TCM    cl1 1849   3.523   3.088   3.787
    1TCM    cl2 1850   3.542   3.271   3.562
    1TCM     h1 1851   3.627   3.303   3.783
    1TCM    cl3 1852   3.783   3.157   3.677
    1TCM     c1 1853   3.754   3.888   1.224
    1TCM    cl1 1854   3.848   3.823   1.088
    1TCM    cl2 1855   3.864   3.933   1.357
    1TCM     h1 1856   3.697   3.978   1.191
    1TCM    cl3 1857   3.640   3.764   1.282
    1TCM     c1 1858   2.513   1.283   3.871
    1TCM    cl1 1859   2.390   1.225   3.986
    1TCM    cl2 1860   2.438   1.311   3.713
    1TCM     h1 1861   2.557   1.377   3.909
    1TCM    cl3 1862   2.641   1.160   3.855
    1TCM     c1 1863   2.183   3.654   4.825
    1TCM    cl1 1864   2.027   3.607   4.896
    1TCM    cl2 1865   2.312   3.552   4.891
    1TCM     h1 1866   2.178   3.642   4.715
    1TCM    cl3 1867   2.217   3.825   4.864
    1TCM     c1 1868   4.315   3.863   3.195
    1TCM    cl1 1869   4.451   3.973   3.164
    1TCM    cl2 1870   4.210   3.932   3.321
    1TCM     h1 1871   4.256   3.849   3.102
    1TCM    cl3 1872   4.377   3.705   3.249
    1TCM     c1 1873   3.084   1.569   4.993
    1TCM    cl1 1874   3.250   1.612   5.039
    1TCM    cl2 1875   3.053   1.619   4.825
    1TCM     h1 1876   3.070   1.459   5.002
    1TCM    cl3 1877   2.969   1.651   5.101
    1TCM     c1 1878   0.611   0.611   4.171
    1TCM    cl1 1879   0.719   0.589   4.032
    1TCM    cl2 1880   0.450   0.659   4.114
    1TCM     h1 1881   0.603   0.516   4.227
    1TCM    cl3 1882   0.676   0.737   4.278
    1TCM     c1 1883   3.498   0.945   1.983
    1TCM    cl1 1884   3.369   0.997   2.093
    1TCM    cl2 1885   3.437   0.947   1.816
    1TCM     h1 1886   3.584   1.015   1.991
    1TCM    cl3 1887   3.550   0.780   2.025
    1TCM     c1 1888   2.710   4.542   2.497
    1TCM    cl1 1889   2.862   4.569   2.408
    1TCM    cl2 1890   2.744   4.537   2.672
    1TCM     h1 1891   2.639   4.624   2.476
    1TCM    cl3 1892   2.638   4.387   2.446
    1TCM     c1 1893   0.863   1.066   2.212
    1TCM    cl1 1894   1.015   1.033   2.300
    1TCM    cl2 1895   0.879   1.011   2.044
    1TCM     h1 1896   0.780   1.011   2.261
    1TCM    cl3 1897   0.830   1.240   2.215
    1TCM     c1 1898   2.347   4.335   3.203
    1TCM    cl1 1899   2.383   4.253   3.356
    1TCM    cl2 1900   2.271   4.220   3.091
    1TCM     h1 1901   2.278   4.420   3.222
    1TCM    cl3 1902   2.498   4.397   3.132
    1TCM     c1 1903   4.247   1.840   4.800
    1TCM    cl1 1904   4.420   1.832   4.759
    1TCM    cl2 1905   4.152   1.769   4.668
    1TCM     h1 1906   4.229   1.784   4.894
    1TCM    cl3 1907   4.200   2.010   4.823
    1TCM     c1 1908   0.314   0.494   0.269
    1TCM    cl1 1909   0.159   0.575   0.297
    1TCM    cl2 1910   0.407   0.584   0.147
    1TCM     h1 1911   0.372   0.490   0.363
    1TCM    cl3 1912   0.285   0.329   0.210
    1TCM     c1 1913   3.872   3.898   5.235
    1TCM    cl1 1914   3.914   3.765   5.126
    1TCM    cl2 1915   3.721   3.860   5.320
    1TCM     h1 1916   3.953   3.913   5.309
    1TCM    cl3 1917   3.851   4.048   5.141
    1TCM     c1 1918   2.099   2.406   2.830
    1TCM    cl1 1919   2.018   2.565   2.827
    1TCM    cl2 1920   2.240   2.414   2.938
    1TCM     h1 1921   2.028   2.329   2.868
    1TCM    cl3 1922   2.152   2.363   2.666
    1TCM     c1 1923   2.092   4.185   1.633
    1TCM    cl1 1924   2.189   4.258   1.503
    1TCM    cl2 1925   2.149   4.019   1.663
    1TCM     h1 1926   2.103   4.245   1.726
    1TCM    cl3 1927   1.921   4.180   1.585
    1TCM     c1 1928   4.092   3.618   1.874
    1TCM    cl1 1929   4.130   3.536   1.721
    1TCM    cl2 1930   4.151   3.786   1.868
    1TCM     h1 1931   3.982   3.618   1.890
    1TCM    cl3 1932   4.171   3.532   2.008
    1TCM     c1 1933   2.654   4.655   0.652
    1TCM    cl1 1934   2.615   4.747   0.504
    1TCM    cl2 1935   2.688   4.769   0.784
    1TCM     h1 1936   2.567   4.591   0.679
    1TCM    cl3 1937   2.796   4.554   0.623
    1TCM     c1 1938   2.802   2.397   4.724
    1TCM    cl1 1939   2.910   2.526   4.670
    1TCM    cl2 1940   2.634   2.440   4.685
    1TCM     h1 1941   2.828   2.302   4.672
    1TCM    cl3 1942   2.818   2.374   4.899
    1TCM     c1 1943   1.550   3.334   2.676
    1TCM    cl1 1944   1.378   3.375   2.693
    1TCM    cl2 1945   1.622   3.317   2.838
    1TCM     h1 1946   1.560   3.239   2.621
    1TCM    cl3 1947   1.634   3.463   2.588
    1TCM     c1 1948   0.698   4.233   4.973
    1TCM    cl1 1949   0.689   4.112   4.843
    1TCM    cl2 1950   0.691   4.396   4.902
    1TCM     h1 1951   0.613   4.219   5.042
    1TCM    cl3 1952   0.851   4.214   5.062
    1TCM     c1 1953   0.259   2.420   1.816
    1TCM    cl1 1954   0.400   2.320   1.856
    1TCM    cl2 1955   0.301   2.592   1.837
    1TCM     h1 1956   0.230   2.402   1.710
    1TCM    cl3 1957   0.123   2.378   1.923
    1TCM     c1 1958   4.523   1.055   4.243
    1TCM    cl1 1959   4.678   1.127   4.293
    1TCM    cl2 1960   4.518   1.041   4.066
    1TCM     h1 1961   4.513   0.954   4.289
    1TCM    cl3 1962   4.389   1.159   4.298
    1TCM     c1 1963   3.977   1.140   0.455
    1TCM    cl1 1964   3.838   1.149   0.566
    1TCM    cl2 1965   3.948   1.247   0.315
    1TCM     h1 1966   4.069   1.173   0.508
    1TCM    cl3 1967   3.997   0.973   0.398
    1TCM     c1 1968   1.928   1.833   4.134
    1TCM    cl1 1969   1.908   1.998   4.071
    1TCM    cl2 1970   1.890   1.716   4.005
    1TCM     h1 1971   2.033   1.819   4.167
    1TCM    cl3 1972   1.819   1.808   4.271
    1TCM     c1 1973   0.227   1.895   1.953
    1TCM    cl1 1974   0.332   1.754   1.979
    1TCM    cl2 1975   0.132   1.926   2.100
    1TCM     h1 1976   0.290   1.984   1.931
    1TCM    cl3 1977   0.118   1.864   1.817
    1TCM     c1 1978   1.612   0.548   3.447
    1TCM    cl1 1979   1.558   0.685   3.547
    1TCM    cl2 1980   1.643   0.605   3.282
    1TCM     h1 1981   1.706   0.506   3.490
    1TCM    cl3 1982   1.487   0.423   3.444
    1TCM     c1 1983   2.182   4.235   1.117
    1TCM    cl1 1984   2.135   4.386   1.036
    1TCM    cl2 1985   2.092   4.220   1.270
    1TCM     h1 1986   2.157   4.148   1.052
    1TCM    cl3 1987   2.356   4.236   1.151
    1TCM     c1 1988   3.461   1.747   4.396
    1TCM    cl1 1989   3.449   1.781   4.222
    1TCM    cl2 1990   3.322   1.819   4.480
    1TCM     h1 1991   3.462   1.637   4.412
    1TCM    cl3 1992   3.612   1.817   4.460
    1TCM     c1 1993   2.243   3.736   4.206
    1TCM    cl1 1994   2.264   3.859   4.080
    1TCM    cl2 1995   2.336   3.590   4.162
    1TCM     h1 1996   2.280   3.775   4.303
    1TCM    cl3 1997   2.071   3.694   4.220
    1TCM     c1 1998   3.175   0.992   4.953
    1TCM    cl1 1999   3.036   0.999   5.063
    1TCM    cl2 2000   3.119   1.009   4.785
    1TCM     h1 2001   3.246   1.074   4.977
    1TCM    cl3 2002   3.258   0.835   4.972
    1TCM     c1 2003   3.124   2.808   2.477
    1TCM    cl1 2004   3.273   2.777   2.385
    1TCM    cl2 2005   3.166   2.854   2.644
    1TCM     h1 2006   3.067   2.890   2.430
    1TCM    cl3 2007   3.025   2.660   2.480
    1TCM     c1 2008   4.756   4.221   0.878
    1TCM    cl1 2009   4.665   4.136   0.751
    1TCM    cl2 2010   4.697   4.170   1.037
    1TCM     h1 2011   4.864   4.197   0.869
    1TCM    cl3 2012   4.733   4.397   0.860
    1TCM     c1 2013   2.089   2.910   4.482
    1TCM    cl1 2014   2.181   3.033   4.572
    1TCM    cl2 2015   2.198   2.826   4.369
    1TCM     h1 2016   2.046   2.837   4.554
    1TCM    cl3 2017   1.959   2.989   4.391
    1TCM     c1 2018   2.555   4.091   4.432
    1TCM    cl1 2019   2.690   3.975   4.429
    1TCM    cl2 2020   2.555   4.186   4.282
    1TCM     h1 2021   2.459   4.037   4.442
    1TCM    cl3 2022   2.575   4.201   4.571
    1TCM     c1 2023   4.401   5.153   2.712
    1TCM    cl1 2024   4.432   5.181   2.539
    1TCM    cl2 2025   4.552   5.173   2.803
    1TCM     h1 2026   4.326   5.227   2.748
    1TCM    cl3 2027   4.339   4.988   2.736
    1TCM     c1 2028   1.807   3.711   2.140
    1TCM    cl1 2029   1.688   3.818   2.063
    1TCM    cl2 2030   1.776   3.703   2.315
    1TCM     h1 2031   1.799   3.609   2.096
    1TCM    cl3 2032   1.971   3.775   2.112
    1TCM     c1 2033   3.463   0.794   1.012
    1TCM    cl1 2034   3.478   0.950   0.928
    1TCM    cl2 2035   3.371   0.817   1.163
    1TCM     h1 2036   3.409   0.722   0.947
    1TCM    cl3 2037   3.625   0.731   1.050
    1TCM     c1 2038   0.317   3.761   3.061
    1TCM    cl1 2039   0.454   3.728   2.953
    1TCM    cl2 2040   0.378   3.790   3.226
    1TCM     h1 2041   0.263   3.851   3.026
    1TCM    cl3 2042   0.207   3.622   3.062
    1TCM     c1 2043   2.905   2.719   4.857
    1TCM    cl1 2044   2.869   2.823   4.996
    1TCM    cl2 2045   2.779   2.594   4.843
    1TCM     h1 2046   2.906   2.780   4.764
    1TCM    cl3 2047   3.063   2.641   4.880
    1TCM     c1 2048   2.280   0.668   0.681
    1TCM    cl1 2049   2.120   0.613   0.626
    1TCM    cl2 2050   2.346   0.551   0.797
    1TCM     h1 2051   2.348   0.677   0.594
    1TCM    cl3 2052   2.264   0.827   0.760
    1TCM     c1 2053   2.947   0.309   2.289
    1TCM    cl1 2054   3.038   0.195   2.391
    1TCM    cl2 2055   2.773   0.282   2.312
    1TCM     h1 2056   2.973   0.413   2.318
    1TCM    cl3 2057   2.990   0.283   2.118
    1TCM     c1 2058   1.756   3.509   4.724
    1TCM    cl1 2059   1.633   3.626   4.778
    1TCM    cl2 2060   1.790   3.534   4.551
    1TCM     h1 2061   1.849   3.524   4.782
    1TCM    cl3 2062   1.696   3.344   4.749
    1TCM     c1 2063   0.751   2.804   0.734
    1TCM    cl1 2064   0.840   2.955   0.703
    1TCM    cl2 2065   0.867   2.671   0.757
    1TCM     h1 2066   0.689   2.816   0.825
    1TCM    cl3 2067   0.646   2.768   0.595
    1TCM     c1 2068   3.011   0.208   3.365
    1TCM    cl1 2069   2.932   0.240   3.209
    1TCM    cl2 2070   2.887   0.183   3.490
    1TCM     h1 2071   3.074   0.117   3.357
    1TCM    cl3 2072   3.113   0.347   3.410
    1TCM     c1 2073   2.085   3.065   1.134
    1TCM    cl1 2074   2.101   3.162   1.282
    1TCM    cl2 2075   1.912   3.039   1.099
    1TCM     h1 2076   2.132   3.118   1.049
    1TCM    cl3 2077   2.165   2.908   1.157
    1TCM     c1 2078   3.074   5.163   4.064
    1TCM    cl1 2079   3.181   5.281   3.986
    1TCM    cl2 2080   3.160   5.083   4.198
    1TCM     h1 2081   2.984   5.215   4.104
    1TCM    cl3 2082   3.023   5.041   3.945
    1TCM     c1 2083   2.979   3.300   0.100
    1TCM    cl1 2084   3.151   3.260   0.077
    1TCM    cl2 2085   2.964   3.465   0.165
    1TCM     h1 2086   2.926   3.293   0.003
    1TCM    cl3 2087   2.907   3.184   0.215
    1TCM     c1 2088   0.231   0.401   4.267
    1TCM    cl1 2089   0.262   0.534   4.380
    1TCM    cl2 2090   0.195   0.252   4.359
    1TCM     h1 2091   0.144   0.426   4.203
    1TCM    cl3 2092   0.374   0.375   4.165
    1TCM     c1 2093   2.465   2.675   3.932
    1TCM    cl1 2094   2.506   2.547   4.048
    1TCM    cl2 2095   2.291   2.670   3.897
    1TCM     h1 2096   2.491   2.774   3.976
    1TCM    cl3 2097   2.557   2.652   3.782
    1TCM     c1 2098   1.069   1.250   0.134
    1TCM    cl1 2099   1.109   1.260   0.307
    1TCM    cl2 2100   1.203   1.317   0.038
    1TCM     h1 2101   1.052   1.145   0.106
    1TCM    cl3 2102   0.921   1.344   0.102
    1TCM     c1 2103   4.656   2.998   1.949
    1TCM    cl1 2104   4.554   2.978   1.805
    1TCM    cl2 2105   4.810   3.074   1.903
    1TCM     h1 2106   4.604   3.062   2.023
    1TCM    cl3 2107   4.688   2.839   2.021
    1TCM     c1 2108   3.130   3.250   0.588
    1TCM    cl1 2109   3.102   3.075   0.578
    1TCM    cl2 2110   3.171   3.294   0.756
    1TCM     h1 2111   3.214   3.278   0.521
    1TCM    cl3 2112   2.983   3.337   0.538
    1TCM     c1 2113   2.549   4.878   1.617
    1TCM    cl1 2114   2.479   4.997   1.505
    1TCM    cl2 2115   2.452   4.872   1.766
    1TCM     h1 2116   2.550   4.778   1.569
    1TCM    cl3 2117   2.716   4.925   1.657
    1TCM     c1 2118   2.751   4.004   4.905
    1TCM    cl1 2119   2.662   4.142   4.973
    1TCM    cl2 2120   2.737   4.007   4.727
    1TCM     h1 2121   2.858   4.012   4.933
    1TCM    cl3 2122   2.683   3.853   4.968
    1TCM     c1 2123   3.974   3.967   2.790
    1TCM    cl1 2124   4.111   4.034   2.699
    1TCM    cl2 2125   3.903   3.832   2.698
    1TCM     h1 2126   4.010   3.930   2.888
    1TCM    cl3 2127   3.852   4.093   2.815
    1TCM     c1 2128   2.347   1.514   2.395
    1TCM    cl1 2129   2.194   1.564   2.319
    1TCM    cl2 2130   2.337   1.541   2.571
    1TCM     h1 2131   2.364   1.406   2.376
    1TCM    cl3 2132   2.481   1.609   2.328
    1TCM     c1 2133   4.903   2.374   0.633
    1TCM    cl1 2134   4.843   2.266   0.761
    1TCM    cl2 2135   4.957   2.527   0.705
    1TCM     h1 2136   4.989   2.326   0.581
    1TCM    cl3 2137   4.773   2.405   0.516
    1TCM     c1 2138   4.242   0.583   3.203
    1TCM    cl1 2139   4.263   0.419   3.136
    1TCM    cl2 2140   4.132   0.576   3.342
    1TCM     h1 2141   4.341   0.622   3.235
    1TCM    cl3 2142   4.174   0.689   3.078
    1TCM     c1 2143   4.834   2.311   0.185
    1TCM    cl1 2144   4.917   2.336   0.340
    1TCM    cl2 2145   4.902   2.420   0.063
    1TCM     h1 2146   4.847   2.206   0.152
    1TCM    cl3 2147   4.660   2.345   0.205
    1TCM     c1 2148   3.397   1.226   1.088
    1TCM    cl1 2149   3.423   1.069   1.167
    1TCM    cl2 2150   3.285   1.205   0.951
    1TCM     h1 2151   3.353   1.297   1.161
    1TCM    cl3 2152   3.552   1.289   1.029
    1TCM     c1 2153   2.792   4.351   4.691
    1TCM    cl1 2154   2.899   4.217   4.646
    1TCM    cl2 2155   2.772   4.460   4.552
    1TCM     h1 2156   2.693   4.311   4.721
    1TCM    cl3 2157   2.863   4.441   4.827
    1TCM     c1 2158   1.580   5.266   0.618
    1TCM    cl1 2159   1.471   5.339   0.498
    1TCM    cl2 2160   1.516   5.295   0.781
    1TCM     h1 2161   1.587   5.157   0.600
    1TCM    cl3 2162   1.741   5.340   0.603
    1TCM     c1 2163   1.411   3.317   4.479
    1TCM    cl1 2164   1.584   3.354   4.469
    1TCM    cl2 2165   1.387   3.141   4.460
    1TCM     h1 2166   1.372   3.349   4.578
    1TCM    cl3 2167   1.324   3.402   4.350
    1TCM     c1 2168   1.269   2.347   2.213
    1TCM    cl1 2169   1.118   2.372   2.303
    1TCM    cl2 2170   1.248   2.405   2.046
    1TCM     h1 2171   1.351   2.404   2.261
    1TCM    cl3 2172   1.309   2.174   2.211
    1TCM     c1 2173   1.561   1.301   0.604
    1TCM    cl1 2174   1.643   1.304   0.762
    1TCM    cl2 2175   1.562   1.465   0.535
    1TCM     h1 2176   1.615   1.232   0.536
    1TCM    cl3 2177   1.393   1.247   0.625
    1TCM     c1 2178   0.351   5.185   3.266
    1TCM    cl1 2179   0.276   5.333   3.201
    1TCM    cl2 2180   0.472   5.125   3.151
    1TCM     h1 2181   0.400   5.208   3.363
    1TCM    cl3 2182   0.226   5.061   3.290
    1TCM     c1 2183   2.819   3.971   0.343
    1TCM    cl1 2184   2.880   4.040   0.495
    1TCM    cl2 2185   2.879   4.068   0.206
    1TCM     h1 2186   2.854   3.867   0.333
    1TCM    cl3 2187   2.641   3.974   0.344
    1TCM     c1 2188   5.045   1.807   0.938
    1TCM    cl1 2189   5.071   1.974   0.886
    1TCM    cl2 2190   5.136   1.696   0.832
    1TCM     h1 2191   5.081   1.795   1.043
    1TCM    cl3 2192   4.872   1.768   0.930
    1TCM     c1 2193   3.265   4.763   4.116
    1TCM    cl1 2194   3.317   4.863   4.253
    1TCM    cl2 2195   3.392   4.645   4.077
    1TCM     h1 2196   3.171   4.709   4.143
    1TCM    cl3 2197   3.235   4.866   3.974
    1TCM     c1 2198   0.504   3.257   3.485
    1TCM    cl1 2199   0.495   3.102   3.573
    1TCM    cl2 2200   0.472   3.229   3.312
    1TCM     h1 2201   0.429   3.327   3.526
    1TCM    cl3 2202   0.667   3.326   3.504
    1TCM     c1 2203   2.860   0.519   2.013
    1TCM    cl1 2204   2.806   0.358   1.962
    1TCM    cl2 2205   2.836   0.635   1.880
    1TCM     h1 2206   2.801   0.552   2.101
    1TCM    cl3 2207   3.033   0.513   2.056
    1TCM     c1 2208   4.826   5.008   4.347
    1TCM    cl1 2209   4.935   4.983   4.485
    1TCM    cl2 2210   4.832   4.867   4.240
    1TCM     h1 2211   4.722   5.022   4.384
    1TCM    cl3 2212   4.877   5.153   4.258
    1TCM     c1 2213   4.093   0.955   2.065
    1TCM    cl1 2214   4.081   0.988   1.890
    1TCM    cl2 2215   4.090   0.779   2.092
    1TCM     h1 2216   4.188   0.996   2.103
    1TCM    cl3 2217   3.956   1.030   2.149
    1TCM     c1 2218   2.294   4.770   2.406
    1TCM    cl1 2219   2.268   4.615   2.490
    1TCM    cl2 2220   2.355   4.739   2.242
    1TCM     h1 2221   2.198   4.826   2.400
    1TCM    cl3 2222   2.413   4.867   2.496
    1TCM     c1 2223   2.221   2.610   0.849
    1TCM    cl1 2224   2.305   2.751   0.916
    1TCM    cl2 2225   2.143   2.519   0.980
    1TCM     h1 2226   2.144   2.644   0.777
    1TCM    cl3 2227   2.338   2.505   0.766
    1TCM     c1 2228   2.222   4.755   0.452
    1TCM    cl1 2229   2.166   4.726   0.618
    1TCM    cl2 2230   2.166   4.623   0.347
    1TCM     h1 2231   2.181   4.851   0.415
    1TCM    cl3 2232   2.400   4.761   0.449
    1TCM     c1 2233   3.635   1.216   2.333
    1TCM    cl1 2234   3.684   1.092   2.450
    1TCM    cl2 2235   3.587   1.364   2.420
    1TCM     h1 2236   3.720   1.238   2.265
    1TCM    cl3 2237   3.497   1.156   2.238
    1TCM     c1 2238   3.735   4.047   0.808
    1TCM    cl1 2239   3.839   3.916   0.747
    1TCM    cl2 2240   3.656   3.996   0.959
    1TCM     h1 2241   3.797   4.137   0.827
    1TCM    cl3 2242   3.611   4.086   0.686
    1TCM     c1 2243   1.678   4.329   2.120
    1TCM    cl1 2244   1.767   4.247   1.990
    1TCM    cl2 2245   1.786   4.354   2.259
    1TCM     h1 2246   1.641   4.427   2.083
    1TCM    cl3 2247   1.540   4.228   2.170
    1TCM     c1 2248   4.968   2.816   3.001
    1TCM    cl1 2249   5.135   2.798   2.943
    1TCM    cl2 2250   4.866   2.880   2.871
    1TCM     h1 2251   4.929   2.717   3.033
    1TCM    cl3 2252   4.965   2.928   3.139
    1TCM     c1 2253   1.540   1.347   2.180
    1TCM    cl1 2254   1.547   1.194   2.270
    1TCM    cl2 2255   1.403   1.343   2.066
    1TCM     h1 2256   1.526   1.431   2.251
    1TCM    cl3 2257   1.692   1.370   2.090
    1TCM     c1 2258   1.009   4.423   0.296
    1TCM    cl1 2259   1.010   4.471   0.125
    1TCM    cl2 2260   1.077   4.260   0.312
    1TCM     h1 2261   1.069   4.495   0.355
    1TCM    cl3 2262   0.841   4.423   0.356
    1TCM     c1 2263   3.161   2.658   0.928
    1TCM    cl1 2264   3.164   2.480   0.938
    1TCM    cl2 2265   3.204   2.727   1.087
    1TCM     h1 2266   3.234   2.692   0.852
    1TCM    cl3 2267   2.998   2.713   0.882
    1TCM     c1 2268   0.613   1.999   2.562
    1TCM    cl1 2269   0.466   2.091   2.521
    1TCM    cl2 2270   0.572   1.868   2.675
    1TCM     h1 2271   0.657   1.956   2.469
    1TCM    cl3 2272   0.732   2.108   2.638
    1TCM     c1 2273   2.631   0.767   4.984
    1TCM    cl1 2274   2.731   0.885   5.072
    1TCM    cl2 2275   2.520   0.853   4.875
    1TCM     h1 2276   2.696   0.700   4.925
    1TCM    cl3 2277   2.537   0.671   5.101
    1TCM     c1 2278   0.381   4.355   4.220
    1TCM    cl1 2279   0.480   4.235   4.134
    1TCM    cl2 2280   0.437   4.369   4.388
    1TCM     h1 2281   0.391   4.453   4.170
    1TCM    cl3 2282   0.211   4.304   4.218
    1TCM     c1 2283   5.066   4.083   1.488
    1TCM    cl1 2284   5.038   4.002   1.644
    1TCM    cl2 2285   5.042   3.966   1.356
    1TCM     h1 2286   4.994   4.167   1.477
    1TCM    cl3 2287   5.232   4.145   1.482
    1TCM     c1 2288   2.606   2.306   0.447
    1TCM    cl1 2289   2.435   2.350   0.434
    1TCM    cl2 2290   2.644   2.263   0.615
    1TCM     h1 2291   2.628   2.220   0.381
    1TCM    cl3 2292   2.707   2.445   0.397
    1TCM     c1 2293   5.192   5.045   3.605
    1TCM    cl1 2294   5.201   5.097   3.435
    1TCM    cl2 2295   5.317   5.129   3.699
    1TCM     h1 2296   5.092   5.070   3.646
    1TCM    cl3 2297   5.219   4.870   3.614
    1TCM     c1 2298   3.381   2.459   2.171
    1TCM    cl1 2299   3.475   2.601   2.122
    1TCM    cl2 2300   3.209   2.502   2.183
    1TCM     h1 2301   3.394   2.378   2.096
    1TCM    cl3 2302   3.439   2.402   2.330
    1TCM     c1 2303   4.053   1.212   5.182
    1TCM    cl1 2304   4.096   1.353   5.281
    1TCM    cl2 2305   4.165   1.079   5.218
    1TCM     h1 2306   3.949   1.180   5.207
    1TCM    cl3 2307   4.063   1.254   5.010
    1TCM     c1 2308   1.151   1.980   4.532
    1TCM    cl1 2309   1.240   2.021   4.680
    1TCM    cl2 2310   1.192   1.814   4.482
    1TCM     h1 2311   1.042   1.987   4.551
    1TCM    cl3 2312   1.196   2.093   4.402
    1TCM     c1 2313   0.454   0.321   2.146
    1TCM    cl1 2314   0.464   0.207   2.010
    1TCM    cl2 2315   0.523   0.245   2.291
    1TCM     h1 2316   0.512   0.413   2.122
    1TCM    cl3 2317   0.285   0.364   2.177
    1TCM     c1 2318   3.826   0.428   1.076
    1TCM    cl1 2319   3.927   0.558   1.144
    1TCM    cl2 2320   3.662   0.489   1.046
    1TCM     h1 2321   3.871   0.393   0.980
    1TCM    cl3 2322   3.819   0.292   1.191
    1TCM     c1 2323   3.176   2.265   3.641
    1TCM    cl1 2324   3.315   2.345   3.564
    1TCM    cl2 2325   3.175   2.304   3.815
    1TCM     h1 2326   3.082   2.300   3.594
    1TCM    cl3 2327   3.190   2.089   3.621
    1TCM     c1 2328   3.738   2.884   3.589
    1TCM    cl1 2329   3.856   2.853   3.719
    1TCM    cl2 2330   3.693   2.730   3.512
    1TCM     h1 2331   3.647   2.932   3.632
    1TCM    cl3 2332   3.810   2.993   3.468
    1TCM     c1 2333   3.254   4.434   1.764
    1TCM    cl1 2334   3.257   4.611   1.776
    1TCM    cl2 2335   3.244   4.387   1.592
    1TCM     h1 2336   3.346   4.392   1.809
    1TCM    cl3 2337   3.112   4.371   1.850
    1TCM     c1 2338   0.477   1.278   4.282
    1TCM    cl1 2339   0.488   1.139   4.392
    1TCM    cl2 2340   0.435   1.222   4.119
    1TCM     h1 2341   0.398   1.348   4.319
    1TCM    cl3 2342   0.633   1.363   4.278
    1TCM     c1 2343   0.376   1.921   1.656
    1TCM    cl1 2344   0.464   1.811   1.765
    1TCM    cl2 2345   0.243   1.832   1.577
    1TCM     h1 2346   0.334   2.006   1.714
    1TCM    cl3 2347   0.487   1.983   1.532
    1TCM     c1 2348   0.102   2.912   1.349
    1TCM    cl1 2349   0.218   2.802   1.272
    1TCM    cl2 2350   0.084   3.059   1.251
    1TCM     h1 2351   0.004   2.861   1.358
    1TCM    cl3 2352   0.160   2.956   1.511
    1TCM     c1 2353   0.800   3.692   0.070
    1TCM    cl1 2354   0.749   3.535   0.005
    1TCM    cl2 2355   0.691   3.819   0.011
    1TCM     h1 2356   0.797   3.689   0.181
    1TCM    cl3 2357   0.966   3.728   0.017
    1TCM     c1 2358   3.594   1.294   1.475
    1TCM    cl1 2359   3.417   1.310   1.474
    1TCM    cl2 2360   3.638   1.126   1.513
    1TCM     h1 2361   3.634   1.321   1.375
    1TCM    cl3 2362   3.663   1.402   1.598
    1TCM     c1 2363   3.502   1.717   4.725
    1TCM    cl1 2364   3.348   1.648   4.779
    1TCM    cl2 2365   3.627   1.685   4.847
    1TCM     h1 2366   3.532   1.671   4.629
    1TCM    cl3 2367   3.484   1.893   4.704
    1TCM     c1 2368   0.720   3.959   4.300
    1TCM    cl1 2369   0.567   4.049   4.307
    1TCM    cl2 2370   0.848   4.066   4.236
    1TCM     h1 2371   0.748   3.925   4.402
    1TCM    cl3 2372   0.702   3.818   4.194
    1TCM     c1 2373   3.624   3.216   5.182
    1TCM    cl1 2374   3.587   3.128   5.032
    1TCM    cl2 2375   3.513   3.164   5.311
    1TCM     h1 2376   3.729   3.194   5.212
    1TCM    cl3 2377   3.605   3.391   5.155
    1TCM     c1 2378   0.971   2.721   1.512
    1TCM    cl1 2379   0.913   2.570   1.586
    1TCM    cl2 2380   1.146   2.709   1.482
    1TCM     h1 2381   0.918   2.738   1.416
    1TCM    cl3 2382   0.939   2.857   1.623
    1TCM     c1 2383   4.400   5.071   5.200
    1TCM    cl1 2384   4.280   5.091   5.329
    1TCM    cl2 2385   4.561   5.115   5.261
    1TCM     h1 2386   4.401   4.965   5.167
    1TCM    cl3 2387   4.358   5.176   5.063
    1TCM     c1 2388   4.419   1.107   0.308
    1TCM    cl1 2389   4.260   1.121   0.230
    1TCM    cl2 2390   4.400   1.041   0.472
    1TCM     h1 2391   4.483   1.039   0.248
    1TCM    cl3 2392   4.495   1.268   0.317
    1TCM     c1 2393   3.076   0.829   3.488
    1TCM    cl1 2394   3.007   0.821   3.324
    1TCM    cl2 2395   3.189   0.967   3.498
    1TCM     h1 2396   2.995   0.842   3.562
    1TCM    cl3 2397   3.164   0.678   3.523
    1TCM     c1 2398   4.351   1.433   4.881
    1TCM    cl1 2399   4.487   1.532   4.825
    1TCM    cl2 2400   4.340   1.285   4.783
    1TCM     h1 2401   4.366   1.406   4.988
    1TCM    cl3 2402   4.200   1.526   4.865
    1TCM     c1 2403   4.768   2.153   3.824
    1TCM    cl1 2404   4.673   2.003   3.823
    1TCM    cl2 2405   4.685   2.277   3.727
    1TCM     h1 2406   4.780   2.189   3.928
    1TCM    cl3 2407   4.929   2.122   3.754
    1TCM     c1 2408   0.112   4.970   3.719
    1TCM    cl1 2409   0.027   4.920   3.570
    1TCM    cl2 2410   0.273   4.894   3.723
    1TCM     h1 2411   0.124   5.080   3.720
    1TCM    cl3 2412   0.019   4.919   3.861
    1TCM     c1 2413   3.390   0.732   3.844
    1TCM    cl1 2414   3.214   0.715   3.822
    1TCM    cl2 2415   3.474   0.684   3.695
    1TCM     h1 2416   3.414   0.838   3.867
    1TCM    cl3 2417   3.443   0.629   3.978
    1TCM     c1 2418   3.820   3.707   1.673
    1TCM    cl1 2419   3.911   3.809   1.560
    1TCM    cl2 2420   3.826   3.779   1.836
    1TCM     h1 2421   3.715   3.698   1.640
    1TCM    cl3 2422   3.894   3.545   1.678
    1TCM     c1 2423   0.539   0.175   1.379
    1TCM    cl1 2424   0.636   0.045   1.452
    1TCM    cl2 2425   0.395   0.105   1.301
    1TCM     h1 2426   0.507   0.246   1.458
    1TCM    cl3 2427   0.637   0.260   1.257
    1TCM     c1 2428   2.164   3.962   3.684
    1TCM    cl1 2429   2.299   3.920   3.792
    1TCM    cl2 2430   2.198   3.903   3.520
    1TCM     h1 2431   2.070   3.916   3.722
    1TCM    cl3 2432   2.144   4.139   3.681
    1TCM     c1 2433   4.520   3.945   1.341
    1TCM    cl1 2434   4.549   3.924   1.515
    1TCM    cl2 2435   4.650   4.045   1.271
    1TCM     h1 2436   4.519   3.846   1.291
    1TCM    cl3 2437   4.364   4.026   1.316
    1TCM     c1 2438   3.183   4.351   4.535
    1TCM    cl1 2439   3.170   4.522   4.487
    1TCM    cl2 2440   3.126   4.332   4.702
    1TCM     h1 2441   3.121   4.289   4.467
    1TCM    cl3 2442   3.353   4.299   4.524
    1TCM     c1 2443   2.075   1.869   4.791
    1TCM    cl1 2444   1.937   1.975   4.827
    1TCM    cl2 2445   2.047   1.786   4.636
    1TCM     h1 2446   2.168   1.929   4.785
    1TCM    cl3 2447   2.092   1.748   4.921
    1TCM     c1 2448   1.511   3.447   2.030
    1TCM    cl1 2449   1.403   3.566   2.105
    1TCM    cl2 2450   1.602   3.362   2.157
    1TCM     h1 2451   1.450   3.373   1.973
    1TCM    cl3 2452   1.624   3.529   1.920
    1TCM     c1 2453   1.813   0.121   1.511
    1TCM    cl1 2454   1.901   0.082   1.660
    1TCM    cl2 2455   1.930   0.146   1.379
    1TCM     h1 2456   1.745   0.037   1.485
    1TCM    cl3 2457   1.719   0.269   1.535
    1TCM     c1 2458   4.186   4.349   3.797
    1TCM    cl1 2459   4.095   4.419   3.661
    1TCM    cl2 2460   4.104   4.390   3.950
    1TCM     h1 2461   4.189   4.239   3.786
    1TCM    cl3 2462   4.351   4.414   3.798
    1TCM     c1 2463   0.667   0.998   3.807
    1TCM    cl1 2464   0.703   0.968   3.635
    1TCM    cl2 2465   0.699   0.851   3.901
    1TCM     h1 2466   0.731   1.081   3.844
    1TCM    cl3 2467   0.496   1.043   3.824
    1TCM     c1 2468   1.687   4.455   0.702
    1TCM    cl1 2469   1.814   4.578   0.679
    1TCM    cl2 2470   1.575   4.509   0.830
    1TCM     h1 2471   1.632   4.442   0.607
    1TCM    cl3 2472   1.762   4.301   0.750
    1TCM     c1 2473   3.296   0.438   0.168
    1TCM    cl1 2474   3.134   0.473   0.233
    1TCM    cl2 2475   3.281   0.379   0.001
    1TCM     h1 2476   3.357   0.531   0.169
    1TCM    cl3 2477   3.375   0.314   0.268
    1TCM     c1 2478   3.783   0.930   3.288
    1TCM    cl1 2479   3.838   0.925   3.119
    1TCM    cl2 2480   3.924   0.953   3.395
    1TCM     h1 2481   3.713   1.015   3.301
    1TCM    cl3 2482   3.702   0.778   3.329
    1TCM     c1 2483   0.150   4.593   4.007
    1TCM    cl1 2484   0.285   4.504   3.934
    1TCM    cl2 2485   0.212   4.700   4.135
    1TCM     h1 2486   0.099   4.654   3.930
    1TCM    cl3 2487   0.034   4.478   4.077
    1TCM     c1 2488   4.440   1.674   5.263
    1TCM    cl1 2489   4.537   1.810   5.324
    1TCM    cl2 2490   4.424   1.687   5.086
    1TCM     h1 2491   4.491   1.578   5.288
    1TCM    cl3 2492   4.279   1.677   5.338
    1TCM     c1 2493   0.568   0.609   2.749
    1TCM    cl1 2494   0.645   0.562   2.595
    1TCM    cl2 2495   0.457   0.481   2.801
    1TCM     h1 2496   0.646   0.625   2.826
    1TCM    cl3 2497   0.477   0.760   2.725
    1TCM     c1 2498   0.479   2.033   2.191
    1TCM    cl1 2499   0.360   1.904   2.163
    1TCM    cl2 2500   0.493   2.133   2.045
    1TCM     h1 2501   0.446   2.096   2.276
    1TCM    cl3 2502   0.637   1.961   2.229
    1TCM     c1 2503   3.635   2.231   1.678
    1TCM    cl1 2504   3.599   2.231   1.503
    1TCM    cl2 2505   3.776   2.127   1.709
    1TCM     h1 2506   3.657   2.334   1.711
    1TCM    cl3 2507   3.495   2.168   1.767
    1TCM     c1 2508   2.638   0.921   4.346
    1TCM    cl1 2509   2.534   0.997   4.224
    1TCM    cl2 2510   2.541   0.812   4.447
    1TCM     h1 2511   2.718   0.863   4.296
    1TCM    cl3 2512   2.711   1.047   4.449
    1TCM     c1 2513   4.632   2.543   4.915
    1TCM    cl1 2514   4.615   2.673   5.036
    1TCM    cl2 2515   4.524   2.408   4.958
    1TCM     h1 2516   4.604   2.582   4.815
    1TCM    cl3 2517   4.800   2.486   4.912
    1TCM     c1 2518   3.820   0.777   2.864
    1TCM    cl1 2519   3.701   0.766   2.733
    1TCM    cl2 2520   3.908   0.931   2.851
    1TCM     h1 2521   3.768   0.772   2.962
    1TCM    cl3 2522   3.935   0.642   2.852
    1TCM     c1 2523   3.329   2.224   3.294
    1TCM    cl1 2524   3.361   2.057   3.242
    1TCM    cl2 2525   3.316   2.329   3.151
    1TCM     h1 2526   3.233   2.227   3.351
    1TCM    cl3 2527   3.461   2.281   3.397
    1TCM     c1 2528   3.859   1.610   1.497
    1TCM    cl1 2529   3.784   1.735   1.395
    1TCM    cl2 2530   3.775   1.602   1.653
    1TCM     h1 2531   3.851   1.512   1.445
    1TCM    cl3 2532   4.030   1.649   1.523
    1TCM     c1 2533   0.410   3.412   1.577
    1TCM    cl1 2534   0.246   3.365   1.626
    1TCM    cl2 2535   0.477   3.288   1.468
    1TCM     h1 2536   0.407   3.510   1.525
    1TCM    cl3 2537   0.513   3.425   1.722
    1TCM     c1 2538   2.499   3.773   4.621
    1TCM    cl1 2539   2.496   3.615   4.702
    1TCM    cl2 2540   2.375   3.878   4.692
    1TCM     h1 2541   2.599   3.819   4.635
    1TCM    cl3 2542   2.467   3.751   4.448
    1TCM     c1 2543   1.908   1.626   1.951
    1TCM    cl1 2544   2.002   1.697   2.084
    1TCM    cl2 2545   2.010   1.619   1.805
    1TCM     h1 2546   1.876   1.524   1.978
    1TCM    cl3 2547   1.766   1.728   1.918
    1TCM     c1 2548   4.554   2.595   0.335
    1TCM    cl1 2549   4.701   2.613   0.236
    1TCM    cl2 2550   4.600   2.580   0.506
    1TCM     h1 2551   4.490   2.684   0.321
    1TCM    cl3 2552   4.466   2.450   0.284
    1TCM     c1 2553   3.110   4.615   3.566
    1TCM    cl1 2554   2.947   4.566   3.514
    1TCM    cl2 2555   3.216   4.472   3.570
    1TCM     h1 2556   3.151   4.689   3.494
    1TCM    cl3 2557   3.101   4.687   3.728
    1TCM     c1 2558   5.000   3.884   5.227
    1TCM    cl1 2559   4.868   3.792   5.303
    1TCM    cl2 2560   4.991   4.054   5.278
    1TCM     h1 2561   5.097   3.841   5.258
    1TCM    cl3 2562   4.984   3.874   5.050
    1TCM     c1 2563   1.045   2.988   3.210
    1TCM    cl1 2564   1.029   3.137   3.305
    1TCM    cl2 2565   1.081   3.030   3.040
    1TCM     h1 2566   1.127   2.926   3.251
    1TCM    cl3 2567   0.892   2.897   3.216
    1TCM     c1 2568   2.558   2.779   1.303
    1TCM    cl1 2569   2.510   2.846   1.145
    1TCM    cl2 2570   2.496   2.612   1.317
    1TCM     h1 2571   2.668   2.778   1.311
    1TCM    cl3 2572   2.489   2.878   1.433
    1TCM     c1 2573   0.134   3.559   3.581
    1TCM    cl1 2574   0.249   3.560   3.446
    1TCM    cl2 2575   0.001   3.447   3.546
    1TCM     h1 2576   0.186   3.527   3.674
    1TCM    cl3 2577   0.069   3.723   3.604
    1TCM     c1 2578   2.491   4.876   3.285
    1TCM    cl1 2579   2.616   4.752   3.313
    1TCM    cl2 2580   2.353   4.847   3.393
    1TCM     h1 2581   2.534   4.976   3.306
    1TCM    cl3 2582   2.437   4.868   3.116
    1TCM     c1 2583   4.999   2.729   4.194
    1TCM    cl1 2584   5.169   2.779   4.201
    1TCM    cl2 2585   4.895   2.873   4.188
    1TCM     h1 2586   4.982   2.667   4.103
    1TCM    cl3 2587   4.959   2.633   4.339
    1TCM     c1 2588   2.639   2.309   3.538
    1TCM    cl1 2589   2.576   2.147   3.504
    1TCM    cl2 2590   2.699   2.382   3.388
    1TCM     h1 2591   2.559   2.372   3.581
    1TCM    cl3 2592   2.773   2.297   3.655
    1TCM     c1 2593   1.992   0.890   3.879
    1TCM    cl1 2594   2.084   0.744   3.922
    1TCM    cl2 2595   2.010   1.012   4.007
    1TCM     h1 2596   2.031   0.931   3.783
    1TCM    cl3 2597   1.820   0.849   3.860
    1TCM     c1 2598   0.957   0.325   0.923
    1TCM    cl1 2599   0.913   0.486   0.984
    1TCM    cl2 2600   0.965   0.329   0.746
    1TCM     h1 2601   1.057   0.296   0.964
    1TCM    cl3 2602   0.836   0.206   0.975
    1TCM     c1 2603   4.135   1.442   3.623
    1TCM    cl1 2604   4.043   1.594   3.621
    1TCM    cl2 2605   4.148   1.384   3.791
    1TCM     h1 2606   4.082   1.366   3.562
    1TCM    cl3 2607   4.297   1.469   3.557
    1TCM     c1 2608   3.222   4.910   3.400
    1TCM    cl1 2609   3.254   4.785   3.277
    1TCM    cl2 2610   3.052   4.900   3.452
    1TCM     h1 2611   3.288   4.894   3.487
    1TCM    cl3 2612   3.253   5.071   3.330
    1TCM     c1 2613   2.224   2.610   3.088
    1TCM    cl1 2614   2.087   2.507   3.041
    1TCM    cl2 2615   2.166   2.775   3.118
    1TCM     h1 2616   2.270   2.570   3.180
    1TCM    cl3 2617   2.345   2.612   2.957
    1TCM     c1 2618   1.539   0.743   5.255
    1TCM    cl1 2619   1.471   0.885   5.339
    1TCM    cl2 2620   1.479   0.739   5.088
    1TCM     h1 2621   1.650   0.750   5.255
    1TCM    cl3 2622   1.489   0.595   5.340
    1TCM     c1 2623   2.195   4.413   4.387
    1TCM    cl1 2624   2.099   4.515   4.278
    1TCM    cl2 2625   2.134   4.430   4.554
    1TCM     h1 2626   2.187   4.307   4.356
    1TCM    cl3 2627   2.365   4.464   4.382
    1TCM     c1 2628   0.789   3.732   5.060
    1TCM    cl1 2629   0.784   3.853   4.930
    1TCM    cl2 2630   0.623   3.684   5.102
    1TCM     h1 2631   0.846   3.643   5.025
    1TCM    cl3 2632   0.869   3.802   5.202
    1TCM     c1 2633   5.094   3.050   1.871
    1TCM    cl1 2634   5.071   3.193   1.767
    1TCM    cl2 2635   5.083   3.099   2.042
    1TCM     h1 2636   5.015   2.976   1.849
    1TCM    cl3 2637   5.254   2.979   1.840
    1TCM     c1 2638   3.299   1.181   3.593
    1TCM    cl1 2639   3.372   1.320   3.677
    1TCM    cl2 2640   3.336   1.191   3.419
    1TCM     h1 2641   3.340   1.087   3.634
    1TCM    cl3 2642   3.123   1.184   3.616
    1TCM     c1 2643   0.086   1.323   1.830
    1TCM    cl1 2644   0.255   1.270   1.846
    1TCM    cl2 2645   0.007   1.319   1.989
    1TCM     h1 2646   0.083   1.426   1.789
    1TCM    cl3 2647   0.000   1.213   1.719
    1TCM     c1 2648   1.570   0.124   1.253
    1TCM    cl1 2649   1.446   0.064   1.140
    1TCM    cl2 2650   1.697   0.000   1.273
    1TCM     h1 2651   1.616   0.216   1.212
    1TCM    cl3 2652   1.495   0.159   1.411
    1TCM     c1 2653   2.757   2.931   3.886
    1TCM    cl1 2654   2.833   2.813   3.996
    1TCM    cl2 2655   2.883   3.030   3.809
    1TCM     h1 2656   2.700   2.877   3.809
    1TCM    cl3 2657   2.648   3.036   3.979
    1TCM     c1 2658   5.125   3.310   1.238
    1TCM    cl1 2659   5.154   3.452   1.135
    1TCM    cl2 2660   5.031   3.358   1.381
    1TCM     h1 2661   5.069   3.233   1.181
    1TCM    cl3 2662   5.281   3.242   1.290
    1TCM     c1 2663   1.887   0.289   0.188
    1TCM    cl1 2664   1.755   0.170   0.197
    1TCM    cl2 2665   2.013   0.229   0.076
    1TCM     h1 2666   1.847   0.385   0.150
    1TCM    cl3 2667   1.958   0.312   0.349
    1TCM     c1 2668   0.978   1.495   2.912
    1TCM    cl1 2669   0.881   1.504   3.061
    1TCM    cl2 2670   1.145   1.544   2.947
    1TCM     h1 2671   0.978   1.391   2.874
    1TCM    cl3 2672   0.909   1.603   2.790
    1TCM     c1 2673   2.694   3.842   2.446
    1TCM    cl1 2674   2.825   3.738   2.386
    1TCM    cl2 2675   2.763   3.978   2.537
    1TCM     h1 2676   2.635   3.881   2.361
    1TCM    cl3 2677   2.587   3.748   2.553
    1TCM     c1 2678   1.544   0.631   2.909
    1TCM    cl1 2679   1.593   0.743   2.780
    1TCM    cl2 2680   1.481   0.724   3.047
    1TCM     h1 2681   1.466   0.563   2.871
    1TCM    cl3 2682   1.686   0.536   2.961
    1TCM     c1 2683   5.142   5.036   2.848
    1TCM    cl1 2684   5.151   4.861   2.814
    1TCM    cl2 2685   5.190   5.066   3.016
    1TCM     h1 2686   5.211   5.090   2.779
    1TCM    cl3 2687   4.976   5.093   2.823
    1TCM     c1 2688   2.618   3.891   3.220
    1TCM    cl1 2689   2.481   3.938   3.324
    1TCM    cl2 2690   2.645   4.018   3.098
    1TCM     h1 2691   2.709   3.879   3.282
    1TCM    cl3 2692   2.580   3.737   3.138
    1TCM     c1 2693   5.033   5.008   0.274
    1TCM    cl1 2694   4.918   5.040   0.143
    1TCM    cl2 2695   5.077   4.835   0.274
    1TCM     h1 2696   5.124   5.069   0.259
    1TCM    cl3 2697   4.958   5.049   0.430
    1TCM     c1 2698   1.540   4.064   5.169
    1TCM    cl1 2699   1.390   4.050   5.075
    1TCM    cl2 2700   1.630   3.910   5.161
    1TCM     h1 2701   1.603   4.145   5.128
    1TCM    cl3 2702   1.500   4.100   5.339
    1TCM     c1 2703   0.484   1.929   3.525
    1TCM    cl1 2704   0.341   1.825   3.505
    1TCM    cl2 2705   0.507   1.964   3.698
    1TCM     h1 2706   0.573   1.877   3.486
    1TCM    cl3 2707   0.459   2.082   3.437
    1TCM     c1 2708   4.664   0.333   4.788
    1TCM    cl1 2709   4.660   0.495   4.860
    1TCM    cl2 2710   4.715   0.345   4.618
    1TCM     h1 2711   4.735   0.269   4.843
    1TCM    cl3 2712   4.502   0.260   4.795
    1TCM     c1 2713   4.350   2.423   2.472
    1TCM    cl1 2714   4.279   2.290   2.567
    1TCM    cl2 2715   4.491   2.489   2.558
    1TCM     h1 2716   4.381   2.385   2.372
    1TCM    cl3 2717   4.228   2.551   2.450
    1TCM     c1 2718   3.452   4.761   1.735
    1TCM    cl1 2719   3.511   4.610   1.663
    1TCM    cl2 2720   3.580   4.885   1.725
    1TCM     h1 2721   3.363   4.796   1.679
    1TCM    cl3 2722   3.410   4.734   1.905
    1TCM     c1 2723   5.206   5.170   0.749
    1TCM    cl1 2724   5.245   5.340   0.715
    1TCM    cl2 2725   5.031   5.152   0.773
    1TCM     h1 2726   5.238   5.107   0.664
    1TCM    cl3 2727   5.291   5.118   0.896
    1TCM     c1 2728   3.973   5.144   0.254
    1TCM    cl1 2729   4.017   5.084   0.416
    1TCM    cl2 2730   4.121   5.183   0.163
    1TCM     h1 2731   3.916   5.066   0.200
    1TCM    cl3 2732   3.873   5.291   0.271
    1TCM     c1 2733   0.687   5.266   2.417
    1TCM    cl1 2734   0.562   5.334   2.524
    1TCM    cl2 2735   0.640   5.293   2.247
    1TCM     h1 2736   0.784   5.316   2.437
    1TCM    cl3 2737   0.703   5.092   2.447
    1TCM     c1 2738   2.874   5.157   4.379
    1TCM    cl1 2739   2.785   5.284   4.292
    1TCM    cl2 2740   2.953   5.049   4.262
    1TCM     h1 2741   2.951   5.204   4.444
    1TCM    cl3 2742   2.761   5.064   4.480
    1TCM     c1 2743   4.410   4.190   1.834
    1TCM    cl1 2744   4.271   4.196   1.723
    1TCM    cl2 2745   4.352   4.205   2.002
    1TCM     h1 2746   4.464   4.094   1.822
    1TCM    cl3 2747   4.521   4.325   1.798
    1TCM     c1 2748   3.251   3.694   4.907
    1TCM    cl1 2749   3.342   3.656   5.054
    1TCM    cl2 2750   3.323   3.609   4.768
    1TCM     h1 2751   3.145   3.661   4.919
    1TCM    cl3 2752   3.255   3.869   4.878
    1TCM     c1 2753   2.769   0.538   4.348
    1TCM    cl1 2754   2.674   0.532   4.498
    1TCM    cl2 2755   2.714   0.409   4.238
    1TCM     h1 2756   2.755   0.637   4.299
    1TCM    cl3 2757   2.941   0.514   4.385
    1TCM     c1 2758   3.344   3.350   1.813
    1TCM    cl1 2759   3.487   3.434   1.749
    1TCM    cl2 2760   3.328   3.384   1.986
    1TCM     h1 2761   3.253   3.384   1.759
    1TCM    cl3 2762   3.364   3.174   1.789
    1TCM     c1 2763   0.119   3.111   3.460
    1TCM    cl1 2764   0.235   3.129   3.326
    1TCM    cl2 2765   0.202   3.137   3.615
    1TCM     h1 2766   0.038   3.185   3.448
    1TCM    cl3 2767   0.051   2.947   3.457
    1TCM     c1 2768   1.508   3.833   3.102
    1TCM    cl1 2769   1.601   3.849   3.253
    1TCM    cl2 2770   1.519   3.984   3.009
    1TCM     h1 2771   1.549   3.749   3.042
    1TCM    cl3 2772   1.337   3.799   3.141
    1TCM     c1 2773   2.838   4.212   1.750
    1TCM    cl1 2774   2.698   4.103   1.742
    1TCM    cl2 2775   2.896   4.221   1.918
    1TCM     h1 2776   2.919   4.173   1.685
    1TCM    cl3 2777   2.790   4.374   1.695
    1TCM     c1 2778   5.139   1.676   2.961
    1TCM    cl1 2779   5.076   1.635   2.799
    1TCM    cl2 2780   5.316   1.658   2.961
    1TCM     h1 2781   5.112   1.780   2.986
    1TCM    cl3 2782   5.068   1.565   3.081
    1TCM     c1 2783   4.436   3.483   3.033
    1TCM    cl1 2784   4.552   3.348   3.047
    1TCM    cl2 2785   4.274   3.427   3.080
    1TCM     h1 2786   4.467   3.566   3.100
    1TCM    cl3 2787   4.432   3.540   2.865
    1TCM     c1 2788   2.715   4.970   2.627
    1TCM    cl1 2789   2.687   4.795   2.637
    1TCM    cl2 2790   2.746   5.034   2.790
    1TCM     h1 2791   2.803   4.990   2.563
    1TCM    cl3 2792   2.572   5.049   2.559
    1TCM     c1 2793   2.974   3.227   2.411
    1TCM    cl1 2794   2.878   3.208   2.263
    1TCM    cl2 2795   3.139   3.165   2.384
    1TCM     h1 2796   2.979   3.334   2.439
    1TCM    cl3 2797   2.898   3.135   2.543
    1TCM     c1 2798   1.903   3.491   4.160
    1TCM    cl1 2799   1.889   3.636   4.058
    1TCM    cl2 2800   1.874   3.536   4.330
    1TCM     h1 2801   1.827   3.417   4.128
    1TCM    cl3 2802   2.066   3.422   4.143
    1TCM     c1 2803   4.978   1.930   0.452
    1TCM    cl1 2804   5.038   1.879   0.292
    1TCM    cl2 2805   4.886   1.798   0.526
    1TCM     h1 2806   5.064   1.956   0.517
    1TCM    cl3 2807   4.873   2.072   0.433
    1TCM     c1 2808   2.041   3.097   2.141
    1TCM    cl1 2809   2.168   3.025   2.242
    1TCM    cl2 2810   2.060   3.041   1.973
    1TCM     h1 2811   1.941   3.066   2.179
    1TCM    cl3 2812   2.053   3.274   2.146
    1TCM     c1 2813   1.992   0.949   4.968
    1TCM    cl1 2814   2.040   1.117   4.934
    1TCM    cl2 2815   2.111   0.837   4.899
    1TCM     h1 2816   1.986   0.934   5.078
    1TCM    cl3 2817   1.832   0.918   4.896
    1TCM     c1 2818   0.298   5.095   3.999
    1TCM    cl1 2819   0.358   5.217   4.113
    1TCM    cl2 2820   0.330   5.148   3.833
    1TCM     h1 2821   0.349   4.998   4.018
    1TCM    cl3 2822   0.123   5.074   4.022
    1TCM     c1 2823   1.659   4.492   1.725
    1TCM    cl1 2824   1.651   4.626   1.609
    1TCM    cl2 2825   1.826   4.475   1.784
    1TCM     h1 2826   1.592   4.512   1.810
    1TCM    cl3 2827   1.610   4.341   1.645
    1TCM     c1 2828   4.950   0.920   4.237
    1TCM    cl1 2829   5.005   0.860   4.395
    1TCM    cl2 2830   4.918   0.782   4.129
    1TCM     h1 2831   4.857   0.979   4.250
    1TCM    cl3 2832   5.076   1.024   4.165
    1TCM     c1 2833   2.338   3.224   0.243
    1TCM    cl1 2834   2.272   3.320   0.109
    1TCM    cl2 2835   2.251   3.263   0.393
    1TCM     h1 2836   2.326   3.115   0.220
    1TCM    cl3 2837   2.511   3.261   0.263
    1TCM     c1 2838   2.700   4.291   1.394
    1TCM    cl1 2839   2.848   4.363   1.462
    1TCM    cl2 2840   2.734   4.229   1.230
    1TCM     h1 2841   2.666   4.207   1.459
    1TCM    cl3 2842   2.572   4.414   1.386
    1TCM     c1 2843   1.659   0.973   4.070
    1TCM    cl1 2844   1.794   0.872   4.127
    1TCM    cl2 2845   1.697   1.037   3.909
    1TCM     h1 2846   1.567   0.912   4.065
    1TCM    cl3 2847   1.635   1.108   4.183
    1TCM     c1 2848   1.588   1.152   2.853
    1TCM    cl1 2849   1.598   1.171   2.677
    1TCM    cl2 2850   1.543   0.984   2.892
    1TCM     h1 2851   1.687   1.175   2.898
    1TCM    cl3 2852   1.466   1.263   2.919
    1TCM     c1 2853   2.023   3.188   3.491
    1TCM    cl1 2854   1.954   3.150   3.332
    1TCM    cl2 2855   2.043   3.364   3.506
    1TCM     h1 2856   1.956   3.152   3.570
    1TCM    cl3 2857   2.182   3.109   3.506
    1TCM     c1 2858   3.864   4.291   3.033
    1TCM    cl1 2859   3.807   4.433   3.125
    1TCM    cl2 2860   3.881   4.335   2.862
    1TCM     h1 2861   3.962   4.259   3.073
    1TCM    cl3 2862   3.746   4.159   3.049
    1TCM     c1 2863   2.711   5.171   0.499
    1TCM    cl1 2864   2.887   5.149   0.493
    1TCM    cl2 2865   2.674   5.332   0.566
    1TCM     h1 2866   2.670   5.163   0.396
    1TCM    cl3 2867   2.638   5.046   0.602
    1TCM     c1 2868   1.650   3.805   4.112
    1TCM    cl1 2869   1.772   3.934   4.104
    1TCM    cl2 2870   1.698   3.686   4.235
    1TCM     h1 2871   1.552   3.849   4.139
    1TCM    cl3 2872   1.639   3.724   3.954
    1TCM     c1 2873   2.368   2.236   1.327
    1TCM    cl1 2874   2.508   2.341   1.359
    1TCM    cl2 2875   2.232   2.335   1.268
    1TCM     h1 2876   2.395   2.161   1.249
    1TCM    cl3 2877   2.321   2.152   1.476
    1TCM     c1 2878   3.065   0.126   3.764
    1TCM    cl1 2879   3.191   0.057   3.869
    1TCM    cl2 2880   2.984   0.260   3.849
    1TCM     h1 2881   3.111   0.164   3.671
    1TCM    cl3 2882   2.945   0.000   3.726
    1TCM     c1 2883   2.084   1.209   2.122
    1TCM    cl1 2884   2.043   1.345   2.015
    1TCM    cl2 2885   2.020   1.241   2.285
    1TCM     h1 2886   2.039   1.115   2.082
    1TCM    cl3 2887   2.261   1.191   2.130
    1TCM     c1 2888   2.325   2.806   0.405
    1TCM    cl1 2889   2.191   2.795   0.521
    1TCM    cl2 2890   2.261   2.815   0.240
    1TCM     h1 2891   2.385   2.896   0.427
    1TCM    cl3 2892   2.428   2.661   0.421
    1TCM     c1 2893   3.614   2.507   4.367
    1TCM    cl1 2894   3.695   2.658   4.415
    1TCM    cl2 2895   3.734   2.396   4.296
    1TCM     h1 2896   3.569   2.459   4.456
    1TCM    cl3 2897   3.488   2.542   4.247
    1TCM     c1 2898   0.777   0.438   1.993
    1TCM    cl1 2899   0.638   0.397   1.890
    1TCM    cl2 2900   0.740   0.397   2.162
    1TCM     h1 2901   0.866   0.381   1.960
    1TCM    cl3 2902   0.810   0.613   1.981
    1TCM     c1 2903   0.067   2.876   3.893
    1TCM    cl1 2904   0.071   3.053   3.913
    1TCM    cl2 2905   0.003   2.801   4.040
    1TCM     h1 2906   0.002   2.850   3.806
    1TCM    cl3 2907   0.232   2.816   3.863
    1TCM     c1 2908   4.293   4.858   0.793
    1TCM    cl1 2909   4.324   4.857   0.968
    1TCM    cl2 2910   4.330   5.018   0.727
    1TCM     h1 2911   4.358   4.782   0.744
    1TCM    cl3 2912   4.122   4.819   0.763
    1TCM     c1 2913   0.282   4.317   1.087
    1TCM    cl1 2914   0.271   4.140   1.065
    1TCM    cl2 2915   0.132   4.392   1.029
    1TCM     h1 2916   0.296   4.340   1.194
    1TCM    cl3 2917   0.419   4.380   0.994
    1TCM     c1 2918   2.020   2.435   3.868
    1TCM    cl1 2919   1.983   2.330   3.730
    1TCM    cl2 2920   2.083   2.337   4.002
    1TCM     h1 2921   2.095   2.511   3.839
    1TCM    cl3 2922   1.871   2.518   3.921
    1TCM     c1 2923   0.590   4.077   1.308
    1TCM    cl1 2924   0.503   4.125   1.160
    1TCM    cl2 2925   0.546   4.187   1.441
    1TCM     h1 2926   0.562   3.973   1.335
    1TCM    cl3 2927   0.765   4.086   1.279
    1TCM     c1 2928   1.528   3.853   0.416
    1TCM    cl1 2929   1.513   3.696   0.334
    1TCM    cl2 2930   1.698   3.881   0.461
    1TCM     h1 2931   1.494   3.934   0.348
    1TCM    cl3 2932   1.427   3.853   0.563
    1TCM     c1 2933   3.179   2.136   2.540
    1TCM    cl1 2934   3.326   2.040   2.512
    1TCM    cl2 2935   3.167   2.263   2.416
    1TCM     h1 2936   3.090   2.070   2.535
    1TCM    cl3 2937   3.188   2.212   2.701
    1TCM     c1 2938   1.913   2.753   2.498
    1TCM    cl1 2939   2.028   2.748   2.633
    1TCM    cl2 2940   1.747   2.763   2.562
    1TCM     h1 2941   1.934   2.842   2.434
    1TCM    cl3 2942   1.929   2.605   2.400
    1TCM     c1 2943   3.413   5.124   2.095
    1TCM    cl1 2944   3.348   5.242   1.979
    1TCM    cl2 2945   3.279   5.038   2.174
    1TCM     h1 2946   3.477   5.050   2.041
    1TCM    cl3 2947   3.510   5.208   2.217
    1TCM     c1 2948   1.045   2.539   4.432
    1TCM    cl1 2949   1.128   2.649   4.544
    1TCM    cl2 2950   1.071   2.594   4.265
    1TCM     h1 2951   1.086   2.436   4.444
    1TCM    cl3 2952   0.871   2.537   4.467
    1TCM     c1 2953   4.624   3.898   4.931
    1TCM    cl1 2954   4.686   3.757   5.021
    1TCM    cl2 2955   4.718   3.919   4.781
    1TCM     h1 2956   4.518   3.882   4.906
    1TCM    cl3 2957   4.641   4.044   5.032
    1TCM     c1 2958   4.918   1.879   4.163
    1TCM    cl1 2959   5.085   1.821   4.184
    1TCM    cl2 2960   4.868   1.854   3.994
    1TCM     h1 2961   4.851   1.823   4.230
    1TCM    cl3 2962   4.911   2.053   4.201
    1TCM     c1 2963   4.146   2.227   2.867
    1TCM    cl1 2964   4.024   2.345   2.812
    1TCM    cl2 2965   4.208   2.138   2.727
    1TCM     h1 2966   4.229   2.281   2.917
    1TCM    cl3 2967   4.072   2.114   2.982
    1TCM     c1 2968   1.467   2.828   5.168
    1TCM    cl1 2969   1.450   2.997   5.220
    1TCM    cl2 2970   1.311   2.745   5.184
    1TCM     h1 2971   1.500   2.825   5.062
    1TCM    cl3 2972   1.588   2.746   5.270
    1TCM     c1 2973   3.664   2.145   3.131
    1TCM    cl1 2974   3.510   2.230   3.105
    1TCM    cl2 2975   3.723   2.178   3.296
    1TCM     h1 2976   3.649   2.036   3.118
    1TCM    cl3 2977   3.784   2.203   3.013
    1TCM     c1 2978   2.744   4.901   1.049
    1TCM    cl1 2979   2.761   5.061   1.125
    1TCM    cl2 2980   2.572   4.867   1.020
    1TCM     h1 2981   2.799   4.900   0.953
    1TCM    cl3 2982   2.811   4.776   1.157
    1TCM     c1 2983   1.658   3.843   0.889
    1TCM    cl1 2984   1.821   3.789   0.934
    1TCM    cl2 2985   1.619   3.782   0.726
    1TCM     h1 2986   1.584   3.804   0.962
    1TCM    cl3 2987   1.653   4.021   0.888
    1TCM     c1 2988   5.070   3.218   5.124
    1TCM    cl1 2989   5.002   3.341   5.233
    1TCM    cl2 2990   4.955   3.084   5.107
    1TCM     h1 2991   5.089   3.264   5.024
    1TCM    cl3 2992   5.223   3.157   5.191
    1TCM     c1 2993   2.957   5.037   3.107
    1TCM    cl1 2994   3.029   5.198   3.087
    1TCM    cl2 2995   2.891   4.982   2.951
    1TCM     h1 2996   3.035   4.966   3.141
    1TCM    cl3 2997   2.826   5.044   3.227
    1TCM     c1 2998   4.797   3.876   3.682
    1TCM    cl1 2999   4.776   3.835   3.854
    1TCM    cl2 3000   4.637   3.903   3.608
    1TCM     h1 3001   4.858   3.968   3.673
    1TCM    cl3 3002   4.879   3.742   3.599
    1TCM     c1 3003   1.702   0.893   3.178
    1TCM    cl1 3004   1.838   1.004   3.148
    1TCM    cl2 3005   1.552   0.986   3.193
    1TCM     h1 3006   1.693   0.821   3.094
    1TCM    cl3 3007   1.732   0.803   3.329
    1TCM     c1 3008   3.319   2.741   4.557
    1TCM    cl1 3009   3.468   2.757   4.461
    1TCM    cl2 3010   3.198   2.651   4.463
    1TCM     h1 3011   3.342   2.686   4.650
    1TCM    cl3 3012   3.256   2.902   4.596
    1TCM     c1 3013   2.367   4.273   0.562
    1TCM    cl1 3014   2.285   4.154   0.458
    1TCM    cl2 3015   2.417   4.196   0.714
    1TCM     h1 3016   2.456   4.312   0.509
    1TCM    cl3 3017   2.255   4.407   0.597
    1TCM     c1 3018   3.239   1.592   0.297
    1TCM    cl1 3019   3.354   1.686   0.199
    1TCM    cl2 3020   3.156   1.474   0.192
    1TCM     h1 3021   3.294   1.538   0.377
    1TCM    cl3 3022   3.119   1.701   0.369
    1TCM     c1 3023   2.393   1.650   4.221
    1TCM    cl1 3024   2.566   1.656   4.178
    1TCM    cl2 3025   2.376   1.668   4.398
    1TCM     h1 3026   2.339   1.733   4.171
    1TCM    cl3 3027   2.324   1.494   4.171
    1TCM     c1 3028   1.265   0.940   2.721
    1TCM    cl1 3029   1.435   0.925   2.672
    1TCM    cl2 3030   1.162   0.959   2.577
    1TCM     h1 3031   1.234   0.848   2.776
    1TCM    cl3 3032   1.245   1.082   2.827
    1TCM     c1 3033   2.835   4.347   5.128
    1TCM    cl1 3034   2.762   4.293   5.281
    1TCM    cl2 3035   2.706   4.389   5.013
    1TCM     h1 3036   2.898   4.436   5.147
    1TCM    cl3 3037   2.934   4.215   5.061
    1TCM     c1 3038   2.366   4.486   1.644
    1TCM    cl1 3039   2.494   4.363   1.654
    1TCM    cl2 3040   2.333   4.523   1.473
    1TCM     h1 3041   2.274   4.447   1.692
    1TCM    cl3 3042   2.419   4.634   1.727
    1TCM     c1 3043   0.972   2.561   5.139
    1TCM    cl1 3044   0.821   2.523   5.225
    1TCM    cl2 3045   0.982   2.464   4.990
    1TCM     h1 3046   0.974   2.669   5.113
    1TCM    cl3 3047   1.111   2.523   5.243
    1TCM     c1 3048   1.728   1.150   1.807
    1TCM    cl1 3049   1.777   1.321   1.797
    1TCM    cl2 3050   1.570   1.138   1.888
    1TCM     h1 3051   1.720   1.108   1.705
    1TCM    cl3 3052   1.850   1.059   1.900
    1TCM     c1 3053   0.519   3.629   3.643
    1TCM    cl1 3054   0.406   3.766   3.637
    1TCM    cl2 3055   0.588   3.601   3.481
    1TCM     h1 3056   0.600   3.651   3.715
    1TCM    cl3 3057   0.431   3.483   3.696
    1TCM     c1 3058   0.298   0.164   3.734
    1TCM    cl1 3059   0.338   0.335   3.708
    1TCM    cl2 3060   0.423   0.061   3.659
    1TCM     h1 3061   0.293   0.143   3.843
    1TCM    cl3 3062   0.140   0.128   3.660
    1TCM     c1 3063   4.261   5.195   3.310
    1TCM    cl1 3064   4.406   5.220   3.409
    1TCM    cl2 3065   4.286   5.055   3.202
    1TCM     h1 3066   4.174   5.175   3.376
    1TCM    cl3 3067   4.230   5.340   3.212
    1TCM     c1 3068   3.243   4.021   1.528
    1TCM    cl1 3069   3.382   4.108   1.598
    1TCM    cl2 3070   3.262   3.846   1.556
    1TCM     h1 3071   3.149   4.056   1.576
    1TCM    cl3 3072   3.235   4.053   1.353
    1TCM     c1 3073   4.661   4.325   3.839
    1TCM    cl1 3074   4.592   4.471   3.914
    1TCM    cl2 3075   4.760   4.238   3.959
    1TCM     h1 3076   4.579   4.259   3.804
    1TCM    cl3 3077   4.763   4.372   3.701
    1TCM     c1 3078   0.968   3.716   0.380
    1TCM    cl1 3079   1.037   3.633   0.521
    1TCM    cl2 3080   1.009   3.627   0.232
    1TCM     h1 3081   0.857   3.721   0.391
    1TCM    cl3 3082   1.034   3.881   0.370
    1TCM     c1 3083   5.127   2.331   5.097
    1TCM    cl1 3084   5.061   2.264   5.247
    1TCM    cl2 3085   5.304   2.347   5.111
    1TCM     h1 3086   5.103   2.264   5.012
    1TCM    cl3 3087   5.056   2.491   5.067
    1TCM     c1 3088   1.002   5.004   2.500
    1TCM    cl1 3089   0.918   5.082   2.636
    1TCM    cl2 3090   0.983   5.104   2.354
    1TCM     h1 3091   1.110   4.994   2.524
    1TCM    cl3 3092   0.932   4.843   2.472
    1TCM     c1 3093   0.989   1.275   4.200
    1TCM    cl1 3094   0.970   1.410   4.315
    1TCM    cl2 3095   0.935   1.326   4.039
    1TCM     h1 3096   1.096   1.245   4.196
    1TCM    cl3 3097   0.891   1.136   4.254
    1TCM     c1 3098   3.912   2.698   4.212
    1TCM    cl1 3099   3.790   2.626   4.104
    1TCM    cl2 3100   3.908   2.617   4.370
    1TCM     h1 3101   4.013   2.686   4.167
    1TCM    cl3 3102   3.878   2.871   4.233
    1TCM     c1 3103   2.295   3.524   5.216
    1TCM    cl1 3104   2.447   3.534   5.123
    1TCM    cl2 3105   2.179   3.421   5.129
    1TCM     h1 3106   2.316   3.480   5.316
    1TCM    cl3 3107   2.227   3.687   5.235
    1TCM     c1 3108   1.526   0.512   1.086
    1TCM    cl1 3109   1.436   0.487   0.934
    1TCM    cl2 3110   1.421   0.595   1.204
    1TCM     h1 3111   1.557   0.414   1.127
    1TCM    cl3 3112   1.669   0.612   1.055
    1TCM     c1 3113   0.413   3.659   0.561
    1TCM    cl1 3114   0.473   3.630   0.397
    1TCM    cl2 3115   0.405   3.505   0.650
    1TCM     h1 3116   0.481   3.729   0.614
    1TCM    cl3 3117   0.250   3.730   0.553
    1TCM     c1 3118   3.223   1.637   3.465
    1TCM    cl1 3119   3.218   1.800   3.395
    1TCM    cl2 3120   3.208   1.516   3.335
    1TCM     h1 3121   3.319   1.622   3.519
    1TCM    cl3 3122   3.088   1.617   3.580
    1TCM     c1 3123   2.749   4.687   0.270
    1TCM    cl1 3124   2.691   4.855   0.255
    1TCM    cl2 3125   2.825   4.636   0.117
    1TCM     h1 3126   2.824   4.681   0.352
    1TCM    cl3 3127   2.612   4.580   0.307
    1TCM     c1 3128   3.749   3.537   3.372
    1TCM    cl1 3129   3.916   3.588   3.408
    1TCM    cl2 3130   3.672   3.656   3.265
    1TCM     h1 3131   3.751   3.438   3.322
    1TCM    cl3 3132   3.657   3.525   3.523
    1TCM     c1 3133   2.979   3.943   0.953
    1TCM    cl1 3134   3.034   4.074   1.060
    1TCM    cl2 3135   2.809   3.969   0.910
    1TCM     h1 3136   3.041   3.942   0.860
    1TCM    cl3 3137   2.996   3.786   1.036
    1TCM     c1 3138   4.475   4.355   1.205
    1TCM    cl1 3139   4.523   4.429   1.050
    1TCM    cl2 3140   4.619   4.292   1.287
    1TCM     h1 3141   4.426   4.432   1.268
    1TCM    cl3 3142   4.361   4.222   1.174
    1TCM     c1 3143   4.568   3.094   0.241
    1TCM    cl1 3144   4.488   3.246   0.287
    1TCM    cl2 3145   4.729   3.086   0.317
    1TCM     h1 3146   4.506   3.008   0.276
    1TCM    cl3 3147   4.585   3.086   0.065
    1TCM     c1 3148   2.930   1.039   2.229
    1TCM    cl1 3149   2.853   0.884   2.270
    1TCM    cl2 3150   2.824   1.130   2.118
    1TCM     h1 3151   2.946   1.098   2.322
    1TCM    cl3 3152   3.086   1.008   2.150
    1TCM     c1 3153   3.442   4.579   2.994
    1TCM    cl1 3154   3.482   4.718   2.891
    1TCM    cl2 3155   3.360   4.635   3.141
    1TCM     h1 3156   3.375   4.510   2.938
    1TCM    cl3 3157   3.592   4.494   3.038
    1TCM     c1 3158   3.723   3.477   3.943
    1TCM    cl1 3159   3.816   3.585   4.049
    1TCM    cl2 3160   3.736   3.310   4.003
    1TCM     h1 3161   3.617   3.508   3.943
    1TCM    cl3 3162   3.788   3.486   3.777
    1TCM     c1 3163   4.168   0.314   0.213
    1TCM    cl1 3164   4.317   0.303   0.310
    1TCM    cl2 3165   4.198   0.248   0.051
    1TCM     h1 3166   4.088   0.257   0.262
    1TCM    cl3 3167   4.120   0.485   0.199
    1TCM     c1 3168   3.268   3.181   3.465
    1TCM    cl1 3169   3.376   3.103   3.583
    1TCM    cl2 3170   3.331   3.153   3.301
    1TCM     h1 3171   3.166   3.138   3.473
    1TCM    cl3 3172   3.262   3.356   3.497
    1TCM     c1 3173   0.673   2.626   1.892
    1TCM    cl1 3174   0.805   2.711   1.807
    1TCM    cl2 3175   0.620   2.487   1.795
    1TCM     h1 3176   0.710   2.591   1.991
    1TCM    cl3 3177   0.537   2.738   1.915
    1TCM     c1 3178   5.191   4.294   3.021
    1TCM    cl1 3179   5.200   4.453   2.942
    1TCM    cl2 3180   5.242   4.309   3.190
    1TCM     h1 3181   5.086   4.257   3.017
    1TCM    cl3 3182   5.297   4.180   2.936
    1TCM     c1 3183   2.309   3.505   1.566
    1TCM    cl1 3184   2.437   3.462   1.450
    1TCM    cl2 3185   2.379   3.512   1.730
    1TCM     h1 3186   2.267   3.605   1.540
    1TCM    cl3 3187   2.180   3.383   1.561
    1TCM     c1 3188   5.087   1.374   2.449
    1TCM    cl1 3189   5.127   1.504   2.334
    1TCM    cl2 3190   5.237   1.293   2.501
    1TCM     h1 3191   5.035   1.416   2.537
    1TCM    cl3 3192   4.981   1.255   2.369
    1TCM     c1 3193   4.191   3.119   3.998
    1TCM    cl1 3194   4.034   3.060   4.058
    1TCM    cl2 3195   4.313   2.991   4.018
    1TCM     h1 3196   4.182   3.145   3.891
    1TCM    cl3 3197   4.239   3.263   4.090
    1TCM     c1 3198   1.526   3.573   3.433
    1TCM    cl1 3199   1.664   3.631   3.336
    1TCM    cl2 3200   1.502   3.400   3.403
    1TCM     h1 3201   1.548   3.589   3.541
    1TCM    cl3 3202   1.380   3.663   3.388
    1TCM     c1 3203   2.555   3.266   2.636
    1TCM    cl1 3204   2.456   3.174   2.751
    1TCM    cl2 3205   2.726   3.256   2.683
    1TCM     h1 3206   2.542   3.224   2.534
    1TCM    cl3 3207   2.503   3.436   2.636
    1TCM     c1 3208   1.882   2.896   0.171
    1TCM    cl1 3209   1.806   2.772   0.273
    1TCM    cl2 3210   1.865   2.852   0.000
    1TCM     h1 3211   1.832   2.994   0.190
    1TCM    cl3 3212   2.054   2.909   0.212
    1TCM     c1 3213   4.820   0.836   2.890
    1TCM    cl1 3214   4.774   0.671   2.937
    1TCM    cl2 3215   4.720   0.888   2.752
    1TCM     h1 3216   4.804   0.905   2.975
    1TCM    cl3 3217   4.991   0.838   2.843
    1TCM     c1 3218   4.886   2.047   1.275
    1TCM    cl1 3219   4.759   2.017   1.154
    1TCM    cl2 3220   4.841   2.189   1.373
    1TCM     h1 3221   4.896   1.958   1.341
    1TCM    cl3 3222   5.040   2.078   1.193
    1TCM     c1 3223   3.219   4.066   0.366
    1TCM    cl1 3224   3.363   4.053   0.470
    1TCM    cl2 3225   3.266   4.045   0.196
    1TCM     h1 3226   3.146   3.987   0.395
    1TCM    cl3 3227   3.144   4.226   0.388
    1TCM     c1 3228   2.734   4.022   3.601
    1TCM    cl1 3229   2.809   3.979   3.756
    1TCM    cl2 3230   2.832   3.958   3.467
    1TCM     h1 3231   2.632   3.979   3.596
    1TCM    cl3 3232   2.724   4.199   3.587
    1TCM     c1 3233   2.072   4.506   2.258
    1TCM    cl1 3234   2.236   4.475   2.318
    1TCM    cl2 3235   1.958   4.509   2.394
    1TCM     h1 3236   2.069   4.604   2.205
    1TCM    cl3 3237   2.026   4.377   2.144
    1TCM     c1 3238   1.683   1.815   0.715
    1TCM    cl1 3239   1.791   1.885   0.838
    1TCM    cl2 3240   1.766   1.816   0.558
    1TCM     h1 3241   1.658   1.710   0.743
    1TCM    cl3 3242   1.534   1.911   0.705
    1TCM     c1 3243   0.286   2.831   4.375
    1TCM    cl1 3244   0.308   2.999   4.320
    1TCM    cl2 3245   0.319   2.720   4.240
    1TCM     h1 3246   0.356   2.810   4.459
    1TCM    cl3 3247   0.118   2.809   4.431
    1TCM     c1 3248   0.507   1.613   4.669
    1TCM    cl1 3249   0.539   1.767   4.754
    1TCM    cl2 3250   0.604   1.484   4.744
    1TCM     h1 3251   0.400   1.588   4.677
    1TCM    cl3 3252   0.552   1.630   4.498
    1TCM     c1 3253   5.078   2.953   0.638
    1TCM    cl1 3254   5.051   2.959   0.814
    1TCM    cl2 3255   5.094   2.783   0.587
    1TCM     h1 3256   4.992   3.000   0.586
    1TCM    cl3 3257   5.227   3.041   0.598
    1TCM     c1 3258   2.174   4.240   4.813
    1TCM    cl1 3259   2.237   4.077   4.779
    1TCM    cl2 3260   2.208   4.281   4.983
    1TCM     h1 3261   2.223   4.313   4.746
    1TCM    cl3 3262   1.998   4.243   4.786
    1TCM     c1 3263   3.085   3.448   3.248
    1TCM    cl1 3264   2.917   3.458   3.191
    1TCM    cl2 3265   3.164   3.606   3.229
    1TCM     h1 3266   3.087   3.418   3.355
    1TCM    cl3 3267   3.173   3.327   3.151
    1TCM     c1 3268   2.946   4.354   0.397
    1TCM    cl1 3269   2.990   4.299   0.560
    1TCM    cl2 3270   3.075   4.458   0.332
    1TCM     h1 3271   2.932   4.266   0.331
    1TCM    cl3 3272   2.794   4.446   0.405
    1TCM     c1 3273   3.453   4.473   0.473
    1TCM    cl1 3274   3.516   4.365   0.346
    1TCM    cl2 3275   3.525   4.429   0.629
    1TCM     h1 3276   3.480   4.578   0.448
    1TCM    cl3 3277   3.276   4.457   0.482
    1TCM     c1 3278   2.314   3.759   1.031
    1TCM    cl1 3279   2.462   3.857   1.038
    1TCM    cl2 3280   2.270   3.705   1.194
    1TCM     h1 3281   2.231   3.820   0.989
    1TCM    cl3 3282   2.341   3.617   0.927
    1TCM     c1 3283   4.099   3.934   3.743
    1TCM    cl1 3284   4.158   3.876   3.586
    1TCM    cl2 3285   4.237   3.967   3.851
    1TCM     h1 3286   4.041   4.028   3.728
    1TCM    cl3 3287   3.994   3.811   3.817
    1TCM     c1 3288   5.215   4.780   4.201
    1TCM    cl1 3289   5.061   4.741   4.121
    1TCM    cl2 3290   5.184   4.839   4.366
    1TCM     h1 3291   5.278   4.688   4.206
    1TCM    cl3 3292   5.301   4.905   4.108
    1TCM     c1 3293   4.200   0.349   3.548
    1TCM    cl1 3294   4.231   0.200   3.639
    1TCM    cl2 3295   4.059   0.433   3.617
    1TCM     h1 3296   4.289   0.416   3.555
    1TCM    cl3 3297   4.168   0.309   3.378
    1TCM     c1 3298   2.438   2.664   3.444
    1TCM    cl1 3299   2.384   2.798   3.342
    1TCM    cl2 3300   2.382   2.690   3.611
    1TCM     h1 3301   2.396   2.569   3.406
    1TCM    cl3 3302   2.615   2.655   3.442
    1TCM     c1 3303   5.014   4.579   2.589
    1TCM    cl1 3304   4.980   4.718   2.694
    1TCM    cl2 3305   5.003   4.429   2.683
    1TCM     h1 3306   4.940   4.576   2.506
    1TCM    cl3 3307   5.178   4.595   2.521
    1TCM     c1 3308   2.373   0.849   2.068
    1TCM    cl1 3309   2.317   0.714   1.965
    1TCM    cl2 3310   2.394   0.791   2.234
    1TCM     h1 3311   2.470   0.886   2.029
    1TCM    cl3 3312   2.253   0.979   2.065
    1TCM     c1 3313   0.276   2.368   3.080
    1TCM    cl1 3314   0.161   2.344   2.946
    1TCM    cl2 3315   0.318   2.211   3.151
    1TCM     h1 3316   0.368   2.417   3.042
    1TCM    cl3 3317   0.201   2.471   3.204
    1TCM     c1 3318   1.098   4.055   1.113
    1TCM    cl1 3319   1.101   4.056   0.935
    1TCM    cl2 3320   1.231   3.954   1.174
    1TCM     h1 3321   1.110   4.159   1.150
    1TCM    cl3 3322   0.943   3.989   1.169
    1TCM     c1 3323   2.677   3.074   0.687
    1TCM    cl1 3324   2.702   3.168   0.539
    1TCM    cl2 3325   2.603   3.178   0.811
    1TCM     h1 3326   2.609   2.988   0.666
    1TCM    cl3 3327   2.833   3.013   0.746
    1TCM     c1 3328   0.549   0.638   1.046
    1TCM    cl1 3329   0.647   0.653   1.194
    1TCM    cl2 3330   0.637   0.711   0.910
    1TCM     h1 3331   0.530   0.531   1.025
    1TCM    cl3 3332   0.394   0.722   1.069
    1TCM     c1 3333   5.082   2.192   3.237
    1TCM    cl1 3334   4.996   2.308   3.340
    1TCM    cl2 3335   5.088   2.254   3.070
    1TCM     h1 3336   5.186   2.178   3.275
    1TCM    cl3 3337   4.997   2.036   3.239
    1TCM     c1 3338   2.529   1.017   3.467
    1TCM    cl1 3339   2.649   0.933   3.366
    1TCM    cl2 3340   2.587   1.024   3.635
    1TCM     h1 3341   2.513   1.120   3.429
    1TCM    cl3 3342   2.375   0.928   3.462
    1TCM     c1 3343   5.074   1.011   2.249
    1TCM    cl1 3344   5.190   1.142   2.215
    1TCM    cl2 3345   5.136   0.859   2.180
    1TCM     h1 3346   5.062   1.000   2.358
    1TCM    cl3 3347   4.917   1.050   2.175
    1TCM     c1 3348   3.968   0.491   4.528
    1TCM    cl1 3349   3.827   0.439   4.622
    1TCM    cl2 3350   4.000   0.663   4.559
    1TCM     h1 3351   4.057   0.431   4.557
    1TCM    cl3 3352   3.935   0.467   4.355
    1TCM     c1 3353   5.107   0.884   5.065
    1TCM    cl1 3354   5.202   0.802   4.939
    1TCM    cl2 3355   5.185   0.861   5.223
    1TCM     h1 3356   5.102   0.993   5.043
    1TCM    cl3 3357   4.943   0.817   5.069
    1TCM     c1 3358   2.922   0.591   1.506
    1TCM    cl1 3359   3.053   0.711   1.499
    1TCM    cl2 3360   2.815   0.628   1.643
    1TCM     h1 3361   2.864   0.594   1.412
    1TCM    cl3 3362   2.991   0.428   1.527
    1TCM     c1 3363   2.124   1.397   3.876
    1TCM    cl1 3364   2.139   1.447   4.046
    1TCM    cl2 3365   2.193   1.234   3.857
    1TCM     h1 3366   2.017   1.395   3.848
    1TCM    cl3 3367   2.212   1.511   3.773
   5.54000   5.54000   5.54000
