Generated by Interchange
197
    1PMP     C1    1   0.206   0.500  -0.020
    1PMP     O2    2   0.085   0.425  -0.023
    1PMP     C3    3   0.095   0.289  -0.016
    1PMP     C4    4   0.213   0.216  -0.000
    1PMP     C5    5   0.210   0.075   0.006
    1PMP     C6    6   0.333  -0.003   0.023
    1PMP     C7    7   0.450   0.028  -0.050
    1PMP     C8    8   0.567  -0.046  -0.033
    1PMP     C9    9   0.571  -0.153   0.056
    1PMP    C10   10   0.694  -0.237   0.061
    1PMP    O11   11   0.794  -0.216  -0.006
    1PMP    C12   12   0.456  -0.186   0.129
    1PMP    C13   13   0.339  -0.112   0.112
    1PMP    C14   14   0.085   0.011  -0.003
    1PMP    C15   15  -0.035   0.083  -0.018
    1PMP    C16   16  -0.165   0.014  -0.027
    1PMP    C17   17  -0.180  -0.102  -0.104
    1PMP    C18   18  -0.303  -0.167  -0.112
    1PMP    C19   19  -0.414  -0.117  -0.044
    1PMP    C20   20  -0.545  -0.193  -0.048
    1PMP    C21   21  -0.648  -0.116  -0.131
    1PMP    N22   22  -0.598  -0.227   0.084
    1PMP    C23   23  -0.400  -0.001   0.033
    1PMP    C24   24  -0.277   0.063   0.042
    1PMP    C25   25  -0.027   0.223  -0.024
    1PMP    H26   26   0.271   0.474  -0.104
    1PMP    H27   27   0.180   0.605  -0.028
    1PMP    H28   28   0.258   0.486   0.076
    1PMP    H29   29   0.308   0.266   0.009
    1PMP    H30   30   0.449   0.109  -0.122
    1PMP    H31   31   0.655  -0.021  -0.093
    1PMP    H32   32   0.455  -0.270   0.197
    1PMP    H33   33   0.251  -0.140   0.171
    1PMP    H34   34   0.080  -0.098   0.003
    1PMP    H35   35  -0.096  -0.144  -0.159
    1PMP    H36   36  -0.310  -0.259  -0.170
    1PMP    H37   37  -0.528  -0.290  -0.097
    1PMP    H38   38  -0.672  -0.019  -0.086
    1PMP    H39   39  -0.610  -0.098  -0.232
    1PMP    H40   40  -0.741  -0.173  -0.139
    1PMP    H41   41  -0.695  -0.253   0.081
    1PMP    H42   42  -0.484   0.037   0.091
    1PMP    H43   43  -0.269   0.151   0.106
    1PMP    H44   44  -0.117   0.282  -0.037
    2PMP    C45   45  -0.438  -1.160   0.353
    2PMP    O46   46  -0.572  -1.168   0.401
    2PMP    C47   47  -0.645  -1.053   0.400
    2PMP    C48   48  -0.603  -0.928   0.355
    2PMP    C49   49  -0.688  -0.817   0.360
    2PMP    C50   50  -0.646  -0.684   0.314
    2PMP    C51   51  -0.521  -0.632   0.347
    2PMP    C52   52  -0.483  -0.505   0.302
    2PMP    C53   53  -0.570  -0.427   0.225
    2PMP    C54   54  -0.517  -0.298   0.171
    2PMP    O55   55  -0.403  -0.265   0.201
    2PMP    C56   56  -0.695  -0.478   0.192
    2PMP    C57   57  -0.732  -0.605   0.236
    2PMP    C58   58  -0.818  -0.835   0.412
    2PMP    C59   59  -0.863  -0.959   0.458
    2PMP    C60   60  -0.999  -0.976   0.511
    2PMP    C61   61  -1.056  -0.878   0.595
    2PMP    C62   62  -1.185  -0.894   0.646
    2PMP    C63   63  -1.260  -1.007   0.615
    2PMP    C64   64  -1.401  -1.019   0.665
    2PMP    C65   65  -1.411  -1.129   0.771
    2PMP    N66   66  -1.500  -1.038   0.560
    2PMP    C67   67  -1.204  -1.105   0.531
    2PMP    C68   68  -1.076  -1.088   0.479
    2PMP    C69   69  -0.774  -1.067   0.451
    2PMP    H70   70  -0.379  -1.092   0.415
    2PMP    H71   71  -0.394  -1.260   0.362
    2PMP    H72   72  -0.435  -1.131   0.248
    2PMP    H73   73  -0.503  -0.915   0.314
    2PMP    H74   74  -0.451  -0.688   0.408
    2PMP    H75   75  -0.383  -0.468   0.328
    2PMP    H76   76  -0.766  -0.425   0.131
    2PMP    H77   77  -0.830  -0.643   0.206
    2PMP    H78   78  -0.886  -0.750   0.416
    2PMP    H79   79  -1.001  -0.788   0.622
    2PMP    H80   80  -1.227  -0.814   0.708
    2PMP    H81   81  -1.430  -0.925   0.714
    2PMP    H82   82  -1.386  -1.228   0.730
    2PMP    H83   83  -1.343  -1.109   0.854
    2PMP    H84   84  -1.512  -1.135   0.812
    2PMP    H85   85  -1.588  -1.072   0.595
    2PMP    H86   86  -1.263  -1.192   0.501
    2PMP    H87   87  -1.038  -1.164   0.411
    2PMP    H88   88  -0.805  -1.165   0.488
    3PMP    C89   89  -1.995  -0.222   0.320
    3PMP    O90   90  -2.116  -0.296   0.316
    3PMP    C91   91  -2.106  -0.432   0.332
    3PMP    C92   92  -1.988  -0.504   0.354
    3PMP    C93   93  -1.991  -0.643   0.368
    3PMP    C94   94  -1.868  -0.722   0.391
    3PMP    C95   95  -1.752  -0.697   0.316
    3PMP    C96   96  -1.637  -0.773   0.338
    3PMP    C97   97  -1.636  -0.876   0.433
    3PMP    C98   98  -1.506  -0.944   0.458
    3PMP    O99   99  -1.408  -0.910   0.392
    3PMP   C100  100  -1.751  -0.902   0.507
    3PMP   C101  101  -1.866  -0.825   0.486
    3PMP   C102  102  -2.115  -0.709   0.362
    3PMP   C103  103  -2.235  -0.639   0.340
    3PMP   C104  104  -2.363  -0.710   0.333
    3PMP   C105  105  -2.375  -0.831   0.264
    3PMP   C106  106  -2.497  -0.899   0.258
    3PMP   C107  107  -2.610  -0.846   0.321
    3PMP   C108  108  -2.740  -0.923   0.318
    3PMP   C109  109  -2.841  -0.852   0.228
    3PMP   N110  110  -2.796  -0.950   0.450
    3PMP   C111  111  -2.599  -0.725   0.391
    3PMP   C112  112  -2.477  -0.659   0.398
    3PMP   C113  113  -2.227  -0.500   0.325
    3PMP   H114  114  -1.926  -0.253   0.241
    3PMP   H115  115  -2.020  -0.117   0.302
    3PMP   H116  116  -1.948  -0.229   0.418
    3PMP   H117  117  -1.893  -0.453   0.361
    3PMP   H118  118  -1.750  -0.619   0.241
    3PMP   H119  119  -1.547  -0.750   0.280
    3PMP   H120  120  -1.757  -0.978   0.583
    3PMP   H121  121  -1.954  -0.846   0.547
    3PMP   H122  122  -2.119  -0.817   0.373
    3PMP   H123  123  -2.290  -0.875   0.214
    3PMP   H124  124  -2.502  -0.994   0.206
    3PMP   H125  125  -2.721  -1.022   0.275
    3PMP   H126  126  -2.867  -0.753   0.266
    3PMP   H127  127  -2.800  -0.839   0.126
    3PMP   H128  128  -2.934  -0.910   0.220
    3PMP   H129  129  -2.893  -0.978   0.445
    3PMP   H130  130  -2.685  -0.685   0.445
    3PMP   H131  131  -2.471  -0.568   0.457
    3PMP   H132  132  -2.318  -0.442   0.307
    4PMP   C133  133  -2.630  -1.866   0.775
    4PMP   O134  134  -2.764  -1.873   0.821
    4PMP   C135  135  -2.840  -1.758   0.812
    4PMP   C136  136  -2.798  -1.636   0.760
    4PMP   C137  137  -2.886  -1.526   0.757
    4PMP   C138  138  -2.844  -1.396   0.703
    4PMP   C139  139  -2.719  -1.340   0.733
    4PMP   C140  140  -2.682  -1.216   0.683
    4PMP   C141  141  -2.769  -1.142   0.601
    4PMP   C142  142  -2.717  -1.016   0.543
    4PMP   O143  143  -2.604  -0.979   0.574
    4PMP   C144  144  -2.894  -1.196   0.570
    4PMP   C145  145  -2.931  -1.321   0.620
    4PMP   C146  146  -3.016  -1.543   0.808
    4PMP   C147  147  -3.059  -1.665   0.862
    4PMP   C148  148  -3.195  -1.680   0.916
    4PMP   C149  149  -3.253  -1.580   0.996
    4PMP   C150  150  -3.383  -1.592   1.044
    4PMP   C151  151  -3.458  -1.706   1.014
    4PMP   C152  152  -3.603  -1.712   1.059
    4PMP   C153  153  -3.617  -1.818   1.169
    4PMP   N154  154  -3.697  -1.734   0.949
    4PMP   C155  155  -3.402  -1.808   0.937
    4PMP   C156  156  -3.272  -1.794   0.887
    4PMP   C157  157  -2.969  -1.772   0.863
    4PMP   H158  158  -2.572  -1.793   0.833
    4PMP   H159  159  -2.585  -1.964   0.790
    4PMP   H160  160  -2.627  -1.843   0.668
    4PMP   H161  161  -2.699  -1.624   0.719
    4PMP   H162  162  -2.649  -1.393   0.798
    4PMP   H163  163  -2.583  -1.177   0.707
    4PMP   H164  164  -2.966  -1.146   0.506
    4PMP   H165  165  -3.028  -1.362   0.592
    4PMP   H166  166  -3.085  -1.459   0.806
    4PMP   H167  167  -3.197  -1.489   1.019
    4PMP   H168  168  -3.426  -1.511   1.102
    4PMP   H169  169  -3.632  -1.615   1.102
    4PMP   H170  170  -3.592  -1.918   1.133
    4PMP   H171  171  -3.551  -1.795   1.253
    4PMP   H172  172  -3.720  -1.821   1.207
    4PMP   H173  173  -3.790  -1.762   0.977
    4PMP   H174  174  -3.460  -1.895   0.909
    4PMP   H175  175  -3.233  -1.872   0.822
    4PMP   H176  176  -2.998  -1.867   0.905
    5CAP   C177  177   0.716  -0.468   0.077
    5CAP   O178  178   0.668  -0.347   0.135
    5CAP   H179  179   0.643  -0.500   0.002
    5CAP   H180  180   0.722  -0.544   0.155
    5CAP   H181  181   0.814  -0.457   0.030
    6CAP   C182  182  -3.419  -1.486   0.677
    6CAP   C183  183  -3.570  -1.506   0.694
    6CAP   C184  184  -3.632  -1.372   0.737
    6CAP   C185  185  -3.627  -1.556   0.561
    6CAP   O186  186  -3.586  -1.602   0.801
    6CAP   C187  187  -3.706  -1.651   0.840
    6CAP   O188  188  -3.814  -1.628   0.787
    6CAP   H189  189  -3.395  -1.414   0.598
    6CAP   H190  190  -3.374  -1.450   0.770
    6CAP   H191  191  -3.369  -1.581   0.653
    6CAP   H192  192  -3.595  -1.343   0.836
    6CAP   H193  193  -3.741  -1.379   0.745
    6CAP   H194  194  -3.608  -1.292   0.666
    6CAP   H195  195  -3.585  -1.655   0.537
    6CAP   H196  196  -3.735  -1.567   0.564
    6CAP   H197  197  -3.602  -1.488   0.479
  5.0000000  5.0000000  5.0000000
