Generated by Interchange
197
    1PMP     C1    1   0.209   0.499  -0.016
    1PMP     O2    2   0.086   0.425  -0.021
    1PMP     C3    3   0.096   0.288  -0.013
    1PMP     C4    4   0.213   0.214   0.000
    1PMP     C5    5   0.209   0.074   0.007
    1PMP     C6    6   0.333  -0.005   0.022
    1PMP     C7    7   0.450   0.026  -0.050
    1PMP     C8    8   0.568  -0.047  -0.033
    1PMP     C9    9   0.572  -0.154   0.056
    1PMP    C10   10   0.696  -0.235   0.064
    1PMP    O11   11   0.796  -0.214  -0.002
    1PMP    C12   12   0.456  -0.189   0.127
    1PMP    C13   13   0.339  -0.115   0.111
    1PMP    C14   14   0.084   0.010  -0.002
    1PMP    C15   15  -0.036   0.083  -0.015
    1PMP    C16   16  -0.166   0.014  -0.024
    1PMP    C17   17  -0.180  -0.103  -0.101
    1PMP    C18   18  -0.303  -0.169  -0.109
    1PMP    C19   19  -0.415  -0.118  -0.042
    1PMP    C20   20  -0.545  -0.193  -0.048
    1PMP    C21   21  -0.647  -0.116  -0.133
    1PMP    N22   22  -0.599  -0.227   0.083
    1PMP    C23   23  -0.402  -0.001   0.034
    1PMP    C24   24  -0.279   0.063   0.043
    1PMP    C25   25  -0.027   0.223  -0.021
    1PMP    H26   26   0.273   0.473  -0.101
    1PMP    H27   27   0.184   0.605  -0.024
    1PMP    H28   28   0.260   0.484   0.079
    1PMP    H29   29   0.309   0.264   0.008
    1PMP    H30   30   0.449   0.108  -0.122
    1PMP    H31   31   0.656  -0.021  -0.091
    1PMP    H32   32   0.455  -0.274   0.196
    1PMP    H33   33   0.251  -0.144   0.168
    1PMP    H34   34   0.079  -0.098   0.004
    1PMP    H35   35  -0.096  -0.146  -0.154
    1PMP    H36   36  -0.310  -0.261  -0.165
    1PMP    H37   37  -0.529  -0.290  -0.097
    1PMP    H38   38  -0.673  -0.020  -0.088
    1PMP    H39   39  -0.607  -0.097  -0.233
    1PMP    H40   40  -0.740  -0.173  -0.144
    1PMP    H41   41  -0.695  -0.255   0.079
    1PMP    H42   42  -0.487   0.037   0.091
    1PMP    H43   43  -0.271   0.151   0.107
    1PMP    H44   44  -0.117   0.282  -0.032
    2PMP    C45   45  -0.439  -1.162   0.354
    2PMP    O46   46  -0.572  -1.168   0.402
    2PMP    C47   47  -0.645  -1.053   0.401
    2PMP    C48   48  -0.602  -0.928   0.355
    2PMP    C49   49  -0.688  -0.817   0.359
    2PMP    C50   50  -0.646  -0.685   0.311
    2PMP    C51   51  -0.519  -0.634   0.342
    2PMP    C52   52  -0.480  -0.507   0.298
    2PMP    C53   53  -0.568  -0.428   0.222
    2PMP    C54   54  -0.517  -0.299   0.170
    2PMP    O55   55  -0.404  -0.265   0.201
    2PMP    C56   56  -0.695  -0.479   0.191
    2PMP    C57   57  -0.732  -0.605   0.235
    2PMP    C58   58  -0.818  -0.834   0.410
    2PMP    C59   59  -0.863  -0.959   0.457
    2PMP    C60   60  -1.000  -0.974   0.510
    2PMP    C61   61  -1.057  -0.877   0.594
    2PMP    C62   62  -1.185  -0.892   0.644
    2PMP    C63   63  -1.261  -1.006   0.612
    2PMP    C64   64  -1.402  -1.018   0.663
    2PMP    C65   65  -1.410  -1.126   0.771
    2PMP    N66   66  -1.500  -1.039   0.558
    2PMP    C67   67  -1.205  -1.103   0.528
    2PMP    C68   68  -1.077  -1.086   0.477
    2PMP    C69   69  -0.775  -1.066   0.451
    2PMP    H70   70  -0.378  -1.095   0.415
    2PMP    H71   71  -0.396  -1.262   0.361
    2PMP    H72   72  -0.436  -1.132   0.248
    2PMP    H73   73  -0.502  -0.916   0.314
    2PMP    H74   74  -0.448  -0.691   0.402
    2PMP    H75   75  -0.380  -0.471   0.321
    2PMP    H76   76  -0.767  -0.424   0.131
    2PMP    H77   77  -0.831  -0.642   0.208
    2PMP    H78   78  -0.886  -0.750   0.413
    2PMP    H79   79  -1.001  -0.788   0.621
    2PMP    H80   80  -1.228  -0.814   0.707
    2PMP    H81   81  -1.431  -0.923   0.710
    2PMP    H82   82  -1.385  -1.225   0.731
    2PMP    H83   83  -1.340  -1.104   0.852
    2PMP    H84   84  -1.510  -1.132   0.814
    2PMP    H85   85  -1.588  -1.070   0.594
    2PMP    H86   86  -1.264  -1.189   0.498
    2PMP    H87   87  -1.039  -1.162   0.408
    2PMP    H88   88  -0.806  -1.164   0.488
    3PMP    C89   89  -1.995  -0.221   0.323
    3PMP    O90   90  -2.116  -0.297   0.320
    3PMP    C91   91  -2.106  -0.432   0.335
    3PMP    C92   92  -1.988  -0.505   0.355
    3PMP    C93   93  -1.992  -0.645   0.369
    3PMP    C94   94  -1.869  -0.723   0.390
    3PMP    C95   95  -1.752  -0.697   0.316
    3PMP    C96   96  -1.637  -0.772   0.337
    3PMP    C97   97  -1.635  -0.876   0.431
    3PMP    C98   98  -1.506  -0.946   0.454
    3PMP    O99   99  -1.409  -0.914   0.386
    3PMP   C100  100  -1.751  -0.903   0.505
    3PMP   C101  101  -1.866  -0.827   0.484
    3PMP   C102  102  -2.116  -0.710   0.362
    3PMP   C103  103  -2.235  -0.640   0.342
    3PMP   C104  104  -2.364  -0.710   0.335
    3PMP   C105  105  -2.376  -0.832   0.265
    3PMP   C106  106  -2.498  -0.899   0.258
    3PMP   C107  107  -2.611  -0.846   0.320
    3PMP   C108  108  -2.740  -0.924   0.317
    3PMP   C109  109  -2.842  -0.854   0.226
    3PMP   N110  110  -2.796  -0.951   0.449
    3PMP   C111  111  -2.601  -0.726   0.390
    3PMP   C112  112  -2.479  -0.659   0.398
    3PMP   C113  113  -2.228  -0.500   0.328
    3PMP   H114  114  -1.928  -0.251   0.242
    3PMP   H115  115  -2.022  -0.116   0.307
    3PMP   H116  116  -1.946  -0.229   0.420
    3PMP   H117  117  -1.893  -0.454   0.361
    3PMP   H118  118  -1.750  -0.618   0.242
    3PMP   H119  119  -1.547  -0.748   0.280
    3PMP   H120  120  -1.756  -0.980   0.580
    3PMP   H121  121  -1.953  -0.849   0.545
    3PMP   H122  122  -2.120  -0.818   0.373
    3PMP   H123  123  -2.290  -0.876   0.215
    3PMP   H124  124  -2.502  -0.995   0.206
    3PMP   H125  125  -2.721  -1.024   0.274
    3PMP   H126  126  -2.867  -0.754   0.262
    3PMP   H127  127  -2.802  -0.844   0.125
    3PMP   H128  128  -2.935  -0.911   0.220
    3PMP   H129  129  -2.892  -0.980   0.445
    3PMP   H130  130  -2.687  -0.686   0.443
    3PMP   H131  131  -2.473  -0.568   0.457
    3PMP   H132  132  -2.318  -0.442   0.312
    4PMP   C133  133  -2.632  -1.864   0.774
    4PMP   O134  134  -2.766  -1.871   0.821
    4PMP   C135  135  -2.841  -1.757   0.813
    4PMP   C136  136  -2.799  -1.634   0.762
    4PMP   C137  137  -2.886  -1.524   0.758
    4PMP   C138  138  -2.844  -1.394   0.705
    4PMP   C139  139  -2.718  -1.339   0.735
    4PMP   C140  140  -2.680  -1.215   0.684
    4PMP   C141  141  -2.766  -1.142   0.601
    4PMP   C142  142  -2.715  -1.016   0.542
    4PMP   O143  143  -2.603  -0.978   0.574
    4PMP   C144  144  -2.891  -1.196   0.570
    4PMP   C145  145  -2.929  -1.320   0.621
    4PMP   C146  146  -3.017  -1.541   0.808
    4PMP   C147  147  -3.061  -1.663   0.860
    4PMP   C148  148  -3.198  -1.678   0.913
    4PMP   C149  149  -3.256  -1.577   0.992
    4PMP   C150  150  -3.386  -1.591   1.042
    4PMP   C151  151  -3.460  -1.706   1.014
    4PMP   C152  152  -3.604  -1.714   1.059
    4PMP   C153  153  -3.616  -1.819   1.169
    4PMP   N154  154  -3.698  -1.736   0.949
    4PMP   C155  155  -3.402  -1.808   0.937
    4PMP   C156  156  -3.274  -1.793   0.886
    4PMP   C157  157  -2.971  -1.770   0.862
    4PMP   H158  158  -2.573  -1.793   0.833
    4PMP   H159  159  -2.587  -1.963   0.789
    4PMP   H160  160  -2.628  -1.841   0.667
    4PMP   H161  161  -2.698  -1.622   0.722
    4PMP   H162  162  -2.649  -1.392   0.800
    4PMP   H163  163  -2.580  -1.177   0.707
    4PMP   H164  164  -2.962  -1.146   0.505
    4PMP   H165  165  -3.026  -1.360   0.593
    4PMP   H166  166  -3.086  -1.456   0.805
    4PMP   H167  167  -3.203  -1.485   1.014
    4PMP   H168  168  -3.431  -1.509   1.098
    4PMP   H169  169  -3.634  -1.618   1.102
    4PMP   H170  170  -3.588  -1.919   1.135
    4PMP   H171  171  -3.549  -1.794   1.253
    4PMP   H172  172  -3.718  -1.825   1.209
    4PMP   H173  173  -3.791  -1.765   0.976
    4PMP   H174  174  -3.460  -1.896   0.910
    4PMP   H175  175  -3.234  -1.871   0.822
    4PMP   H176  176  -3.001  -1.866   0.903
    5CAP   C177  177   0.714  -0.466   0.079
    5CAP   O178  178   0.674  -0.344   0.141
    5CAP   H179  179   0.637  -0.493   0.006
    5CAP   H180  180   0.719  -0.544   0.155
    5CAP   H181  181   0.811  -0.458   0.029
    6CAP   C182  182  -3.417  -1.484   0.680
    6CAP   C183  183  -3.569  -1.505   0.695
    6CAP   C184  184  -3.631  -1.372   0.737
    6CAP   C185  185  -3.623  -1.556   0.562
    6CAP   O186  186  -3.586  -1.602   0.802
    6CAP   C187  187  -3.706  -1.651   0.840
    6CAP   O188  188  -3.813  -1.627   0.787
    6CAP   H189  189  -3.394  -1.410   0.602
    6CAP   H190  190  -3.373  -1.448   0.773
    6CAP   H191  191  -3.366  -1.578   0.655
    6CAP   H192  192  -3.594  -1.342   0.836
    6CAP   H193  193  -3.740  -1.379   0.745
    6CAP   H194  194  -3.608  -1.293   0.665
    6CAP   H195  195  -3.581  -1.655   0.538
    6CAP   H196  196  -3.732  -1.567   0.563
    6CAP   H197  197  -3.597  -1.488   0.480
  5.0000000  5.0000000  5.0000000
