Generated by Interchange
197
    1PMP     C1    1   0.211   0.502  -0.017
    1PMP     O2    2   0.089   0.431  -0.024
    1PMP     C3    3   0.097   0.294  -0.016
    1PMP     C4    4   0.214   0.220   0.002
    1PMP     C5    5   0.210   0.080   0.009
    1PMP     C6    6   0.334   0.002   0.027
    1PMP     C7    7   0.449   0.030  -0.048
    1PMP     C8    8   0.565  -0.048  -0.036
    1PMP     C9    9   0.567  -0.157   0.051
    1PMP    C10   10   0.684  -0.249   0.046
    1PMP    O11   11   0.785  -0.227  -0.018
    1PMP    C12   12   0.454  -0.183   0.131
    1PMP    C13   13   0.340  -0.104   0.119
    1PMP    C14   14   0.084   0.017  -0.002
    1PMP    C15   15  -0.035   0.089  -0.019
    1PMP    C16   16  -0.166   0.020  -0.029
    1PMP    C17   17  -0.181  -0.094  -0.108
    1PMP    C18   18  -0.304  -0.161  -0.116
    1PMP    C19   19  -0.415  -0.114  -0.045
    1PMP    C20   20  -0.545  -0.191  -0.050
    1PMP    C21   21  -0.651  -0.113  -0.127
    1PMP    N22   22  -0.596  -0.232   0.081
    1PMP    C23   23  -0.401   0.002   0.033
    1PMP    C24   24  -0.278   0.067   0.041
    1PMP    C25   25  -0.026   0.229  -0.026
    1PMP    H26   26   0.277   0.476  -0.100
    1PMP    H27   27   0.188   0.609  -0.025
    1PMP    H28   28   0.261   0.486   0.079
    1PMP    H29   29   0.310   0.270   0.012
    1PMP    H30   30   0.449   0.110  -0.122
    1PMP    H31   31   0.652  -0.026  -0.098
    1PMP    H32   32   0.453  -0.267   0.200
    1PMP    H33   33   0.254  -0.128   0.181
    1PMP    H34   34   0.079  -0.092   0.004
    1PMP    H35   35  -0.097  -0.134  -0.165
    1PMP    H36   36  -0.311  -0.251  -0.175
    1PMP    H37   37  -0.528  -0.285  -0.104
    1PMP    H38   38  -0.676  -0.018  -0.078
    1PMP    H39   39  -0.617  -0.090  -0.229
    1PMP    H40   40  -0.744  -0.171  -0.136
    1PMP    H41   41  -0.694  -0.256   0.081
    1PMP    H42   42  -0.485   0.038   0.093
    1PMP    H43   43  -0.270   0.154   0.106
    1PMP    H44   44  -0.116   0.288  -0.041
    2PMP    C45   45  -0.435  -1.161   0.351
    2PMP    O46   46  -0.567  -1.172   0.400
    2PMP    C47   47  -0.643  -1.057   0.401
    2PMP    C48   48  -0.603  -0.932   0.356
    2PMP    C49   49  -0.689  -0.821   0.363
    2PMP    C50   50  -0.648  -0.688   0.317
    2PMP    C51   51  -0.525  -0.633   0.353
    2PMP    C52   52  -0.486  -0.507   0.307
    2PMP    C53   53  -0.570  -0.433   0.223
    2PMP    C54   54  -0.514  -0.308   0.164
    2PMP    O55   55  -0.396  -0.282   0.185
    2PMP    C56   56  -0.695  -0.485   0.188
    2PMP    C57   57  -0.733  -0.612   0.235
    2PMP    C58   58  -0.817  -0.841   0.417
    2PMP    C59   59  -0.860  -0.967   0.463
    2PMP    C60   60  -0.996  -0.984   0.518
    2PMP    C61   61  -1.049  -0.889   0.607
    2PMP    C62   62  -1.178  -0.901   0.656
    2PMP    C63   63  -1.259  -1.009   0.618
    2PMP    C64   64  -1.401  -1.016   0.669
    2PMP    C65   65  -1.417  -1.131   0.769
    2PMP    N66   66  -1.501  -1.024   0.563
    2PMP    C67   67  -1.206  -1.106   0.531
    2PMP    C68   68  -1.076  -1.093   0.482
    2PMP    C69   69  -0.771  -1.074   0.454
    2PMP    H70   70  -0.376  -1.089   0.410
    2PMP    H71   71  -0.387  -1.259   0.361
    2PMP    H72   72  -0.434  -1.134   0.245
    2PMP    H73   73  -0.504  -0.918   0.312
    2PMP    H74   74  -0.456  -0.688   0.417
    2PMP    H75   75  -0.388  -0.469   0.334
    2PMP    H76   76  -0.764  -0.434   0.122
    2PMP    H77   77  -0.829  -0.652   0.203
    2PMP    H78   78  -0.886  -0.757   0.423
    2PMP    H79   79  -0.989  -0.804   0.639
    2PMP    H80   80  -1.218  -0.823   0.721
    2PMP    H81   81  -1.424  -0.923   0.722
    2PMP    H82   82  -1.394  -1.228   0.724
    2PMP    H83   83  -1.349  -1.117   0.854
    2PMP    H84   84  -1.519  -1.135   0.808
    2PMP    H85   85  -1.579  -1.085   0.580
    2PMP    H86   86  -1.267  -1.190   0.499
    2PMP    H87   87  -1.040  -1.168   0.412
    2PMP    H88   88  -0.800  -1.172   0.491
    3PMP    C89   89  -2.127  -0.379   0.171
    3PMP    O90   90  -2.223  -0.481   0.150
    3PMP    C91   91  -2.185  -0.610   0.176
    3PMP    C92   92  -2.061  -0.650   0.227
    3PMP    C93   93  -2.033  -0.786   0.250
    3PMP    C94   94  -1.902  -0.828   0.302
    3PMP    C95   95  -1.782  -0.775   0.250
    3PMP    C96   96  -1.658  -0.811   0.304
    3PMP    C97   97  -1.650  -0.901   0.411
    3PMP    C98   98  -1.516  -0.919   0.475
    3PMP    O99   99  -1.429  -0.836   0.451
    3PMP   C100  100  -1.767  -0.958   0.461
    3PMP   C101  101  -1.891  -0.922   0.407
    3PMP   C102  102  -2.134  -0.880   0.223
    3PMP   C103  103  -2.259  -0.842   0.171
    3PMP   C104  104  -2.362  -0.943   0.142
    3PMP   C105  105  -2.329  -1.064   0.079
    3PMP   C106  106  -2.425  -1.161   0.054
    3PMP   C107  107  -2.559  -1.141   0.092
    3PMP   C108  108  -2.659  -1.252   0.068
    3PMP   C109  109  -2.761  -1.211  -0.038
    3PMP   N110  110  -2.726  -1.294   0.191
    3PMP   C111  111  -2.593  -1.020   0.154
    3PMP   C112  112  -2.496  -0.923   0.178
    3PMP   C113  113  -2.282  -0.706   0.147
    3PMP   H114  114  -2.040  -0.393   0.106
    3PMP   H115  115  -2.173  -0.283   0.146
    3PMP   H116  116  -2.097  -0.375   0.276
    3PMP   H117  117  -1.986  -0.576   0.252
    3PMP   H118  118  -1.785  -0.705   0.168
    3PMP   H119  119  -1.568  -0.765   0.264
    3PMP   H120  120  -1.767  -1.027   0.544
    3PMP   H121  121  -1.981  -0.965   0.451
    3PMP   H122  122  -2.114  -0.985   0.242
    3PMP   H123  123  -2.226  -1.084   0.049
    3PMP   H124  124  -2.394  -1.255   0.008
    3PMP   H125  125  -2.606  -1.341   0.032
    3PMP   H126  126  -2.822  -1.126  -0.006
    3PMP   H127  127  -2.711  -1.183  -0.132
    3PMP   H128  128  -2.829  -1.294  -0.060
    3PMP   H129  129  -2.825  -1.309   0.185
    3PMP   H130  130  -2.696  -1.003   0.186
    3PMP   H131  131  -2.526  -0.832   0.230
    3PMP   H132  132  -2.377  -0.673   0.105
    4PMP   C133  133  -2.711  -2.012   0.863
    4PMP   O134  134  -2.845  -1.982   0.903
    4PMP   C135  135  -2.903  -1.872   0.845
    4PMP   C136  136  -2.845  -1.790   0.748
    4PMP   C137  137  -2.914  -1.679   0.696
    4PMP   C138  138  -2.852  -1.591   0.596
    4PMP   C139  139  -2.720  -1.546   0.611
    4PMP   C140  140  -2.659  -1.466   0.514
    4PMP   C141  141  -2.730  -1.426   0.400
    4PMP   C142  142  -2.654  -1.351   0.295
    4PMP   O143  143  -2.532  -1.347   0.302
    4PMP   C144  144  -2.863  -1.466   0.385
    4PMP   C145  145  -2.923  -1.548   0.482
    4PMP   C146  146  -3.045  -1.655   0.743
    4PMP   C147  147  -3.106  -1.736   0.840
    4PMP   C148  148  -3.243  -1.707   0.887
    4PMP   C149  149  -3.284  -1.576   0.916
    4PMP   C150  150  -3.415  -1.548   0.957
    4PMP   C151  151  -3.510  -1.651   0.970
    4PMP   C152  152  -3.652  -1.618   1.012
    4PMP   C153  153  -3.678  -1.666   1.155
    4PMP   N154  154  -3.748  -1.676   0.920
    4PMP   C155  155  -3.469  -1.782   0.942
    4PMP   C156  156  -3.338  -1.810   0.901
    4PMP   C157  157  -3.032  -1.844   0.890
    4PMP   H158  158  -2.643  -1.930   0.889
    4PMP   H159  159  -2.679  -2.101   0.919
    4PMP   H160  160  -2.706  -2.036   0.757
    4PMP   H161  161  -2.745  -1.811   0.711
    4PMP   H162  162  -2.662  -1.574   0.699
    4PMP   H163  163  -2.555  -1.436   0.528
    4PMP   H164  164  -2.922  -1.439   0.299
    4PMP   H165  165  -3.025  -1.580   0.466
    4PMP   H166  166  -3.100  -1.570   0.703
    4PMP   H167  167  -3.215  -1.493   0.908
    4PMP   H168  168  -3.444  -1.445   0.977
    4PMP   H169  169  -3.666  -1.510   1.009
    4PMP   H170  170  -3.664  -1.775   1.164
    4PMP   H171  171  -3.610  -1.618   1.226
    4PMP   H172  172  -3.780  -1.644   1.186
    4PMP   H173  173  -3.778  -1.772   0.932
    4PMP   H174  174  -3.539  -1.865   0.951
    4PMP   H175  175  -3.311  -1.912   0.878
    4PMP   H176  176  -3.075  -1.908   0.967
    5CAP   C177  177   0.733  -0.476   0.078
    5CAP   O178  178   0.652  -0.364   0.111
    5CAP   H179  179   0.687  -0.526  -0.008
    5CAP   H180  180   0.730  -0.545   0.163
    5CAP   H181  181   0.837  -0.451   0.057
    6CAP   C182  182  -3.907  -1.831   0.526
    6CAP   C183  183  -3.864  -1.694   0.581
    6CAP   C184  184  -3.746  -1.644   0.497
    6CAP   C185  185  -3.984  -1.598   0.574
    6CAP   O186  186  -3.830  -1.719   0.720
    6CAP   C187  187  -3.767  -1.625   0.795
    6CAP   O188  188  -3.730  -1.515   0.757
    6CAP   H189  189  -3.938  -1.825   0.421
    6CAP   H190  190  -3.824  -1.903   0.534
    6CAP   H191  191  -3.990  -1.873   0.585
    6CAP   H192  192  -3.656  -1.702   0.517
    6CAP   H193  193  -3.722  -1.539   0.518
    6CAP   H194  194  -3.768  -1.649   0.390
    6CAP   H195  195  -4.067  -1.635   0.635
    6CAP   H196  196  -3.958  -1.499   0.614
    6CAP   H197  197  -4.019  -1.585   0.471
  5.0000000  5.0000000  5.0000000
