[ defaults ]
; nbfunc	comb-rule	gen-pairs	fudgeLJ	fudgeQQ
     1	     2	yes   	0.500000	0.833333

[ atomtypes ]
;type, bondingtype, atomic_number, mass, charge, ptype, sigma, epsilon
pmp_tetramer.pdb_0	     6	12.01078	0.0000000000000000	A    	0.337953176162662	0.4553891161106184
pmp_tetramer.pdb_1	     8	15.99943	0.0000000000000000	A    	0.3025106490435313	0.7048581468486769
pmp_tetramer.pdb_2	     6	12.01078	0.0000000000000000	A    	0.3480646886945065	0.3635030558377792
pmp_tetramer.pdb_3	     6	12.01078	0.0000000000000000	A    	0.3480646886945065	0.3635030558377792
pmp_tetramer.pdb_4	     6	12.01078	0.0000000000000000	A    	0.3480646886945065	0.3635030558377792
pmp_tetramer.pdb_5	     6	12.01078	0.0000000000000000	A    	0.3480646886945065	0.3635030558377792
pmp_tetramer.pdb_6	     6	12.01078	0.0000000000000000	A    	0.3480646886945065	0.3635030558377792
pmp_tetramer.pdb_7	     6	12.01078	0.0000000000000000	A    	0.3480646886945065	0.3635030558377792
pmp_tetramer.pdb_8	     6	12.01078	0.0000000000000000	A    	0.3480646886945065	0.3635030558377792
pmp_tetramer.pdb_9	     6	12.01078	0.0000000000000000	A    	0.3480646886945065	0.3635030558377792
pmp_tetramer.pdb_10	     8	15.99943	0.0000000000000000	A    	0.3039812205065809	0.8795023257036865
pmp_tetramer.pdb_11	     6	12.01078	0.0000000000000000	A    	0.3480646886945065	0.3635030558377792
pmp_tetramer.pdb_12	     6	12.01078	0.0000000000000000	A    	0.3480646886945065	0.3635030558377792
pmp_tetramer.pdb_13	     6	12.01078	0.0000000000000000	A    	0.3480646886945065	0.3635030558377792
pmp_tetramer.pdb_14	     6	12.01078	0.0000000000000000	A    	0.3480646886945065	0.3635030558377792
pmp_tetramer.pdb_15	     6	12.01078	0.0000000000000000	A    	0.3480646886945065	0.3635030558377792
pmp_tetramer.pdb_16	     6	12.01078	0.0000000000000000	A    	0.3480646886945065	0.3635030558377792
pmp_tetramer.pdb_17	     6	12.01078	0.0000000000000000	A    	0.3480646886945065	0.3635030558377792
pmp_tetramer.pdb_18	     6	12.01078	0.0000000000000000	A    	0.3480646886945065	0.3635030558377792
pmp_tetramer.pdb_19	     6	12.01078	0.0000000000000000	A    	0.337953176162662	0.4553891161106184
pmp_tetramer.pdb_20	     6	12.01078	0.0000000000000000	A    	0.337953176162662	0.4553891161106184
pmp_tetramer.pdb_21	     7	14.00672	0.0000000000000000	A    	0.3206876023663901	0.7016212989374017
pmp_tetramer.pdb_22	     6	12.01078	0.0000000000000000	A    	0.3480646886945065	0.3635030558377792
pmp_tetramer.pdb_23	     6	12.01078	0.0000000000000000	A    	0.3480646886945065	0.3635030558377792
pmp_tetramer.pdb_24	     6	12.01078	0.0000000000000000	A    	0.3480646886945065	0.3635030558377792
pmp_tetramer.pdb_25	     1	1.007947	0.0000000000000000	A    	0.2583225710839196	0.068656285380106
pmp_tetramer.pdb_26	     1	1.007947	0.0000000000000000	A    	0.2583225710839196	0.068656285380106
pmp_tetramer.pdb_27	     1	1.007947	0.0000000000000000	A    	0.2583225710839196	0.068656285380106
pmp_tetramer.pdb_28	     1	1.007947	0.0000000000000000	A    	0.2572581535063279	0.06531785996356952
pmp_tetramer.pdb_29	     1	1.007947	0.0000000000000000	A    	0.2572581535063279	0.06531785996356952
pmp_tetramer.pdb_30	     1	1.007947	0.0000000000000000	A    	0.2572581535063279	0.06531785996356952
pmp_tetramer.pdb_31	     1	1.007947	0.0000000000000000	A    	0.2572581535063279	0.06531785996356952
pmp_tetramer.pdb_32	     1	1.007947	0.0000000000000000	A    	0.2572581535063279	0.06531785996356952
pmp_tetramer.pdb_33	     1	1.007947	0.0000000000000000	A    	0.2572581535063279	0.06531785996356952
pmp_tetramer.pdb_34	     1	1.007947	0.0000000000000000	A    	0.2572581535063279	0.06531785996356952
pmp_tetramer.pdb_35	     1	1.007947	0.0000000000000000	A    	0.2572581535063279	0.06531785996356952
pmp_tetramer.pdb_36	     1	1.007947	0.0000000000000000	A    	0.2583225710839196	0.068656285380106
pmp_tetramer.pdb_37	     1	1.007947	0.0000000000000000	A    	0.2644543413268124	0.06602135607582665
pmp_tetramer.pdb_38	     1	1.007947	0.0000000000000000	A    	0.2644543413268124	0.06602135607582665
pmp_tetramer.pdb_39	     1	1.007947	0.0000000000000000	A    	0.2644543413268124	0.06602135607582665
pmp_tetramer.pdb_40	     1	1.007947	0.0000000000000000	A    	0.1103427677297317	0.05895596890015097
pmp_tetramer.pdb_41	     1	1.007947	0.0000000000000000	A    	0.2572581535063279	0.06531785996356952
pmp_tetramer.pdb_42	     1	1.007947	0.0000000000000000	A    	0.2572581535063279	0.06531785996356952
pmp_tetramer.pdb_43	     1	1.007947	0.0000000000000000	A    	0.2572581535063279	0.06531785996356952
pmp_tetramer.pdb_44	     6	12.01078	0.0000000000000000	A    	0.337953176162662	0.4553891161106184
pmp_tetramer.pdb_45	     8	15.99943	0.0000000000000000	A    	0.3025106490435313	0.7048581468486769
pmp_tetramer.pdb_46	     6	12.01078	0.0000000000000000	A    	0.3480646886945065	0.3635030558377792
pmp_tetramer.pdb_47	     6	12.01078	0.0000000000000000	A    	0.3480646886945065	0.3635030558377792
pmp_tetramer.pdb_48	     6	12.01078	0.0000000000000000	A    	0.3480646886945065	0.3635030558377792
pmp_tetramer.pdb_49	     6	12.01078	0.0000000000000000	A    	0.3480646886945065	0.3635030558377792
pmp_tetramer.pdb_50	     6	12.01078	0.0000000000000000	A    	0.3480646886945065	0.3635030558377792
pmp_tetramer.pdb_51	     6	12.01078	0.0000000000000000	A    	0.3480646886945065	0.3635030558377792
pmp_tetramer.pdb_52	     6	12.01078	0.0000000000000000	A    	0.3480646886945065	0.3635030558377792
pmp_tetramer.pdb_53	     6	12.01078	0.0000000000000000	A    	0.3480646886945065	0.3635030558377792
pmp_tetramer.pdb_54	     8	15.99943	0.0000000000000000	A    	0.3039812205065809	0.8795023257036865
pmp_tetramer.pdb_55	     6	12.01078	0.0000000000000000	A    	0.3480646886945065	0.3635030558377792
pmp_tetramer.pdb_56	     6	12.01078	0.0000000000000000	A    	0.3480646886945065	0.3635030558377792
pmp_tetramer.pdb_57	     6	12.01078	0.0000000000000000	A    	0.3480646886945065	0.3635030558377792
pmp_tetramer.pdb_58	     6	12.01078	0.0000000000000000	A    	0.3480646886945065	0.3635030558377792
pmp_tetramer.pdb_59	     6	12.01078	0.0000000000000000	A    	0.3480646886945065	0.3635030558377792
pmp_tetramer.pdb_60	     6	12.01078	0.0000000000000000	A    	0.3480646886945065	0.3635030558377792
pmp_tetramer.pdb_61	     6	12.01078	0.0000000000000000	A    	0.3480646886945065	0.3635030558377792
pmp_tetramer.pdb_62	     6	12.01078	0.0000000000000000	A    	0.3480646886945065	0.3635030558377792
pmp_tetramer.pdb_63	     6	12.01078	0.0000000000000000	A    	0.337953176162662	0.4553891161106184
pmp_tetramer.pdb_64	     6	12.01078	0.0000000000000000	A    	0.337953176162662	0.4553891161106184
pmp_tetramer.pdb_65	     7	14.00672	0.0000000000000000	A    	0.3206876023663901	0.7016212989374017
pmp_tetramer.pdb_66	     6	12.01078	0.0000000000000000	A    	0.3480646886945065	0.3635030558377792
pmp_tetramer.pdb_67	     6	12.01078	0.0000000000000000	A    	0.3480646886945065	0.3635030558377792
pmp_tetramer.pdb_68	     6	12.01078	0.0000000000000000	A    	0.3480646886945065	0.3635030558377792
pmp_tetramer.pdb_69	     1	1.007947	0.0000000000000000	A    	0.2583225710839196	0.068656285380106
pmp_tetramer.pdb_70	     1	1.007947	0.0000000000000000	A    	0.2583225710839196	0.068656285380106
pmp_tetramer.pdb_71	     1	1.007947	0.0000000000000000	A    	0.2583225710839196	0.068656285380106
pmp_tetramer.pdb_72	     1	1.007947	0.0000000000000000	A    	0.2572581535063279	0.06531785996356952
pmp_tetramer.pdb_73	     1	1.007947	0.0000000000000000	A    	0.2572581535063279	0.06531785996356952
pmp_tetramer.pdb_74	     1	1.007947	0.0000000000000000	A    	0.2572581535063279	0.06531785996356952
pmp_tetramer.pdb_75	     1	1.007947	0.0000000000000000	A    	0.2572581535063279	0.06531785996356952
pmp_tetramer.pdb_76	     1	1.007947	0.0000000000000000	A    	0.2572581535063279	0.06531785996356952
pmp_tetramer.pdb_77	     1	1.007947	0.0000000000000000	A    	0.2572581535063279	0.06531785996356952
pmp_tetramer.pdb_78	     1	1.007947	0.0000000000000000	A    	0.2572581535063279	0.06531785996356952
pmp_tetramer.pdb_79	     1	1.007947	0.0000000000000000	A    	0.2572581535063279	0.06531785996356952
pmp_tetramer.pdb_80	     1	1.007947	0.0000000000000000	A    	0.2583225710839196	0.068656285380106
pmp_tetramer.pdb_81	     1	1.007947	0.0000000000000000	A    	0.2644543413268124	0.06602135607582665
pmp_tetramer.pdb_82	     1	1.007947	0.0000000000000000	A    	0.2644543413268124	0.06602135607582665
pmp_tetramer.pdb_83	     1	1.007947	0.0000000000000000	A    	0.2644543413268124	0.06602135607582665
pmp_tetramer.pdb_84	     1	1.007947	0.0000000000000000	A    	0.1103427677297317	0.05895596890015097
pmp_tetramer.pdb_85	     1	1.007947	0.0000000000000000	A    	0.2572581535063279	0.06531785996356952
pmp_tetramer.pdb_86	     1	1.007947	0.0000000000000000	A    	0.2572581535063279	0.06531785996356952
pmp_tetramer.pdb_87	     1	1.007947	0.0000000000000000	A    	0.2572581535063279	0.06531785996356952
pmp_tetramer.pdb_88	     6	12.01078	0.0000000000000000	A    	0.337953176162662	0.4553891161106184
pmp_tetramer.pdb_89	     8	15.99943	0.0000000000000000	A    	0.3025106490435313	0.7048581468486769
pmp_tetramer.pdb_90	     6	12.01078	0.0000000000000000	A    	0.3480646886945065	0.3635030558377792
pmp_tetramer.pdb_91	     6	12.01078	0.0000000000000000	A    	0.3480646886945065	0.3635030558377792
pmp_tetramer.pdb_92	     6	12.01078	0.0000000000000000	A    	0.3480646886945065	0.3635030558377792
pmp_tetramer.pdb_93	     6	12.01078	0.0000000000000000	A    	0.3480646886945065	0.3635030558377792
pmp_tetramer.pdb_94	     6	12.01078	0.0000000000000000	A    	0.3480646886945065	0.3635030558377792
pmp_tetramer.pdb_95	     6	12.01078	0.0000000000000000	A    	0.3480646886945065	0.3635030558377792
pmp_tetramer.pdb_96	     6	12.01078	0.0000000000000000	A    	0.3480646886945065	0.3635030558377792
pmp_tetramer.pdb_97	     6	12.01078	0.0000000000000000	A    	0.3480646886945065	0.3635030558377792
pmp_tetramer.pdb_98	     8	15.99943	0.0000000000000000	A    	0.3039812205065809	0.8795023257036865
pmp_tetramer.pdb_99	     6	12.01078	0.0000000000000000	A    	0.3480646886945065	0.3635030558377792
pmp_tetramer.pdb_100	     6	12.01078	0.0000000000000000	A    	0.3480646886945065	0.3635030558377792
pmp_tetramer.pdb_101	     6	12.01078	0.0000000000000000	A    	0.3480646886945065	0.3635030558377792
pmp_tetramer.pdb_102	     6	12.01078	0.0000000000000000	A    	0.3480646886945065	0.3635030558377792
pmp_tetramer.pdb_103	     6	12.01078	0.0000000000000000	A    	0.3480646886945065	0.3635030558377792
pmp_tetramer.pdb_104	     6	12.01078	0.0000000000000000	A    	0.3480646886945065	0.3635030558377792
pmp_tetramer.pdb_105	     6	12.01078	0.0000000000000000	A    	0.3480646886945065	0.3635030558377792
pmp_tetramer.pdb_106	     6	12.01078	0.0000000000000000	A    	0.3480646886945065	0.3635030558377792
pmp_tetramer.pdb_107	     6	12.01078	0.0000000000000000	A    	0.337953176162662	0.4553891161106184
pmp_tetramer.pdb_108	     6	12.01078	0.0000000000000000	A    	0.337953176162662	0.4553891161106184
pmp_tetramer.pdb_109	     7	14.00672	0.0000000000000000	A    	0.3206876023663901	0.7016212989374017
pmp_tetramer.pdb_110	     6	12.01078	0.0000000000000000	A    	0.3480646886945065	0.3635030558377792
pmp_tetramer.pdb_111	     6	12.01078	0.0000000000000000	A    	0.3480646886945065	0.3635030558377792
pmp_tetramer.pdb_112	     6	12.01078	0.0000000000000000	A    	0.3480646886945065	0.3635030558377792
pmp_tetramer.pdb_113	     1	1.007947	0.0000000000000000	A    	0.2583225710839196	0.068656285380106
pmp_tetramer.pdb_114	     1	1.007947	0.0000000000000000	A    	0.2583225710839196	0.068656285380106
pmp_tetramer.pdb_115	     1	1.007947	0.0000000000000000	A    	0.2583225710839196	0.068656285380106
pmp_tetramer.pdb_116	     1	1.007947	0.0000000000000000	A    	0.2572581535063279	0.06531785996356952
pmp_tetramer.pdb_117	     1	1.007947	0.0000000000000000	A    	0.2572581535063279	0.06531785996356952
pmp_tetramer.pdb_118	     1	1.007947	0.0000000000000000	A    	0.2572581535063279	0.06531785996356952
pmp_tetramer.pdb_119	     1	1.007947	0.0000000000000000	A    	0.2572581535063279	0.06531785996356952
pmp_tetramer.pdb_120	     1	1.007947	0.0000000000000000	A    	0.2572581535063279	0.06531785996356952
pmp_tetramer.pdb_121	     1	1.007947	0.0000000000000000	A    	0.2572581535063279	0.06531785996356952
pmp_tetramer.pdb_122	     1	1.007947	0.0000000000000000	A    	0.2572581535063279	0.06531785996356952
pmp_tetramer.pdb_123	     1	1.007947	0.0000000000000000	A    	0.2572581535063279	0.06531785996356952
pmp_tetramer.pdb_124	     1	1.007947	0.0000000000000000	A    	0.2583225710839196	0.068656285380106
pmp_tetramer.pdb_125	     1	1.007947	0.0000000000000000	A    	0.2644543413268124	0.06602135607582665
pmp_tetramer.pdb_126	     1	1.007947	0.0000000000000000	A    	0.2644543413268124	0.06602135607582665
pmp_tetramer.pdb_127	     1	1.007947	0.0000000000000000	A    	0.2644543413268124	0.06602135607582665
pmp_tetramer.pdb_128	     1	1.007947	0.0000000000000000	A    	0.1103427677297317	0.05895596890015097
pmp_tetramer.pdb_129	     1	1.007947	0.0000000000000000	A    	0.2572581535063279	0.06531785996356952
pmp_tetramer.pdb_130	     1	1.007947	0.0000000000000000	A    	0.2572581535063279	0.06531785996356952
pmp_tetramer.pdb_131	     1	1.007947	0.0000000000000000	A    	0.2572581535063279	0.06531785996356952
pmp_tetramer.pdb_132	     6	12.01078	0.0000000000000000	A    	0.337953176162662	0.4553891161106184
pmp_tetramer.pdb_133	     8	15.99943	0.0000000000000000	A    	0.3025106490435313	0.7048581468486769
pmp_tetramer.pdb_134	     6	12.01078	0.0000000000000000	A    	0.3480646886945065	0.3635030558377792
pmp_tetramer.pdb_135	     6	12.01078	0.0000000000000000	A    	0.3480646886945065	0.3635030558377792
pmp_tetramer.pdb_136	     6	12.01078	0.0000000000000000	A    	0.3480646886945065	0.3635030558377792
pmp_tetramer.pdb_137	     6	12.01078	0.0000000000000000	A    	0.3480646886945065	0.3635030558377792
pmp_tetramer.pdb_138	     6	12.01078	0.0000000000000000	A    	0.3480646886945065	0.3635030558377792
pmp_tetramer.pdb_139	     6	12.01078	0.0000000000000000	A    	0.3480646886945065	0.3635030558377792
pmp_tetramer.pdb_140	     6	12.01078	0.0000000000000000	A    	0.3480646886945065	0.3635030558377792
pmp_tetramer.pdb_141	     6	12.01078	0.0000000000000000	A    	0.3480646886945065	0.3635030558377792
pmp_tetramer.pdb_142	     8	15.99943	0.0000000000000000	A    	0.3039812205065809	0.8795023257036865
pmp_tetramer.pdb_143	     6	12.01078	0.0000000000000000	A    	0.3480646886945065	0.3635030558377792
pmp_tetramer.pdb_144	     6	12.01078	0.0000000000000000	A    	0.3480646886945065	0.3635030558377792
pmp_tetramer.pdb_145	     6	12.01078	0.0000000000000000	A    	0.3480646886945065	0.3635030558377792
pmp_tetramer.pdb_146	     6	12.01078	0.0000000000000000	A    	0.3480646886945065	0.3635030558377792
pmp_tetramer.pdb_147	     6	12.01078	0.0000000000000000	A    	0.3480646886945065	0.3635030558377792
pmp_tetramer.pdb_148	     6	12.01078	0.0000000000000000	A    	0.3480646886945065	0.3635030558377792
pmp_tetramer.pdb_149	     6	12.01078	0.0000000000000000	A    	0.3480646886945065	0.3635030558377792
pmp_tetramer.pdb_150	     6	12.01078	0.0000000000000000	A    	0.3480646886945065	0.3635030558377792
pmp_tetramer.pdb_151	     6	12.01078	0.0000000000000000	A    	0.337953176162662	0.4553891161106184
pmp_tetramer.pdb_152	     6	12.01078	0.0000000000000000	A    	0.337953176162662	0.4553891161106184
pmp_tetramer.pdb_153	     7	14.00672	0.0000000000000000	A    	0.3206876023663901	0.7016212989374017
pmp_tetramer.pdb_154	     6	12.01078	0.0000000000000000	A    	0.3480646886945065	0.3635030558377792
pmp_tetramer.pdb_155	     6	12.01078	0.0000000000000000	A    	0.3480646886945065	0.3635030558377792
pmp_tetramer.pdb_156	     6	12.01078	0.0000000000000000	A    	0.3480646886945065	0.3635030558377792
pmp_tetramer.pdb_157	     1	1.007947	0.0000000000000000	A    	0.2583225710839196	0.068656285380106
pmp_tetramer.pdb_158	     1	1.007947	0.0000000000000000	A    	0.2583225710839196	0.068656285380106
pmp_tetramer.pdb_159	     1	1.007947	0.0000000000000000	A    	0.2583225710839196	0.068656285380106
pmp_tetramer.pdb_160	     1	1.007947	0.0000000000000000	A    	0.2572581535063279	0.06531785996356952
pmp_tetramer.pdb_161	     1	1.007947	0.0000000000000000	A    	0.2572581535063279	0.06531785996356952
pmp_tetramer.pdb_162	     1	1.007947	0.0000000000000000	A    	0.2572581535063279	0.06531785996356952
pmp_tetramer.pdb_163	     1	1.007947	0.0000000000000000	A    	0.2572581535063279	0.06531785996356952
pmp_tetramer.pdb_164	     1	1.007947	0.0000000000000000	A    	0.2572581535063279	0.06531785996356952
pmp_tetramer.pdb_165	     1	1.007947	0.0000000000000000	A    	0.2572581535063279	0.06531785996356952
pmp_tetramer.pdb_166	     1	1.007947	0.0000000000000000	A    	0.2572581535063279	0.06531785996356952
pmp_tetramer.pdb_167	     1	1.007947	0.0000000000000000	A    	0.2572581535063279	0.06531785996356952
pmp_tetramer.pdb_168	     1	1.007947	0.0000000000000000	A    	0.2583225710839196	0.068656285380106
pmp_tetramer.pdb_169	     1	1.007947	0.0000000000000000	A    	0.2644543413268124	0.06602135607582665
pmp_tetramer.pdb_170	     1	1.007947	0.0000000000000000	A    	0.2644543413268124	0.06602135607582665
pmp_tetramer.pdb_171	     1	1.007947	0.0000000000000000	A    	0.2644543413268124	0.06602135607582665
pmp_tetramer.pdb_172	     1	1.007947	0.0000000000000000	A    	0.1103427677297317	0.05895596890015097
pmp_tetramer.pdb_173	     1	1.007947	0.0000000000000000	A    	0.2572581535063279	0.06531785996356952
pmp_tetramer.pdb_174	     1	1.007947	0.0000000000000000	A    	0.2572581535063279	0.06531785996356952
pmp_tetramer.pdb_175	     1	1.007947	0.0000000000000000	A    	0.2572581535063279	0.06531785996356952
pmp_tetramer.pdb_176	     6	12.01078	0.0000000000000000	A    	0.337953176162662	0.4553891161106184
pmp_tetramer.pdb_177	     8	15.99943	0.0000000000000000	A    	0.3025106490435313	0.7048581468486769
pmp_tetramer.pdb_178	     1	1.007947	0.0000000000000000	A    	0.2583225710839196	0.068656285380106
pmp_tetramer.pdb_179	     1	1.007947	0.0000000000000000	A    	0.2583225710839196	0.068656285380106
pmp_tetramer.pdb_180	     1	1.007947	0.0000000000000000	A    	0.2583225710839196	0.068656285380106
pmp_tetramer.pdb_181	     6	12.01078	0.0000000000000000	A    	0.337953176162662	0.4553891161106184
pmp_tetramer.pdb_182	     6	12.01078	0.0000000000000000	A    	0.337953176162662	0.4553891161106184
pmp_tetramer.pdb_183	     6	12.01078	0.0000000000000000	A    	0.337953176162662	0.4553891161106184
pmp_tetramer.pdb_184	     6	12.01078	0.0000000000000000	A    	0.337953176162662	0.4553891161106184
pmp_tetramer.pdb_185	     8	15.99943	0.0000000000000000	A    	0.3025106490435313	0.7048581468486769
pmp_tetramer.pdb_186	     6	12.01078	0.0000000000000000	A    	0.3480646886945065	0.3635030558377792
pmp_tetramer.pdb_187	     8	15.99943	0.0000000000000000	A    	0.3039812205065809	0.8795023257036865
pmp_tetramer.pdb_188	     1	1.007947	0.0000000000000000	A    	0.2644543413268124	0.06602135607582665
pmp_tetramer.pdb_189	     1	1.007947	0.0000000000000000	A    	0.2644543413268124	0.06602135607582665
pmp_tetramer.pdb_190	     1	1.007947	0.0000000000000000	A    	0.2644543413268124	0.06602135607582665
pmp_tetramer.pdb_191	     1	1.007947	0.0000000000000000	A    	0.2644543413268124	0.06602135607582665
pmp_tetramer.pdb_192	     1	1.007947	0.0000000000000000	A    	0.2644543413268124	0.06602135607582665
pmp_tetramer.pdb_193	     1	1.007947	0.0000000000000000	A    	0.2644543413268124	0.06602135607582665
pmp_tetramer.pdb_194	     1	1.007947	0.0000000000000000	A    	0.2644543413268124	0.06602135607582665
pmp_tetramer.pdb_195	     1	1.007947	0.0000000000000000	A    	0.2644543413268124	0.06602135607582665
pmp_tetramer.pdb_196	     1	1.007947	0.0000000000000000	A    	0.2644543413268124	0.06602135607582665

[ moleculetype ]
pmp_tetramer.pdb	         3

[ atoms ]
;index, atom type, resnum, resname, name, cgnr, charge, mass
     1 pmp_tetramer.pdb_0       1 PMP      C1         1      0.110229998513     12.010780000000
     2 pmp_tetramer.pdb_1       1 PMP      O2         1     -0.322930008487     15.999430000000
     3 pmp_tetramer.pdb_2       1 PMP      C3         1      0.121270000620     12.010780000000
     4 pmp_tetramer.pdb_3       1 PMP      C4         1     -0.192210004048     12.010780000000
     5 pmp_tetramer.pdb_4       1 PMP      C5         1     -0.008550000691     12.010780000000
     6 pmp_tetramer.pdb_5       1 PMP      C6         1     -0.006350000238     12.010780000000
     7 pmp_tetramer.pdb_6       1 PMP      C7         1     -0.132829994278     12.010780000000
     8 pmp_tetramer.pdb_7       1 PMP      C8         1     -0.067790001945     12.010780000000
     9 pmp_tetramer.pdb_8       1 PMP      C9         1     -0.131929993944     12.010780000000
    10 pmp_tetramer.pdb_9       1 PMP      C10        1      0.648760020418     12.010780000000
    11 pmp_tetramer.pdb_10       1 PMP      O11        1     -0.543680012540     15.999430000000
    12 pmp_tetramer.pdb_11       1 PMP      C12        1     -0.067790001945     12.010780000000
    13 pmp_tetramer.pdb_12       1 PMP      C13        1     -0.132829994278     12.010780000000
    14 pmp_tetramer.pdb_13       1 PMP      C14        1     -0.137789994793     12.010780000000
    15 pmp_tetramer.pdb_14       1 PMP      C15        1     -0.006220000179     12.010780000000
    16 pmp_tetramer.pdb_15       1 PMP      C16        1     -0.034809999482     12.010780000000
    17 pmp_tetramer.pdb_16       1 PMP      C17        1     -0.116030000465     12.010780000000
    18 pmp_tetramer.pdb_17       1 PMP      C18        1     -0.121430002467     12.010780000000
    19 pmp_tetramer.pdb_18       1 PMP      C19        1     -0.094870001392     12.010780000000
    20 pmp_tetramer.pdb_19       1 PMP      C20        1      0.150499999209     12.010780000000
    21 pmp_tetramer.pdb_20       1 PMP      C21        1     -0.110069997923     12.010780000000
    22 pmp_tetramer.pdb_21       1 PMP      N22        1     -0.570869982557     14.006720000000
    23 pmp_tetramer.pdb_22       1 PMP      C23        1     -0.121430002467     12.010780000000
    24 pmp_tetramer.pdb_23       1 PMP      C24        1     -0.116030000465     12.010780000000
    25 pmp_tetramer.pdb_24       1 PMP      C25        1     -0.137349993305     12.010780000000
    26 pmp_tetramer.pdb_25       1 PMP      H26        1      0.044720001204      1.007947000000
    27 pmp_tetramer.pdb_26       1 PMP      H27        1      0.044720001204      1.007947000000
    28 pmp_tetramer.pdb_27       1 PMP      H28        1      0.044720001204      1.007947000000
    29 pmp_tetramer.pdb_28       1 PMP      H29        1      0.142429992242      1.007947000000
    30 pmp_tetramer.pdb_29       1 PMP      H30        1      0.141190007015      1.007947000000
    31 pmp_tetramer.pdb_30       1 PMP      H31        1      0.155900001211      1.007947000000
    32 pmp_tetramer.pdb_31       1 PMP      H32        1      0.155900001211      1.007947000000
    33 pmp_tetramer.pdb_32       1 PMP      H33        1      0.141190007015      1.007947000000
    34 pmp_tetramer.pdb_33       1 PMP      H34        1      0.140320002718      1.007947000000
    35 pmp_tetramer.pdb_34       1 PMP      H35        1      0.137889995857      1.007947000000
    36 pmp_tetramer.pdb_35       1 PMP      H36        1      0.135829999729      1.007947000000
    37 pmp_tetramer.pdb_36       1 PMP      H37        1      0.088500000222      1.007947000000
    38 pmp_tetramer.pdb_37       1 PMP      H38        1      0.045129999204      1.007947000000
    39 pmp_tetramer.pdb_38       1 PMP      H39        1      0.045129999204      1.007947000000
    40 pmp_tetramer.pdb_39       1 PMP      H40        1      0.045129999204      1.007947000000
    41 pmp_tetramer.pdb_40       1 PMP      H41        1      0.310649990721      1.007947000000
    42 pmp_tetramer.pdb_41       1 PMP      H42        1      0.135829999729      1.007947000000
    43 pmp_tetramer.pdb_42       1 PMP      H43        1      0.137889995857      1.007947000000
    44 pmp_tetramer.pdb_43       1 PMP      H44        1      0.154579996748      1.007947000000
    45 pmp_tetramer.pdb_44       2 PMP      C45        1      0.112479999347     12.010780000000
    46 pmp_tetramer.pdb_45       2 PMP      O46        1     -0.326940000372     15.999430000000
    47 pmp_tetramer.pdb_46       2 PMP      C47        1      0.124590001686     12.010780000000
    48 pmp_tetramer.pdb_47       2 PMP      C48        1     -0.136720002012     12.010780000000
    49 pmp_tetramer.pdb_48       2 PMP      C49        1     -0.012740000465     12.010780000000
    50 pmp_tetramer.pdb_49       2 PMP      C50        1     -0.015340000705     12.010780000000
    51 pmp_tetramer.pdb_50       2 PMP      C51        1     -0.128250003175     12.010780000000
    52 pmp_tetramer.pdb_51       2 PMP      C52        1     -0.091710001545     12.010780000000
    53 pmp_tetramer.pdb_52       2 PMP      C53        1     -0.139660001115     12.010780000000
    54 pmp_tetramer.pdb_53       2 PMP      C54        1      0.675660013838     12.010780000000
    55 pmp_tetramer.pdb_54       2 PMP      O55        1     -0.605579972582     15.999430000000
    56 pmp_tetramer.pdb_55       2 PMP      C56        1     -0.091710001545     12.010780000000
    57 pmp_tetramer.pdb_56       2 PMP      C57        1     -0.128250003175     12.010780000000
    58 pmp_tetramer.pdb_57       2 PMP      C58        1     -0.142120004015     12.010780000000
    59 pmp_tetramer.pdb_58       2 PMP      C59        1     -0.002680000232     12.010780000000
    60 pmp_tetramer.pdb_59       2 PMP      C60        1     -0.033620000200     12.010780000000
    61 pmp_tetramer.pdb_60       2 PMP      C61        1     -0.117940001504     12.010780000000
    62 pmp_tetramer.pdb_61       2 PMP      C62        1     -0.120839998440     12.010780000000
    63 pmp_tetramer.pdb_62       2 PMP      C63        1     -0.097209997790     12.010780000000
    64 pmp_tetramer.pdb_63       2 PMP      C64        1      0.152930006070     12.010780000000
    65 pmp_tetramer.pdb_64       2 PMP      C65        1     -0.108759999590     12.010780000000
    66 pmp_tetramer.pdb_65       2 PMP      N66        1     -0.571770012693     14.006720000000
    67 pmp_tetramer.pdb_66       2 PMP      C67        1     -0.120839998440     12.010780000000
    68 pmp_tetramer.pdb_67       2 PMP      C68        1     -0.117940001504     12.010780000000
    69 pmp_tetramer.pdb_68       2 PMP      C69        1     -0.189380005316     12.010780000000
    70 pmp_tetramer.pdb_69       2 PMP      H70        1      0.045839998557      1.007947000000
    71 pmp_tetramer.pdb_70       2 PMP      H71        1      0.045839998557      1.007947000000
    72 pmp_tetramer.pdb_71       2 PMP      H72        1      0.045839998557      1.007947000000
    73 pmp_tetramer.pdb_72       2 PMP      H73        1      0.155929997249      1.007947000000
    74 pmp_tetramer.pdb_73       2 PMP      H74        1      0.141969993396      1.007947000000
    75 pmp_tetramer.pdb_74       2 PMP      H75        1      0.147919997259      1.007947000000
    76 pmp_tetramer.pdb_75       2 PMP      H76        1      0.147919997259      1.007947000000
    77 pmp_tetramer.pdb_76       2 PMP      H77        1      0.141969993396      1.007947000000
    78 pmp_tetramer.pdb_77       2 PMP      H78        1      0.137960001512      1.007947000000
    79 pmp_tetramer.pdb_78       2 PMP      H79        1      0.137150004192      1.007947000000
    80 pmp_tetramer.pdb_79       2 PMP      H80        1      0.137409999652      1.007947000000
    81 pmp_tetramer.pdb_80       2 PMP      H81        1      0.084739997669      1.007947000000
    82 pmp_tetramer.pdb_81       2 PMP      H82        1      0.045899998082      1.007947000000
    83 pmp_tetramer.pdb_82       2 PMP      H83        1      0.045899998082      1.007947000000
    84 pmp_tetramer.pdb_83       2 PMP      H84        1      0.045899998082      1.007947000000
    85 pmp_tetramer.pdb_84       2 PMP      H85        1      0.312830000801      1.007947000000
    86 pmp_tetramer.pdb_85       2 PMP      H86        1      0.137409999652      1.007947000000
    87 pmp_tetramer.pdb_86       2 PMP      H87        1      0.137150004192      1.007947000000
    88 pmp_tetramer.pdb_87       2 PMP      H88        1      0.142670005246      1.007947000000
    89 pmp_tetramer.pdb_88       3 PMP      C89        1      0.113839998527     12.010780000000
    90 pmp_tetramer.pdb_89       3 PMP      O90        1     -0.329360008554     15.999430000000
    91 pmp_tetramer.pdb_90       3 PMP      C91        1      0.122319996043     12.010780000000
    92 pmp_tetramer.pdb_91       3 PMP      C92        1     -0.140049994306     12.010780000000
    93 pmp_tetramer.pdb_92       3 PMP      C93        1     -0.013120000565     12.010780000000
    94 pmp_tetramer.pdb_93       3 PMP      C94        1     -0.013020000735     12.010780000000
    95 pmp_tetramer.pdb_94       3 PMP      C95        1     -0.128380000906     12.010780000000
    96 pmp_tetramer.pdb_95       3 PMP      C96        1     -0.091830000596     12.010780000000
    97 pmp_tetramer.pdb_96       3 PMP      C97        1     -0.140259996371     12.010780000000
    98 pmp_tetramer.pdb_97       3 PMP      C98        1      0.675040006323     12.010780000000
    99 pmp_tetramer.pdb_98       3 PMP      O99        1     -0.609409988241     15.999430000000
   100 pmp_tetramer.pdb_99       3 PMP      C100       1     -0.091830000596     12.010780000000
   101 pmp_tetramer.pdb_100       3 PMP      C101       1     -0.128380000906     12.010780000000
   102 pmp_tetramer.pdb_101       3 PMP      C102       1     -0.142039999680     12.010780000000
   103 pmp_tetramer.pdb_102       3 PMP      C103       1      0.001099999680     12.010780000000
   104 pmp_tetramer.pdb_103       3 PMP      C104       1     -0.036370002048     12.010780000000
   105 pmp_tetramer.pdb_104       3 PMP      C105       1     -0.116839997785     12.010780000000
   106 pmp_tetramer.pdb_105       3 PMP      C106       1     -0.113600001053     12.010780000000
   107 pmp_tetramer.pdb_106       3 PMP      C107       1     -0.105779998319     12.010780000000
   108 pmp_tetramer.pdb_107       3 PMP      C108       1      0.147339999361     12.010780000000
   109 pmp_tetramer.pdb_108       3 PMP      C109       1     -0.101920001523     12.010780000000
   110 pmp_tetramer.pdb_109       3 PMP      N110       1     -0.559639990644     14.006720000000
   111 pmp_tetramer.pdb_110       3 PMP      C111       1     -0.113600001053     12.010780000000
   112 pmp_tetramer.pdb_111       3 PMP      C112       1     -0.116839997785     12.010780000000
   113 pmp_tetramer.pdb_112       3 PMP      C113       1     -0.192230001406     12.010780000000
   114 pmp_tetramer.pdb_113       3 PMP      H114       1      0.045519999845      1.007947000000
   115 pmp_tetramer.pdb_114       3 PMP      H115       1      0.045519999845      1.007947000000
   116 pmp_tetramer.pdb_115       3 PMP      H116       1      0.045519999845      1.007947000000
   117 pmp_tetramer.pdb_116       3 PMP      H117       1      0.153950005455      1.007947000000
   118 pmp_tetramer.pdb_117       3 PMP      H118       1      0.141279995127      1.007947000000
   119 pmp_tetramer.pdb_118       3 PMP      H119       1      0.147919997259      1.007947000000
   120 pmp_tetramer.pdb_119       3 PMP      H120       1      0.147919997259      1.007947000000
   121 pmp_tetramer.pdb_120       3 PMP      H121       1      0.141279995127      1.007947000000
   122 pmp_tetramer.pdb_121       3 PMP      H122       1      0.140870004578      1.007947000000
   123 pmp_tetramer.pdb_122       3 PMP      H123       1      0.134629994316      1.007947000000
   124 pmp_tetramer.pdb_123       3 PMP      H124       1      0.135930001421      1.007947000000
   125 pmp_tetramer.pdb_124       3 PMP      H125       1      0.087080001517      1.007947000000
   126 pmp_tetramer.pdb_125       3 PMP      H126       1      0.046179998352      1.007947000000
   127 pmp_tetramer.pdb_126       3 PMP      H127       1      0.046179998352      1.007947000000
   128 pmp_tetramer.pdb_127       3 PMP      H128       1      0.046179998352      1.007947000000
   129 pmp_tetramer.pdb_128       3 PMP      H129       1      0.305660009070      1.007947000000
   130 pmp_tetramer.pdb_129       3 PMP      H130       1      0.135930001421      1.007947000000
   131 pmp_tetramer.pdb_130       3 PMP      H131       1      0.134629994316      1.007947000000
   132 pmp_tetramer.pdb_131       3 PMP      H132       1      0.143250003143      1.007947000000
   133 pmp_tetramer.pdb_132       4 PMP      C133       1      0.112949996872     12.010780000000
   134 pmp_tetramer.pdb_133       4 PMP      O134       1     -0.325239986496     15.999430000000
   135 pmp_tetramer.pdb_134       4 PMP      C135       1      0.126269995852     12.010780000000
   136 pmp_tetramer.pdb_135       4 PMP      C136       1     -0.190259993391     12.010780000000
   137 pmp_tetramer.pdb_136       4 PMP      C137       1     -0.010240000056     12.010780000000
   138 pmp_tetramer.pdb_137       4 PMP      C138       1     -0.010490000562     12.010780000000
   139 pmp_tetramer.pdb_138       4 PMP      C139       1     -0.128189996199     12.010780000000
   140 pmp_tetramer.pdb_139       4 PMP      C140       1     -0.091789998428     12.010780000000
   141 pmp_tetramer.pdb_140       4 PMP      C141       1     -0.139699995832     12.010780000000
   142 pmp_tetramer.pdb_141       4 PMP      C142       1      0.674809991999     12.010780000000
   143 pmp_tetramer.pdb_142       4 PMP      O143       1     -0.606169998960     15.999430000000
   144 pmp_tetramer.pdb_143       4 PMP      C144       1     -0.091789998428     12.010780000000
   145 pmp_tetramer.pdb_144       4 PMP      C145       1     -0.128189996199     12.010780000000
   146 pmp_tetramer.pdb_145       4 PMP      C146       1     -0.141399994807     12.010780000000
   147 pmp_tetramer.pdb_146       4 PMP      C147       1     -0.006140000501     12.010780000000
   148 pmp_tetramer.pdb_147       4 PMP      C148       1     -0.032809999154     12.010780000000
   149 pmp_tetramer.pdb_148       4 PMP      C149       1     -0.116410002427     12.010780000000
   150 pmp_tetramer.pdb_149       4 PMP      C150       1     -0.118749998824     12.010780000000
   151 pmp_tetramer.pdb_150       4 PMP      C151       1     -0.097870000021     12.010780000000
   152 pmp_tetramer.pdb_151       4 PMP      C152       1      0.166119992419     12.010780000000
   153 pmp_tetramer.pdb_152       4 PMP      C153       1     -0.110930003540     12.010780000000
   154 pmp_tetramer.pdb_153       4 PMP      N154       1     -0.563189983682     14.006720000000
   155 pmp_tetramer.pdb_154       4 PMP      C155       1     -0.118749998824     12.010780000000
   156 pmp_tetramer.pdb_155       4 PMP      C156       1     -0.116410002427     12.010780000000
   157 pmp_tetramer.pdb_156       4 PMP      C157       1     -0.137180000858     12.010780000000
   158 pmp_tetramer.pdb_157       4 PMP      H158       1      0.045829999878      1.007947000000
   159 pmp_tetramer.pdb_158       4 PMP      H159       1      0.045829999878      1.007947000000
   160 pmp_tetramer.pdb_159       4 PMP      H160       1      0.045829999878      1.007947000000
   161 pmp_tetramer.pdb_160       4 PMP      H161       1      0.141469999833      1.007947000000
   162 pmp_tetramer.pdb_161       4 PMP      H162       1      0.139039992972      1.007947000000
   163 pmp_tetramer.pdb_162       4 PMP      H163       1      0.144779994769      1.007947000000
   164 pmp_tetramer.pdb_163       4 PMP      H164       1      0.144779994769      1.007947000000
   165 pmp_tetramer.pdb_164       4 PMP      H165       1      0.139039992972      1.007947000000
   166 pmp_tetramer.pdb_165       4 PMP      H166       1      0.139320000692      1.007947000000
   167 pmp_tetramer.pdb_166       4 PMP      H167       1      0.138439997716      1.007947000000
   168 pmp_tetramer.pdb_167       4 PMP      H168       1      0.136959999485      1.007947000000
   169 pmp_tetramer.pdb_168       4 PMP      H169       1      0.082740001066      1.007947000000
   170 pmp_tetramer.pdb_169       4 PMP      H170       1      0.046859997942      1.007947000000
   171 pmp_tetramer.pdb_170       4 PMP      H171       1      0.046859997942      1.007947000000
   172 pmp_tetramer.pdb_171       4 PMP      H172       1      0.046859997942      1.007947000000
   173 pmp_tetramer.pdb_172       4 PMP      H173       1      0.330020010157      1.007947000000
   174 pmp_tetramer.pdb_173       4 PMP      H174       1      0.136959999485      1.007947000000
   175 pmp_tetramer.pdb_174       4 PMP      H175       1      0.138439997716      1.007947000000
   176 pmp_tetramer.pdb_175       4 PMP      H176       1      0.154329999967      1.007947000000
   177 pmp_tetramer.pdb_176       5 CAP      C177       1      0.126499995275     12.010780000000
   178 pmp_tetramer.pdb_177       5 CAP      O178       1     -0.439249992685     15.999430000000
   179 pmp_tetramer.pdb_178       5 CAP      H179       1      0.049979999347      1.007947000000
   180 pmp_tetramer.pdb_179       5 CAP      H180       1      0.049979999347      1.007947000000
   181 pmp_tetramer.pdb_180       5 CAP      H181       1      0.049979999347      1.007947000000
   182 pmp_tetramer.pdb_181       6 CAP      C182       1     -0.114710003452     12.010780000000
   183 pmp_tetramer.pdb_182       6 CAP      C183       1      0.186320006533     12.010780000000
   184 pmp_tetramer.pdb_183       6 CAP      C184       1     -0.114710003452     12.010780000000
   185 pmp_tetramer.pdb_184       6 CAP      C185       1     -0.114710003452     12.010780000000
   186 pmp_tetramer.pdb_185       6 CAP      O186       1     -0.449389994459     15.999430000000
   187 pmp_tetramer.pdb_186       6 CAP      C187       1      0.754279970808     12.010780000000
   188 pmp_tetramer.pdb_187       6 CAP      O188       1     -0.603200018720     15.999430000000
   189 pmp_tetramer.pdb_188       6 CAP      H189       1      0.051910001470      1.007947000000
   190 pmp_tetramer.pdb_189       6 CAP      H190       1      0.051910001470      1.007947000000
   191 pmp_tetramer.pdb_190       6 CAP      H191       1      0.051910001470      1.007947000000
   192 pmp_tetramer.pdb_191       6 CAP      H192       1      0.051910001470      1.007947000000
   193 pmp_tetramer.pdb_192       6 CAP      H193       1      0.051910001470      1.007947000000
   194 pmp_tetramer.pdb_193       6 CAP      H194       1      0.051910001470      1.007947000000
   195 pmp_tetramer.pdb_194       6 CAP      H195       1      0.051910001470      1.007947000000
   196 pmp_tetramer.pdb_195       6 CAP      H196       1      0.051910001470      1.007947000000
   197 pmp_tetramer.pdb_196       6 CAP      H197       1      0.051910001470      1.007947000000

[ pairs ]
;ai    aj   funct
    16	    36	     1
    18	    37	     1
    57	    58	     1
   146	   156	     1
   103	   131	     1
     6	    15	     1
    94	    97	     1
   173	   186	     1
    91	    94	     1
   185	   189	     1
   185	   190	     1
    90	   117	     1
   185	   191	     1
   185	   192	     1
   157	   166	     1
     7	    14	     1
   105	   108	     1
   184	   195	     1
    90	   103	     1
     7	    12	     1
     7	    33	     1
   184	   196	     1
   184	   197	     1
   129	   143	     1
   104	   130	     1
    59	    62	     1
    32	    33	     1
    58	    88	     1
    45	    48	     1
   183	   188	     1
    58	    73	     1
    62	    66	     1
     4	    44	     1
   130	   131	     1
    10	    13	     1
   169	   187	     1
    59	    79	     1
    46	    59	     1
   141	   162	     1
   169	   170	     1
   142	   145	     1
   169	   171	     1
   102	   105	     1
   141	   165	     1
   169	   172	     1
   169	   173	     1
   153	   187	     1
   139	   142	     1
    60	    86	     1
   139	   144	     1
   138	   163	     1
     6	    34	     1
   138	   164	     1
    66	   100	     1
   138	   166	     1
    20	    24	     1
    19	    43	     1
    47	    70	     1
   156	   157	     1
    47	    71	     1
   153	   173	     1
    89	    92	     1
   138	   147	     1
    47	    72	     1
    66	    83	     1
   110	   140	     1
    66	    84	     1
   153	   155	     1
   152	   174	     1
   113	   117	     1
    48	    51	     1
    65	    67	     1
   100	   119	     1
   182	   192	     1
    20	    55	     1
    20	    53	     1
   167	   168	     1
    85	    97	     1
   112	   123	     1
    97	   118	     1
   164	   165	     1
    61	    64	     1
   151	   167	     1
    63	    98	     1
    13	    14	     1
    37	    40	     1
    49	    60	     1
    37	    39	     1
    37	    38	     1
    13	    30	     1
    63	    82	     1
    61	    87	     1
    63	    83	     1
   135	   160	     1
    63	    84	     1
    37	    54	     1
    63	    85	     1
    50	    53	     1
   150	   169	     1
     1	    25	     1
    92	   132	     1
     2	    15	     1
    68	    79	     1
   135	   146	     1
    10	    32	     1
    10	    31	     1
   150	   153	     1
   135	   148	     1
   150	   154	     1
   125	   126	     1
    15	    23	     1
    48	    78	     1
   125	   127	     1
   150	   156	     1
    17	    25	     1
   125	   128	     1
   149	   175	     1
   149	   157	     1
    17	    43	     1
   137	   140	     1
    24	    35	     1
    14	    29	     1
    15	    35	     1
    96	   120	     1
     3	    14	     1
   134	   137	     1
   133	   157	     1
    93	   118	     1
    81	    98	     1
    69	    78	     1
    14	    44	     1
   136	   145	     1
     4	     7	     1
   148	   166	     1
     3	    28	     1
    25	    29	     1
    93	   121	     1
   145	   162	     1
    81	    82	     1
    81	    83	     1
    50	    73	     1
    93	   104	     1
    81	    84	     1
   148	   151	     1
    81	    85	     1
    16	    19	     1
   108	   112	     1
    18	    21	     1
   107	   131	     1
    51	    77	     1
   147	   155	     1
    16	    34	     1
   146	   176	     1
   162	   163	     1
    54	    75	     1
    54	    76	     1
    94	   117	     1
    95	    98	     1
     5	    16	     1
    91	   114	     1
    92	    95	     1
    91	   115	     1
   146	   161	     1
     5	    33	     1
    91	   116	     1
   173	   188	     1
     6	     9	     1
    94	   103	     1
    42	    43	     1
    79	    80	     1
   185	   193	     1
   185	   194	     1
    91	   102	     1
     9	   177	     1
   103	   123	     1
   106	   109	     1
   106	   110	     1
   103	   106	     1
   102	   132	     1
   105	   111	     1
     7	    10	     1
    58	    61	     1
   105	   113	     1
   120	   121	     1
   186	   189	     1
    90	    93	     1
   186	   190	     1
     8	    13	     1
   186	   191	     1
   184	   187	     1
   186	   192	     1
   186	   193	     1
    57	    74	     1
    66	    67	     1
    47	    50	     1
     9	    33	     1
    76	    77	     1
   154	   183	     1
    60	    63	     1
   142	   163	     1
   143	   144	     1
   142	   164	     1
     9	    30	     1
   140	   143	     1
    59	    87	     1
   140	   145	     1
   154	   170	     1
   139	   165	     1
   154	   171	     1
   154	   172	     1
    60	    88	     1
   139	   146	     1
   102	   112	     1
     6	    32	     1
     6	    31	     1
    61	    67	     1
     6	    29	     1
    19	    41	     1
   154	   155	     1
    19	    40	     1
    19	    39	     1
    19	    38	     1
   110	   144	     1
   101	   118	     1
    10	   179	     1
    10	   180	     1
    20	    36	     1
    10	   181	     1
    14	    17	     1
    19	    54	     1
    74	    75	     1
   113	   122	     1
   101	   102	     1
   182	   193	     1
   182	   194	     1
   182	   195	     1
    15	    18	     1
   182	   196	     1
    45	    69	     1
    46	    88	     1
   182	   197	     1
    85	    99	     1
   138	   141	     1
    98	   101	     1
    97	   121	     1
   152	   168	     1
   151	   187	     1
    48	    59	     1
    46	    73	     1
    67	    80	     1
    67	    81	     1
    62	    81	     1
   151	   170	     1
   151	   171	     1
   151	   172	     1
   112	   113	     1
    49	    56	     1
   151	   173	     1
    49	    52	     1
    52	    57	     1
    62	    68	     1
    63	    87	     1
     1	     4	     1
    52	    55	     1
   108	   141	     1
   150	   174	     1
    22	    40	     1
   107	   142	     1
    22	    39	     1
   123	   124	     1
   125	   129	     1
    17	    23	     1
   137	   157	     1
   136	   176	     1
    23	    37	     1
    22	    56	     1
   110	   126	     1
    23	    36	     1
    17	    20	     1
    68	    69	     1
    65	    98	     1
    64	    80	     1
   135	   138	     1
   110	   111	     1
    51	    58	     1
   137	   144	     1
    14	    24	     1
    49	    69	     1
    65	    85	     1
   136	   147	     1
     3	    27	     1
     3	     6	     1
   148	   168	     1
     3	    26	     1
    54	    57	     1
   108	   130	     1
    90	   132	     1
    50	    75	     1
    50	    76	     1
    12	    31	     1
    50	    78	     1
   147	   175	     1
    53	    74	     1
     4	    15	     1
     4	    13	     1
    53	    77	     1
    93	    96	     1
    95	   100	     1
    94	   119	     1
    94	   120	     1
    95	   102	     1
   107	   123	     1
    94	   122	     1
     5	    12	     1
   109	   129	     1
   104	   132	     1
     5	    30	     1
    16	    44	     1
    41	    55	     1
   106	   125	     1
    92	   101	     1
   109	   111	     1
    16	    42	     1
   174	   175	     1
    18	    42	     1
   146	   149	     1
    91	   104	     1
    11	   177	     1
   106	   112	     1
   105	   131	     1
    55	    56	     1
     2	    29	     1
    59	    67	     1
   103	   111	     1
   118	   119	     1
     2	    44	     1
   185	   187	     1
   157	   161	     1
     8	    11	     1
   184	   189	     1
   104	   122	     1
   184	   190	     1
   186	   194	     1
   184	   191	     1
   186	   195	     1
   104	   124	     1
   186	   196	     1
   186	   197	     1
   129	   141	     1
   104	   107	     1
    30	    31	     1
    47	    60	     1
    11	    12	     1
    47	    58	     1
   155	   168	     1
     4	    34	     1
   155	   169	     1
   140	   164	     1
    58	    68	     1
     8	   178	     1
    56	    75	     1
    46	    49	     1
    89	   113	     1
   102	   117	     1
    19	    35	     1
    60	    78	     1
   156	   167	     1
    60	    80	     1
    98	   119	     1
    66	    96	     1
    98	   120	     1
   138	   161	     1
   152	   186	     1
   152	   188	     1
    62	    65	     1
   125	   142	     1
    66	    82	     1
    48	    57	     1
    86	    87	     1
    21	    23	     1
     8	    32	     1
    20	    42	     1
   182	   187	     1
    21	    41	     1
    62	    86	     1
   152	   156	     1
   151	   175	     1
    12	   178	     1
    22	    23	     1
    21	    54	     1
    99	   100	     1
   108	   143	     1
   111	   124	     1
    22	    38	     1
   111	   125	     1
    37	    41	     1
    35	    36	     1
    64	    97	     1
     2	     5	     1
   110	   127	     1
    63	    79	     1
   110	   128	     1
    64	    99	     1
   134	   176	     1
    50	    59	     1
    22	    52	     1
   135	   158	     1
   137	   162	     1
   135	   159	     1
    48	    88	     1
   137	   165	     1
    51	    56	     1
    61	    69	     1
   134	   161	     1
   136	   166	     1
    51	    54	     1
    64	    86	     1
   137	   148	     1
   109	   142	     1
    24	    25	     1
    64	    68	     1
    49	    74	     1
   149	   152	     1
   134	   147	     1
    15	    43	     1
    49	    77	     1
   149	   155	     1
   148	   174	     1
   148	   176	     1
    52	    76	     1
     3	    16	     1
    93	   113	     1
   136	   139	     1
    69	    73	     1
    96	    99	     1
    25	    34	     1
    96	   101	     1
   133	   136	     1
    95	   121	     1
   108	   124	     1
    93	   100	     1
   107	   126	     1
   147	   167	     1
   107	   127	     1
    92	   122	     1
     5	     8	     1
   107	   128	     1
    18	    24	     1
   144	   163	     1
   107	   129	     1
    41	    53	     1
    92	   103	     1
    18	    22	     1
   145	   146	     1
   147	   150	     1
     5	    25	     1
   106	   130	     1

[ bonds ]
;ai    aj   funct r k
     1      2      1      0.143632390591  189984.684332368197 
     1     26      1      0.109420646075  299423.062557625177 
     1     27      1      0.109420646075  299423.062557625177 
     1     28      1      0.109420646075  299423.062557625177 
     2      3      1      0.137202606628  266731.066406706930 
     3      4      1      0.140070606401  315369.603109081567 
     3     25      1      0.140070606401  315369.603109081567 
     4      5      1      0.140070606401  315369.603109081567 
     4     29      1      0.108603610657  323372.939138590940 
     5      6      1      0.146787322362  223784.907186336932 
     5     14      1      0.140070606401  315369.603109081567 
     6      7      1      0.140070606401  315369.603109081567 
     6     13      1      0.140070606401  315369.603109081567 
     7      8      1      0.140070606401  315369.603109081567 
     7     30      1      0.108603610657  323372.939138590940 
     8      9      1      0.140070606401  315369.603109081567 
     8     31      1      0.108603610657  323372.939138590940 
     9     10      1      0.146787322362  223784.907186336932 
     9     12      1      0.140070606401  315369.603109081567 
    10     11      1      0.122500229618  637673.816836400889 
    10    178      1      0.135606196339  243795.038367059984 
    12     13      1      0.140070606401  315369.603109081567 
    12     32      1      0.108603610657  323372.939138590940 
    13     33      1      0.108603610657  323372.939138590940 
    14     15      1      0.140070606401  315369.603109081567 
    14     34      1      0.108603610657  323372.939138590940 
    15     16      1      0.146787322362  223784.907186336932 
    15     25      1      0.140070606401  315369.603109081567 
    16     17      1      0.140070606401  315369.603109081567 
    16     24      1      0.140070606401  315369.603109081567 
    17     18      1      0.140070606401  315369.603109081567 
    17     35      1      0.108603610657  323372.939138590940 
    18     19      1      0.140070606401  315369.603109081567 
    18     36      1      0.108603610657  323372.939138590940 
    19     20      1      0.150959128588  200304.454300773097 
    19     23      1      0.140070606401  315369.603109081567 
    20     21      1      0.153362760384  180164.203623913403 
    20     22      1      0.146209979488  202028.005744964030 
    20     37      1      0.109420646075  299423.062557625177 
    21     38      1      0.109420646075  299423.062557625177 
    21     39      1      0.109420646075  299423.062557625177 
    21     40      1      0.109420646075  299423.062557625177 
    22     41      1      0.101860473038  402492.840307690029 
    22     54      1      0.138376574172  273614.770187574963 
    23     24      1      0.140070606401  315369.603109081567 
    23     42      1      0.108603610657  323372.939138590940 
    24     43      1      0.108603610657  323372.939138590940 
    25     44      1      0.108603610657  323372.939138590940 
    45     46      1      0.143632390591  189984.684332368197 
    45     70      1      0.109420646075  299423.062557625177 
    45     71      1      0.109420646075  299423.062557625177 
    45     72      1      0.109420646075  299423.062557625177 
    46     47      1      0.137202606628  266731.066406706930 
    47     48      1      0.140070606401  315369.603109081567 
    47     69      1      0.140070606401  315369.603109081567 
    48     49      1      0.140070606401  315369.603109081567 
    48     73      1      0.108603610657  323372.939138590940 
    49     50      1      0.146787322362  223784.907186336932 
    49     58      1      0.140070606401  315369.603109081567 
    50     51      1      0.140070606401  315369.603109081567 
    50     57      1      0.140070606401  315369.603109081567 
    51     52      1      0.140070606401  315369.603109081567 
    51     74      1      0.108603610657  323372.939138590940 
    52     53      1      0.140070606401  315369.603109081567 
    52     75      1      0.108603610657  323372.939138590940 
    53     54      1      0.146787322362  223784.907186336932 
    53     56      1      0.140070606401  315369.603109081567 
    54     55      1      0.122500229618  637673.816836400889 
    56     57      1      0.140070606401  315369.603109081567 
    56     76      1      0.108603610657  323372.939138590940 
    57     77      1      0.108603610657  323372.939138590940 
    58     59      1      0.140070606401  315369.603109081567 
    58     78      1      0.108603610657  323372.939138590940 
    59     60      1      0.146787322362  223784.907186336932 
    59     69      1      0.140070606401  315369.603109081567 
    60     61      1      0.140070606401  315369.603109081567 
    60     68      1      0.140070606401  315369.603109081567 
    61     62      1      0.140070606401  315369.603109081567 
    61     79      1      0.108603610657  323372.939138590940 
    62     63      1      0.140070606401  315369.603109081567 
    62     80      1      0.108603610657  323372.939138590940 
    63     64      1      0.150959128588  200304.454300773097 
    63     67      1      0.140070606401  315369.603109081567 
    64     65      1      0.153362760384  180164.203623913403 
    64     66      1      0.146209979488  202028.005744964030 
    64     81      1      0.109420646075  299423.062557625177 
    65     82      1      0.109420646075  299423.062557625177 
    65     83      1      0.109420646075  299423.062557625177 
    65     84      1      0.109420646075  299423.062557625177 
    66     85      1      0.101860473038  402492.840307690029 
    66     98      1      0.138376574172  273614.770187574963 
    67     68      1      0.140070606401  315369.603109081567 
    67     86      1      0.108603610657  323372.939138590940 
    68     87      1      0.108603610657  323372.939138590940 
    69     88      1      0.108603610657  323372.939138590940 
    89     90      1      0.143632390591  189984.684332368197 
    89    114      1      0.109420646075  299423.062557625177 
    89    115      1      0.109420646075  299423.062557625177 
    89    116      1      0.109420646075  299423.062557625177 
    90     91      1      0.137202606628  266731.066406706930 
    91     92      1      0.140070606401  315369.603109081567 
    91    113      1      0.140070606401  315369.603109081567 
    92     93      1      0.140070606401  315369.603109081567 
    92    117      1      0.108603610657  323372.939138590940 
    93     94      1      0.146787322362  223784.907186336932 
    93    102      1      0.140070606401  315369.603109081567 
    94     95      1      0.140070606401  315369.603109081567 
    94    101      1      0.140070606401  315369.603109081567 
    95     96      1      0.140070606401  315369.603109081567 
    95    118      1      0.108603610657  323372.939138590940 
    96     97      1      0.140070606401  315369.603109081567 
    96    119      1      0.108603610657  323372.939138590940 
    97     98      1      0.146787322362  223784.907186336932 
    97    100      1      0.140070606401  315369.603109081567 
    98     99      1      0.122500229618  637673.816836400889 
   100    101      1      0.140070606401  315369.603109081567 
   100    120      1      0.108603610657  323372.939138590940 
   101    121      1      0.108603610657  323372.939138590940 
   102    103      1      0.140070606401  315369.603109081567 
   102    122      1      0.108603610657  323372.939138590940 
   103    104      1      0.146787322362  223784.907186336932 
   103    113      1      0.140070606401  315369.603109081567 
   104    105      1      0.140070606401  315369.603109081567 
   104    112      1      0.140070606401  315369.603109081567 
   105    106      1      0.140070606401  315369.603109081567 
   105    123      1      0.108603610657  323372.939138590940 
   106    107      1      0.140070606401  315369.603109081567 
   106    124      1      0.108603610657  323372.939138590940 
   107    108      1      0.150959128588  200304.454300773097 
   107    111      1      0.140070606401  315369.603109081567 
   108    109      1      0.153362760384  180164.203623913403 
   108    110      1      0.146209979488  202028.005744964030 
   108    125      1      0.109420646075  299423.062557625177 
   109    126      1      0.109420646075  299423.062557625177 
   109    127      1      0.109420646075  299423.062557625177 
   109    128      1      0.109420646075  299423.062557625177 
   110    129      1      0.101860473038  402492.840307690029 
   110    142      1      0.138376574172  273614.770187574963 
   111    112      1      0.140070606401  315369.603109081567 
   111    130      1      0.108603610657  323372.939138590940 
   112    131      1      0.108603610657  323372.939138590940 
   113    132      1      0.108603610657  323372.939138590940 
   133    134      1      0.143632390591  189984.684332368197 
   133    158      1      0.109420646075  299423.062557625177 
   133    159      1      0.109420646075  299423.062557625177 
   133    160      1      0.109420646075  299423.062557625177 
   134    135      1      0.137202606628  266731.066406706930 
   135    136      1      0.140070606401  315369.603109081567 
   135    157      1      0.140070606401  315369.603109081567 
   136    137      1      0.140070606401  315369.603109081567 
   136    161      1      0.108603610657  323372.939138590940 
   137    138      1      0.146787322362  223784.907186336932 
   137    146      1      0.140070606401  315369.603109081567 
   138    139      1      0.140070606401  315369.603109081567 
   138    145      1      0.140070606401  315369.603109081567 
   139    140      1      0.140070606401  315369.603109081567 
   139    162      1      0.108603610657  323372.939138590940 
   140    141      1      0.140070606401  315369.603109081567 
   140    163      1      0.108603610657  323372.939138590940 
   141    142      1      0.146787322362  223784.907186336932 
   141    144      1      0.140070606401  315369.603109081567 
   142    143      1      0.122500229618  637673.816836400889 
   144    145      1      0.140070606401  315369.603109081567 
   144    164      1      0.108603610657  323372.939138590940 
   145    165      1      0.108603610657  323372.939138590940 
   146    147      1      0.140070606401  315369.603109081567 
   146    166      1      0.108603610657  323372.939138590940 
   147    148      1      0.146787322362  223784.907186336932 
   147    157      1      0.140070606401  315369.603109081567 
   148    149      1      0.140070606401  315369.603109081567 
   148    156      1      0.140070606401  315369.603109081567 
   149    150      1      0.140070606401  315369.603109081567 
   149    167      1      0.108603610657  323372.939138590940 
   150    151      1      0.140070606401  315369.603109081567 
   150    168      1      0.108603610657  323372.939138590940 
   151    152      1      0.150959128588  200304.454300773097 
   151    155      1      0.140070606401  315369.603109081567 
   152    153      1      0.153362760384  180164.203623913403 
   152    154      1      0.146209979488  202028.005744964030 
   152    169      1      0.109420646075  299423.062557625177 
   153    170      1      0.109420646075  299423.062557625177 
   153    171      1      0.109420646075  299423.062557625177 
   153    172      1      0.109420646075  299423.062557625177 
   154    173      1      0.101860473038  402492.840307690029 
   154    187      1      0.138376574172  273614.770187574963 
   155    156      1      0.140070606401  315369.603109081567 
   155    174      1      0.108603610657  323372.939138590940 
   156    175      1      0.108603610657  323372.939138590940 
   157    176      1      0.108603610657  323372.939138590940 
   177    178      1      0.143632390591  189984.684332368197 
   177    179      1      0.109420646075  299423.062557625177 
   177    180      1      0.109420646075  299423.062557625177 
   177    181      1      0.109420646075  299423.062557625177 
   182    183      1      0.153362760384  180164.203623913403 
   182    189      1      0.109420646075  299423.062557625177 
   182    190      1      0.109420646075  299423.062557625177 
   182    191      1      0.109420646075  299423.062557625177 
   183    184      1      0.153362760384  180164.203623913403 
   183    185      1      0.153362760384  180164.203623913403 
   183    186      1      0.143632390591  189984.684332368197 
   184    192      1      0.109420646075  299423.062557625177 
   184    193      1      0.109420646075  299423.062557625177 
   184    194      1      0.109420646075  299423.062557625177 
   185    195      1      0.109420646075  299423.062557625177 
   185    196      1      0.109420646075  299423.062557625177 
   185    197      1      0.109420646075  299423.062557625177 
   186    187      1      0.135606196339  243795.038367059984 
   187    188      1      0.122500229618  637673.816836400889 

[ angles ]
;ai    aj   ak   funct theta  k
     1      2      3      1     112.873616114500    1003.288803783688 
     2      1     26      1     109.938052758400     558.616871667870 
     2      1     27      1     109.938052758400     558.616871667870 
     2      1     28      1     109.938052758400     558.616871667870 
     2      3      4      1     120.104999638600     707.494800457430 
     2      3     25      1     120.104999638600     707.494800457430 
     3      4      5      1     120.104999638600     707.494800457430 
     3      4     29      1     119.854485991700     275.494453586476 
     3     25     15      1     120.104999638600     707.494800457430 
     3     25     44      1     119.854485991700     275.494453586476 
     4      3     25      1     120.104999638600     707.494800457430 
     4      5      6      1     120.104999638600     707.494800457430 
     4      5     14      1     120.104999638600     707.494800457430 
     5      4     29      1     119.854485991700     275.494453586476 
     5      6      7      1     120.104999638600     707.494800457430 
     5      6     13      1     120.104999638600     707.494800457430 
     5     14     15      1     120.104999638600     707.494800457430 
     5     14     34      1     119.854485991700     275.494453586476 
     6      5     14      1     120.104999638600     707.494800457430 
     6      7      8      1     120.104999638600     707.494800457430 
     6      7     30      1     119.854485991700     275.494453586476 
     6     13     12      1     120.104999638600     707.494800457430 
     6     13     33      1     119.854485991700     275.494453586476 
     7      6     13      1     120.104999638600     707.494800457430 
     7      8      9      1     120.104999638600     707.494800457430 
     7      8     31      1     119.854485991700     275.494453586476 
     8      7     30      1     119.854485991700     275.494453586476 
     8      9     10      1     120.104999638600     707.494800457430 
     8      9     12      1     120.104999638600     707.494800457430 
     9      8     31      1     119.854485991700     275.494453586476 
     9     10     11      1     120.104999638600     707.494800457430 
     9     10    178      1     120.104999638600     707.494800457430 
     9     12     13      1     120.104999638600     707.494800457430 
     9     12     32      1     119.854485991700     275.494453586476 
    10      9     12      1     120.104999638600     707.494800457430 
    10    178    177      1     112.873616114500    1003.288803783688 
    11     10    178      1     123.605890003500     529.778359969850 
    12     13     33      1     119.854485991700     275.494453586476 
    13     12     32      1     119.854485991700     275.494453586476 
    14     15     16      1     120.104999638600     707.494800457430 
    14     15     25      1     120.104999638600     707.494800457430 
    15     14     34      1     119.854485991700     275.494453586476 
    15     16     17      1     120.104999638600     707.494800457430 
    15     16     24      1     120.104999638600     707.494800457430 
    15     25     44      1     119.854485991700     275.494453586476 
    16     15     25      1     120.104999638600     707.494800457430 
    16     17     18      1     120.104999638600     707.494800457430 
    16     17     35      1     119.854485991700     275.494453586476 
    16     24     23      1     120.104999638600     707.494800457430 
    16     24     43      1     119.854485991700     275.494453586476 
    17     16     24      1     120.104999638600     707.494800457430 
    17     18     19      1     120.104999638600     707.494800457430 
    17     18     36      1     119.854485991700     275.494453586476 
    18     17     35      1     119.854485991700     275.494453586476 
    18     19     20      1     120.104999638600     707.494800457430 
    18     19     23      1     120.104999638600     707.494800457430 
    19     18     36      1     119.854485991700     275.494453586476 
    19     20     21      1     109.938052758400     558.616871667870 
    19     20     22      1     109.938052758400     558.616871667870 
    19     20     37      1     109.938052758400     558.616871667870 
    19     23     24      1     120.104999638600     707.494800457430 
    19     23     42      1     119.854485991700     275.494453586476 
    20     19     23      1     120.104999638600     707.494800457430 
    20     21     38      1     109.938052758400     558.616871667870 
    20     21     39      1     109.938052758400     558.616871667870 
    20     21     40      1     109.938052758400     558.616871667870 
    20     22     41      1     118.063661129300     310.493309961378 
    20     22     54      1     121.770534386700     665.074567904266 
    21     20     22      1     109.938052758400     558.616871667870 
    21     20     37      1     109.938052758400     558.616871667870 
    22     20     37      1     109.938052758400     558.616871667870 
    22     54     53      1     120.104999638600     707.494800457430 
    22     54     55      1     120.104999638600     707.494800457430 
    23     24     43      1     119.854485991700     275.494453586476 
    24     23     42      1     119.854485991700     275.494453586476 
    26      1     27      1     108.354313526900     307.746905535118 
    26      1     28      1     108.354313526900     307.746905535118 
    27      1     28      1     108.354313526900     307.746905535118 
    38     21     39      1     108.354313526900     307.746905535118 
    38     21     40      1     108.354313526900     307.746905535118 
    39     21     40      1     108.354313526900     307.746905535118 
    41     22     54      1     118.063661129300     310.493309961378 
    45     46     47      1     112.873616114500    1003.288803783688 
    46     45     70      1     109.938052758400     558.616871667870 
    46     45     71      1     109.938052758400     558.616871667870 
    46     45     72      1     109.938052758400     558.616871667870 
    46     47     48      1     120.104999638600     707.494800457430 
    46     47     69      1     120.104999638600     707.494800457430 
    47     48     49      1     120.104999638600     707.494800457430 
    47     48     73      1     119.854485991700     275.494453586476 
    47     69     59      1     120.104999638600     707.494800457430 
    47     69     88      1     119.854485991700     275.494453586476 
    48     47     69      1     120.104999638600     707.494800457430 
    48     49     50      1     120.104999638600     707.494800457430 
    48     49     58      1     120.104999638600     707.494800457430 
    49     48     73      1     119.854485991700     275.494453586476 
    49     50     51      1     120.104999638600     707.494800457430 
    49     50     57      1     120.104999638600     707.494800457430 
    49     58     59      1     120.104999638600     707.494800457430 
    49     58     78      1     119.854485991700     275.494453586476 
    50     49     58      1     120.104999638600     707.494800457430 
    50     51     52      1     120.104999638600     707.494800457430 
    50     51     74      1     119.854485991700     275.494453586476 
    50     57     56      1     120.104999638600     707.494800457430 
    50     57     77      1     119.854485991700     275.494453586476 
    51     50     57      1     120.104999638600     707.494800457430 
    51     52     53      1     120.104999638600     707.494800457430 
    51     52     75      1     119.854485991700     275.494453586476 
    52     51     74      1     119.854485991700     275.494453586476 
    52     53     54      1     120.104999638600     707.494800457430 
    52     53     56      1     120.104999638600     707.494800457430 
    53     52     75      1     119.854485991700     275.494453586476 
    53     54     55      1     120.104999638600     707.494800457430 
    53     56     57      1     120.104999638600     707.494800457430 
    53     56     76      1     119.854485991700     275.494453586476 
    54     53     56      1     120.104999638600     707.494800457430 
    56     57     77      1     119.854485991700     275.494453586476 
    57     56     76      1     119.854485991700     275.494453586476 
    58     59     60      1     120.104999638600     707.494800457430 
    58     59     69      1     120.104999638600     707.494800457430 
    59     58     78      1     119.854485991700     275.494453586476 
    59     60     61      1     120.104999638600     707.494800457430 
    59     60     68      1     120.104999638600     707.494800457430 
    59     69     88      1     119.854485991700     275.494453586476 
    60     59     69      1     120.104999638600     707.494800457430 
    60     61     62      1     120.104999638600     707.494800457430 
    60     61     79      1     119.854485991700     275.494453586476 
    60     68     67      1     120.104999638600     707.494800457430 
    60     68     87      1     119.854485991700     275.494453586476 
    61     60     68      1     120.104999638600     707.494800457430 
    61     62     63      1     120.104999638600     707.494800457430 
    61     62     80      1     119.854485991700     275.494453586476 
    62     61     79      1     119.854485991700     275.494453586476 
    62     63     64      1     120.104999638600     707.494800457430 
    62     63     67      1     120.104999638600     707.494800457430 
    63     62     80      1     119.854485991700     275.494453586476 
    63     64     65      1     109.938052758400     558.616871667870 
    63     64     66      1     109.938052758400     558.616871667870 
    63     64     81      1     109.938052758400     558.616871667870 
    63     67     68      1     120.104999638600     707.494800457430 
    63     67     86      1     119.854485991700     275.494453586476 
    64     63     67      1     120.104999638600     707.494800457430 
    64     65     82      1     109.938052758400     558.616871667870 
    64     65     83      1     109.938052758400     558.616871667870 
    64     65     84      1     109.938052758400     558.616871667870 
    64     66     85      1     118.063661129300     310.493309961378 
    64     66     98      1     121.770534386700     665.074567904266 
    65     64     66      1     109.938052758400     558.616871667870 
    65     64     81      1     109.938052758400     558.616871667870 
    66     64     81      1     109.938052758400     558.616871667870 
    66     98     97      1     120.104999638600     707.494800457430 
    66     98     99      1     120.104999638600     707.494800457430 
    67     68     87      1     119.854485991700     275.494453586476 
    68     67     86      1     119.854485991700     275.494453586476 
    70     45     71      1     108.354313526900     307.746905535118 
    70     45     72      1     108.354313526900     307.746905535118 
    71     45     72      1     108.354313526900     307.746905535118 
    82     65     83      1     108.354313526900     307.746905535118 
    82     65     84      1     108.354313526900     307.746905535118 
    83     65     84      1     108.354313526900     307.746905535118 
    85     66     98      1     118.063661129300     310.493309961378 
    89     90     91      1     112.873616114500    1003.288803783688 
    90     89    114      1     109.938052758400     558.616871667870 
    90     89    115      1     109.938052758400     558.616871667870 
    90     89    116      1     109.938052758400     558.616871667870 
    90     91     92      1     120.104999638600     707.494800457430 
    90     91    113      1     120.104999638600     707.494800457430 
    91     92     93      1     120.104999638600     707.494800457430 
    91     92    117      1     119.854485991700     275.494453586476 
    91    113    103      1     120.104999638600     707.494800457430 
    91    113    132      1     119.854485991700     275.494453586476 
    92     91    113      1     120.104999638600     707.494800457430 
    92     93     94      1     120.104999638600     707.494800457430 
    92     93    102      1     120.104999638600     707.494800457430 
    93     92    117      1     119.854485991700     275.494453586476 
    93     94     95      1     120.104999638600     707.494800457430 
    93     94    101      1     120.104999638600     707.494800457430 
    93    102    103      1     120.104999638600     707.494800457430 
    93    102    122      1     119.854485991700     275.494453586476 
    94     93    102      1     120.104999638600     707.494800457430 
    94     95     96      1     120.104999638600     707.494800457430 
    94     95    118      1     119.854485991700     275.494453586476 
    94    101    100      1     120.104999638600     707.494800457430 
    94    101    121      1     119.854485991700     275.494453586476 
    95     94    101      1     120.104999638600     707.494800457430 
    95     96     97      1     120.104999638600     707.494800457430 
    95     96    119      1     119.854485991700     275.494453586476 
    96     95    118      1     119.854485991700     275.494453586476 
    96     97     98      1     120.104999638600     707.494800457430 
    96     97    100      1     120.104999638600     707.494800457430 
    97     96    119      1     119.854485991700     275.494453586476 
    97     98     99      1     120.104999638600     707.494800457430 
    97    100    101      1     120.104999638600     707.494800457430 
    97    100    120      1     119.854485991700     275.494453586476 
    98     97    100      1     120.104999638600     707.494800457430 
   100    101    121      1     119.854485991700     275.494453586476 
   101    100    120      1     119.854485991700     275.494453586476 
   102    103    104      1     120.104999638600     707.494800457430 
   102    103    113      1     120.104999638600     707.494800457430 
   103    102    122      1     119.854485991700     275.494453586476 
   103    104    105      1     120.104999638600     707.494800457430 
   103    104    112      1     120.104999638600     707.494800457430 
   103    113    132      1     119.854485991700     275.494453586476 
   104    103    113      1     120.104999638600     707.494800457430 
   104    105    106      1     120.104999638600     707.494800457430 
   104    105    123      1     119.854485991700     275.494453586476 
   104    112    111      1     120.104999638600     707.494800457430 
   104    112    131      1     119.854485991700     275.494453586476 
   105    104    112      1     120.104999638600     707.494800457430 
   105    106    107      1     120.104999638600     707.494800457430 
   105    106    124      1     119.854485991700     275.494453586476 
   106    105    123      1     119.854485991700     275.494453586476 
   106    107    108      1     120.104999638600     707.494800457430 
   106    107    111      1     120.104999638600     707.494800457430 
   107    106    124      1     119.854485991700     275.494453586476 
   107    108    109      1     109.938052758400     558.616871667870 
   107    108    110      1     109.938052758400     558.616871667870 
   107    108    125      1     109.938052758400     558.616871667870 
   107    111    112      1     120.104999638600     707.494800457430 
   107    111    130      1     119.854485991700     275.494453586476 
   108    107    111      1     120.104999638600     707.494800457430 
   108    109    126      1     109.938052758400     558.616871667870 
   108    109    127      1     109.938052758400     558.616871667870 
   108    109    128      1     109.938052758400     558.616871667870 
   108    110    129      1     118.063661129300     310.493309961378 
   108    110    142      1     121.770534386700     665.074567904266 
   109    108    110      1     109.938052758400     558.616871667870 
   109    108    125      1     109.938052758400     558.616871667870 
   110    108    125      1     109.938052758400     558.616871667870 
   110    142    141      1     120.104999638600     707.494800457430 
   110    142    143      1     120.104999638600     707.494800457430 
   111    112    131      1     119.854485991700     275.494453586476 
   112    111    130      1     119.854485991700     275.494453586476 
   114     89    115      1     108.354313526900     307.746905535118 
   114     89    116      1     108.354313526900     307.746905535118 
   115     89    116      1     108.354313526900     307.746905535118 
   126    109    127      1     108.354313526900     307.746905535118 
   126    109    128      1     108.354313526900     307.746905535118 
   127    109    128      1     108.354313526900     307.746905535118 
   129    110    142      1     118.063661129300     310.493309961378 
   133    134    135      1     112.873616114500    1003.288803783688 
   134    133    158      1     109.938052758400     558.616871667870 
   134    133    159      1     109.938052758400     558.616871667870 
   134    133    160      1     109.938052758400     558.616871667870 
   134    135    136      1     120.104999638600     707.494800457430 
   134    135    157      1     120.104999638600     707.494800457430 
   135    136    137      1     120.104999638600     707.494800457430 
   135    136    161      1     119.854485991700     275.494453586476 
   135    157    147      1     120.104999638600     707.494800457430 
   135    157    176      1     119.854485991700     275.494453586476 
   136    135    157      1     120.104999638600     707.494800457430 
   136    137    138      1     120.104999638600     707.494800457430 
   136    137    146      1     120.104999638600     707.494800457430 
   137    136    161      1     119.854485991700     275.494453586476 
   137    138    139      1     120.104999638600     707.494800457430 
   137    138    145      1     120.104999638600     707.494800457430 
   137    146    147      1     120.104999638600     707.494800457430 
   137    146    166      1     119.854485991700     275.494453586476 
   138    137    146      1     120.104999638600     707.494800457430 
   138    139    140      1     120.104999638600     707.494800457430 
   138    139    162      1     119.854485991700     275.494453586476 
   138    145    144      1     120.104999638600     707.494800457430 
   138    145    165      1     119.854485991700     275.494453586476 
   139    138    145      1     120.104999638600     707.494800457430 
   139    140    141      1     120.104999638600     707.494800457430 
   139    140    163      1     119.854485991700     275.494453586476 
   140    139    162      1     119.854485991700     275.494453586476 
   140    141    142      1     120.104999638600     707.494800457430 
   140    141    144      1     120.104999638600     707.494800457430 
   141    140    163      1     119.854485991700     275.494453586476 
   141    142    143      1     120.104999638600     707.494800457430 
   141    144    145      1     120.104999638600     707.494800457430 
   141    144    164      1     119.854485991700     275.494453586476 
   142    141    144      1     120.104999638600     707.494800457430 
   144    145    165      1     119.854485991700     275.494453586476 
   145    144    164      1     119.854485991700     275.494453586476 
   146    147    148      1     120.104999638600     707.494800457430 
   146    147    157      1     120.104999638600     707.494800457430 
   147    146    166      1     119.854485991700     275.494453586476 
   147    148    149      1     120.104999638600     707.494800457430 
   147    148    156      1     120.104999638600     707.494800457430 
   147    157    176      1     119.854485991700     275.494453586476 
   148    147    157      1     120.104999638600     707.494800457430 
   148    149    150      1     120.104999638600     707.494800457430 
   148    149    167      1     119.854485991700     275.494453586476 
   148    156    155      1     120.104999638600     707.494800457430 
   148    156    175      1     119.854485991700     275.494453586476 
   149    148    156      1     120.104999638600     707.494800457430 
   149    150    151      1     120.104999638600     707.494800457430 
   149    150    168      1     119.854485991700     275.494453586476 
   150    149    167      1     119.854485991700     275.494453586476 
   150    151    152      1     120.104999638600     707.494800457430 
   150    151    155      1     120.104999638600     707.494800457430 
   151    150    168      1     119.854485991700     275.494453586476 
   151    152    153      1     109.938052758400     558.616871667870 
   151    152    154      1     109.938052758400     558.616871667870 
   151    152    169      1     109.938052758400     558.616871667870 
   151    155    156      1     120.104999638600     707.494800457430 
   151    155    174      1     119.854485991700     275.494453586476 
   152    151    155      1     120.104999638600     707.494800457430 
   152    153    170      1     109.938052758400     558.616871667870 
   152    153    171      1     109.938052758400     558.616871667870 
   152    153    172      1     109.938052758400     558.616871667870 
   152    154    173      1     118.063661129300     310.493309961378 
   152    154    187      1     121.770534386700     665.074567904266 
   153    152    154      1     109.938052758400     558.616871667870 
   153    152    169      1     109.938052758400     558.616871667870 
   154    152    169      1     109.938052758400     558.616871667870 
   154    187    186      1     120.104999638600     707.494800457430 
   154    187    188      1     120.104999638600     707.494800457430 
   155    156    175      1     119.854485991700     275.494453586476 
   156    155    174      1     119.854485991700     275.494453586476 
   158    133    159      1     108.354313526900     307.746905535118 
   158    133    160      1     108.354313526900     307.746905535118 
   159    133    160      1     108.354313526900     307.746905535118 
   170    153    171      1     108.354313526900     307.746905535118 
   170    153    172      1     108.354313526900     307.746905535118 
   171    153    172      1     108.354313526900     307.746905535118 
   173    154    187      1     118.063661129300     310.493309961378 
   178    177    179      1     109.938052758400     558.616871667870 
   178    177    180      1     109.938052758400     558.616871667870 
   178    177    181      1     109.938052758400     558.616871667870 
   179    177    180      1     108.354313526900     307.746905535118 
   179    177    181      1     108.354313526900     307.746905535118 
   180    177    181      1     108.354313526900     307.746905535118 
   182    183    184      1     109.938052758400     558.616871667870 
   182    183    185      1     109.938052758400     558.616871667870 
   182    183    186      1     109.938052758400     558.616871667870 
   183    182    189      1     109.938052758400     558.616871667870 
   183    182    190      1     109.938052758400     558.616871667870 
   183    182    191      1     109.938052758400     558.616871667870 
   183    184    192      1     109.938052758400     558.616871667870 
   183    184    193      1     109.938052758400     558.616871667870 
   183    184    194      1     109.938052758400     558.616871667870 
   183    185    195      1     109.938052758400     558.616871667870 
   183    185    196      1     109.938052758400     558.616871667870 
   183    185    197      1     109.938052758400     558.616871667870 
   183    186    187      1     112.873616114500    1003.288803783688 
   184    183    185      1     109.938052758400     558.616871667870 
   184    183    186      1     109.938052758400     558.616871667870 
   185    183    186      1     109.938052758400     558.616871667870 
   186    187    188      1     123.605890003500     529.778359969850 
   189    182    190      1     108.354313526900     307.746905535118 
   189    182    191      1     108.354313526900     307.746905535118 
   190    182    191      1     108.354313526900     307.746905535118 
   192    184    193      1     108.354313526900     307.746905535118 
   192    184    194      1     108.354313526900     307.746905535118 
   193    184    194      1     108.354313526900     307.746905535118 
   195    185    196      1     108.354313526900     307.746905535118 
   195    185    197      1     108.354313526900     307.746905535118 
   196    185    197      1     108.354313526900     307.746905535118 

[ dihedrals ]
;ai    aj   ak   al   funct phi  k
     1     2     3     4     1      0.000000000000      0.228710564444                 1
     1     2     3     4     1    180.000000000000      9.741228531000                 2
     1     2     3     4     1      0.000000000000      1.144369388689                 3
     1     2     3     4     1    180.000000000000      0.672212899192                 4
     1     2     3    25     1      0.000000000000      0.228710564444                 1
     1     2     3    25     1    180.000000000000      9.741228531000                 2
     1     2     3    25     1      0.000000000000      1.144369388689                 3
     1     2     3    25     1    180.000000000000      0.672212899192                 4
     2     3     4     5     1    180.000000000000     13.675298757543                 2
     2     3     4    29     1    180.000000000000     13.675298757543                 2
     2     3    25    15     1    180.000000000000     13.675298757543                 2
     2     3    25    44     1    180.000000000000     13.675298757543                 2
     3     2     1    26     1      0.000000000000      1.100857953953                 3
     3     2     1    27     1      0.000000000000      1.100857953953                 3
     3     2     1    28     1      0.000000000000      1.100857953953                 3
     3     4     5     6     1    180.000000000000     13.675298757543                 2
     3     4     5    14     1    180.000000000000     13.675298757543                 2
     3    25    15    14     1    180.000000000000     13.675298757543                 2
     3    25    15    16     1    180.000000000000     13.675298757543                 2
     4     3    25    15     1    180.000000000000     13.675298757543                 2
     4     3    25    44     1    180.000000000000     13.675298757543                 2
     4     5     6     7     1      0.000000000000     -0.001361031363                 1
     4     5     6     7     1    180.000000000000      3.849547945820                 2
     4     5     6     7     1      0.000000000000     -0.005316695217                 3
     4     5     6     7     1    180.000000000000      0.042135867581                 4
     4     5     6    13     1      0.000000000000     -0.001361031363                 1
     4     5     6    13     1    180.000000000000      3.849547945820                 2
     4     5     6    13     1      0.000000000000     -0.005316695217                 3
     4     5     6    13     1    180.000000000000      0.042135867581                 4
     4     5    14    15     1    180.000000000000     13.675298757543                 2
     4     5    14    34     1    180.000000000000     13.675298757543                 2
     5     4     3    25     1    180.000000000000     13.675298757543                 2
     5     6     7     8     1    180.000000000000     13.675298757543                 2
     5     6     7    30     1    180.000000000000     13.675298757543                 2
     5     6    13    12     1    180.000000000000     13.675298757543                 2
     5     6    13    33     1    180.000000000000     13.675298757543                 2
     5    14    15    16     1    180.000000000000     13.675298757543                 2
     5    14    15    25     1    180.000000000000     13.675298757543                 2
     6     5     4    29     1    180.000000000000     13.675298757543                 2
     6     5    14    15     1    180.000000000000     13.675298757543                 2
     6     5    14    34     1    180.000000000000     13.675298757543                 2
     6     7     8     9     1    180.000000000000     13.675298757543                 2
     6     7     8    31     1    180.000000000000     13.675298757543                 2
     6    13    12     9     1    180.000000000000     13.675298757543                 2
     6    13    12    32     1    180.000000000000     13.675298757543                 2
     7     6     5    14     1      0.000000000000     -0.001361031363                 1
     7     6     5    14     1    180.000000000000      3.849547945820                 2
     7     6     5    14     1      0.000000000000     -0.005316695217                 3
     7     6     5    14     1    180.000000000000      0.042135867581                 4
     7     6    13    12     1    180.000000000000     13.675298757543                 2
     7     6    13    33     1    180.000000000000     13.675298757543                 2
     7     8     9    10     1    180.000000000000     13.675298757543                 2
     7     8     9    12     1    180.000000000000     13.675298757543                 2
     8     7     6    13     1    180.000000000000     13.675298757543                 2
     8     9    10    11     1      0.000000000000      0.110111560884                 1
     8     9    10    11     1    180.000000000000      1.803000251841                 2
     8     9    10    11     1      0.000000000000      0.153602382684                 3
     8     9    10    11     1    180.000000000000      0.256530265623                 4
     8     9    10   178     1      0.000000000000     -0.103275056297                 1
     8     9    10   178     1    180.000000000000      2.088543962098                 2
     8     9    10   178     1      0.000000000000     -0.192165813275                 3
     8     9    10   178     1    180.000000000000     -0.093263064131                 4
     8     9    12    13     1    180.000000000000     13.675298757543                 2
     8     9    12    32     1    180.000000000000     13.675298757543                 2
     9     8     7    30     1    180.000000000000     13.675298757543                 2
     9    10   178   177     1      0.000000000000      1.484994250667                 1
     9    10   178   177     1    180.000000000000     16.364209873939                 2
     9    10   178   177     1      0.000000000000      3.195024477644                 3
     9    10   178   177     1    180.000000000000      2.368370294056                 4
     9    12    13    33     1    180.000000000000     13.675298757543                 2
    10     9     8    31     1    180.000000000000     13.675298757543                 2
    10     9    12    13     1    180.000000000000     13.675298757543                 2
    10     9    12    32     1    180.000000000000     13.675298757543                 2
    10   178   177   179     1      0.000000000000      1.100857953953                 3
    10   178   177   180     1      0.000000000000      1.100857953953                 3
    10   178   177   181     1      0.000000000000      1.100857953953                 3
    11    10     9    12     1      0.000000000000      0.110111560884                 1
    11    10     9    12     1    180.000000000000      1.803000251841                 2
    11    10     9    12     1      0.000000000000      0.153602382684                 3
    11    10     9    12     1    180.000000000000      0.256530265623                 4
    11    10   178   177     1      0.000000000000      4.018173080142                 1
    11    10   178   177     1    180.000000000000      3.213486271037                 2
    11    10   178   177     1      0.000000000000     -2.481841814582                 3
    11    10   178   177     1    180.000000000000      0.453026955939                 4
    12     9     8    31     1    180.000000000000     13.675298757543                 2
    12     9    10   178     1      0.000000000000     -0.103275056297                 1
    12     9    10   178     1    180.000000000000      2.088543962098                 2
    12     9    10   178     1      0.000000000000     -0.192165813275                 3
    12     9    10   178     1    180.000000000000     -0.093263064131                 4
    13     6     5    14     1      0.000000000000     -0.001361031363                 1
    13     6     5    14     1    180.000000000000      3.849547945820                 2
    13     6     5    14     1      0.000000000000     -0.005316695217                 3
    13     6     5    14     1    180.000000000000      0.042135867581                 4
    13     6     7    30     1    180.000000000000     13.675298757543                 2
    14     5     4    29     1    180.000000000000     13.675298757543                 2
    14    15    16    17     1    180.000000000000      5.177721731788                 2
    14    15    16    24     1    180.000000000000      5.177721731788                 2
    14    15    25    44     1    180.000000000000     13.675298757543                 2
    15    16    17    18     1    180.000000000000     13.675298757543                 2
    15    16    17    35     1    180.000000000000     13.675298757543                 2
    15    16    24    23     1    180.000000000000     13.675298757543                 2
    15    16    24    43     1    180.000000000000     13.675298757543                 2
    16    15    14    34     1    180.000000000000     13.675298757543                 2
    16    15    25    44     1    180.000000000000     13.675298757543                 2
    16    17    18    19     1    180.000000000000     13.675298757543                 2
    16    17    18    36     1    180.000000000000     13.675298757543                 2
    16    24    23    19     1    180.000000000000     13.675298757543                 2
    16    24    23    42     1    180.000000000000     13.675298757543                 2
    17    16    15    25     1    180.000000000000      5.177721731788                 2
    17    16    24    23     1    180.000000000000     13.675298757543                 2
    17    16    24    43     1    180.000000000000     13.675298757543                 2
    17    18    19    20     1    180.000000000000     13.675298757543                 2
    17    18    19    23     1    180.000000000000     13.675298757543                 2
    18    17    16    24     1    180.000000000000     13.675298757543                 2
    18    19    20    21     1      0.000000000000     -0.046719562897                 1
    18    19    20    21     1    180.000000000000     -0.122049837824                 2
    18    19    20    21     1      0.000000000000      0.033769161307                 3
    18    19    20    21     1    180.000000000000     -0.154388536510                 4
    18    19    20    22     1      0.000000000000      0.181696163537                 1
    18    19    20    22     1    180.000000000000      1.404366800104                 2
    18    19    20    22     1      0.000000000000      0.042129016860                 3
    18    19    20    22     1    180.000000000000     -0.184158621615                 4
    18    19    20    37     1      0.000000000000     -0.142056947346                 1
    18    19    20    37     1    180.000000000000     -0.856718318000                 2
    18    19    20    37     1      0.000000000000      0.033889643284                 3
    18    19    20    37     1    180.000000000000     -0.010041941322                 4
    18    19    23    24     1    180.000000000000     13.675298757543                 2
    18    19    23    42     1    180.000000000000     13.675298757543                 2
    19    18    17    35     1    180.000000000000     13.675298757543                 2
    19    20    21    38     1      0.000000000000      0.602098025234                 3
    19    20    21    39     1      0.000000000000      0.602098025234                 3
    19    20    21    40     1      0.000000000000      0.602098025234                 3
    19    20    22    41     1      0.000000000000      3.632151906341                 1
    19    20    22    41     1    180.000000000000      2.692259361465                 2
    19    20    22    41     1      0.000000000000      1.055439484893                 3
    19    20    22    41     1    180.000000000000      0.890127854062                 4
    19    20    22    54     1      0.000000000000     -5.523013592689                 1
    19    20    22    54     1    180.000000000000      2.179602291564                 2
    19    20    22    54     1      0.000000000000     -0.414671555063                 3
    19    20    22    54     1    180.000000000000     -0.527260048751                 4
    19    23    24    43     1    180.000000000000     13.675298757543                 2
    20    19    18    36     1    180.000000000000     13.675298757543                 2
    20    19    23    24     1    180.000000000000     13.675298757543                 2
    20    19    23    42     1    180.000000000000     13.675298757543                 2
    20    22    54    53     1      0.000000000000      0.683743329356                 1
    20    22    54    53     1    180.000000000000      8.778888673343                 2
    20    22    54    53     1      0.000000000000      1.333608040734                 3
    20    22    54    53     1    180.000000000000      1.989838746414                 4
    20    22    54    55     1      0.000000000000     -1.825447340771                 1
    20    22    54    55     1    180.000000000000      9.778650974673                 2
    20    22    54    55     1      0.000000000000      0.726922373509                 3
    20    22    54    55     1    180.000000000000     -0.703889527087                 4
    21    20    19    23     1      0.000000000000     -0.046719562897                 1
    21    20    19    23     1    180.000000000000     -0.122049837824                 2
    21    20    19    23     1      0.000000000000      0.033769161307                 3
    21    20    19    23     1    180.000000000000     -0.154388536510                 4
    21    20    22    41     1      0.000000000000     -1.596028798889                 1
    21    20    22    41     1    180.000000000000      0.518693602117                 2
    21    20    22    41     1      0.000000000000      1.417706944449                 3
    21    20    22    41     1    180.000000000000     -0.673390972059                 4
    21    20    22    54     1      0.000000000000     -0.368194969768                 1
    21    20    22    54     1    180.000000000000      0.309102681503                 2
    21    20    22    54     1      0.000000000000     -1.462200928194                 3
    21    20    22    54     1    180.000000000000      0.107626116879                 4
    22    20    19    23     1      0.000000000000      0.181696163537                 1
    22    20    19    23     1    180.000000000000      1.404366800104                 2
    22    20    19    23     1      0.000000000000      0.042129016860                 3
    22    20    19    23     1    180.000000000000     -0.184158621615                 4
    22    20    21    38     1      0.000000000000      0.602098025234                 3
    22    20    21    39     1      0.000000000000      0.602098025234                 3
    22    20    21    40     1      0.000000000000      0.602098025234                 3
    22    54    53    52     1      0.000000000000     -0.030831156556                 1
    22    54    53    52     1    180.000000000000      4.189882824600                 2
    22    54    53    52     1      0.000000000000     -0.032402887052                 3
    22    54    53    52     1    180.000000000000      0.139086688961                 4
    22    54    53    56     1      0.000000000000     -0.030831156556                 1
    22    54    53    56     1    180.000000000000      4.189882824600                 2
    22    54    53    56     1      0.000000000000     -0.032402887052                 3
    22    54    53    56     1    180.000000000000      0.139086688961                 4
    23    19    18    36     1    180.000000000000     13.675298757543                 2
    23    19    20    37     1      0.000000000000     -0.142056947346                 1
    23    19    20    37     1    180.000000000000     -0.856718318000                 2
    23    19    20    37     1      0.000000000000      0.033889643284                 3
    23    19    20    37     1    180.000000000000     -0.010041941322                 4
    24    16    15    25     1    180.000000000000      5.177721731788                 2
    24    16    17    35     1    180.000000000000     13.675298757543                 2
    25     3     4    29     1    180.000000000000     13.675298757543                 2
    25    15    14    34     1    180.000000000000     13.675298757543                 2
    30     7     8    31     1    180.000000000000     13.675298757543                 2
    32    12    13    33     1    180.000000000000     13.675298757543                 2
    35    17    18    36     1    180.000000000000     13.675298757543                 2
    37    20    21    38     1      0.000000000000      0.953929629431                 3
    37    20    21    39     1      0.000000000000      0.953929629431                 3
    37    20    21    40     1      0.000000000000      0.953929629431                 3
    37    20    22    41     1      0.000000000000     -2.228875632642                 1
    37    20    22    41     1    180.000000000000      0.995127912405                 2
    37    20    22    41     1      0.000000000000      1.209135772658                 3
    37    20    22    41     1    180.000000000000     -0.364200630165                 4
    37    20    22    54     1      0.000000000000      3.086237082910                 1
    37    20    22    54     1    180.000000000000      0.139679142061                 2
    37    20    22    54     1      0.000000000000      0.505923261885                 3
    37    20    22    54     1    180.000000000000      0.183278738105                 4
    41    22    54    53     1      0.000000000000      2.544621256724                 1
    41    22    54    53     1    180.000000000000      9.200225944684                 2
    41    22    54    53     1      0.000000000000      0.158765719441                 3
    41    22    54    53     1    180.000000000000      0.634452395382                 4
    41    22    54    55     1      0.000000000000      4.041724146448                 1
    41    22    54    55     1    180.000000000000      5.295801897963                 2
    41    22    54    55     1      0.000000000000     -0.064988179368                 3
    41    22    54    55     1    180.000000000000     -0.711503218310                 4
    42    23    24    43     1    180.000000000000     13.675298757543                 2
    45    46    47    48     1      0.000000000000      0.228710564444                 1
    45    46    47    48     1    180.000000000000      9.741228531000                 2
    45    46    47    48     1      0.000000000000      1.144369388689                 3
    45    46    47    48     1    180.000000000000      0.672212899192                 4
    45    46    47    69     1      0.000000000000      0.228710564444                 1
    45    46    47    69     1    180.000000000000      9.741228531000                 2
    45    46    47    69     1      0.000000000000      1.144369388689                 3
    45    46    47    69     1    180.000000000000      0.672212899192                 4
    46    47    48    49     1    180.000000000000     13.675298757543                 2
    46    47    48    73     1    180.000000000000     13.675298757543                 2
    46    47    69    59     1    180.000000000000     13.675298757543                 2
    46    47    69    88     1    180.000000000000     13.675298757543                 2
    47    46    45    70     1      0.000000000000      1.100857953953                 3
    47    46    45    71     1      0.000000000000      1.100857953953                 3
    47    46    45    72     1      0.000000000000      1.100857953953                 3
    47    48    49    50     1    180.000000000000     13.675298757543                 2
    47    48    49    58     1    180.000000000000     13.675298757543                 2
    47    69    59    58     1    180.000000000000     13.675298757543                 2
    47    69    59    60     1    180.000000000000     13.675298757543                 2
    48    47    69    59     1    180.000000000000     13.675298757543                 2
    48    47    69    88     1    180.000000000000     13.675298757543                 2
    48    49    50    51     1      0.000000000000     -0.001361031363                 1
    48    49    50    51     1    180.000000000000      3.849547945820                 2
    48    49    50    51     1      0.000000000000     -0.005316695217                 3
    48    49    50    51     1    180.000000000000      0.042135867581                 4
    48    49    50    57     1      0.000000000000     -0.001361031363                 1
    48    49    50    57     1    180.000000000000      3.849547945820                 2
    48    49    50    57     1      0.000000000000     -0.005316695217                 3
    48    49    50    57     1    180.000000000000      0.042135867581                 4
    48    49    58    59     1    180.000000000000     13.675298757543                 2
    48    49    58    78     1    180.000000000000     13.675298757543                 2
    49    48    47    69     1    180.000000000000     13.675298757543                 2
    49    50    51    52     1    180.000000000000     13.675298757543                 2
    49    50    51    74     1    180.000000000000     13.675298757543                 2
    49    50    57    56     1    180.000000000000     13.675298757543                 2
    49    50    57    77     1    180.000000000000     13.675298757543                 2
    49    58    59    60     1    180.000000000000     13.675298757543                 2
    49    58    59    69     1    180.000000000000     13.675298757543                 2
    50    49    48    73     1    180.000000000000     13.675298757543                 2
    50    49    58    59     1    180.000000000000     13.675298757543                 2
    50    49    58    78     1    180.000000000000     13.675298757543                 2
    50    51    52    53     1    180.000000000000     13.675298757543                 2
    50    51    52    75     1    180.000000000000     13.675298757543                 2
    50    57    56    53     1    180.000000000000     13.675298757543                 2
    50    57    56    76     1    180.000000000000     13.675298757543                 2
    51    50    49    58     1      0.000000000000     -0.001361031363                 1
    51    50    49    58     1    180.000000000000      3.849547945820                 2
    51    50    49    58     1      0.000000000000     -0.005316695217                 3
    51    50    49    58     1    180.000000000000      0.042135867581                 4
    51    50    57    56     1    180.000000000000     13.675298757543                 2
    51    50    57    77     1    180.000000000000     13.675298757543                 2
    51    52    53    54     1    180.000000000000     13.675298757543                 2
    51    52    53    56     1    180.000000000000     13.675298757543                 2
    52    51    50    57     1    180.000000000000     13.675298757543                 2
    52    53    54    55     1      0.000000000000      0.020624925949                 1
    52    53    54    55     1    180.000000000000     -0.220004289428                 2
    52    53    54    55     1      0.000000000000      0.084870762038                 3
    52    53    54    55     1    180.000000000000      0.323552936864                 4
    52    53    56    57     1    180.000000000000     13.675298757543                 2
    52    53    56    76     1    180.000000000000     13.675298757543                 2
    53    52    51    74     1    180.000000000000     13.675298757543                 2
    53    56    57    77     1    180.000000000000     13.675298757543                 2
    54    53    52    75     1    180.000000000000     13.675298757543                 2
    54    53    56    57     1    180.000000000000     13.675298757543                 2
    54    53    56    76     1    180.000000000000     13.675298757543                 2
    55    54    53    56     1      0.000000000000      0.020624925949                 1
    55    54    53    56     1    180.000000000000     -0.220004289428                 2
    55    54    53    56     1      0.000000000000      0.084870762038                 3
    55    54    53    56     1    180.000000000000      0.323552936864                 4
    56    53    52    75     1    180.000000000000     13.675298757543                 2
    57    50    49    58     1      0.000000000000     -0.001361031363                 1
    57    50    49    58     1    180.000000000000      3.849547945820                 2
    57    50    49    58     1      0.000000000000     -0.005316695217                 3
    57    50    49    58     1    180.000000000000      0.042135867581                 4
    57    50    51    74     1    180.000000000000     13.675298757543                 2
    58    49    48    73     1    180.000000000000     13.675298757543                 2
    58    59    60    61     1    180.000000000000      5.177721731788                 2
    58    59    60    68     1    180.000000000000      5.177721731788                 2
    58    59    69    88     1    180.000000000000     13.675298757543                 2
    59    60    61    62     1    180.000000000000     13.675298757543                 2
    59    60    61    79     1    180.000000000000     13.675298757543                 2
    59    60    68    67     1    180.000000000000     13.675298757543                 2
    59    60    68    87     1    180.000000000000     13.675298757543                 2
    60    59    58    78     1    180.000000000000     13.675298757543                 2
    60    59    69    88     1    180.000000000000     13.675298757543                 2
    60    61    62    63     1    180.000000000000     13.675298757543                 2
    60    61    62    80     1    180.000000000000     13.675298757543                 2
    60    68    67    63     1    180.000000000000     13.675298757543                 2
    60    68    67    86     1    180.000000000000     13.675298757543                 2
    61    60    59    69     1    180.000000000000      5.177721731788                 2
    61    60    68    67     1    180.000000000000     13.675298757543                 2
    61    60    68    87     1    180.000000000000     13.675298757543                 2
    61    62    63    64     1    180.000000000000     13.675298757543                 2
    61    62    63    67     1    180.000000000000     13.675298757543                 2
    62    61    60    68     1    180.000000000000     13.675298757543                 2
    62    63    64    65     1      0.000000000000     -0.046719562897                 1
    62    63    64    65     1    180.000000000000     -0.122049837824                 2
    62    63    64    65     1      0.000000000000      0.033769161307                 3
    62    63    64    65     1    180.000000000000     -0.154388536510                 4
    62    63    64    66     1      0.000000000000      0.181696163537                 1
    62    63    64    66     1    180.000000000000      1.404366800104                 2
    62    63    64    66     1      0.000000000000      0.042129016860                 3
    62    63    64    66     1    180.000000000000     -0.184158621615                 4
    62    63    64    81     1      0.000000000000     -0.142056947346                 1
    62    63    64    81     1    180.000000000000     -0.856718318000                 2
    62    63    64    81     1      0.000000000000      0.033889643284                 3
    62    63    64    81     1    180.000000000000     -0.010041941322                 4
    62    63    67    68     1    180.000000000000     13.675298757543                 2
    62    63    67    86     1    180.000000000000     13.675298757543                 2
    63    62    61    79     1    180.000000000000     13.675298757543                 2
    63    64    65    82     1      0.000000000000      0.602098025234                 3
    63    64    65    83     1      0.000000000000      0.602098025234                 3
    63    64    65    84     1      0.000000000000      0.602098025234                 3
    63    64    66    85     1      0.000000000000      3.632151906341                 1
    63    64    66    85     1    180.000000000000      2.692259361465                 2
    63    64    66    85     1      0.000000000000      1.055439484893                 3
    63    64    66    85     1    180.000000000000      0.890127854062                 4
    63    64    66    98     1      0.000000000000     -5.523013592689                 1
    63    64    66    98     1    180.000000000000      2.179602291564                 2
    63    64    66    98     1      0.000000000000     -0.414671555063                 3
    63    64    66    98     1    180.000000000000     -0.527260048751                 4
    63    67    68    87     1    180.000000000000     13.675298757543                 2
    64    63    62    80     1    180.000000000000     13.675298757543                 2
    64    63    67    68     1    180.000000000000     13.675298757543                 2
    64    63    67    86     1    180.000000000000     13.675298757543                 2
    64    66    98    97     1      0.000000000000      0.683743329356                 1
    64    66    98    97     1    180.000000000000      8.778888673343                 2
    64    66    98    97     1      0.000000000000      1.333608040734                 3
    64    66    98    97     1    180.000000000000      1.989838746414                 4
    64    66    98    99     1      0.000000000000     -1.825447340771                 1
    64    66    98    99     1    180.000000000000      9.778650974673                 2
    64    66    98    99     1      0.000000000000      0.726922373509                 3
    64    66    98    99     1    180.000000000000     -0.703889527087                 4
    65    64    63    67     1      0.000000000000     -0.046719562897                 1
    65    64    63    67     1    180.000000000000     -0.122049837824                 2
    65    64    63    67     1      0.000000000000      0.033769161307                 3
    65    64    63    67     1    180.000000000000     -0.154388536510                 4
    65    64    66    85     1      0.000000000000     -1.596028798889                 1
    65    64    66    85     1    180.000000000000      0.518693602117                 2
    65    64    66    85     1      0.000000000000      1.417706944449                 3
    65    64    66    85     1    180.000000000000     -0.673390972059                 4
    65    64    66    98     1      0.000000000000     -0.368194969768                 1
    65    64    66    98     1    180.000000000000      0.309102681503                 2
    65    64    66    98     1      0.000000000000     -1.462200928194                 3
    65    64    66    98     1    180.000000000000      0.107626116879                 4
    66    64    63    67     1      0.000000000000      0.181696163537                 1
    66    64    63    67     1    180.000000000000      1.404366800104                 2
    66    64    63    67     1      0.000000000000      0.042129016860                 3
    66    64    63    67     1    180.000000000000     -0.184158621615                 4
    66    64    65    82     1      0.000000000000      0.602098025234                 3
    66    64    65    83     1      0.000000000000      0.602098025234                 3
    66    64    65    84     1      0.000000000000      0.602098025234                 3
    66    98    97    96     1      0.000000000000     -0.030831156556                 1
    66    98    97    96     1    180.000000000000      4.189882824600                 2
    66    98    97    96     1      0.000000000000     -0.032402887052                 3
    66    98    97    96     1    180.000000000000      0.139086688961                 4
    66    98    97   100     1      0.000000000000     -0.030831156556                 1
    66    98    97   100     1    180.000000000000      4.189882824600                 2
    66    98    97   100     1      0.000000000000     -0.032402887052                 3
    66    98    97   100     1    180.000000000000      0.139086688961                 4
    67    63    62    80     1    180.000000000000     13.675298757543                 2
    67    63    64    81     1      0.000000000000     -0.142056947346                 1
    67    63    64    81     1    180.000000000000     -0.856718318000                 2
    67    63    64    81     1      0.000000000000      0.033889643284                 3
    67    63    64    81     1    180.000000000000     -0.010041941322                 4
    68    60    59    69     1    180.000000000000      5.177721731788                 2
    68    60    61    79     1    180.000000000000     13.675298757543                 2
    69    47    48    73     1    180.000000000000     13.675298757543                 2
    69    59    58    78     1    180.000000000000     13.675298757543                 2
    74    51    52    75     1    180.000000000000     13.675298757543                 2
    76    56    57    77     1    180.000000000000     13.675298757543                 2
    79    61    62    80     1    180.000000000000     13.675298757543                 2
    81    64    65    82     1      0.000000000000      0.953929629431                 3
    81    64    65    83     1      0.000000000000      0.953929629431                 3
    81    64    65    84     1      0.000000000000      0.953929629431                 3
    81    64    66    85     1      0.000000000000     -2.228875632642                 1
    81    64    66    85     1    180.000000000000      0.995127912405                 2
    81    64    66    85     1      0.000000000000      1.209135772658                 3
    81    64    66    85     1    180.000000000000     -0.364200630165                 4
    81    64    66    98     1      0.000000000000      3.086237082910                 1
    81    64    66    98     1    180.000000000000      0.139679142061                 2
    81    64    66    98     1      0.000000000000      0.505923261885                 3
    81    64    66    98     1    180.000000000000      0.183278738105                 4
    85    66    98    97     1      0.000000000000      2.544621256724                 1
    85    66    98    97     1    180.000000000000      9.200225944684                 2
    85    66    98    97     1      0.000000000000      0.158765719441                 3
    85    66    98    97     1    180.000000000000      0.634452395382                 4
    85    66    98    99     1      0.000000000000      4.041724146448                 1
    85    66    98    99     1    180.000000000000      5.295801897963                 2
    85    66    98    99     1      0.000000000000     -0.064988179368                 3
    85    66    98    99     1    180.000000000000     -0.711503218310                 4
    86    67    68    87     1    180.000000000000     13.675298757543                 2
    89    90    91    92     1      0.000000000000      0.228710564444                 1
    89    90    91    92     1    180.000000000000      9.741228531000                 2
    89    90    91    92     1      0.000000000000      1.144369388689                 3
    89    90    91    92     1    180.000000000000      0.672212899192                 4
    89    90    91   113     1      0.000000000000      0.228710564444                 1
    89    90    91   113     1    180.000000000000      9.741228531000                 2
    89    90    91   113     1      0.000000000000      1.144369388689                 3
    89    90    91   113     1    180.000000000000      0.672212899192                 4
    90    91    92    93     1    180.000000000000     13.675298757543                 2
    90    91    92   117     1    180.000000000000     13.675298757543                 2
    90    91   113   103     1    180.000000000000     13.675298757543                 2
    90    91   113   132     1    180.000000000000     13.675298757543                 2
    91    90    89   114     1      0.000000000000      1.100857953953                 3
    91    90    89   115     1      0.000000000000      1.100857953953                 3
    91    90    89   116     1      0.000000000000      1.100857953953                 3
    91    92    93    94     1    180.000000000000     13.675298757543                 2
    91    92    93   102     1    180.000000000000     13.675298757543                 2
    91   113   103   102     1    180.000000000000     13.675298757543                 2
    91   113   103   104     1    180.000000000000     13.675298757543                 2
    92    91   113   103     1    180.000000000000     13.675298757543                 2
    92    91   113   132     1    180.000000000000     13.675298757543                 2
    92    93    94    95     1      0.000000000000     -0.001361031363                 1
    92    93    94    95     1    180.000000000000      3.849547945820                 2
    92    93    94    95     1      0.000000000000     -0.005316695217                 3
    92    93    94    95     1    180.000000000000      0.042135867581                 4
    92    93    94   101     1      0.000000000000     -0.001361031363                 1
    92    93    94   101     1    180.000000000000      3.849547945820                 2
    92    93    94   101     1      0.000000000000     -0.005316695217                 3
    92    93    94   101     1    180.000000000000      0.042135867581                 4
    92    93   102   103     1    180.000000000000     13.675298757543                 2
    92    93   102   122     1    180.000000000000     13.675298757543                 2
    93    92    91   113     1    180.000000000000     13.675298757543                 2
    93    94    95    96     1    180.000000000000     13.675298757543                 2
    93    94    95   118     1    180.000000000000     13.675298757543                 2
    93    94   101   100     1    180.000000000000     13.675298757543                 2
    93    94   101   121     1    180.000000000000     13.675298757543                 2
    93   102   103   104     1    180.000000000000     13.675298757543                 2
    93   102   103   113     1    180.000000000000     13.675298757543                 2
    94    93    92   117     1    180.000000000000     13.675298757543                 2
    94    93   102   103     1    180.000000000000     13.675298757543                 2
    94    93   102   122     1    180.000000000000     13.675298757543                 2
    94    95    96    97     1    180.000000000000     13.675298757543                 2
    94    95    96   119     1    180.000000000000     13.675298757543                 2
    94   101   100    97     1    180.000000000000     13.675298757543                 2
    94   101   100   120     1    180.000000000000     13.675298757543                 2
    95    94    93   102     1      0.000000000000     -0.001361031363                 1
    95    94    93   102     1    180.000000000000      3.849547945820                 2
    95    94    93   102     1      0.000000000000     -0.005316695217                 3
    95    94    93   102     1    180.000000000000      0.042135867581                 4
    95    94   101   100     1    180.000000000000     13.675298757543                 2
    95    94   101   121     1    180.000000000000     13.675298757543                 2
    95    96    97    98     1    180.000000000000     13.675298757543                 2
    95    96    97   100     1    180.000000000000     13.675298757543                 2
    96    95    94   101     1    180.000000000000     13.675298757543                 2
    96    97    98    99     1      0.000000000000      0.020624925949                 1
    96    97    98    99     1    180.000000000000     -0.220004289428                 2
    96    97    98    99     1      0.000000000000      0.084870762038                 3
    96    97    98    99     1    180.000000000000      0.323552936864                 4
    96    97   100   101     1    180.000000000000     13.675298757543                 2
    96    97   100   120     1    180.000000000000     13.675298757543                 2
    97    96    95   118     1    180.000000000000     13.675298757543                 2
    97   100   101   121     1    180.000000000000     13.675298757543                 2
    98    97    96   119     1    180.000000000000     13.675298757543                 2
    98    97   100   101     1    180.000000000000     13.675298757543                 2
    98    97   100   120     1    180.000000000000     13.675298757543                 2
    99    98    97   100     1      0.000000000000      0.020624925949                 1
    99    98    97   100     1    180.000000000000     -0.220004289428                 2
    99    98    97   100     1      0.000000000000      0.084870762038                 3
    99    98    97   100     1    180.000000000000      0.323552936864                 4
   100    97    96   119     1    180.000000000000     13.675298757543                 2
   101    94    93   102     1      0.000000000000     -0.001361031363                 1
   101    94    93   102     1    180.000000000000      3.849547945820                 2
   101    94    93   102     1      0.000000000000     -0.005316695217                 3
   101    94    93   102     1    180.000000000000      0.042135867581                 4
   101    94    95   118     1    180.000000000000     13.675298757543                 2
   102    93    92   117     1    180.000000000000     13.675298757543                 2
   102   103   104   105     1    180.000000000000      5.177721731788                 2
   102   103   104   112     1    180.000000000000      5.177721731788                 2
   102   103   113   132     1    180.000000000000     13.675298757543                 2
   103   104   105   106     1    180.000000000000     13.675298757543                 2
   103   104   105   123     1    180.000000000000     13.675298757543                 2
   103   104   112   111     1    180.000000000000     13.675298757543                 2
   103   104   112   131     1    180.000000000000     13.675298757543                 2
   104   103   102   122     1    180.000000000000     13.675298757543                 2
   104   103   113   132     1    180.000000000000     13.675298757543                 2
   104   105   106   107     1    180.000000000000     13.675298757543                 2
   104   105   106   124     1    180.000000000000     13.675298757543                 2
   104   112   111   107     1    180.000000000000     13.675298757543                 2
   104   112   111   130     1    180.000000000000     13.675298757543                 2
   105   104   103   113     1    180.000000000000      5.177721731788                 2
   105   104   112   111     1    180.000000000000     13.675298757543                 2
   105   104   112   131     1    180.000000000000     13.675298757543                 2
   105   106   107   108     1    180.000000000000     13.675298757543                 2
   105   106   107   111     1    180.000000000000     13.675298757543                 2
   106   105   104   112     1    180.000000000000     13.675298757543                 2
   106   107   108   109     1      0.000000000000     -0.046719562897                 1
   106   107   108   109     1    180.000000000000     -0.122049837824                 2
   106   107   108   109     1      0.000000000000      0.033769161307                 3
   106   107   108   109     1    180.000000000000     -0.154388536510                 4
   106   107   108   110     1      0.000000000000      0.181696163537                 1
   106   107   108   110     1    180.000000000000      1.404366800104                 2
   106   107   108   110     1      0.000000000000      0.042129016860                 3
   106   107   108   110     1    180.000000000000     -0.184158621615                 4
   106   107   108   125     1      0.000000000000     -0.142056947346                 1
   106   107   108   125     1    180.000000000000     -0.856718318000                 2
   106   107   108   125     1      0.000000000000      0.033889643284                 3
   106   107   108   125     1    180.000000000000     -0.010041941322                 4
   106   107   111   112     1    180.000000000000     13.675298757543                 2
   106   107   111   130     1    180.000000000000     13.675298757543                 2
   107   106   105   123     1    180.000000000000     13.675298757543                 2
   107   108   109   126     1      0.000000000000      0.602098025234                 3
   107   108   109   127     1      0.000000000000      0.602098025234                 3
   107   108   109   128     1      0.000000000000      0.602098025234                 3
   107   108   110   129     1      0.000000000000      3.632151906341                 1
   107   108   110   129     1    180.000000000000      2.692259361465                 2
   107   108   110   129     1      0.000000000000      1.055439484893                 3
   107   108   110   129     1    180.000000000000      0.890127854062                 4
   107   108   110   142     1      0.000000000000     -5.523013592689                 1
   107   108   110   142     1    180.000000000000      2.179602291564                 2
   107   108   110   142     1      0.000000000000     -0.414671555063                 3
   107   108   110   142     1    180.000000000000     -0.527260048751                 4
   107   111   112   131     1    180.000000000000     13.675298757543                 2
   108   107   106   124     1    180.000000000000     13.675298757543                 2
   108   107   111   112     1    180.000000000000     13.675298757543                 2
   108   107   111   130     1    180.000000000000     13.675298757543                 2
   108   110   142   141     1      0.000000000000      0.683743329356                 1
   108   110   142   141     1    180.000000000000      8.778888673343                 2
   108   110   142   141     1      0.000000000000      1.333608040734                 3
   108   110   142   141     1    180.000000000000      1.989838746414                 4
   108   110   142   143     1      0.000000000000     -1.825447340771                 1
   108   110   142   143     1    180.000000000000      9.778650974673                 2
   108   110   142   143     1      0.000000000000      0.726922373509                 3
   108   110   142   143     1    180.000000000000     -0.703889527087                 4
   109   108   107   111     1      0.000000000000     -0.046719562897                 1
   109   108   107   111     1    180.000000000000     -0.122049837824                 2
   109   108   107   111     1      0.000000000000      0.033769161307                 3
   109   108   107   111     1    180.000000000000     -0.154388536510                 4
   109   108   110   129     1      0.000000000000     -1.596028798889                 1
   109   108   110   129     1    180.000000000000      0.518693602117                 2
   109   108   110   129     1      0.000000000000      1.417706944449                 3
   109   108   110   129     1    180.000000000000     -0.673390972059                 4
   109   108   110   142     1      0.000000000000     -0.368194969768                 1
   109   108   110   142     1    180.000000000000      0.309102681503                 2
   109   108   110   142     1      0.000000000000     -1.462200928194                 3
   109   108   110   142     1    180.000000000000      0.107626116879                 4
   110   108   107   111     1      0.000000000000      0.181696163537                 1
   110   108   107   111     1    180.000000000000      1.404366800104                 2
   110   108   107   111     1      0.000000000000      0.042129016860                 3
   110   108   107   111     1    180.000000000000     -0.184158621615                 4
   110   108   109   126     1      0.000000000000      0.602098025234                 3
   110   108   109   127     1      0.000000000000      0.602098025234                 3
   110   108   109   128     1      0.000000000000      0.602098025234                 3
   110   142   141   140     1      0.000000000000     -0.030831156556                 1
   110   142   141   140     1    180.000000000000      4.189882824600                 2
   110   142   141   140     1      0.000000000000     -0.032402887052                 3
   110   142   141   140     1    180.000000000000      0.139086688961                 4
   110   142   141   144     1      0.000000000000     -0.030831156556                 1
   110   142   141   144     1    180.000000000000      4.189882824600                 2
   110   142   141   144     1      0.000000000000     -0.032402887052                 3
   110   142   141   144     1    180.000000000000      0.139086688961                 4
   111   107   106   124     1    180.000000000000     13.675298757543                 2
   111   107   108   125     1      0.000000000000     -0.142056947346                 1
   111   107   108   125     1    180.000000000000     -0.856718318000                 2
   111   107   108   125     1      0.000000000000      0.033889643284                 3
   111   107   108   125     1    180.000000000000     -0.010041941322                 4
   112   104   103   113     1    180.000000000000      5.177721731788                 2
   112   104   105   123     1    180.000000000000     13.675298757543                 2
   113    91    92   117     1    180.000000000000     13.675298757543                 2
   113   103   102   122     1    180.000000000000     13.675298757543                 2
   118    95    96   119     1    180.000000000000     13.675298757543                 2
   120   100   101   121     1    180.000000000000     13.675298757543                 2
   123   105   106   124     1    180.000000000000     13.675298757543                 2
   125   108   109   126     1      0.000000000000      0.953929629431                 3
   125   108   109   127     1      0.000000000000      0.953929629431                 3
   125   108   109   128     1      0.000000000000      0.953929629431                 3
   125   108   110   129     1      0.000000000000     -2.228875632642                 1
   125   108   110   129     1    180.000000000000      0.995127912405                 2
   125   108   110   129     1      0.000000000000      1.209135772658                 3
   125   108   110   129     1    180.000000000000     -0.364200630165                 4
   125   108   110   142     1      0.000000000000      3.086237082910                 1
   125   108   110   142     1    180.000000000000      0.139679142061                 2
   125   108   110   142     1      0.000000000000      0.505923261885                 3
   125   108   110   142     1    180.000000000000      0.183278738105                 4
   129   110   142   141     1      0.000000000000      2.544621256724                 1
   129   110   142   141     1    180.000000000000      9.200225944684                 2
   129   110   142   141     1      0.000000000000      0.158765719441                 3
   129   110   142   141     1    180.000000000000      0.634452395382                 4
   129   110   142   143     1      0.000000000000      4.041724146448                 1
   129   110   142   143     1    180.000000000000      5.295801897963                 2
   129   110   142   143     1      0.000000000000     -0.064988179368                 3
   129   110   142   143     1    180.000000000000     -0.711503218310                 4
   130   111   112   131     1    180.000000000000     13.675298757543                 2
   133   134   135   136     1      0.000000000000      0.228710564444                 1
   133   134   135   136     1    180.000000000000      9.741228531000                 2
   133   134   135   136     1      0.000000000000      1.144369388689                 3
   133   134   135   136     1    180.000000000000      0.672212899192                 4
   133   134   135   157     1      0.000000000000      0.228710564444                 1
   133   134   135   157     1    180.000000000000      9.741228531000                 2
   133   134   135   157     1      0.000000000000      1.144369388689                 3
   133   134   135   157     1    180.000000000000      0.672212899192                 4
   134   135   136   137     1    180.000000000000     13.675298757543                 2
   134   135   136   161     1    180.000000000000     13.675298757543                 2
   134   135   157   147     1    180.000000000000     13.675298757543                 2
   134   135   157   176     1    180.000000000000     13.675298757543                 2
   135   134   133   158     1      0.000000000000      1.100857953953                 3
   135   134   133   159     1      0.000000000000      1.100857953953                 3
   135   134   133   160     1      0.000000000000      1.100857953953                 3
   135   136   137   138     1    180.000000000000     13.675298757543                 2
   135   136   137   146     1    180.000000000000     13.675298757543                 2
   135   157   147   146     1    180.000000000000     13.675298757543                 2
   135   157   147   148     1    180.000000000000     13.675298757543                 2
   136   135   157   147     1    180.000000000000     13.675298757543                 2
   136   135   157   176     1    180.000000000000     13.675298757543                 2
   136   137   138   139     1      0.000000000000     -0.001361031363                 1
   136   137   138   139     1    180.000000000000      3.849547945820                 2
   136   137   138   139     1      0.000000000000     -0.005316695217                 3
   136   137   138   139     1    180.000000000000      0.042135867581                 4
   136   137   138   145     1      0.000000000000     -0.001361031363                 1
   136   137   138   145     1    180.000000000000      3.849547945820                 2
   136   137   138   145     1      0.000000000000     -0.005316695217                 3
   136   137   138   145     1    180.000000000000      0.042135867581                 4
   136   137   146   147     1    180.000000000000     13.675298757543                 2
   136   137   146   166     1    180.000000000000     13.675298757543                 2
   137   136   135   157     1    180.000000000000     13.675298757543                 2
   137   138   139   140     1    180.000000000000     13.675298757543                 2
   137   138   139   162     1    180.000000000000     13.675298757543                 2
   137   138   145   144     1    180.000000000000     13.675298757543                 2
   137   138   145   165     1    180.000000000000     13.675298757543                 2
   137   146   147   148     1    180.000000000000     13.675298757543                 2
   137   146   147   157     1    180.000000000000     13.675298757543                 2
   138   137   136   161     1    180.000000000000     13.675298757543                 2
   138   137   146   147     1    180.000000000000     13.675298757543                 2
   138   137   146   166     1    180.000000000000     13.675298757543                 2
   138   139   140   141     1    180.000000000000     13.675298757543                 2
   138   139   140   163     1    180.000000000000     13.675298757543                 2
   138   145   144   141     1    180.000000000000     13.675298757543                 2
   138   145   144   164     1    180.000000000000     13.675298757543                 2
   139   138   137   146     1      0.000000000000     -0.001361031363                 1
   139   138   137   146     1    180.000000000000      3.849547945820                 2
   139   138   137   146     1      0.000000000000     -0.005316695217                 3
   139   138   137   146     1    180.000000000000      0.042135867581                 4
   139   138   145   144     1    180.000000000000     13.675298757543                 2
   139   138   145   165     1    180.000000000000     13.675298757543                 2
   139   140   141   142     1    180.000000000000     13.675298757543                 2
   139   140   141   144     1    180.000000000000     13.675298757543                 2
   140   139   138   145     1    180.000000000000     13.675298757543                 2
   140   141   142   143     1      0.000000000000      0.020624925949                 1
   140   141   142   143     1    180.000000000000     -0.220004289428                 2
   140   141   142   143     1      0.000000000000      0.084870762038                 3
   140   141   142   143     1    180.000000000000      0.323552936864                 4
   140   141   144   145     1    180.000000000000     13.675298757543                 2
   140   141   144   164     1    180.000000000000     13.675298757543                 2
   141   140   139   162     1    180.000000000000     13.675298757543                 2
   141   144   145   165     1    180.000000000000     13.675298757543                 2
   142   141   140   163     1    180.000000000000     13.675298757543                 2
   142   141   144   145     1    180.000000000000     13.675298757543                 2
   142   141   144   164     1    180.000000000000     13.675298757543                 2
   143   142   141   144     1      0.000000000000      0.020624925949                 1
   143   142   141   144     1    180.000000000000     -0.220004289428                 2
   143   142   141   144     1      0.000000000000      0.084870762038                 3
   143   142   141   144     1    180.000000000000      0.323552936864                 4
   144   141   140   163     1    180.000000000000     13.675298757543                 2
   145   138   137   146     1      0.000000000000     -0.001361031363                 1
   145   138   137   146     1    180.000000000000      3.849547945820                 2
   145   138   137   146     1      0.000000000000     -0.005316695217                 3
   145   138   137   146     1    180.000000000000      0.042135867581                 4
   145   138   139   162     1    180.000000000000     13.675298757543                 2
   146   137   136   161     1    180.000000000000     13.675298757543                 2
   146   147   148   149     1    180.000000000000      5.177721731788                 2
   146   147   148   156     1    180.000000000000      5.177721731788                 2
   146   147   157   176     1    180.000000000000     13.675298757543                 2
   147   148   149   150     1    180.000000000000     13.675298757543                 2
   147   148   149   167     1    180.000000000000     13.675298757543                 2
   147   148   156   155     1    180.000000000000     13.675298757543                 2
   147   148   156   175     1    180.000000000000     13.675298757543                 2
   148   147   146   166     1    180.000000000000     13.675298757543                 2
   148   147   157   176     1    180.000000000000     13.675298757543                 2
   148   149   150   151     1    180.000000000000     13.675298757543                 2
   148   149   150   168     1    180.000000000000     13.675298757543                 2
   148   156   155   151     1    180.000000000000     13.675298757543                 2
   148   156   155   174     1    180.000000000000     13.675298757543                 2
   149   148   147   157     1    180.000000000000      5.177721731788                 2
   149   148   156   155     1    180.000000000000     13.675298757543                 2
   149   148   156   175     1    180.000000000000     13.675298757543                 2
   149   150   151   152     1    180.000000000000     13.675298757543                 2
   149   150   151   155     1    180.000000000000     13.675298757543                 2
   150   149   148   156     1    180.000000000000     13.675298757543                 2
   150   151   152   153     1      0.000000000000     -0.067032564802                 1
   150   151   152   153     1    180.000000000000      0.028450466511                 2
   150   151   152   153     1      0.000000000000      0.279298001209                 3
   150   151   152   153     1    180.000000000000      0.194536096455                 4
   150   151   152   154     1      0.000000000000      0.161040702510                 1
   150   151   152   154     1    180.000000000000      1.054361515411                 2
   150   151   152   154     1      0.000000000000      0.273557760749                 3
   150   151   152   154     1    180.000000000000      0.189493929571                 4
   150   151   152   169     1      0.000000000000     -0.098076764058                 1
   150   151   152   169     1    180.000000000000     -0.747589836830                 2
   150   151   152   169     1      0.000000000000      0.272974020200                 3
   150   151   152   169     1    180.000000000000      0.297845122817                 4
   150   151   155   156     1    180.000000000000     13.675298757543                 2
   150   151   155   174     1    180.000000000000     13.675298757543                 2
   151   150   149   167     1    180.000000000000     13.675298757543                 2
   151   152   153   170     1      0.000000000000      0.602098025234                 3
   151   152   153   171     1      0.000000000000      0.602098025234                 3
   151   152   153   172     1      0.000000000000      0.602098025234                 3
   151   152   154   173     1      0.000000000000      2.524192689165                 1
   151   152   154   173     1    180.000000000000      1.197479570876                 2
   151   152   154   173     1      0.000000000000      0.501796637170                 3
   151   152   154   173     1    180.000000000000      0.159281722792                 4
   151   152   154   187     1      0.000000000000     -4.707594210065                 1
   151   152   154   187     1    180.000000000000      2.357343779528                 2
   151   152   154   187     1      0.000000000000     -1.080395041232                 3
   151   152   154   187     1    180.000000000000     -0.166958584622                 4
   151   155   156   175     1    180.000000000000     13.675298757543                 2
   152   151   150   168     1    180.000000000000     13.675298757543                 2
   152   151   155   156     1    180.000000000000     13.675298757543                 2
   152   151   155   174     1    180.000000000000     13.675298757543                 2
   152   154   187   186     1      0.000000000000      1.049542578850                 1
   152   154   187   186     1    180.000000000000      8.454210738529                 2
   152   154   187   186     1      0.000000000000      0.228121612691                 3
   152   154   187   186     1    180.000000000000     -0.399653513662                 4
   152   154   187   188     1      0.000000000000      1.236072095100                 1
   152   154   187   188     1    180.000000000000      7.990154917667                 2
   152   154   187   188     1      0.000000000000      1.475941784475                 3
   152   154   187   188     1    180.000000000000     -1.236062242097                 4
   153   152   151   155     1      0.000000000000     -0.067032564802                 1
   153   152   151   155     1    180.000000000000      0.028450466511                 2
   153   152   151   155     1      0.000000000000      0.279298001209                 3
   153   152   151   155     1    180.000000000000      0.194536096455                 4
   153   152   154   173     1      0.000000000000     -1.611247338665                 1
   153   152   154   173     1    180.000000000000      1.594346459711                 2
   153   152   154   173     1      0.000000000000      0.705703654137                 3
   153   152   154   173     1    180.000000000000      0.028427590445                 4
   153   152   154   187     1      0.000000000000     -0.710045887294                 1
   153   152   154   187     1    180.000000000000     -0.181982361575                 2
   153   152   154   187     1      0.000000000000     -1.568707378281                 3
   153   152   154   187     1    180.000000000000     -0.482461229785                 4
   154   152   151   155     1      0.000000000000      0.161040702510                 1
   154   152   151   155     1    180.000000000000      1.054361515411                 2
   154   152   151   155     1      0.000000000000      0.273557760749                 3
   154   152   151   155     1    180.000000000000      0.189493929571                 4
   154   152   153   170     1      0.000000000000      0.602098025234                 3
   154   152   153   171     1      0.000000000000      0.602098025234                 3
   154   152   153   172     1      0.000000000000      0.602098025234                 3
   154   187   186   183     1      0.000000000000      1.670975878896                 1
   154   187   186   183     1    180.000000000000     18.373577196024                 2
   154   187   186   183     1      0.000000000000     -0.196649058251                 3
   154   187   186   183     1    180.000000000000      2.111075881008                 4
   155   151   150   168     1    180.000000000000     13.675298757543                 2
   155   151   152   169     1      0.000000000000     -0.098076764058                 1
   155   151   152   169     1    180.000000000000     -0.747589836830                 2
   155   151   152   169     1      0.000000000000      0.272974020200                 3
   155   151   152   169     1    180.000000000000      0.297845122817                 4
   156   148   147   157     1    180.000000000000      5.177721731788                 2
   156   148   149   167     1    180.000000000000     13.675298757543                 2
   157   135   136   161     1    180.000000000000     13.675298757543                 2
   157   147   146   166     1    180.000000000000     13.675298757543                 2
   162   139   140   163     1    180.000000000000     13.675298757543                 2
   164   144   145   165     1    180.000000000000     13.675298757543                 2
   167   149   150   168     1    180.000000000000     13.675298757543                 2
   169   152   153   170     1      0.000000000000      0.953929629431                 3
   169   152   153   171     1      0.000000000000      0.953929629431                 3
   169   152   153   172     1      0.000000000000      0.953929629431                 3
   169   152   154   173     1      0.000000000000     -1.077956857016                 1
   169   152   154   173     1    180.000000000000      1.417702751462                 2
   169   152   154   173     1      0.000000000000      0.544550751208                 3
   169   152   154   173     1    180.000000000000     -0.202621284758                 4
   169   152   154   187     1      0.000000000000      2.605449532734                 1
   169   152   154   187     1    180.000000000000      0.547923820270                 2
   169   152   154   187     1      0.000000000000      0.078703983037                 3
   169   152   154   187     1    180.000000000000      0.069127133419                 4
   173   154   187   186     1      0.000000000000      2.017113493531                 1
   173   154   187   186     1    180.000000000000      8.619656207884                 2
   173   154   187   186     1      0.000000000000     -0.149890311202                 3
   173   154   187   186     1    180.000000000000     -1.033929577659                 4
   173   154   187   188     1      0.000000000000      4.729899119241                 1
   173   154   187   188     1    180.000000000000      1.971696053003                 2
   173   154   187   188     1      0.000000000000      1.140990460150                 3
   173   154   187   188     1    180.000000000000     -1.784911088779                 4
   174   155   156   175     1    180.000000000000     13.675298757543                 2
   182   183   184   192     1      0.000000000000      0.412282083439                 3
   182   183   184   193     1      0.000000000000      0.412282083439                 3
   182   183   184   194     1      0.000000000000      0.412282083439                 3
   182   183   185   195     1      0.000000000000      0.412282083439                 3
   182   183   185   196     1      0.000000000000      0.412282083439                 3
   182   183   185   197     1      0.000000000000      0.412282083439                 3
   182   183   186   187     1      0.000000000000      1.591205784844                 1
   182   183   186   187     1    180.000000000000      0.178816554955                 2
   182   183   186   187     1      0.000000000000     -1.744890446404                 3
   182   183   186   187     1    180.000000000000      1.252090649642                 4
   183   186   187   188     1      0.000000000000      3.872283951205                 1
   183   186   187   188     1    180.000000000000      4.799598738648                 2
   183   186   187   188     1      0.000000000000      0.523815553059                 3
   183   186   187   188     1    180.000000000000      0.675669475312                 4
   184   183   182   189     1      0.000000000000      0.412282083439                 3
   184   183   182   190     1      0.000000000000      0.412282083439                 3
   184   183   182   191     1      0.000000000000      0.412282083439                 3
   184   183   185   195     1      0.000000000000      0.412282083439                 3
   184   183   185   196     1      0.000000000000      0.412282083439                 3
   184   183   185   197     1      0.000000000000      0.412282083439                 3
   184   183   186   187     1      0.000000000000      1.591205784844                 1
   184   183   186   187     1    180.000000000000      0.178816554955                 2
   184   183   186   187     1      0.000000000000     -1.744890446404                 3
   184   183   186   187     1    180.000000000000      1.252090649642                 4
   185   183   182   189     1      0.000000000000      0.412282083439                 3
   185   183   182   190     1      0.000000000000      0.412282083439                 3
   185   183   182   191     1      0.000000000000      0.412282083439                 3
   185   183   184   192     1      0.000000000000      0.412282083439                 3
   185   183   184   193     1      0.000000000000      0.412282083439                 3
   185   183   184   194     1      0.000000000000      0.412282083439                 3
   185   183   186   187     1      0.000000000000      1.591205784844                 1
   185   183   186   187     1    180.000000000000      0.178816554955                 2
   185   183   186   187     1      0.000000000000     -1.744890446404                 3
   185   183   186   187     1    180.000000000000      1.252090649642                 4
   186   183   182   189     1      0.000000000000      0.548667589915                 3
   186   183   182   189     1      0.000000000000      1.826511275305                 1
   186   183   182   190     1      0.000000000000      0.548667589915                 3
   186   183   182   190     1      0.000000000000      1.826511275305                 1
   186   183   182   191     1      0.000000000000      0.548667589915                 3
   186   183   182   191     1      0.000000000000      1.826511275305                 1
   186   183   184   192     1      0.000000000000      0.548667589915                 3
   186   183   184   192     1      0.000000000000      1.826511275305                 1
   186   183   184   193     1      0.000000000000      0.548667589915                 3
   186   183   184   193     1      0.000000000000      1.826511275305                 1
   186   183   184   194     1      0.000000000000      0.548667589915                 3
   186   183   184   194     1      0.000000000000      1.826511275305                 1
   186   183   185   195     1      0.000000000000      0.548667589915                 3
   186   183   185   195     1      0.000000000000      1.826511275305                 1
   186   183   185   196     1      0.000000000000      0.548667589915                 3
   186   183   185   196     1      0.000000000000      1.826511275305                 1
   186   183   185   197     1      0.000000000000      0.548667589915                 3
   186   183   185   197     1      0.000000000000      1.826511275305                 1
   144   145   164   141     4    180.000000000000      7.295209241758                 2
    13     6    12    33     4    180.000000000000      7.295209241758                 2
    47    46    48    69     4    180.000000000000      7.295209241758                 2
    60    68    59    61     4    180.000000000000      7.295209241758                 2
    18    17    19    36     4    180.000000000000      7.295209241758                 2
   105   123   104   106     4    180.000000000000      7.295209241758                 2
    68    87    60    67     4    180.000000000000      7.295209241758                 2
     4     5    29     3     4    180.000000000000      7.295209241758                 2
    58    59    78    49     4    180.000000000000      7.295209241758                 2
   137   146   136   138     4    180.000000000000      7.295209241758                 2
    14    34     5    15     4    180.000000000000      7.295209241758                 2
   156   148   155   175     4    180.000000000000      7.295209241758                 2
    50    57    49    51     4    180.000000000000      7.295209241758                 2
   138   139   145   137     4    180.000000000000      7.295209241758                 2
   107   111   106   108     4    180.000000000000      7.295209241758                 2
    10   178     9    11     4    180.000000000000     18.013091641645                 2
    53    52    54    56     4    180.000000000000      7.295209241758                 2
    50    49    51    57     4    180.000000000000      7.295209241758                 2
   155   156   174   151     4    180.000000000000      7.295209241758                 2
    51    50    52    74     4    180.000000000000      7.295209241758                 2
    50    51    57    49     4    180.000000000000      7.295209241758                 2
   136   137   161   135     4    180.000000000000      7.295209241758                 2
   145   144   165   138     4    180.000000000000      7.295209241758                 2
    92    91    93   117     4    180.000000000000      7.295209241758                 2
   113    91   103   132     4    180.000000000000      7.295209241758                 2
    56    76    53    57     4    180.000000000000      7.295209241758                 2
     7    30     6     8     4    180.000000000000      7.295209241758                 2
    53    54    56    52     4    180.000000000000      7.295209241758                 2
   102    93   103   122     4    180.000000000000      7.295209241758                 2
    59    69    58    60     4    180.000000000000      7.295209241758                 2
    52    51    53    75     4    180.000000000000      7.295209241758                 2
    10     9    11   178     4    180.000000000000     18.013091641645                 2
    14    15    34     5     4    180.000000000000      7.295209241758                 2
     5     6    14     4     4    180.000000000000      7.295209241758                 2
   141   140   142   144     4    180.000000000000      7.295209241758                 2
   135   134   136   157     4    180.000000000000      7.295209241758                 2
    91   113    90    92     4    180.000000000000      7.295209241758                 2
     4    29     3     5     4    180.000000000000      7.295209241758                 2
    59    58    60    69     4    180.000000000000      7.295209241758                 2
    97   100    96    98     4    180.000000000000      7.295209241758                 2
     8    31     7     9     4    180.000000000000      7.295209241758                 2
     7     6     8    30     4    180.000000000000      7.295209241758                 2
    67    86    63    68     4    180.000000000000      7.295209241758                 2
     6     7    13     5     4    180.000000000000      7.295209241758                 2
    69    88    47    59     4    180.000000000000      7.295209241758                 2
    14     5    15    34     4    180.000000000000      7.295209241758                 2
    19    23    18    20     4    180.000000000000      7.295209241758                 2
   140   163   139   141     4    180.000000000000      7.295209241758                 2
   102   103   122    93     4    180.000000000000      7.295209241758                 2
   100   101   120    97     4    180.000000000000      7.295209241758                 2
    13    33     6    12     4    180.000000000000      7.295209241758                 2
   146   137   147   166     4    180.000000000000      7.295209241758                 2
   104   112   103   105     4    180.000000000000      7.295209241758                 2
    15    25    14    16     4    180.000000000000      7.295209241758                 2
    62    61    63    80     4    180.000000000000      7.295209241758                 2
    25     3    15    44     4    180.000000000000      7.295209241758                 2
   111   130   107   112     4    180.000000000000      7.295209241758                 2
    49    50    58    48     4    180.000000000000      7.295209241758                 2
   139   138   140   162     4    180.000000000000      7.295209241758                 2
    19    18    20    23     4    180.000000000000      7.295209241758                 2
   157   135   147   176     4    180.000000000000      7.295209241758                 2
   101   100   121    94     4    180.000000000000      7.295209241758                 2
    92   117    91    93     4    180.000000000000      7.295209241758                 2
    24    43    16    23     4    180.000000000000      7.295209241758                 2
     9     8    10    12     4    180.000000000000      7.295209241758                 2
   137   138   146   136     4    180.000000000000      7.295209241758                 2
    98    97    99    66     4    180.000000000000      7.295209241758                 2
    24    16    23    43     4    180.000000000000      7.295209241758                 2
    23    19    24    42     4    180.000000000000      7.295209241758                 2
   154   187   152   173     4    180.000000000000      1.752067434103                 2
   102   122    93   103     4    180.000000000000      7.295209241758                 2
     5    14     4     6     4    180.000000000000      7.295209241758                 2
   149   167   148   150     4    180.000000000000      7.295209241758                 2
   110   129   142   108     4    180.000000000000      1.752067434103                 2
   141   142   144   140     4    180.000000000000      7.295209241758                 2
   138   137   139   145     4    180.000000000000      7.295209241758                 2
    67    68    86    63     4    180.000000000000      7.295209241758                 2
    47    48    69    46     4    180.000000000000      7.295209241758                 2
   112   131   104   111     4    180.000000000000      7.295209241758                 2
    97    98   100    96     4    180.000000000000      7.295209241758                 2
   148   149   156   147     4    180.000000000000      7.295209241758                 2
   105   106   123   104     4    180.000000000000      7.295209241758                 2
    12     9    13    32     4    180.000000000000      7.295209241758                 2
   154   173   187   152     4    180.000000000000      1.752067434103                 2
   157   147   176   135     4    180.000000000000      7.295209241758                 2
    51    52    74    50     4    180.000000000000      7.295209241758                 2
    49    58    48    50     4    180.000000000000      7.295209241758                 2
   110   142   108   129     4    180.000000000000      1.752067434103                 2
    92    93   117    91     4    180.000000000000      7.295209241758                 2
    56    53    57    76     4    180.000000000000      7.295209241758                 2
   105   104   106   123     4    180.000000000000      7.295209241758                 2
   146   166   137   147     4    180.000000000000      7.295209241758                 2
   154   152   173   187     4    180.000000000000      1.752067434103                 2
    22    54    20    41     4    180.000000000000      1.752067434103                 2
    56    57    76    53     4    180.000000000000      7.295209241758                 2
   112   104   111   131     4    180.000000000000      7.295209241758                 2
   187   154   186   188     4    180.000000000000     18.013091641645                 2
    94    93    95   101     4    180.000000000000      7.295209241758                 2
   101   121    94   100     4    180.000000000000      7.295209241758                 2
    63    64    67    62     4    180.000000000000      7.295209241758                 2
    95    94    96   118     4    180.000000000000      7.295209241758                 2
   111   112   130   107     4    180.000000000000      7.295209241758                 2
   113   132    91   103     4    180.000000000000      7.295209241758                 2
    66    85    98    64     4    180.000000000000      1.752067434103                 2
   106   124   105   107     4    180.000000000000      7.295209241758                 2
    54    22    53    55     4    180.000000000000      7.295209241758                 2
    91    90    92   113     4    180.000000000000      7.295209241758                 2
    48    73    47    49     4    180.000000000000      7.295209241758                 2
   139   140   162   138     4    180.000000000000      7.295209241758                 2
    49    48    50    58     4    180.000000000000      7.295209241758                 2
   156   155   175   148     4    180.000000000000      7.295209241758                 2
    58    78    49    59     4    180.000000000000      7.295209241758                 2
   146   147   166   137     4    180.000000000000      7.295209241758                 2
    52    53    75    51     4    180.000000000000      7.295209241758                 2
    66    98    64    85     4    180.000000000000      1.752067434103                 2
    16    17    24    15     4    180.000000000000      7.295209241758                 2
   148   156   147   149     4    180.000000000000      7.295209241758                 2
    68    67    87    60     4    180.000000000000      7.295209241758                 2
    57    77    50    56     4    180.000000000000      7.295209241758                 2
     6    13     5     7     4    180.000000000000      7.295209241758                 2
    57    50    56    77     4    180.000000000000      7.295209241758                 2
    60    59    61    68     4    180.000000000000      7.295209241758                 2
   155   151   156   174     4    180.000000000000      7.295209241758                 2
   150   149   151   168     4    180.000000000000      7.295209241758                 2
   136   161   135   137     4    180.000000000000      7.295209241758                 2
   187   186   188   154     4    180.000000000000     18.013091641645                 2
     7     8    30     6     4    180.000000000000      7.295209241758                 2
    17    16    18    35     4    180.000000000000      7.295209241758                 2
   136   135   137   161     4    180.000000000000      7.295209241758                 2
    59    60    69    58     4    180.000000000000      7.295209241758                 2
   147   148   157   146     4    180.000000000000      7.295209241758                 2
    23    24    42    19     4    180.000000000000      7.295209241758                 2
    63    67    62    64     4    180.000000000000      7.295209241758                 2
    69    47    59    88     4    180.000000000000      7.295209241758                 2
   100   120    97   101     4    180.000000000000      7.295209241758                 2
    15    16    25    14     4    180.000000000000      7.295209241758                 2
   142   110   141   143     4    180.000000000000      7.295209241758                 2
     3     2     4    25     4    180.000000000000      7.295209241758                 2
   135   136   157   134     4    180.000000000000      7.295209241758                 2
   110   108   129   142     4    180.000000000000      1.752067434103                 2
    17    35    16    18     4    180.000000000000      7.295209241758                 2
    24    23    43    16     4    180.000000000000      7.295209241758                 2
    57    56    77    50     4    180.000000000000      7.295209241758                 2
    48    49    73    47     4    180.000000000000      7.295209241758                 2
    66    64    85    98     4    180.000000000000      1.752067434103                 2
    60    61    68    59     4    180.000000000000      7.295209241758                 2
   142   141   143   110     4    180.000000000000      7.295209241758                 2
   141   144   140   142     4    180.000000000000      7.295209241758                 2
    16    15    17    24     4    180.000000000000      7.295209241758                 2
   147   157   146   148     4    180.000000000000      7.295209241758                 2
    94    95   101    93     4    180.000000000000      7.295209241758                 2
    10    11   178     9     4    180.000000000000     18.013091641645                 2
   104   103   105   112     4    180.000000000000      7.295209241758                 2
   187   188   154   186     4    180.000000000000     18.013091641645                 2
   107   106   108   111     4    180.000000000000      7.295209241758                 2
    54    53    55    22     4    180.000000000000      7.295209241758                 2
    61    79    60    62     4    180.000000000000      7.295209241758                 2
    48    47    49    73     4    180.000000000000      7.295209241758                 2
    67    63    68    86     4    180.000000000000      7.295209241758                 2
    12    32     9    13     4    180.000000000000      7.295209241758                 2
   145   165   138   144     4    180.000000000000      7.295209241758                 2
    93    92    94   102     4    180.000000000000      7.295209241758                 2
    91    92   113    90     4    180.000000000000      7.295209241758                 2
    62    80    61    63     4    180.000000000000      7.295209241758                 2
    22    20    41    54     4    180.000000000000      1.752067434103                 2
    95   118    94    96     4    180.000000000000      7.295209241758                 2
    15    14    16    25     4    180.000000000000      7.295209241758                 2
   113   103   132    91     4    180.000000000000      7.295209241758                 2
   111   107   112   130     4    180.000000000000      7.295209241758                 2
    12    13    32     9     4    180.000000000000      7.295209241758                 2
   150   151   168   149     4    180.000000000000      7.295209241758                 2
   144   164   141   145     4    180.000000000000      7.295209241758                 2
    18    19    36    17     4    180.000000000000      7.295209241758                 2
    54    55    22    53     4    180.000000000000      7.295209241758                 2
    13    12    33     6     4    180.000000000000      7.295209241758                 2
    47    69    46    48     4    180.000000000000      7.295209241758                 2
     9    12     8    10     4    180.000000000000      7.295209241758                 2
   151   155   150   152     4    180.000000000000      7.295209241758                 2
   151   152   155   150     4    180.000000000000      7.295209241758                 2
    94   101    93    95     4    180.000000000000      7.295209241758                 2
    98    99    66    97     4    180.000000000000      7.295209241758                 2
    96   119    95    97     4    180.000000000000      7.295209241758                 2
    63    62    64    67     4    180.000000000000      7.295209241758                 2
    93    94   102    92     4    180.000000000000      7.295209241758                 2
    25    15    44     3     4    180.000000000000      7.295209241758                 2
   148   147   149   156     4    180.000000000000      7.295209241758                 2
    61    60    62    79     4    180.000000000000      7.295209241758                 2
   103   102   104   113     4    180.000000000000      7.295209241758                 2
    53    56    52    54     4    180.000000000000      7.295209241758                 2
   103   104   113   102     4    180.000000000000      7.295209241758                 2
   112   111   131   104     4    180.000000000000      7.295209241758                 2
     6     5     7    13     4    180.000000000000      7.295209241758                 2
   140   141   163   139     4    180.000000000000      7.295209241758                 2
    96    95    97   119     4    180.000000000000      7.295209241758                 2
     8     9    31     7     4    180.000000000000      7.295209241758                 2
    22    41    54    20     4    180.000000000000      1.752067434103                 2
   149   148   150   167     4    180.000000000000      7.295209241758                 2
   101    94   100   121     4    180.000000000000      7.295209241758                 2
    23    42    19    24     4    180.000000000000      7.295209241758                 2
    98    66    97    99     4    180.000000000000      7.295209241758                 2
   103   113   102   104     4    180.000000000000      7.295209241758                 2
    69    59    88    47     4    180.000000000000      7.295209241758                 2
     9    10    12     8     4    180.000000000000      7.295209241758                 2
     3     4    25     2     4    180.000000000000      7.295209241758                 2
   156   175   148   155     4    180.000000000000      7.295209241758                 2
    17    18    35    16     4    180.000000000000      7.295209241758                 2
   106   105   107   124     4    180.000000000000      7.295209241758                 2
    52    75    51    53     4    180.000000000000      7.295209241758                 2
   144   141   145   164     4    180.000000000000      7.295209241758                 2
   157   176   135   147     4    180.000000000000      7.295209241758                 2
   149   150   167   148     4    180.000000000000      7.295209241758                 2
   150   168   149   151     4    180.000000000000      7.295209241758                 2
    68    60    67    87     4    180.000000000000      7.295209241758                 2
    96    97   119    95     4    180.000000000000      7.295209241758                 2
     4     3     5    29     4    180.000000000000      7.295209241758                 2
   104   105   112   103     4    180.000000000000      7.295209241758                 2
   138   145   137   139     4    180.000000000000      7.295209241758                 2
    97    96    98   100     4    180.000000000000      7.295209241758                 2
    51    74    50    52     4    180.000000000000      7.295209241758                 2
    62    63    80    61     4    180.000000000000      7.295209241758                 2
    58    49    59    78     4    180.000000000000      7.295209241758                 2
   155   174   151   156     4    180.000000000000      7.295209241758                 2
   106   107   124   105     4    180.000000000000      7.295209241758                 2
     3    25     2     4     4    180.000000000000      7.295209241758                 2
    93   102    92    94     4    180.000000000000      7.295209241758                 2
   147   146   148   157     4    180.000000000000      7.295209241758                 2
   137   136   138   146     4    180.000000000000      7.295209241758                 2
   142   143   110   141     4    180.000000000000      7.295209241758                 2
   107   108   111   106     4    180.000000000000      7.295209241758                 2
   100    97   101   120     4    180.000000000000      7.295209241758                 2
   140   139   141   163     4    180.000000000000      7.295209241758                 2
   135   157   134   136     4    180.000000000000      7.295209241758                 2
   139   162   138   140     4    180.000000000000      7.295209241758                 2
   145   138   144   165     4    180.000000000000      7.295209241758                 2
    25    44     3    15     4    180.000000000000      7.295209241758                 2
    19    20    23    18     4    180.000000000000      7.295209241758                 2
    61    62    79    60     4    180.000000000000      7.295209241758                 2
   151   150   152   155     4    180.000000000000      7.295209241758                 2
     8     7     9    31     4    180.000000000000      7.295209241758                 2
     5     4     6    14     4    180.000000000000      7.295209241758                 2
    18    36    17    19     4    180.000000000000      7.295209241758                 2
    95    96   118    94     4    180.000000000000      7.295209241758                 2
    16    24    15    17     4    180.000000000000      7.295209241758                 2

[ settles ]
;i  funct   dOH  dHH


[ exclusions ]
;ai    aj


[ system ]
;name
FOO

[ molecules ]
;name	number
pmp_tetramer.pdb	1

