Generated by Interchange
3367
    1mop_t    C    1   1.927   1.157   3.147
    1mop_t    O    2   2.041   1.193   3.122
    1mop_t    C    3   1.808   1.239   3.116
    1mop_t    C    4   1.689   1.231   3.189
    1mop_t    C    5   1.577   1.306   3.150
    1mop_t    C    6   1.583   1.391   3.038
    1mop_t    C    7   1.467   1.471   2.994
    1mop_t    C    8   1.410   1.572   3.073
    1mop_t    C    9   1.295   1.639   3.027
    1mop_t    C   10   1.238   1.611   2.903
    1mop_t    O   11   1.126   1.684   2.874
    1mop_t    C   12   1.069   1.665   2.746
    1mop_t    C   13   1.297   1.514   2.823
    1mop_t    C   14   1.410   1.444   2.868
    1mop_t    C   15   1.462   1.610   3.204
    1mop_t    C   16   1.593   1.657   3.223
    1mop_t    C   17   1.641   1.687   3.350
    1mop_t    C   18   1.558   1.672   3.460
    1mop_t    C   19   1.426   1.627   3.442
    1mop_t    C   20   1.380   1.595   3.315
    1mop_t    C   21   1.335   1.603   3.560
    1mop_t    N   22   1.395   1.496   3.638
    1mop_t    C   23   1.320   1.737   3.634
    1mop_t    C   24   1.705   1.400   2.968
    1mop_t    C   25   1.816   1.326   3.007
    1mop_t    H   26   1.682   1.166   3.276
    1mop_t    H   27   1.486   1.299   3.209
    1mop_t    H   28   1.248   1.716   3.089
    1mop_t    H   29   0.981   1.730   2.739
    1mop_t    H   30   1.035   1.562   2.732
    1mop_t    H   31   1.139   1.695   2.667
    1mop_t    H   32   1.257   1.489   2.725
    1mop_t    H   33   1.453   1.367   2.804
    1mop_t    H   34   1.660   1.668   3.137
    1mop_t    H   35   1.744   1.719   3.363
    1mop_t    H   36   1.597   1.694   3.559
    1mop_t    H   37   1.279   1.555   3.303
    1mop_t    H   38   1.235   1.570   3.527
    1mop_t    H   39   1.476   1.525   3.689
    1mop_t    H   40   1.407   1.760   3.696
    1mop_t    H   41   1.233   1.738   3.698
    1mop_t    H   42   1.305   1.819   3.564
    1mop_t    H   43   1.713   1.467   2.882
    1mop_t    H   44   1.908   1.334   2.950
    1mop_t    C   45   1.393   1.366   3.588
    1mop_t    O   46   1.300   1.322   3.520
    1mop_t    C   47   1.516   1.281   3.612
    1mop_t    C   48   1.623   1.325   3.690
    1mop_t    C   49   1.742   1.251   3.697
    1mop_t    C   50   1.757   1.130   3.628
    1mop_t    C   51   1.884   1.055   3.635
    1mop_t    C   52   1.930   0.991   3.752
    1mop_t    C   53   2.056   0.929   3.755
    1mop_t    C   54   2.139   0.929   3.644
    1mop_t    O   55   2.260   0.868   3.661
    1mop_t    C   56   2.333   0.837   3.543
    1mop_t    C   57   2.096   0.994   3.529
    1mop_t    C   58   1.970   1.055   3.525
    1mop_t    C   59   1.857   1.003   3.879
    1mop_t    C   60   1.727   0.954   3.898
    1mop_t    C   61   1.659   0.980   4.017
    1mop_t    C   62   1.722   1.052   4.117
    1mop_t    C   63   1.853   1.099   4.100
    1mop_t    C   64   1.919   1.075   3.981
    1mop_t    C   65   1.924   1.182   4.203
    1mop_t    N   66   1.847   1.304   4.219
    1mop_t    C   67   1.935   1.095   4.329
    1mop_t    C   68   1.647   1.084   3.554
    1mop_t    C   69   1.528   1.159   3.546
    1mop_t    H   70   1.621   1.417   3.746
    1mop_t    H   71   1.824   1.289   3.758
    1mop_t    H   72   2.093   0.884   3.847
    1mop_t    H   73   2.422   0.780   3.573
    1mop_t    H   74   2.367   0.928   3.492
    1mop_t    H   75   2.274   0.774   3.476
    1mop_t    H   76   2.160   1.002   3.442
    1mop_t    H   77   1.940   1.109   3.435
    1mop_t    H   78   1.677   0.900   3.819
    1mop_t    H   79   1.557   0.945   4.030
    1mop_t    H   80   1.667   1.074   4.209
    1mop_t    H   81   2.018   1.117   3.965
    1mop_t    H   82   2.025   1.210   4.170
    1mop_t    H   83   1.764   1.291   4.275
    1mop_t    H   84   1.839   1.082   4.380
    1mop_t    H   85   2.005   1.135   4.401
    1mop_t    H   86   1.972   0.995   4.303
    1mop_t    H   87   1.654   0.989   3.501
    1mop_t    H   88   1.446   1.121   3.485
    1mop_t    C   89   1.843   1.399   4.118
    1mop_t    O   90   1.938   1.421   4.043
    1mop_t    C   91   1.711   1.468   4.094
    1mop_t    C   92   1.598   1.440   4.172
    1mop_t    C   93   1.472   1.489   4.138
    1mop_t    C   94   1.454   1.570   4.026
    1mop_t    C   95   1.318   1.614   3.990
    1mop_t    C   96   1.251   1.719   4.056
    1mop_t    C   97   1.123   1.758   4.011
    1mop_t    C   98   1.058   1.691   3.907
    1mop_t    O   99   0.935   1.740   3.872
    1mop_t    C  100   0.898   1.719   3.736
    1mop_t    C  101   1.117   1.577   3.854
    1mop_t    C  102   1.245   1.539   3.896
    1mop_t    C  103   1.299   1.772   4.184
    1mop_t    C  104   1.418   1.843   4.200
    1mop_t    C  105   1.464   1.876   4.327
    1mop_t    C  106   1.390   1.841   4.440
    1mop_t    C  107   1.270   1.771   4.428
    1mop_t    C  108   1.225   1.738   4.299
    1mop_t    C  109   1.191   1.717   4.546
    1mop_t    N  110   1.273   1.621   4.618
    1mop_t    C  111   1.146   1.832   4.637
    1mop_t    C  112   1.568   1.605   3.951
    1mop_t    C  113   1.695   1.554   3.985
    1mop_t    H  114   1.602   1.378   4.260
    1mop_t    H  115   1.387   1.463   4.200
    1mop_t    H  116   1.071   1.840   4.060
    1mop_t    H  117   0.805   1.774   3.718
    1mop_t    H  118   0.878   1.613   3.715
    1mop_t    H  119   0.974   1.759   3.667
    1mop_t    H  120   1.068   1.517   3.778
    1mop_t    H  121   1.288   1.449   3.855
    1mop_t    H  122   1.479   1.868   4.113
    1mop_t    H  123   1.559   1.927   4.338
    1mop_t    H  124   1.430   1.865   4.539
    1mop_t    H  125   1.135   1.678   4.288
    1mop_t    H  126   1.102   1.664   4.511
    1mop_t    H  127   1.336   1.662   4.685
    1mop_t    H  128   1.231   1.885   4.681
    1mop_t    H  129   1.084   1.795   4.719
    1mop_t    H  130   1.087   1.905   4.580
    1mop_t    H  131   1.559   1.671   3.866
    1mop_t    H  132   1.781   1.579   3.922
    1mop_t    C  133   1.310   1.503   4.555
    1mop_t    O  134   1.235   1.441   4.480
    1mop_t    C  135   1.452   1.457   4.573
    1mop_t    C  136   1.547   1.539   4.633
    1mop_t    C  137   1.682   1.503   4.640
    1mop_t    C  138   1.726   1.384   4.584
    1mop_t    C  139   1.870   1.351   4.590
    1mop_t    C  140   1.931   1.292   4.702
    1mop_t    C  141   2.068   1.256   4.694
    1mop_t    C  142   2.145   1.285   4.582
    1mop_t    O  143   2.274   1.241   4.586
    1mop_t    C  144   2.333   1.212   4.459
    1mop_t    C  145   2.089   1.359   4.479
    1mop_t    C  146   1.953   1.393   4.484
    1mop_t    C  147   1.864   1.289   4.833
    1mop_t    C  148   1.750   1.214   4.861
    1mop_t    C  149   1.683   1.230   4.983
    1mop_t    C  150   1.730   1.321   5.078
    1mop_t    C  151   1.846   1.396   5.053
    1mop_t    C  152   1.911   1.378   4.931
    1mop_t    C  153   1.899   1.502   5.148
    1mop_t    N  154   1.808   1.616   5.156
    1mop_t    C  155   1.931   1.445   5.285
    1mop_t    C  156   1.631   1.300   4.523
    1mop_t    C  157   1.495   1.336   4.517
    1mop_t    H  158   1.521   1.635   4.673
    1mop_t    H  159   1.753   1.568   4.689
    1mop_t    H  160   2.116   1.209   4.780
    1mop_t    H  161   2.431   1.167   4.477
    1mop_t    H  162   2.350   1.304   4.401
    1mop_t    H  163   2.274   1.140   4.403
    1mop_t    H  164   2.146   1.390   4.392
    1mop_t    H  165   1.912   1.453   4.403
    1mop_t    H  166   1.709   1.146   4.786
    1mop_t    H  167   1.592   1.174   5.002
    1mop_t    H  168   1.675   1.334   5.171
    1mop_t    H  169   1.998   1.441   4.907
    1mop_t    H  170   1.993   1.541   5.108
    1mop_t    H  171   1.733   1.617   5.223
    1mop_t    H  172   1.843   1.406   5.336
    1mop_t    H  173   1.976   1.521   5.350
    1mop_t    H  174   2.003   1.362   5.276
    1mop_t    H  175   1.661   1.206   4.478
    1mop_t    H  176   1.424   1.272   4.465
    1mop_t    C  177   1.994   0.941   3.206
    1mop_t    O  178   1.888   1.036   3.193
    1mop_t    H  179   2.005   0.885   3.112
    1mop_t    H  180   1.968   0.870   3.285
    1mop_t    H  181   2.090   0.987   3.231
    1mop_t    C  182   1.547   1.973   5.028
    1mop_t    C  183   1.651   1.878   4.966
    1mop_t    C  184   1.581   1.796   4.859
    1mop_t    C  185   1.764   1.962   4.906
    1mop_t    O  186   1.695   1.790   5.073
    1mop_t    C  187   1.795   1.701   5.050
    1mop_t    O  188   1.862   1.696   4.948
    1mop_t    H  189   1.506   2.041   4.953
    1mop_t    H  190   1.464   1.917   5.073
    1mop_t    H  191   1.592   2.033   5.108
    1mop_t    H  192   1.503   1.732   4.902
    1mop_t    H  193   1.653   1.730   4.811
    1mop_t    H  194   1.535   1.859   4.781
    1mop_t    H  195   1.822   2.012   4.984
    1mop_t    H  196   1.834   1.902   4.847
    1mop_t    H  197   1.724   2.038   4.837
    2MOL1    Cl  198   4.182   0.408   2.640
    2MOL1     C  199   4.348   0.352   2.666
    2MOL1    Cl  200   4.419   0.433   2.807
    2MOL1    Cl  201   4.352   0.176   2.687
    2MOL1     H  202   4.407   0.378   2.578
    2MOL1    Cl  203   1.654   2.676   4.306
    2MOL1     C  204   1.787   2.562   4.327
    2MOL1    Cl  205   1.906   2.627   4.442
    2MOL1    Cl  206   1.727   2.405   4.382
    2MOL1     H  207   1.836   2.548   4.231
    2MOL1    Cl  208   1.989   2.378   0.945
    2MOL1     C  209   1.819   2.337   0.971
    2MOL1    Cl  210   1.789   2.167   0.930
    2MOL1    Cl  211   1.771   2.370   1.138
    2MOL1     H  212   1.758   2.399   0.904
    2MOL1    Cl  213   2.705   0.590   3.909
    2MOL1     C  214   2.624   0.655   3.766
    2MOL1    Cl  215   2.481   0.559   3.725
    2MOL1    Cl  216   2.580   0.825   3.792
    2MOL1     H  217   2.694   0.651   3.682
    2MOL1    Cl  218   2.155   1.790   2.814
    2MOL1     C  219   2.330   1.765   2.827
    2MOL1    Cl  220   2.404   1.761   2.667
    2MOL1    Cl  221   2.404   1.892   2.927
    2MOL1     H  222   2.347   1.669   2.876
    2MOL1    Cl  223   5.009   1.109   0.569
    2MOL1     C  224   5.028   1.285   0.564
    2MOL1    Cl  225   5.189   1.332   0.619
    2MOL1    Cl  226   4.998   1.346   0.400
    2MOL1     H  227   4.954   1.329   0.631
    2MOL1    Cl  228   3.032   0.865   2.474
    2MOL1     C  229   2.884   0.800   2.544
    2MOL1    Cl  230   2.909   0.635   2.603
    2MOL1    Cl  231   2.826   0.904   2.676
    2MOL1     H  232   2.807   0.797   2.467
    2MOL1    Cl  233   3.915   3.972   4.825
    2MOL1     C  234   3.761   4.059   4.825
    2MOL1    Cl  235   3.716   4.107   4.661
    2MOL1    Cl  236   3.634   3.960   4.898
    2MOL1     H  237   3.773   4.150   4.886
    2MOL1    Cl  238   0.802   4.263   3.321
    2MOL1     C  239   0.766   4.183   3.475
    2MOL1    Cl  240   0.768   4.007   3.456
    2MOL1    Cl  241   0.882   4.233   3.599
    2MOL1     H  242   0.666   4.214   3.507
    2MOL1    Cl  243   3.799   1.294   2.686
    2MOL1     C  244   3.921   1.343   2.568
    2MOL1    Cl  245   3.987   1.202   2.484
    2MOL1    Cl  246   3.852   1.458   2.451
    2MOL1     H  247   4.002   1.392   2.621
    2MOL1    Cl  248   4.976   3.055   4.307
    2MOL1     C  249   4.888   3.100   4.453
    2MOL1    Cl  250   4.998   3.173   4.572
    2MOL1    Cl  251   4.755   3.211   4.415
    2MOL1     H  252   4.845   3.010   4.497
    2MOL1    Cl  253   0.515   2.841   1.646
    2MOL1     C  254   0.581   2.865   1.484
    2MOL1    Cl  255   0.620   2.709   1.409
    2MOL1    Cl  256   0.467   2.956   1.383
    2MOL1     H  257   0.673   2.923   1.492
    2MOL1    Cl  258   1.661   1.843   2.456
    2MOL1     C  259   1.555   1.984   2.440
    2MOL1    Cl  260   1.636   2.113   2.350
    2MOL1    Cl  261   1.403   1.939   2.360
    2MOL1     H  262   1.531   2.021   2.540
    2MOL1    Cl  263   4.345   4.280   0.644
    2MOL1     C  264   4.292   4.433   0.716
    2MOL1    Cl  265   4.116   4.435   0.735
    2MOL1    Cl  266   4.372   4.459   0.872
    2MOL1     H  267   4.320   4.514   0.648
    2MOL1    Cl  268   2.529   5.142   3.871
    2MOL1     C  269   2.655   5.184   3.754
    2MOL1    Cl  270   2.729   5.340   3.796
    2MOL1    Cl  271   2.778   5.057   3.746
    2MOL1     H  272   2.609   5.194   3.655
    2MOL1    Cl  273   3.033   1.782   3.091
    2MOL1     C  274   2.888   1.881   3.114
    2MOL1    Cl  275   2.925   2.052   3.089
    2MOL1    Cl  276   2.759   1.828   3.004
    2MOL1     H  277   2.853   1.867   3.216
    2MOL1    Cl  278   0.603   3.190   5.141
    2MOL1     C  279   0.685   3.103   5.010
    2MOL1    Cl  280   0.570   3.060   4.882
    2MOL1    Cl  281   0.818   3.200   4.945
    2MOL1     H  282   0.727   3.011   5.051
    2MOL1    Cl  283   4.684   3.553   2.294
    2MOL1     C  284   4.586   3.557   2.146
    2MOL1    Cl  285   4.652   3.447   2.024
    2MOL1    Cl  286   4.417   3.517   2.182
    2MOL1     H  287   4.589   3.659   2.105
    2MOL1    Cl  288   5.214   3.529   4.998
    2MOL1     C  289   5.193   3.683   4.912
    2MOL1    Cl  290   5.031   3.749   4.941
    2MOL1    Cl  291   5.318   3.799   4.961
    2MOL1     H  292   5.204   3.664   4.805
    2MOL1    Cl  293   2.138   1.198   3.342
    2MOL1     C  294   2.200   1.282   3.485
    2MOL1    Cl  295   2.370   1.325   3.463
    2MOL1    Cl  296   2.102   1.426   3.519
    2MOL1     H  297   2.192   1.214   3.570
    2MOL1    Cl  298   1.433   1.864   2.833
    2MOL1     C  299   1.293   1.957   2.775
    2MOL1    Cl  300   1.297   2.122   2.838
    2MOL1    Cl  301   1.288   1.957   2.598
    2MOL1     H  302   1.202   1.908   2.812
    2MOL1    Cl  303   3.211   4.802   4.918
    2MOL1     C  304   3.120   4.696   4.809
    2MOL1    Cl  305   3.045   4.563   4.899
    2MOL1    Cl  306   2.997   4.788   4.720
    2MOL1     H  307   3.190   4.653   4.736
    2MOL1    Cl  308   2.854   2.560   1.974
    2MOL1     C  309   2.704   2.471   2.004
    2MOL1    Cl  310   2.713   2.386   2.160
    2MOL1    Cl  311   2.565   2.581   2.001
    2MOL1     H  312   2.692   2.397   1.925
    2MOL1    Cl  313   2.889   1.962   5.029
    2MOL1     C  314   2.733   2.038   5.062
    2MOL1    Cl  315   2.635   1.935   5.169
    2MOL1    Cl  316   2.755   2.198   5.134
    2MOL1     H  317   2.679   2.050   4.968
    2MOL1    Cl  318   4.797   0.160   1.350
    2MOL1     C  319   4.885   0.295   1.277
    2MOL1    Cl  320   4.940   0.409   1.402
    2MOL1    Cl  321   5.023   0.236   1.183
    2MOL1     H  322   4.818   0.348   1.210
    2MOL1    Cl  323   2.884   0.844   1.304
    2MOL1     C  324   3.060   0.851   1.281
    2MOL1    Cl  325   3.113   0.726   1.167
    2MOL1    Cl  326   3.108   1.012   1.223
    2MOL1     H  327   3.108   0.833   1.377
    2MOL1    Cl  328   3.801   3.359   1.855
    2MOL1     C  329   3.941   3.251   1.857
    2MOL1    Cl  330   3.911   3.107   1.759
    2MOL1    Cl  331   4.086   3.336   1.801
    2MOL1     H  332   3.959   3.219   1.960
    2MOL1    Cl  333   1.232   0.867   3.495
    2MOL1     C  334   1.154   0.868   3.654
    2MOL1    Cl  335   1.123   1.034   3.707
    2MOL1    Cl  336   1.004   0.774   3.650
    2MOL1     H  337   1.222   0.821   3.726
    2MOL1    Cl  338   2.611   3.690   3.440
    2MOL1     C  339   2.784   3.654   3.429
    2MOL1    Cl  340   2.811   3.509   3.331
    2MOL1    Cl  341   2.872   3.792   3.362
    2MOL1     H  342   2.822   3.635   3.530
    2MOL1    Cl  343   0.514   0.885   2.493
    2MOL1     C  344   0.346   0.870   2.440
    2MOL1    Cl  345   0.235   0.929   2.565
    2MOL1    Cl  346   0.321   0.958   2.288
    2MOL1     H  347   0.325   0.764   2.422
    2MOL1    Cl  348   5.014   2.158   2.025
    2MOL1     C  349   5.009   2.008   2.118
    2MOL1    Cl  350   4.868   1.911   2.074
    2MOL1    Cl  351   5.158   1.915   2.094
    2MOL1     H  352   5.002   2.034   2.224
    2MOL1    Cl  353   1.119   3.423   2.370
    2MOL1     C  354   1.244   3.537   2.318
    2MOL1    Cl  355   1.250   3.547   2.141
    2MOL1    Cl  356   1.215   3.697   2.389
    2MOL1     H  357   1.341   3.501   2.354
    2MOL1    Cl  358   4.025   1.554   1.998
    2MOL1     C  359   3.915   1.422   2.040
    2MOL1    Cl  360   3.981   1.267   1.985
    2MOL1    Cl  361   3.886   1.419   2.215
    2MOL1     H  362   3.820   1.438   1.989
    2MOL1    Cl  363   0.762   2.088   2.275
    2MOL1     C  364   0.806   2.236   2.187
    2MOL1    Cl  365   0.940   2.319   2.267
    2MOL1    Cl  366   0.847   2.198   2.018
    2MOL1     H  367   0.719   2.303   2.187
    2MOL1    Cl  368   2.101   3.967   1.819
    2MOL1     C  369   2.205   3.845   1.744
    2MOL1    Cl  370   2.243   3.716   1.860
    2MOL1    Cl  371   2.127   3.778   1.600
    2MOL1     H  372   2.298   3.893   1.714
    2MOL1    Cl  373   0.848   4.464   1.134
    2MOL1     C  374   0.990   4.568   1.146
    2MOL1    Cl  375   1.139   4.472   1.147
    2MOL1    Cl  376   0.993   4.686   1.014
    2MOL1     H  377   0.984   4.623   1.241
    2MOL1    Cl  378   0.424   1.340   4.879
    2MOL1     C  379   0.263   1.292   4.823
    2MOL1    Cl  380   0.149   1.427   4.836
    2MOL1    Cl  381   0.270   1.232   4.657
    2MOL1     H  382   0.227   1.211   4.888
    2MOL1    Cl  383   1.411   4.043   4.747
    2MOL1     C  384   1.330   3.886   4.767
    2MOL1    Cl  385   1.425   3.780   4.872
    2MOL1    Cl  386   1.167   3.909   4.833
    2MOL1     H  387   1.321   3.840   4.669
    2MOL1    Cl  388   0.367   0.587   4.884
    2MOL1     C  389   0.321   0.756   4.855
    2MOL1    Cl  390   0.440   0.836   4.752
    2MOL1    Cl  391   0.160   0.765   4.783
    2MOL1     H  392   0.318   0.808   4.951
    2MOL1    Cl  393   1.142   4.414   2.136
    2MOL1     C  394   1.064   4.282   2.224
    2MOL1    Cl  395   1.186   4.168   2.285
    2MOL1    Cl  396   0.966   4.345   2.358
    2MOL1     H  397   0.998   4.228   2.155
    2MOL1    Cl  398   3.805   4.004   0.215
    2MOL1     C  399   3.673   4.114   0.175
    2MOL1    Cl  400   3.692   4.268   0.262
    2MOL1    Cl  401   3.666   4.142   0.000
    2MOL1     H  402   3.579   4.068   0.207
    2MOL1    Cl  403   1.576   1.481   1.290
    2MOL1     C  404   1.594   1.512   1.464
    2MOL1    Cl  405   1.704   1.648   1.491
    2MOL1    Cl  406   1.437   1.542   1.539
    2MOL1     H  407   1.638   1.423   1.510
    2MOL1    Cl  408   3.410   0.746   2.456
    2MOL1     C  409   3.435   0.687   2.291
    2MOL1    Cl  410   3.331   0.772   2.176
    2MOL1    Cl  411   3.605   0.704   2.244
    2MOL1     H  412   3.409   0.580   2.288
    2MOL1    Cl  413   0.170   0.464   1.929
    2MOL1     C  414   0.158   0.632   1.983
    2MOL1    Cl  415   0.008   0.659   2.073
    2MOL1    Cl  416   0.299   0.675   2.083
    2MOL1     H  417   0.158   0.696   1.895
    2MOL1    Cl  418   3.727   2.608   1.135
    2MOL1     C  419   3.903   2.626   1.122
    2MOL1    Cl  420   3.947   2.688   0.962
    2MOL1    Cl  421   3.963   2.734   1.249
    2MOL1     H  422   3.949   2.528   1.136
    2MOL1    Cl  423   4.803   1.772   3.272
    2MOL1     C  424   4.924   1.811   3.395
    2MOL1    Cl  425   4.940   1.678   3.511
    2MOL1    Cl  426   5.080   1.846   3.319
    2MOL1     H  427   4.891   1.900   3.449
    2MOL1    Cl  428   2.008   3.761   2.375
    2MOL1     C  429   2.007   3.585   2.385
    2MOL1    Cl  430   2.124   3.528   2.505
    2MOL1    Cl  431   1.844   3.526   2.424
    2MOL1     H  432   2.035   3.544   2.287
    2MOL1    Cl  433   0.685   0.147   4.953
    2MOL1     C  434   0.570   0.265   4.888
    2MOL1    Cl  435   0.644   0.359   4.758
    2MOL1    Cl  436   0.423   0.183   4.830
    2MOL1     H  437   0.541   0.333   4.968
    2MOL1    Cl  438   4.531   0.837   4.436
    2MOL1     C  439   4.547   0.696   4.542
    2MOL1    Cl  440   4.445   0.563   4.484
    2MOL1    Cl  441   4.716   0.644   4.552
    2MOL1     H  442   4.514   0.724   4.642
    2MOL1    Cl  443   4.011   4.805   1.466
    2MOL1     C  444   3.880   4.706   1.534
    2MOL1    Cl  445   3.918   4.534   1.518
    2MOL1    Cl  446   3.853   4.748   1.704
    2MOL1     H  447   3.789   4.727   1.478
    2MOL1    Cl  448   4.624   4.511   4.814
    2MOL1     C  449   4.479   4.563   4.900
    2MOL1    Cl  450   4.476   4.495   5.064
    2MOL1    Cl  451   4.470   4.740   4.906
    2MOL1     H  452   4.392   4.526   4.846
    2MOL1    Cl  453   3.891   4.234   1.776
    2MOL1     C  454   4.035   4.332   1.741
    2MOL1    Cl  455   4.115   4.381   1.891
    2MOL1    Cl  456   4.147   4.243   1.636
    2MOL1     H  457   4.003   4.422   1.688
    2MOL1    Cl  458   4.021   4.080   3.336
    2MOL1     C  459   3.849   4.089   3.378
    2MOL1    Cl  460   3.793   4.257   3.374
    2MOL1    Cl  461   3.753   3.989   3.269
    2MOL1     H  462   3.836   4.051   3.480
    2MOL1    Cl  463   0.320   0.763   3.333
    2MOL1     C  464   0.380   0.916   3.400
    2MOL1    Cl  465   0.246   1.028   3.428
    2MOL1    Cl  466   0.470   0.887   3.550
    2MOL1     H  467   0.448   0.960   3.327
    2MOL1    Cl  468   2.946   2.519   2.808
    2MOL1     C  469   3.037   2.659   2.866
    2MOL1    Cl  470   3.206   2.651   2.813
    2MOL1    Cl  471   2.961   2.810   2.811
    2MOL1     H  472   3.036   2.658   2.976
    2MOL1    Cl  473   3.783   2.436   2.577
    2MOL1     C  474   3.734   2.387   2.414
    2MOL1    Cl  475   3.589   2.285   2.421
    2MOL1    Cl  476   3.705   2.529   2.312
    2MOL1     H  477   3.815   2.329   2.370
    2MOL1    Cl  478   5.187   0.683   2.408
    2MOL1     C  479   5.011   0.682   2.427
    2MOL1    Cl  480   4.967   0.635   2.592
    2MOL1    Cl  481   4.943   0.840   2.386
    2MOL1     H  482   4.970   0.608   2.358
    2MOL1    Cl  483   0.391   0.117   3.198
    2MOL1     C  484   0.399   0.193   3.039
    2MOL1    Cl  485   0.567   0.215   2.988
    2MOL1    Cl  486   0.310   0.096   2.919
    2MOL1     H  487   0.352   0.291   3.045
    2MOL1    Cl  488   5.187   3.872   1.313
    2MOL1     C  489   5.178   3.695   1.324
    2MOL1    Cl  490   5.023   3.637   1.261
    2MOL1    Cl  491   5.313   3.621   1.235
    2MOL1     H  492   5.186   3.667   1.429
    2MOL1    Cl  493   1.556   3.256   1.108
    2MOL1     C  494   1.494   3.276   0.943
    2MOL1    Cl  495   1.402   3.427   0.929
    2MOL1    Cl  496   1.627   3.273   0.826
    2MOL1     H  497   1.427   3.193   0.921
    2MOL1    Cl  498   4.772   0.052   2.298
    2MOL1     C  499   4.878   0.107   2.168
    2MOL1    Cl  500   4.841   0.021   2.017
    2MOL1    Cl  501   4.862   0.282   2.144
    2MOL1     H  502   4.981   0.085   2.196
    2MOL1    Cl  503   2.621   4.394   4.304
    2MOL1     C  504   2.781   4.371   4.230
    2MOL1    Cl  505   2.905   4.455   4.324
    2MOL1    Cl  506   2.819   4.199   4.216
    2MOL1     H  507   2.779   4.414   4.129
    2MOL1    Cl  508   4.520   1.885   0.343
    2MOL1     C  509   4.633   1.751   0.321
    2MOL1    Cl  510   4.566   1.630   0.209
    2MOL1    Cl  511   4.789   1.810   0.262
    2MOL1     H  512   4.649   1.703   0.418
    2MOL1    Cl  513   2.983   4.628   4.441
    2MOL1     C  514   2.936   4.797   4.459
    2MOL1    Cl  515   2.820   4.817   4.592
    2MOL1    Cl  516   3.079   4.899   4.486
    2MOL1     H  517   2.888   4.830   4.366
    2MOL1    Cl  518   3.797   4.152   2.202
    2MOL1     C  519   3.779   4.221   2.040
    2MOL1    Cl  520   3.627   4.310   2.026
    2MOL1    Cl  521   3.917   4.327   2.003
    2MOL1     H  522   3.778   4.139   1.968
    2MOL1    Cl  523   0.838   0.335   3.389
    2MOL1     C  524   0.948   0.210   3.449
    2MOL1    Cl  525   0.884   0.048   3.416
    2MOL1    Cl  526   1.109   0.229   3.378
    2MOL1     H  527   0.957   0.222   3.558
    2MOL1    Cl  528   0.783   1.280   2.550
    2MOL1     C  529   0.926   1.362   2.614
    2MOL1    Cl  530   0.909   1.390   2.788
    2MOL1    Cl  531   1.073   1.269   2.580
    2MOL1     H  532   0.935   1.459   2.565
    2MOL1    Cl  533   1.270   0.930   2.308
    2MOL1     C  534   1.133   0.819   2.319
    2MOL1    Cl  535   1.059   0.796   2.160
    2MOL1    Cl  536   1.184   0.664   2.388
    2MOL1     H  537   1.059   0.863   2.386
    2MOL1    Cl  538   2.763   1.147   3.873
    2MOL1     C  539   2.934   1.180   3.901
    2MOL1    Cl  540   2.954   1.320   4.007
    2MOL1    Cl  541   3.014   1.038   3.970
    2MOL1     H  542   2.981   1.202   3.805
    2MOL1    Cl  543   4.552   5.249   1.142
    2MOL1     C  544   4.634   5.140   1.255
    2MOL1    Cl  545   4.685   5.228   1.400
    2MOL1    Cl  546   4.529   5.004   1.297
    2MOL1     H  547   4.724   5.101   1.206
    2MOL1    Cl  548   0.681   4.459   0.391
    2MOL1     C  549   0.521   4.413   0.329
    2MOL1    Cl  550   0.403   4.542   0.359
    2MOL1    Cl  551   0.530   4.375   0.156
    2MOL1     H  552   0.488   4.323   0.382
    2MOL1    Cl  553   2.309   3.544   2.261
    2MOL1     C  554   2.441   3.432   2.222
    2MOL1    Cl  555   2.592   3.485   2.298
    2MOL1    Cl  556   2.400   3.267   2.273
    2MOL1     H  557   2.455   3.432   2.114
    2MOL1    Cl  558   0.376   3.311   1.036
    2MOL1     C  559   0.370   3.143   1.091
    2MOL1    Cl  560   0.386   3.134   1.268
    2MOL1    Cl  561   0.219   3.065   1.039
    2MOL1     H  562   0.454   3.089   1.047
    2MOL1    Cl  563   3.450   3.789   1.031
    2MOL1     C  564   3.365   3.633   1.031
    2MOL1    Cl  565   3.479   3.500   1.001
    2MOL1    Cl  566   3.279   3.609   1.183
    2MOL1     H  567   3.292   3.635   0.950
    2MOL1    Cl  568   3.200   2.888   5.019
    2MOL1     C  569   3.256   3.009   4.903
    2MOL1    Cl  570   3.219   3.172   4.960
    2MOL1    Cl  571   3.431   2.991   4.875
    2MOL1     H  572   3.204   2.992   4.808
    2MOL1    Cl  573   1.045   1.445   1.963
    2MOL1     C  574   1.097   1.284   1.909
    2MOL1    Cl  575   1.216   1.216   2.021
    2MOL1    Cl  576   0.958   1.176   1.892
    2MOL1     H  577   1.144   1.295   1.811
    2MOL1    Cl  578   1.972   2.718   4.631
    2MOL1     C  579   1.984   2.656   4.797
    2MOL1    Cl  580   1.957   2.787   4.914
    2MOL1    Cl  581   1.869   2.524   4.823
    2MOL1     H  582   2.085   2.617   4.811
    2MOL1    Cl  583   2.042   4.170   4.249
    2MOL1     C  584   2.204   4.113   4.204
    2MOL1    Cl  585   2.313   4.250   4.177
    2MOL1    Cl  586   2.269   4.005   4.329
    2MOL1     H  587   2.196   4.057   4.111
    2MOL1    Cl  588   0.949   0.376   0.168
    2MOL1     C  589   0.775   0.349   0.154
    2MOL1    Cl  590   0.695   0.489   0.080
    2MOL1    Cl  591   0.742   0.202   0.060
    2MOL1     H  592   0.734   0.335   0.254
    2MOL1    Cl  593   1.114   0.510   3.063
    2MOL1     C  594   1.102   0.654   2.960
    2MOL1    Cl  595   0.947   0.735   2.984
    2MOL1    Cl  596   1.236   0.765   2.994
    2MOL1     H  597   1.109   0.622   2.856
    2MOL1    Cl  598   4.634   3.309   3.142
    2MOL1     C  599   4.523   3.216   3.245
    2MOL1    Cl  600   4.478   3.310   3.388
    2MOL1    Cl  601   4.379   3.169   3.153
    2MOL1     H  602   4.574   3.125   3.277
    2MOL1    Cl  603   3.315   4.826   5.285
    2MOL1     C  604   3.158   4.781   5.218
    2MOL1    Cl  605   3.101   4.904   5.104
    2MOL1    Cl  606   3.166   4.622   5.140
    2MOL1     H  607   3.086   4.775   5.300
    2MOL1    Cl  608   1.684   0.066   3.668
    2MOL1     C  609   1.816   0.102   3.556
    2MOL1    Cl  610   1.787   0.025   3.399
    2MOL1    Cl  611   1.837   0.277   3.537
    2MOL1     H  612   1.909   0.060   3.598
    2MOL1    Cl  613   1.136   0.795   4.106
    2MOL1     C  614   0.961   0.818   4.095
    2MOL1    Cl  615   0.923   0.956   3.992
    2MOL1    Cl  616   0.883   0.671   4.034
    2MOL1     H  617   0.923   0.838   4.195
    2MOL1    Cl  618   1.958   5.245   2.290
    2MOL1     C  619   2.055   5.143   2.398
    2MOL1    Cl  620   2.086   5.227   2.550
    2MOL1    Cl  621   1.974   4.988   2.427
    2MOL1     H  622   2.151   5.123   2.349
    2MOL1    Cl  623   1.225   1.388   2.213
    2MOL1     C  624   1.275   1.353   2.379
    2MOL1    Cl  625   1.273   1.178   2.409
    2MOL1    Cl  626   1.436   1.420   2.410
    2MOL1     H  627   1.204   1.401   2.447
    2MOL1    Cl  628   1.570   1.782   0.080
    2MOL1     C  629   1.623   1.643   0.176
    2MOL1    Cl  630   1.522   1.625   0.320
    2MOL1    Cl  631   1.621   1.495   0.079
    2MOL1     H  632   1.726   1.661   0.209
    2MOL1    Cl  633   4.062   3.145   2.512
    2MOL1     C  634   4.234   3.110   2.486
    2MOL1    Cl  635   4.254   2.971   2.378
    2MOL1    Cl  636   4.317   3.253   2.420
    2MOL1     H  637   4.280   3.086   2.582
    2MOL1    Cl  638   3.065   4.834   1.266
    2MOL1     C  639   2.953   4.928   1.366
    2MOL1    Cl  640   2.797   4.946   1.285
    2MOL1    Cl  641   2.933   4.852   1.524
    2MOL1     H  642   2.996   5.027   1.381
    2MOL1    Cl  643   4.409   2.486   3.488
    2MOL1     C  644   4.313   2.462   3.341
    2MOL1    Cl  645   4.390   2.541   3.202
    2MOL1    Cl  646   4.290   2.289   3.309
    2MOL1     H  647   4.215   2.508   3.356
    2MOL1    Cl  648   4.141   0.841   3.622
    2MOL1     C  649   4.309   0.796   3.655
    2MOL1    Cl  650   4.326   0.735   3.821
    2MOL1    Cl  651   4.365   0.675   3.538
    2MOL1     H  652   4.372   0.885   3.645
    2MOL1    Cl  653   4.104   1.087   3.353
    2MOL1     C  654   4.253   1.002   3.310
    2MOL1    Cl  655   4.221   0.880   3.186
    2MOL1    Cl  656   4.376   1.117   3.254
    2MOL1     H  657   4.291   0.952   3.399
    2MOL1    Cl  658   2.171   0.170   3.447
    2MOL1     C  659   2.138   0.327   3.372
    2MOL1    Cl  660   2.088   0.305   3.203
    2MOL1    Cl  661   2.013   0.415   3.463
    2MOL1     H  662   2.230   0.386   3.373
    2MOL1    Cl  663   0.663   4.501   3.568
    2MOL1     C  664   0.516   4.477   3.664
    2MOL1    Cl  665   0.545   4.357   3.792
    2MOL1    Cl  666   0.461   4.630   3.734
    2MOL1     H  667   0.438   4.438   3.599
    2MOL1    Cl  668   0.200   1.952   4.956
    2MOL1     C  669   0.301   1.970   4.811
    2MOL1    Cl  670   0.472   1.953   4.852
    2MOL1    Cl  671   0.255   1.851   4.688
    2MOL1     H  672   0.284   2.069   4.770
    2MOL1    Cl  673   1.173   5.241   5.282
    2MOL1     C  674   1.072   5.125   5.196
    2MOL1    Cl  675   0.959   5.208   5.087
    2MOL1    Cl  676   1.172   5.010   5.105
    2MOL1     H  677   1.014   5.069   5.270
    2MOL1    Cl  678   1.032   2.309   1.255
    2MOL1     C  679   0.912   2.292   1.126
    2MOL1    Cl  680   0.764   2.380   1.165
    2MOL1    Cl  681   0.979   2.348   0.971
    2MOL1     H  682   0.887   2.186   1.116
    2MOL1    Cl  683   4.922   1.746   2.266
    2MOL1     C  684   4.769   1.708   2.346
    2MOL1    Cl  685   4.639   1.812   2.285
    2MOL1    Cl  686   4.728   1.537   2.323
    2MOL1     H  687   4.781   1.726   2.453
    2MOL1    Cl  688   3.071   1.262   2.645
    2MOL1     C  689   2.920   1.343   2.600
    2MOL1    Cl  690   2.937   1.421   2.441
    2MOL1    Cl  691   2.786   1.228   2.599
    2MOL1     H  692   2.899   1.421   2.674
    2MOL1    Cl  693   3.093   0.502   2.517
    2MOL1     C  694   3.209   0.544   2.643
    2MOL1    Cl  695   3.147   0.499   2.803
    2MOL1    Cl  696   3.365   0.466   2.613
    2MOL1     H  697   3.224   0.652   2.641
    2MOL1    Cl  698   2.472   4.767   1.072
    2MOL1     C  699   2.386   4.627   1.138
    2MOL1    Cl  700   2.500   4.499   1.184
    2MOL1    Cl  701   2.288   4.675   1.278
    2MOL1     H  702   2.319   4.587   1.061
    2MOL1    Cl  703   0.676   3.460   4.204
    2MOL1     C  704   0.544   3.441   4.086
    2MOL1    Cl  705   0.554   3.566   3.961
    2MOL1    Cl  706   0.549   3.279   4.013
    2MOL1     H  707   0.449   3.452   4.139
    2MOL1    Cl  708   2.631   0.173   1.773
    2MOL1     C  709   2.458   0.168   1.734
    2MOL1    Cl  710   2.432   0.197   1.561
    2MOL1    Cl  711   2.388   0.013   1.783
    2MOL1     H  712   2.408   0.248   1.790
    2MOL1    Cl  713   2.672   4.998   3.563
    2MOL1     C  714   2.556   4.929   3.678
    2MOL1    Cl  715   2.618   4.942   3.843
    2MOL1    Cl  716   2.399   5.010   3.663
    2MOL1     H  717   2.543   4.823   3.654
    2MOL1    Cl  718   3.770   3.577   4.923
    2MOL1     C  719   3.625   3.591   4.823
    2MOL1    Cl  720   3.561   3.756   4.828
    2MOL1    Cl  721   3.658   3.542   4.656
    2MOL1     H  722   3.549   3.524   4.864
    2MOL1    Cl  723   1.789   0.419   4.729
    2MOL1     C  724   1.702   0.267   4.752
    2MOL1    Cl  725   1.794   0.158   4.858
    2MOL1    Cl  726   1.540   0.296   4.819
    2MOL1     H  727   1.691   0.218   4.655
    2MOL1    Cl  728   3.483   3.936   1.882
    2MOL1     C  729   3.401   3.780   1.904
    2MOL1    Cl  730   3.336   3.722   1.750
    2MOL1    Cl  731   3.511   3.661   1.974
    2MOL1     H  732   3.317   3.795   1.973
    2MOL1    Cl  733   0.036   2.576   2.233
    2MOL1     C  734   0.154   2.708   2.220
    2MOL1    Cl  735   0.311   2.657   2.286
    2MOL1    Cl  736   0.171   2.760   2.052
    2MOL1     H  737   0.118   2.792   2.279
    2MOL1    Cl  738   2.032   0.682   3.572
    2MOL1     C  739   1.856   0.700   3.560
    2MOL1    Cl  740   1.774   0.556   3.623
    2MOL1    Cl  741   1.803   0.845   3.647
    2MOL1     H  742   1.830   0.712   3.455
    2MOL1    Cl  743   1.595   4.488   3.718
    2MOL1     C  744   1.438   4.559   3.675
    2MOL1    Cl  745   1.395   4.688   3.789
    2MOL1    Cl  746   1.441   4.621   3.509
    2MOL1     H  747   1.362   4.480   3.681
    2MOL1    Cl  748   1.186   3.326   3.472
    2MOL1     C  749   1.307   3.262   3.585
    2MOL1    Cl  750   1.418   3.152   3.501
    2MOL1    Cl  751   1.397   3.394   3.662
    2MOL1     H  752   1.255   3.205   3.663
    2MOL1    Cl  753   4.808   2.511   2.512
    2MOL1     C  754   4.860   2.346   2.475
    2MOL1    Cl  755   4.937   2.271   2.616
    2MOL1    Cl  756   4.723   2.249   2.420
    2MOL1     H  757   4.934   2.351   2.394
    2MOL1    Cl  758   2.313   1.363   1.702
    2MOL1     C  759   2.386   1.498   1.791
    2MOL1    Cl  760   2.262   1.612   1.844
    2MOL1    Cl  761   2.479   1.438   1.929
    2MOL1     H  762   2.454   1.550   1.723
    2MOL1    Cl  763   1.214   0.243   3.586
    2MOL1     C  764   1.296   0.172   3.725
    2MOL1    Cl  765   1.230   0.011   3.761
    2MOL1    Cl  766   1.470   0.162   3.696
    2MOL1     H  767   1.279   0.236   3.812
    2MOL1    Cl  768   4.383   3.963   2.844
    2MOL1     C  769   4.364   3.799   2.782
    2MOL1    Cl  770   4.288   3.801   2.622
    2MOL1    Cl  771   4.521   3.717   2.775
    2MOL1     H  772   4.299   3.743   2.850
    2MOL1    Cl  773   4.607   1.276   4.071
    2MOL1     C  774   4.431   1.278   4.058
    2MOL1    Cl  775   4.365   1.430   4.122
    2MOL1    Cl  776   4.381   1.255   3.889
    2MOL1     H  777   4.391   1.196   4.117
    2MOL1    Cl  778   3.629   1.975   2.727
    2MOL1     C  779   3.770   2.079   2.705
    2MOL1    Cl  780   3.863   2.028   2.563
    2MOL1    Cl  781   3.722   2.248   2.691
    2MOL1     H  782   3.834   2.069   2.793
    2MOL1    Cl  783   5.150   4.073   3.296
    2MOL1     C  784   4.984   4.025   3.336
    2MOL1    Cl  785   4.983   3.909   3.469
    2MOL1    Cl  786   4.886   4.167   3.376
    2MOL1     H  787   4.940   3.977   3.248
    2MOL1    Cl  788   0.415   1.755   0.661
    2MOL1     C  789   0.479   1.890   0.566
    2MOL1    Cl  790   0.623   1.841   0.476
    2MOL1    Cl  791   0.355   1.953   0.457
    2MOL1     H  792   0.508   1.970   0.636
    2MOL1    Cl  793   3.814   1.764   3.683
    2MOL1     C  794   3.650   1.765   3.617
    2MOL1    Cl  795   3.569   1.919   3.653
    2MOL1    Cl  796   3.652   1.735   3.443
    2MOL1     H  797   3.593   1.685   3.665
    2MOL1    Cl  798   1.430   2.573   3.035
    2MOL1     C  799   1.446   2.410   2.968
    2MOL1    Cl  800   1.532   2.304   3.080
    2MOL1    Cl  801   1.286   2.343   2.929
    2MOL1     H  802   1.504   2.416   2.875
    2MOL1    Cl  803   0.468   3.054   0.036
    2MOL1     C  804   0.316   3.052   0.127
    2MOL1    Cl  805   0.229   3.205   0.107
    2MOL1    Cl  806   0.216   2.915   0.076
    2MOL1     H  807   0.340   3.039   0.233
    2MOL1    Cl  808   0.732   4.502   5.006
    2MOL1     C  809   0.817   4.658   5.011
    2MOL1    Cl  810   0.931   4.671   4.876
    2MOL1    Cl  811   0.701   4.792   5.007
    2MOL1     H  812   0.873   4.663   5.104
    2MOL1    Cl  813   4.834   4.880   0.118
    2MOL1     C  814   4.668   4.833   0.154
    2MOL1    Cl  815   4.562   4.866   0.016
    2MOL1    Cl  816   4.660   4.661   0.198
    2MOL1     H  817   4.633   4.892   0.239
    2MOL1    Cl  818   0.776   1.565   0.637
    2MOL1     C  819   0.797   1.556   0.812
    2MOL1    Cl  820   0.643   1.583   0.896
    2MOL1    Cl  821   0.866   1.399   0.858
    2MOL1     H  822   0.867   1.634   0.843
    2MOL1    Cl  823   2.472   0.463   3.527
    2MOL1     C  824   2.478   0.311   3.618
    2MOL1    Cl  825   2.427   0.336   3.786
    2MOL1    Cl  826   2.377   0.188   3.540
    2MOL1     H  827   2.582   0.276   3.618
    2MOL1    Cl  828   0.313   1.602   3.381
    2MOL1     C  829   0.473   1.533   3.355
    2MOL1    Cl  830   0.461   1.366   3.295
    2MOL1    Cl  831   0.566   1.632   3.241
    2MOL1     H  832   0.526   1.531   3.450
    2MOL1    Cl  833   0.145   4.327   4.983
    2MOL1     C  834   0.313   4.384   4.986
    2MOL1    Cl  835   0.318   4.561   4.994
    2MOL1    Cl  836   0.400   4.313   5.123
    2MOL1     H  837   0.361   4.352   4.894
    2MOL1    Cl  838   4.229   1.591   2.216
    2MOL1     C  839   4.306   1.433   2.198
    2MOL1    Cl  840   4.372   1.377   2.353
    2MOL1    Cl  841   4.190   1.315   2.133
    2MOL1     H  842   4.388   1.442   2.127
    2MOL1    Cl  843   1.622   0.579   1.878
    2MOL1     C  844   1.492   0.663   1.791
    2MOL1    Cl  845   1.342   0.570   1.798
    2MOL1    Cl  846   1.468   0.826   1.856
    2MOL1     H  847   1.522   0.672   1.686
    2MOL1    Cl  848   2.233   1.982   3.620
    2MOL1     C  849   2.097   1.896   3.546
    2MOL1    Cl  850   2.060   1.749   3.637
    2MOL1    Cl  851   1.955   2.001   3.535
    2MOL1     H  852   2.126   1.867   3.444
    2MOL1    Cl  853   2.714   3.466   3.966
    2MOL1     C  854   2.688   3.567   3.823
    2MOL1    Cl  855   2.721   3.475   3.675
    2MOL1    Cl  856   2.523   3.632   3.821
    2MOL1     H  857   2.758   3.651   3.827
    2MOL1    Cl  858   0.868   1.395   3.862
    2MOL1     C  859   0.802   1.341   3.708
    2MOL1    Cl  860   0.897   1.206   3.643
    2MOL1    Cl  861   0.632   1.294   3.725
    2MOL1     H  862   0.807   1.423   3.637
    2MOL1    Cl  863   0.749   4.567   1.837
    2MOL1     C  864   0.784   4.416   1.922
    2MOL1    Cl  865   0.930   4.432   2.021
    2MOL1    Cl  866   0.646   4.367   2.022
    2MOL1     H  867   0.802   4.338   1.847
    2MOL1    Cl  868   3.798   4.312   2.667
    2MOL1     C  869   3.704   4.173   2.611
    2MOL1    Cl  870   3.575   4.225   2.501
    2MOL1    Cl  871   3.809   4.054   2.531
    2MOL1     H  872   3.658   4.125   2.698
    2MOL1    Cl  873   0.521   2.566   3.671
    2MOL1     C  874   0.674   2.541   3.586
    2MOL1    Cl  875   0.774   2.688   3.593
    2MOL1    Cl  876   0.762   2.403   3.653
    2MOL1     H  877   0.652   2.520   3.481
    2MOL1    Cl  878   1.746   3.730   1.664
    2MOL1     C  879   1.884   3.832   1.707
    2MOL1    Cl  880   1.833   3.968   1.808
    2MOL1    Cl  881   2.009   3.737   1.789
    2MOL1     H  882   1.927   3.873   1.615
    2MOL1    Cl  883   1.638   1.491   2.676
    2MOL1     C  884   1.662   1.648   2.599
    2MOL1    Cl  885   1.764   1.632   2.455
    2MOL1    Cl  886   1.507   1.723   2.558
    2MOL1     H  887   1.714   1.714   2.671
    2MOL1    Cl  888   0.238   4.679   4.505
    2MOL1     C  889   0.157   4.553   4.600
    2MOL1    Cl  890   0.101   4.422   4.494
    2MOL1    Cl  891   0.266   4.490   4.724
    2MOL1     H  892   0.071   4.597   4.649
    2MOL1    Cl  893   1.029   1.800   0.866
    2MOL1     C  894   1.147   1.675   0.824
    2MOL1    Cl  895   1.247   1.726   0.687
    2MOL1    Cl  896   1.248   1.635   0.964
    2MOL1     H  897   1.092   1.585   0.795
    2MOL1    Cl  898   2.896   2.802   0.425
    2MOL1     C  899   2.740   2.790   0.343
    2MOL1    Cl  900   2.712   2.932   0.240
    2MOL1    Cl  901   2.732   2.641   0.246
    2MOL1     H  902   2.661   2.786   0.418
    2MOL1    Cl  903   3.512   1.399   3.387
    2MOL1     C  904   3.648   1.380   3.499
    2MOL1    Cl  905   3.601   1.279   3.637
    2MOL1    Cl  906   3.787   1.310   3.416
    2MOL1     H  907   3.676   1.478   3.536
    2MOL1    Cl  908   3.647   0.235   1.900
    2MOL1     C  909   3.508   0.335   1.945
    2MOL1    Cl  910   3.419   0.261   2.079
    2MOL1    Cl  911   3.560   0.499   1.988
    2MOL1     H  912   3.441   0.342   1.859
    2MOL1    Cl  913   3.963   2.656   1.550
    2MOL1     C  914   4.136   2.683   1.524
    2MOL1    Cl  915   4.205   2.555   1.423
    2MOL1    Cl  916   4.164   2.842   1.452
    2MOL1     H  917   4.186   2.681   1.622
    2MOL1    Cl  918   2.915   4.439   2.673
    2MOL1     C  919   2.980   4.275   2.683
    2MOL1    Cl  920   3.113   4.268   2.799
    2MOL1    Cl  921   2.853   4.160   2.727
    2MOL1     H  922   3.019   4.247   2.584
    2MOL1    Cl  923   4.390   1.191   2.917
    2MOL1     C  924   4.449   1.124   2.764
    2MOL1    Cl  925   4.590   1.020   2.791
    2MOL1    Cl  926   4.320   1.035   2.681
    2MOL1     H  927   4.480   1.208   2.700
    2MOL1    Cl  928   1.070   1.996   5.058
    2MOL1     C  929   1.061   2.080   4.902
    2MOL1    Cl  930   1.223   2.108   4.837
    2MOL1    Cl  931   0.962   1.988   4.788
    2MOL1     H  932   1.013   2.177   4.919
    2MOL1    Cl  933   2.312   4.828   4.590
    2MOL1     C  934   2.370   4.661   4.599
    2MOL1    Cl  935   2.251   4.559   4.682
    2MOL1    Cl  936   2.404   4.598   4.437
    2MOL1     H  937   2.462   4.660   4.657
    2MOL1    Cl  938   2.420   4.997   5.175
    2MOL1     C  939   2.326   5.133   5.110
    2MOL1    Cl  940   2.426   5.232   5.002
    2MOL1    Cl  941   2.182   5.074   5.024
    2MOL1     H  942   2.293   5.195   5.193
    2MOL1    Cl  943   2.160   1.277   2.957
    2MOL1     C  944   2.145   1.429   3.046
    2MOL1    Cl  945   2.301   1.514   3.051
    2MOL1    Cl  946   2.020   1.532   2.974
    2MOL1     H  947   2.116   1.406   3.149
    2MOL1    Cl  948   1.919   2.210   4.978
    2MOL1     C  949   1.939   2.235   5.152
    2MOL1    Cl  950   2.111   2.257   5.192
    2MOL1    Cl  951   1.845   2.375   5.206
    2MOL1     H  952   1.903   2.147   5.204
    2MOL1    Cl  953   2.415   1.784   1.845
    2MOL1     C  954   2.283   1.819   1.733
    2MOL1    Cl  955   2.276   1.697   1.604
    2MOL1    Cl  956   2.128   1.827   1.819
    2MOL1     H  957   2.302   1.917   1.687
    2MOL1    Cl  958   2.699   2.750   0.744
    2MOL1     C  959   2.701   2.661   0.897
    2MOL1    Cl  960   2.691   2.486   0.868
    2MOL1    Cl  961   2.846   2.700   0.991
    2MOL1     H  962   2.613   2.691   0.955
    2MOL1    Cl  963   3.114   1.808   1.854
    2MOL1     C  964   3.066   1.874   2.012
    2MOL1    Cl  965   3.086   2.050   2.014
    2MOL1    Cl  966   2.899   1.829   2.050
    2MOL1     H  967   3.132   1.831   2.088
    2MOL1    Cl  968   4.665   4.550   2.540
    2MOL1     C  969   4.659   4.539   2.716
    2MOL1    Cl  970   4.816   4.584   2.786
    2MOL1    Cl  971   4.531   4.643   2.781
    2MOL1     H  972   4.637   4.436   2.744
    2MOL1    Cl  973   3.282   0.255   4.876
    2MOL1     C  974   3.241   0.426   4.897
    2MOL1    Cl  975   3.177   0.455   5.060
    2MOL1    Cl  976   3.382   0.529   4.866
    2MOL1     H  977   3.163   0.452   4.824
    2MOL1    Cl  978   3.999   4.142   4.057
    2MOL1     C  979   3.971   3.984   4.131
    2MOL1    Cl  980   4.022   3.985   4.300
    2MOL1    Cl  981   3.801   3.938   4.117
    2MOL1     H  982   4.031   3.910   4.077
    2MOL1    Cl  983   2.166   1.293   2.617
    2MOL1     C  984   2.018   1.390   2.620
    2MOL1    Cl  985   2.028   1.523   2.503
    2MOL1    Cl  986   1.876   1.289   2.588
    2MOL1     H  987   2.008   1.433   2.720
    2MOL1    Cl  988   2.608   0.411   0.283
    2MOL1     C  989   2.672   0.501   0.144
    2MOL1    Cl  990   2.841   0.458   0.114
    2MOL1    Cl  991   2.573   0.471   0.000
    2MOL1     H  992   2.667   0.608   0.167
    2MOL1    Cl  993   2.444   2.937   1.861
    2MOL1     C  994   2.437   2.898   2.034
    2MOL1    Cl  995   2.368   2.736   2.058
    2MOL1    Cl  996   2.599   2.908   2.106
    2MOL1     H  997   2.373   2.971   2.083
    2MOL1    Cl  998   0.987   4.781   1.641
    2MOL1     C  999   1.057   4.938   1.596
    2MOL1    Cl 1000   0.957   5.070   1.657
    2MOL1    Cl 1001   1.223   4.952   1.657
    2MOL1     H 1002   1.060   4.944   1.487
    2MOL1    Cl 1003   4.384   2.353   4.322
    2MOL1     C 1004   4.233   2.315   4.406
    2MOL1    Cl 1005   4.251   2.169   4.505
    2MOL1    Cl 1006   4.182   2.451   4.507
    2MOL1     H 1007   4.156   2.296   4.332
    2MOL1    Cl 1008   1.993   5.195   5.012
    2MOL1     C 1009   1.937   5.080   5.135
    2MOL1    Cl 1010   1.834   5.161   5.254
    2MOL1    Cl 1011   1.851   4.945   5.059
    2MOL1     H 1012   2.025   5.040   5.187
    2MOL1    Cl 1013   3.285   3.751   0.607
    2MOL1     C 1014   3.434   3.838   0.646
    2MOL1    Cl 1015   3.399   4.004   0.695
    2MOL1    Cl 1016   3.524   3.753   0.773
    2MOL1     H 1017   3.496   3.841   0.556
    2MOL1    Cl 1018   4.686   1.094   1.211
    2MOL1     C 1019   4.660   0.981   1.078
    2MOL1    Cl 1020   4.517   0.881   1.107
    2MOL1    Cl 1021   4.645   1.068   0.924
    2MOL1     H 1022   4.747   0.915   1.071
    2MOL1    Cl 1023   4.073   1.888   2.056
    2MOL1     C 1024   4.182   1.871   1.917
    2MOL1    Cl 1025   4.340   1.942   1.952
    2MOL1    Cl 1026   4.198   1.701   1.871
    2MOL1     H 1027   4.138   1.925   1.833
    2MOL1    Cl 1028   4.254   1.718   0.008
    2MOL1     C 1029   4.120   1.727   0.123
    2MOL1    Cl 1030   4.179   1.710   0.289
    2MOL1    Cl 1031   4.032   1.880   0.103
    2MOL1     H 1032   4.051   1.645   0.102
    2MOL1    Cl 1033   0.046   0.247   4.466
    2MOL1     C 1034   0.117   0.085   4.458
    2MOL1    Cl 1035   0.063   0.000   4.313
    2MOL1    Cl 1036   0.294   0.095   4.462
    2MOL1     H 1037   0.084   0.029   4.546
    2MOL1    Cl 1038   3.919   3.296   4.660
    2MOL1     C 1039   4.004   3.253   4.810
    2MOL1    Cl 1040   3.898   3.276   4.950
    2MOL1    Cl 1041   4.061   3.085   4.802
    2MOL1     H 1042   4.091   3.318   4.820
    2MOL1    Cl 1043   1.120   0.392   3.808
    2MOL1     C 1044   1.241   0.519   3.830
    2MOL1    Cl 1045   1.177   0.651   3.929
    2MOL1    Cl 1046   1.388   0.452   3.903
    2MOL1     H 1047   1.267   0.559   3.731
    2MOL1    Cl 1048   3.431   0.556   1.326
    2MOL1     C 1049   3.506   0.413   1.396
    2MOL1    Cl 1050   3.644   0.359   1.298
    2MOL1    Cl 1051   3.558   0.445   1.563
    2MOL1     H 1052   3.432   0.332   1.398
    2MOL1    Cl 1053   1.108   0.456   4.346
    2MOL1     C 1054   1.172   0.435   4.182
    2MOL1    Cl 1055   1.291   0.303   4.178
    2MOL1    Cl 1056   1.041   0.404   4.067
    2MOL1     H 1057   1.223   0.528   4.153
    2MOL1    Cl 1058   3.122   5.107   3.692
    2MOL1     C 1059   3.181   5.258   3.620
    2MOL1    Cl 1060   3.347   5.291   3.673
    2MOL1    Cl 1061   3.172   5.251   3.444
    2MOL1     H 1062   3.117   5.340   3.655
    2MOL1    Cl 1063   2.206   1.004   4.243
    2MOL1     C 1064   2.339   1.065   4.143
    2MOL1    Cl 1065   2.293   1.070   3.973
    2MOL1    Cl 1066   2.391   1.225   4.199
    2MOL1     H 1067   2.424   0.996   4.154
    2MOL1    Cl 1068   3.488   0.673   0.306
    2MOL1     C 1069   3.328   0.736   0.351
    2MOL1    Cl 1070   3.251   0.816   0.213
    2MOL1    Cl 1071   3.225   0.605   0.412
    2MOL1     H 1072   3.341   0.809   0.431
    2MOL1    Cl 1073   1.652   2.066   2.732
    2MOL1     C 1074   1.694   2.230   2.681
    2MOL1    Cl 1075   1.828   2.227   2.565
    2MOL1    Cl 1076   1.553   2.311   2.612
    2MOL1     H 1077   1.726   2.286   2.769
    2MOL1    Cl 1078   4.853   3.953   4.745
    2MOL1     C 1079   5.011   4.008   4.689
    2MOL1    Cl 1080   5.088   3.885   4.588
    2MOL1    Cl 1081   4.996   4.161   4.600
    2MOL1     H 1082   5.075   4.026   4.776
    2MOL1    Cl 1083   0.777   0.901   2.561
    2MOL1     C 1084   0.898   0.932   2.687
    2MOL1    Cl 1085   0.825   1.018   2.823
    2MOL1    Cl 1086   0.973   0.781   2.740
    2MOL1     H 1087   0.976   0.996   2.644
    2MOL1    Cl 1088   4.655   1.131   3.582
    2MOL1     C 1089   4.712   0.985   3.664
    2MOL1    Cl 1090   4.698   0.844   3.558
    2MOL1    Cl 1091   4.880   1.006   3.718
    2MOL1     H 1092   4.650   0.969   3.753
    2MOL1    Cl 1093   4.959   4.921   0.625
    2MOL1     C 1094   5.114   4.844   0.661
    2MOL1    Cl 1095   5.112   4.674   0.612
    2MOL1    Cl 1096   5.247   4.930   0.582
    2MOL1     H 1097   5.130   4.848   0.769
    2MOL1    Cl 1098   0.566   3.453   0.298
    2MOL1     C 1099   0.724   3.389   0.348
    2MOL1    Cl 1100   0.771   3.456   0.505
    2MOL1    Cl 1101   0.719   3.212   0.355
    2MOL1     H 1102   0.798   3.418   0.274
    2MOL1    Cl 1103   1.057   2.453   4.678
    2MOL1     C 1104   1.199   2.456   4.783
    2MOL1    Cl 1105   1.330   2.548   4.708
    2MOL1    Cl 1106   1.157   2.525   4.941
    2MOL1     H 1107   1.233   2.353   4.798
    2MOL1    Cl 1108   1.707   4.016   0.000
    2MOL1     C 1109   1.606   4.106   0.115
    2MOL1    Cl 1110   1.706   4.178   0.242
    2MOL1    Cl 1111   1.513   4.232   0.031
    2MOL1     H 1112   1.536   4.037   0.161
    2MOL1    Cl 1113   0.638   3.392   0.668
    2MOL1     C 1114   0.763   3.270   0.695
    2MOL1    Cl 1115   0.869   3.318   0.829
    2MOL1    Cl 1116   0.691   3.112   0.727
    2MOL1     H 1117   0.824   3.263   0.604
    2MOL1    Cl 1118   4.164   1.781   2.572
    2MOL1     C 1119   4.250   1.633   2.617
    2MOL1    Cl 1120   4.251   1.518   2.482
    2MOL1    Cl 1121   4.416   1.671   2.668
    2MOL1     H 1122   4.198   1.587   2.701
    2MOL1    Cl 1123   2.012   0.549   4.484
    2MOL1     C 1124   2.150   0.587   4.380
    2MOL1    Cl 1125   2.200   0.443   4.289
    2MOL1    Cl 1126   2.110   0.719   4.270
    2MOL1     H 1127   2.233   0.618   4.443
    2MOL1    Cl 1128   0.286   0.272   2.694
    2MOL1     C 1129   0.393   0.142   2.639
    2MOL1    Cl 1130   0.299   0.000   2.589
    2MOL1    Cl 1131   0.496   0.198   2.506
    2MOL1     H 1132   0.457   0.113   2.722
    2MOL1    Cl 1133   1.783   4.635   4.490
    2MOL1     C 1134   1.909   4.512   4.480
    2MOL1    Cl 1135   2.034   4.541   4.602
    2MOL1    Cl 1136   1.840   4.350   4.499
    2MOL1     H 1137   1.956   4.518   4.381
    2MOL1    Cl 1138   4.115   4.688   1.643
    2MOL1     C 1139   4.235   4.578   1.574
    2MOL1    Cl 1140   4.283   4.631   1.412
    2MOL1    Cl 1141   4.377   4.566   1.680
    2MOL1     H 1142   4.190   4.479   1.566
    2MOL1    Cl 1143   1.023   2.444   0.625
    2MOL1     C 1144   1.041   2.617   0.592
    2MOL1    Cl 1145   1.200   2.650   0.521
    2MOL1    Cl 1146   0.912   2.673   0.485
    2MOL1     H 1147   1.034   2.671   0.686
    2MOL1    Cl 1148   1.227   0.832   4.412
    2MOL1     C 1149   1.314   0.926   4.289
    2MOL1    Cl 1150   1.224   1.073   4.247
    2MOL1    Cl 1151   1.477   0.967   4.346
    2MOL1     H 1152   1.324   0.864   4.199
    2MOL1    Cl 1153   2.017   1.606   0.962
    2MOL1     C 1154   1.881   1.541   0.870
    2MOL1    Cl 1155   1.896   1.366   0.850
    2MOL1    Cl 1156   1.727   1.582   0.948
    2MOL1     H 1157   1.882   1.587   0.770
    2MOL1    Cl 1158   1.289   4.525   1.313
    2MOL1     C 1159   1.344   4.587   1.469
    2MOL1    Cl 1160   1.397   4.755   1.454
    2MOL1    Cl 1161   1.215   4.573   1.590
    2MOL1     H 1162   1.429   4.527   1.502
    2MOL1    Cl 1163   4.934   2.883   2.665
    2MOL1     C 1164   5.061   2.761   2.646
    2MOL1    Cl 1165   5.000   2.600   2.687
    2MOL1    Cl 1166   5.126   2.763   2.481
    2MOL1     H 1167   5.143   2.785   2.715
    2MOL1    Cl 1168   0.796   2.371   0.222
    2MOL1     C 1169   0.940   2.472   0.199
    2MOL1    Cl 1170   1.085   2.372   0.184
    2MOL1    Cl 1171   0.921   2.576   0.057
    2MOL1     H 1172   0.952   2.536   0.287
    2MOL1    Cl 1173   3.669   4.917   3.430
    2MOL1     C 1174   3.668   4.743   3.461
    2MOL1    Cl 1175   3.776   4.702   3.595
    2MOL1    Cl 1176   3.504   4.686   3.494
    2MOL1     H 1177   3.704   4.692   3.371
    2MOL1    Cl 1178   2.204   0.944   2.554
    2MOL1     C 1179   2.180   1.049   2.413
    2MOL1    Cl 1180   2.259   1.205   2.438
    2MOL1    Cl 1181   2.241   0.970   2.266
    2MOL1     H 1182   2.073   1.066   2.401
    2MOL1    Cl 1183   0.830   4.483   4.527
    2MOL1     C 1184   0.690   4.589   4.499
    2MOL1    Cl 1185   0.603   4.539   4.352
    2MOL1    Cl 1186   0.582   4.588   4.639
    2MOL1     H 1187   0.726   4.691   4.484
    2MOL1    Cl 1188   1.907   4.880   4.017
    2MOL1     C 1189   2.055   4.855   3.922
    2MOL1    Cl 1190   2.177   4.771   4.019
    2MOL1    Cl 1191   2.019   4.765   3.774
    2MOL1     H 1192   2.094   4.953   3.894
    2MOL1    Cl 1193   1.179   0.218   1.400
    2MOL1     C 1194   1.212   0.338   1.274
    2MOL1    Cl 1195   1.068   0.434   1.240
    2MOL1    Cl 1196   1.347   0.443   1.322
    2MOL1     H 1197   1.241   0.285   1.183
    2MOL1    Cl 1198   2.496   3.153   1.273
    2MOL1     C 1199   2.522   3.102   1.105
    2MOL1    Cl 1200   2.657   2.988   1.096
    2MOL1    Cl 1201   2.375   3.030   1.038
    2MOL1     H 1202   2.547   3.190   1.046
    2MOL1    Cl 1203   1.018   3.776   1.013
    2MOL1     C 1204   1.022   3.624   1.104
    2MOL1    Cl 1205   0.926   3.638   1.252
    2MOL1    Cl 1206   0.962   3.490   1.003
    2MOL1     H 1207   1.125   3.603   1.131
    2MOL1    Cl 1208   3.740   2.575   2.081
    2MOL1     C 1209   3.799   2.412   2.047
    2MOL1    Cl 1210   3.689   2.327   1.938
    2MOL1    Cl 1211   3.962   2.419   1.977
    2MOL1     H 1212   3.805   2.357   2.141
    2MOL1    Cl 1213   2.818   2.336   1.209
    2MOL1     C 1214   2.762   2.503   1.227
    2MOL1    Cl 1215   2.659   2.519   1.370
    2MOL1    Cl 1216   2.900   2.614   1.237
    2MOL1     H 1217   2.703   2.530   1.139
    2MOL1    Cl 1218   2.587   3.545   4.319
    2MOL1     C 1219   2.761   3.513   4.315
    2MOL1    Cl 1220   2.793   3.339   4.325
    2MOL1    Cl 1221   2.833   3.581   4.168
    2MOL1     H 1222   2.808   3.562   4.401
    2MOL1    Cl 1223   1.286   2.789   4.071
    2MOL1     C 1224   1.147   2.839   4.168
    2MOL1    Cl 1225   1.162   2.780   4.334
    2MOL1    Cl 1226   1.130   3.015   4.165
    2MOL1     H 1227   1.057   2.795   4.124
    2MOL1    Cl 1228   1.324   2.918   3.455
    2MOL1     C 1229   1.499   2.925   3.478
    2MOL1    Cl 1230   1.572   3.041   3.366
    2MOL1    Cl 1231   1.538   2.968   3.646
    2MOL1     H 1232   1.541   2.827   3.458
    2MOL1    Cl 1233   3.900   4.659   3.860
    2MOL1     C 1234   3.777   4.782   3.887
    2MOL1    Cl 1235   3.651   4.722   3.996
    2MOL1    Cl 1236   3.849   4.930   3.952
    2MOL1     H 1237   3.730   4.806   3.791
    2MOL1    Cl 1238   0.324   3.256   0.587
    2MOL1     C 1239   0.164   3.218   0.522
    2MOL1    Cl 1240   0.096   3.359   0.438
    2MOL1    Cl 1241   0.172   3.079   0.413
    2MOL1     H 1242   0.098   3.193   0.605
    2MOL1    Cl 1243   1.566   2.254   5.175
    2MOL1     C 1244   1.444   2.303   5.056
    2MOL1    Cl 1245   1.329   2.171   5.027
    2MOL1    Cl 1246   1.359   2.449   5.110
    2MOL1     H 1247   1.495   2.325   4.962
    2MOL1    Cl 1248   0.173   2.016   2.981
    2MOL1     C 1249   0.306   1.945   3.075
    2MOL1    Cl 1250   0.376   2.066   3.184
    2MOL1    Cl 1251   0.249   1.804   3.166
    2MOL1     H 1252   0.383   1.912   3.005
    2MOL1    Cl 1253   3.677   0.090   5.021
    2MOL1     C 1254   3.631   0.250   4.962
    2MOL1    Cl 1255   3.646   0.371   5.090
    2MOL1    Cl 1256   3.729   0.295   4.822
    2MOL1     H 1257   3.526   0.246   4.931
    2MOL1    Cl 1258   1.844   2.807   2.006
    2MOL1     C 1259   1.761   2.791   2.161
    2MOL1    Cl 1260   1.588   2.822   2.143
    2MOL1    Cl 1261   1.789   2.631   2.231
    2MOL1     H 1262   1.802   2.866   2.230
    2MOL1    Cl 1263   4.177   0.611   4.402
    2MOL1     C 1264   4.187   0.659   4.232
    2MOL1    Cl 1265   4.140   0.524   4.127
    2MOL1    Cl 1266   4.085   0.800   4.201
    2MOL1     H 1267   4.290   0.686   4.209
    2MOL1    Cl 1268   0.480   3.760   1.586
    2MOL1     C 1269   0.317   3.828   1.589
    2MOL1    Cl 1270   0.322   3.998   1.639
    2MOL1    Cl 1271   0.239   3.813   1.431
    2MOL1     H 1272   0.258   3.773   1.662
    2MOL1    Cl 1273   0.221   1.805   0.905
    2MOL1     C 1274   0.256   1.631   0.898
    2MOL1    Cl 1275   0.420   1.603   0.838
    2MOL1    Cl 1276   0.235   1.557   1.057
    2MOL1     H 1277   0.185   1.585   0.829
    2MOL1    Cl 1278   3.832   2.637   2.876
    2MOL1     C 1279   3.692   2.530   2.891
    2MOL1    Cl 1280   3.581   2.554   2.756
    2MOL1    Cl 1281   3.745   2.361   2.900
    2MOL1     H 1282   3.640   2.554   2.984
    2MOL1    Cl 1283   0.319   4.980   2.747
    2MOL1     C 1284   0.262   4.820   2.798
    2MOL1    Cl 1285   0.085   4.818   2.809
    2MOL1    Cl 1286   0.319   4.695   2.686
    2MOL1     H 1287   0.302   4.799   2.897
    2MOL1    Cl 1288   0.632   2.474   2.445
    2MOL1     C 1289   0.637   2.610   2.331
    2MOL1    Cl 1290   0.618   2.552   2.164
    2MOL1    Cl 1291   0.512   2.729   2.369
    2MOL1     H 1292   0.735   2.658   2.339
    2MOL1    Cl 1293   0.674   3.928   2.744
    2MOL1     C 1294   0.586   4.019   2.868
    2MOL1    Cl 1295   0.666   4.173   2.901
    2MOL1    Cl 1296   0.418   4.045   2.818
    2MOL1     H 1297   0.585   3.960   2.960
    2MOL1    Cl 1298   2.433   0.634   3.927
    2MOL1     C 1299   2.431   0.772   4.037
    2MOL1    Cl 1300   2.290   0.764   4.144
    2MOL1    Cl 1301   2.580   0.779   4.132
    2MOL1     H 1302   2.424   0.864   3.978
    2MOL1    Cl 1303   1.574   1.949   2.152
    2MOL1     C 1304   1.749   1.926   2.162
    2MOL1    Cl 1305   1.799   1.783   2.069
    2MOL1    Cl 1306   1.835   2.070   2.104
    2MOL1     H 1307   1.776   1.909   2.266
    2MOL1    Cl 1308   0.845   3.238   2.205
    2MOL1     C 1309   0.963   3.204   2.332
    2MOL1    Cl 1310   0.937   3.310   2.471
    2MOL1    Cl 1311   0.955   3.034   2.381
    2MOL1     H 1312   1.063   3.224   2.292
    2MOL1    Cl 1313   4.884   3.779   3.013
    2MOL1     C 1314   4.736   3.764   3.108
    2MOL1    Cl 1315   4.727   3.892   3.231
    2MOL1    Cl 1316   4.593   3.769   3.003
    2MOL1     H 1317   4.737   3.668   3.159
    2MOL1    Cl 1318   4.462   1.048   4.544
    2MOL1     C 1319   4.296   0.989   4.528
    2MOL1    Cl 1320   4.202   1.095   4.421
    2MOL1    Cl 1321   4.294   0.822   4.468
    2MOL1     H 1322   4.249   0.991   4.627
    2MOL1    Cl 1323   0.298   3.032   4.676
    2MOL1     C 1324   0.136   3.104   4.680
    2MOL1    Cl 1325   0.127   3.245   4.573
    2MOL1    Cl 1326   0.014   2.984   4.635
    2MOL1     H 1327   0.115   3.137   4.782
    2MOL1    Cl 1328   1.042   1.753   0.347
    2MOL1     C 1329   1.041   1.921   0.290
    2MOL1    Cl 1330   1.107   1.931   0.126
    2MOL1    Cl 1331   0.876   1.987   0.295
    2MOL1     H 1332   1.104   1.981   0.357
    2MOL1    Cl 1333   1.833   2.165   1.647
    2MOL1     C 1334   1.935   2.130   1.787
    2MOL1    Cl 1335   2.091   2.062   1.736
    2MOL1    Cl 1336   1.960   2.277   1.884
    2MOL1     H 1337   1.884   2.056   1.849
    2MOL1    Cl 1338   2.400   4.572   3.836
    2MOL1     C 1339   2.538   4.466   3.869
    2MOL1    Cl 1340   2.483   4.309   3.930
    2MOL1    Cl 1341   2.637   4.445   3.723
    2MOL1     H 1342   2.600   4.513   3.946
    2MOL1    Cl 1343   3.288   0.451   1.628
    2MOL1     C 1344   3.218   0.559   1.749
    2MOL1    Cl 1345   3.297   0.536   1.906
    2MOL1    Cl 1346   3.230   0.728   1.697
    2MOL1     H 1347   3.112   0.534   1.760
    2MOL1    Cl 1348   2.395   4.699   4.869
    2MOL1     C 1349   2.484   4.835   4.938
    2MOL1    Cl 1350   2.654   4.829   4.890
    2MOL1    Cl 1351   2.411   4.989   4.889
    2MOL1     H 1352   2.479   4.828   5.047
    2MOL1    Cl 1353   2.588   1.980   3.284
    2MOL1     C 1354   2.683   1.898   3.410
    2MOL1    Cl 1355   2.839   1.980   3.433
    2MOL1    Cl 1356   2.593   1.893   3.562
    2MOL1     H 1357   2.702   1.796   3.378
    2MOL1    Cl 1358   0.706   1.810   4.900
    2MOL1     C 1359   0.843   1.798   5.011
    2MOL1    Cl 1360   0.819   1.902   5.152
    2MOL1    Cl 1361   0.868   1.629   5.062
    2MOL1     H 1362   0.933   1.831   4.958
    2MOL1    Cl 1363   2.978   1.183   3.092
    2MOL1     C 1364   3.152   1.173   3.121
    2MOL1    Cl 1365   3.186   1.112   3.284
    2MOL1    Cl 1366   3.230   1.070   2.999
    2MOL1     H 1367   3.194   1.273   3.113
    2MOL1    Cl 1368   3.699   0.614   1.690
    2MOL1     C 1369   3.749   0.783   1.675
    2MOL1    Cl 1370   3.894   0.797   1.574
    2MOL1    Cl 1371   3.617   0.882   1.610
    2MOL1     H 1372   3.774   0.821   1.775
    2MOL1    Cl 1373   0.441   0.352   0.577
    2MOL1     C 1374   0.416   0.524   0.609
    2MOL1    Cl 1375   0.314   0.546   0.753
    2MOL1    Cl 1376   0.571   0.607   0.630
    2MOL1     H 1377   0.364   0.568   0.524
    2MOL1    Cl 1378   0.846   3.715   3.908
    2MOL1     C 1379   0.868   3.819   3.766
    2MOL1    Cl 1380   0.996   3.755   3.662
    2MOL1    Cl 1381   0.716   3.834   3.676
    2MOL1     H 1382   0.898   3.918   3.801
    2MOL1    Cl 1383   5.027   4.298   4.375
    2MOL1     C 1384   5.180   4.242   4.444
    2MOL1    Cl 1385   5.314   4.274   4.332
    2MOL1    Cl 1386   5.210   4.319   4.601
    2MOL1     H 1387   5.174   4.134   4.459
    2MOL1    Cl 1388   3.866   1.766   0.810
    2MOL1     C 1389   3.759   1.803   0.946
    2MOL1    Cl 1390   3.702   1.970   0.937
    2MOL1    Cl 1391   3.622   1.691   0.949
    2MOL1     H 1392   3.816   1.791   1.039
    2MOL1    Cl 1393   3.479   4.412   3.589
    2MOL1     C 1394   3.429   4.500   3.735
    2MOL1    Cl 1395   3.555   4.491   3.859
    2MOL1    Cl 1396   3.393   4.669   3.695
    2MOL1     H 1397   3.338   4.454   3.774
    2MOL1    Cl 1398   1.617   4.740   3.379
    2MOL1     C 1399   1.669   4.728   3.210
    2MOL1    Cl 1400   1.788   4.853   3.172
    2MOL1    Cl 1401   1.735   4.567   3.176
    2MOL1     H 1402   1.581   4.744   3.146
    2MOL1    Cl 1403   2.494   0.450   2.582
    2MOL1     C 1404   2.619   0.572   2.612
    2MOL1    Cl 1405   2.553   0.706   2.708
    2MOL1    Cl 1406   2.759   0.500   2.693
    2MOL1     H 1407   2.652   0.612   2.516
    2MOL1    Cl 1408   3.205   2.095   4.113
    2MOL1     C 1409   3.323   2.147   4.234
    2MOL1    Cl 1410   3.299   2.060   4.386
    2MOL1    Cl 1411   3.488   2.122   4.174
    2MOL1     H 1412   3.309   2.254   4.253
    2MOL1    Cl 1413   2.851   2.269   0.694
    2MOL1     C 1414   2.923   2.425   0.652
    2MOL1    Cl 1415   2.811   2.558   0.690
    2MOL1    Cl 1416   3.077   2.448   0.737
    2MOL1     H 1417   2.942   2.427   0.545
    2MOL1    Cl 1418   1.768   0.559   4.905
    2MOL1     C 1419   1.700   0.474   5.044
    2MOL1    Cl 1420   1.771   0.534   5.195
    2MOL1    Cl 1421   1.523   0.491   5.048
    2MOL1     H 1422   1.724   0.368   5.035
    2MOL1    Cl 1423   0.805   1.638   1.523
    2MOL1     C 1424   0.752   1.651   1.692
    2MOL1    Cl 1425   0.619   1.539   1.724
    2MOL1    Cl 1426   0.888   1.620   1.802
    2MOL1     H 1427   0.717   1.753   1.709
    2MOL1    Cl 1428   4.881   3.272   0.230
    2MOL1     C 1429   4.997   3.167   0.313
    2MOL1    Cl 1430   4.969   2.998   0.270
    2MOL1    Cl 1431   5.163   3.215   0.275
    2MOL1     H 1432   4.982   3.178   0.421
    2MOL1    Cl 1433   0.720   1.852   4.075
    2MOL1     C 1434   0.652   1.697   4.025
    2MOL1    Cl 1435   0.621   1.695   3.851
    2MOL1    Cl 1436   0.761   1.564   4.070
    2MOL1     H 1437   0.557   1.683   4.077
    2MOL1    Cl 1438   0.844   0.760   0.369
    2MOL1     C 1439   0.995   0.796   0.454
    2MOL1    Cl 1440   0.963   0.899   0.595
    2MOL1    Cl 1441   1.076   0.646   0.503
    2MOL1     H 1442   1.061   0.850   0.386
    2MOL1    Cl 1443   3.539   4.763   4.820
    2MOL1     C 1444   3.516   4.917   4.905
    2MOL1    Cl 1445   3.431   4.891   5.058
    2MOL1    Cl 1446   3.672   4.996   4.933
    2MOL1     H 1447   3.455   4.982   4.842
    2MOL1    Cl 1448   2.950   3.828   3.733
    2MOL1     C 1449   3.112   3.826   3.661
    2MOL1    Cl 1450   3.222   3.728   3.760
    2MOL1    Cl 1451   3.106   3.764   3.495
    2MOL1     H 1452   3.150   3.928   3.658
    2MOL1    Cl 1453   2.711   4.266   3.288
    2MOL1     C 1454   2.887   4.277   3.274
    2MOL1    Cl 1455   2.944   4.435   3.328
    2MOL1    Cl 1456   2.964   4.148   3.367
    2MOL1     H 1457   2.914   4.264   3.169
    2MOL1    Cl 1458   3.495   1.215   2.815
    2MOL1     C 1459   3.496   1.352   2.702
    2MOL1    Cl 1460   3.332   1.419   2.684
    2MOL1    Cl 1461   3.608   1.477   2.757
    2MOL1     H 1462   3.529   1.316   2.605
    2MOL1    Cl 1463   4.409   2.116   5.225
    2MOL1     C 1464   4.564   2.065   5.158
    2MOL1    Cl 1465   4.541   1.977   5.006
    2MOL1    Cl 1466   4.671   2.204   5.133
    2MOL1     H 1467   4.612   1.997   5.230
    2MOL1    Cl 1468   3.221   2.183   0.936
    2MOL1     C 1469   3.214   2.145   0.763
    2MOL1    Cl 1470   3.352   2.045   0.716
    2MOL1    Cl 1471   3.062   2.064   0.723
    2MOL1     H 1472   3.219   2.239   0.707
    2MOL1    Cl 1473   4.598   4.653   1.631
    2MOL1     C 1474   4.555   4.805   1.552
    2MOL1    Cl 1475   4.657   4.937   1.611
    2MOL1    Cl 1476   4.568   4.790   1.376
    2MOL1     H 1477   4.451   4.829   1.577
    2MOL1    Cl 1478   4.809   0.724   3.222
    2MOL1     C 1479   4.632   0.718   3.228
    2MOL1    Cl 1480   4.578   0.590   3.338
    2MOL1    Cl 1481   4.566   0.875   3.278
    2MOL1     H 1482   4.595   0.695   3.128
    2MOL1    Cl 1483   3.682   2.333   0.470
    2MOL1     C 1484   3.561   2.212   0.424
    2MOL1    Cl 1485   3.613   2.050   0.473
    2MOL1    Cl 1486   3.404   2.251   0.497
    2MOL1     H 1487   3.550   2.213   0.316
    2MOL1    Cl 1488   1.766   0.001   2.677
    2MOL1     C 1489   1.755   0.171   2.726
    2MOL1    Cl 1490   1.765   0.185   2.902
    2MOL1    Cl 1491   1.883   0.266   2.649
    2MOL1     H 1492   1.658   0.210   2.693
    2MOL1    Cl 1493   1.261   4.504   5.051
    2MOL1     C 1494   1.261   4.651   5.150
    2MOL1    Cl 1495   1.211   4.614   5.316
    2MOL1    Cl 1496   1.420   4.728   5.148
    2MOL1     H 1497   1.188   4.721   5.108
    2MOL1    Cl 1498   4.952   0.282   4.460
    2MOL1     C 1499   5.123   0.281   4.505
    2MOL1    Cl 1500   5.199   0.437   4.471
    2MOL1    Cl 1501   5.142   0.240   4.677
    2MOL1     H 1502   5.174   0.204   4.446
    2MOL1    Cl 1503   4.366   5.039   0.241
    2MOL1     C 1504   4.350   4.862   0.240
    2MOL1    Cl 1505   4.461   4.789   0.357
    2MOL1    Cl 1506   4.183   4.814   0.273
    2MOL1     H 1507   4.377   4.826   0.140
    2MOL1    Cl 1508   0.657   2.700   4.066
    2MOL1     C 1509   0.588   2.564   3.976
    2MOL1    Cl 1510   0.711   2.489   3.873
    2MOL1    Cl 1511   0.518   2.445   4.088
    2MOL1     H 1512   0.508   2.602   3.912
    2MOL1    Cl 1513   4.217   1.296   1.735
    2MOL1     C 1514   4.066   1.311   1.643
    2MOL1    Cl 1515   3.987   1.153   1.629
    2MOL1    Cl 1516   3.958   1.428   1.719
    2MOL1     H 1517   4.091   1.346   1.543
    2MOL1    Cl 1518   1.380   4.784   0.383
    2MOL1     C 1519   1.480   4.929   0.364
    2MOL1    Cl 1520   1.574   4.959   0.511
    2MOL1    Cl 1521   1.588   4.912   0.224
    2MOL1     H 1522   1.415   5.015   0.347
    2MOL1    Cl 1523   3.119   1.095   4.174
    2MOL1     C 1524   3.226   1.115   4.035
    2MOL1    Cl 1525   3.239   0.964   3.943
    2MOL1    Cl 1526   3.169   1.246   3.931
    2MOL1     H 1527   3.326   1.141   4.072
    2MOL1    Cl 1528   4.562   3.411   3.609
    2MOL1     C 1529   4.637   3.528   3.718
    2MOL1    Cl 1530   4.529   3.665   3.747
    2MOL1    Cl 1531   4.681   3.451   3.872
    2MOL1     H 1532   4.728   3.565   3.671
    2MOL1    Cl 1533   1.399   0.850   0.443
    2MOL1     C 1534   1.342   0.884   0.608
    2MOL1    Cl 1535   1.186   0.804   0.638
    2MOL1    Cl 1536   1.462   0.832   0.727
    2MOL1     H 1537   1.328   0.992   0.618
    2MOL1    Cl 1538   1.162   2.110   1.280
    2MOL1     C 1539   1.159   2.004   1.139
    2MOL1    Cl 1540   1.007   1.913   1.132
    2MOL1    Cl 1541   1.182   2.097   0.990
    2MOL1     H 1542   1.241   1.932   1.148
    2MOL1    Cl 1543   3.297   3.078   2.501
    2MOL1     C 1544   3.457   3.055   2.428
    2MOL1    Cl 1545   3.551   2.936   2.520
    2MOL1    Cl 1546   3.442   3.005   2.259
    2MOL1     H 1547   3.510   3.151   2.431
    2MOL1    Cl 1548   3.130   3.427   2.843
    2MOL1     C 1549   3.238   3.566   2.835
    2MOL1    Cl 1550   3.229   3.661   2.985
    2MOL1    Cl 1551   3.405   3.514   2.805
    2MOL1     H 1552   3.207   3.630   2.752
    2MOL1    Cl 1553   1.220   1.301   0.285
    2MOL1     C 1554   1.333   1.169   0.316
    2MOL1    Cl 1555   1.405   1.185   0.477
    2MOL1    Cl 1556   1.252   1.012   0.299
    2MOL1     H 1557   1.413   1.174   0.241
    2MOL1    Cl 1558   3.073   0.186   0.712
    2MOL1     C 1559   3.045   0.236   0.880
    2MOL1    Cl 1560   3.169   0.167   0.986
    2MOL1    Cl 1561   3.043   0.413   0.893
    2MOL1     H 1562   2.948   0.198   0.911
    2MOL1    Cl 1563   1.843   3.560   1.054
    2MOL1     C 1564   1.963   3.431   1.029
    2MOL1    Cl 1565   2.060   3.407   1.174
    2MOL1    Cl 1566   1.882   3.281   0.981
    2MOL1     H 1567   2.029   3.462   0.947
    2MOL1    Cl 1568   2.867   3.791   2.136
    2MOL1     C 1569   2.958   3.789   1.984
    2MOL1    Cl 1570   3.058   3.934   1.969
    2MOL1    Cl 1571   3.058   3.643   1.973
    2MOL1     H 1572   2.887   3.788   1.901
    2MOL1    Cl 1573   4.451   0.423   4.251
    2MOL1     C 1574   4.602   0.455   4.165
    2MOL1    Cl 1575   4.588   0.601   4.065
    2MOL1    Cl 1576   4.736   0.471   4.280
    2MOL1     H 1577   4.624   0.370   4.099
    2MOL1    Cl 1578   4.503   3.069   4.842
    2MOL1     C 1579   4.664   3.008   4.802
    2MOL1    Cl 1580   4.738   3.107   4.674
    2MOL1    Cl 1581   4.767   3.007   4.946
    2MOL1     H 1582   4.655   2.906   4.766
    2MOL1    Cl 1583   1.107   4.586   2.529
    2MOL1     C 1584   1.091   4.708   2.402
    2MOL1    Cl 1585   1.232   4.816   2.402
    2MOL1    Cl 1586   1.072   4.631   2.244
    2MOL1     H 1587   1.002   4.768   2.422
    2MOL1    Cl 1588   5.077   0.067   0.358
    2MOL1     C 1589   5.141   0.232   0.355
    2MOL1    Cl 1590   5.073   0.323   0.218
    2MOL1    Cl 1591   5.106   0.315   0.508
    2MOL1     H 1592   5.249   0.227   0.342
    2MOL1    Cl 1593   4.456   0.250   3.055
    2MOL1     C 1594   4.445   0.073   3.044
    2MOL1    Cl 1595   4.354   0.025   2.900
    2MOL1    Cl 1596   4.607   0.000   3.043
    2MOL1     H 1597   4.392   0.037   3.133
    2MOL1    Cl 1598   4.527   0.344   3.617
    2MOL1     C 1599   4.609   0.486   3.685
    2MOL1    Cl 1600   4.512   0.558   3.814
    2MOL1    Cl 1601   4.770   0.441   3.745
    2MOL1     H 1602   4.621   0.560   3.606
    2MOL1    Cl 1603   3.667   5.034   4.598
    2MOL1     C 1604   3.613   5.122   4.454
    2MOL1    Cl 1605   3.717   5.084   4.316
    2MOL1    Cl 1606   3.444   5.084   4.418
    2MOL1     H 1607   3.620   5.229   4.475
    2MOL1    Cl 1608   1.503   1.939   1.363
    2MOL1     C 1609   1.440   1.932   1.528
    2MOL1    Cl 1610   1.277   1.861   1.529
    2MOL1    Cl 1611   1.549   1.840   1.634
    2MOL1     H 1612   1.433   2.034   1.567
    2MOL1    Cl 1613   5.328   0.059   1.493
    2MOL1     C 1614   5.277   0.225   1.456
    2MOL1    Cl 1615   5.100   0.235   1.448
    2MOL1    Cl 1616   5.340   0.338   1.576
    2MOL1     H 1617   5.317   0.252   1.358
    2MOL1    Cl 1618   3.189   1.907   2.870
    2MOL1     C 1619   3.304   1.805   2.781
    2MOL1    Cl 1620   3.454   1.784   2.873
    2MOL1    Cl 1621   3.231   1.647   2.745
    2MOL1     H 1622   3.328   1.854   2.687
    2MOL1    Cl 1623   3.578   0.250   0.522
    2MOL1     C 1624   3.624   0.420   0.530
    2MOL1    Cl 1625   3.618   0.494   0.369
    2MOL1    Cl 1626   3.520   0.509   0.643
    2MOL1     H 1627   3.727   0.426   0.566
    2MOL1    Cl 1628   0.533   1.492   1.984
    2MOL1     C 1629   0.685   1.401   1.973
    2MOL1    Cl 1630   0.719   1.318   2.125
    2MOL1    Cl 1631   0.678   1.285   1.839
    2MOL1     H 1632   0.766   1.471   1.953
    2MOL1    Cl 1633   2.969   3.841   1.392
    2MOL1     C 1634   2.802   3.804   1.347
    2MOL1    Cl 1635   2.786   3.634   1.301
    2MOL1    Cl 1636   2.691   3.844   1.479
    2MOL1     H 1637   2.775   3.866   1.260
    2MOL1    Cl 1638   2.222   2.511   4.407
    2MOL1     C 1639   2.390   2.563   4.390
    2MOL1    Cl 1640   2.465   2.485   4.249
    2MOL1    Cl 1641   2.400   2.739   4.376
    2MOL1     H 1642   2.445   2.532   4.479
    2MOL1    Cl 1643   0.433   2.255   0.958
    2MOL1     C 1644   0.586   2.283   0.873
    2MOL1    Cl 1645   0.658   2.437   0.924
    2MOL1    Cl 1646   0.699   2.149   0.902
    2MOL1     H 1647   0.566   2.288   0.766
    2MOL1    Cl 1648   2.632   0.631   1.573
    2MOL1     C 1649   2.588   0.464   1.610
    2MOL1    Cl 1650   2.519   0.384   1.468
    2MOL1    Cl 1651   2.729   0.374   1.669
    2MOL1     H 1652   2.513   0.465   1.689
    2MOL1    Cl 1653   2.452   3.755   0.043
    2MOL1     C 1654   2.444   3.591   0.110
    2MOL1    Cl 1655   2.561   3.572   0.242
    2MOL1    Cl 1656   2.280   3.554   0.165
    2MOL1     H 1657   2.471   3.521   0.031
    2MOL1    Cl 1658   0.117   3.598   5.035
    2MOL1     C 1659   0.159   3.437   4.975
    2MOL1    Cl 1660   0.062   3.397   4.831
    2MOL1    Cl 1661   0.332   3.428   4.938
    2MOL1     H 1662   0.136   3.364   5.053
    2MOL1    Cl 1663   3.943   1.751   1.888
    2MOL1     C 1664   3.858   1.892   1.824
    2MOL1    Cl 1665   3.686   1.885   1.865
    2MOL1    Cl 1666   3.930   2.042   1.885
    2MOL1     H 1667   3.867   1.891   1.715
    2MOL1    Cl 1668   2.303   2.962   2.738
    2MOL1     C 1669   2.223   2.804   2.738
    2MOL1    Cl 1670   2.320   2.685   2.826
    2MOL1    Cl 1671   2.061   2.817   2.809
    2MOL1     H 1672   2.213   2.771   2.635
    2MOL1    Cl 1673   4.546   2.949   0.826
    2MOL1     C 1674   4.521   2.911   0.655
    2MOL1    Cl 1675   4.566   3.049   0.554
    2MOL1    Cl 1676   4.612   2.767   0.609
    2MOL1     H 1677   4.414   2.891   0.640
    2MOL1    Cl 1678   5.011   4.346   1.654
    2MOL1     C 1679   5.102   4.277   1.790
    2MOL1    Cl 1680   5.088   4.381   1.933
    2MOL1    Cl 1681   5.045   4.113   1.826
    2MOL1     H 1682   5.207   4.271   1.762
    2MOL1    Cl 1683   3.139   1.590   3.800
    2MOL1     C 1684   3.263   1.716   3.809
    2MOL1    Cl 1685   3.217   1.839   3.928
    2MOL1    Cl 1686   3.421   1.646   3.850
    2MOL1     H 1687   3.271   1.764   3.712
    2MOL1    Cl 1688   0.757   3.798   2.448
    2MOL1     C 1689   0.932   3.786   2.423
    2MOL1    Cl 1690   0.968   3.740   2.255
    2MOL1    Cl 1691   1.010   3.940   2.463
    2MOL1     H 1692   0.971   3.709   2.489
    2MOL1    Cl 1693   2.947   3.983   2.366
    2MOL1     C 1694   3.017   4.130   2.296
    2MOL1    Cl 1695   3.184   4.151   2.350
    2MOL1    Cl 1696   3.007   4.126   2.120
    2MOL1     H 1697   2.958   4.216   2.332
    2MOL1    Cl 1698   1.195   3.125   2.475
    2MOL1     C 1699   1.310   3.060   2.357
    2MOL1    Cl 1700   1.462   3.014   2.436
    2MOL1    Cl 1701   1.240   2.921   2.272
    2MOL1     H 1702   1.332   3.137   2.283
    2MOL1    Cl 1703   4.547   0.312   5.110
    2MOL1     C 1704   4.610   0.156   5.167
    2MOL1    Cl 1705   4.727   0.181   5.297
    2MOL1    Cl 1706   4.477   0.052   5.221
    2MOL1     H 1707   4.660   0.107   5.084
    2MOL1    Cl 1708   4.314   4.872   2.442
    2MOL1     C 1709   4.162   4.953   2.399
    2MOL1    Cl 1710   4.055   4.842   2.313
    2MOL1    Cl 1711   4.083   5.018   2.543
    2MOL1     H 1712   4.186   5.036   2.332
    2MOL1    Cl 1713   1.396   5.168   3.019
    2MOL1     C 1714   1.455   5.037   3.123
    2MOL1    Cl 1715   1.530   5.102   3.269
    2MOL1    Cl 1716   1.322   4.926   3.164
    2MOL1     H 1717   1.530   4.980   3.067
    2MOL1    Cl 1718   3.255   4.893   3.794
    2MOL1     C 1719   3.403   4.986   3.764
    2MOL1    Cl 1720   3.411   5.039   3.595
    2MOL1    Cl 1721   3.412   5.124   3.874
    2MOL1     H 1722   3.489   4.921   3.784
    2MOL1    Cl 1723   3.508   2.181   4.755
    2MOL1     C 1724   3.637   2.187   4.876
    2MOL1    Cl 1725   3.794   2.219   4.800
    2MOL1    Cl 1726   3.602   2.309   4.999
    2MOL1     H 1727   3.643   2.089   4.926
    2MOL1    Cl 1728   4.968   4.155   2.512
    2MOL1     C 1729   4.858   4.277   2.577
    2MOL1    Cl 1730   4.782   4.369   2.446
    2MOL1    Cl 1731   4.735   4.202   2.680
    2MOL1     H 1732   4.917   4.346   2.639
    2MOL1    Cl 1733   5.117   3.274   2.392
    2MOL1     C 1734   5.070   3.114   2.451
    2MOL1    Cl 1735   5.177   3.062   2.583
    2MOL1    Cl 1736   4.901   3.114   2.504
    2MOL1     H 1737   5.080   3.043   2.369
    2MOL1    Cl 1738   1.516   2.468   0.966
    2MOL1     C 1739   1.429   2.320   0.926
    2MOL1    Cl 1740   1.539   2.181   0.924
    2MOL1    Cl 1741   1.296   2.292   1.041
    2MOL1     H 1742   1.386   2.331   0.826
    2MOL1    Cl 1743   1.047   2.031   4.195
    2MOL1     C 1744   1.136   2.050   4.044
    2MOL1    Cl 1745   1.290   1.962   4.050
    2MOL1    Cl 1746   1.039   1.995   3.906
    2MOL1     H 1747   1.158   2.156   4.030
    2MOL1    Cl 1748   4.210   3.455   1.262
    2MOL1     C 1749   4.084   3.577   1.289
    2MOL1    Cl 1750   3.962   3.516   1.403
    2MOL1    Cl 1751   4.156   3.727   1.349
    2MOL1     H 1752   4.035   3.598   1.194
    2MOL1    Cl 1753   0.401   5.117   2.217
    2MOL1     C 1754   0.246   5.161   2.144
    2MOL1    Cl 1755   0.244   5.333   2.101
    2MOL1    Cl 1756   0.213   5.061   2.002
    2MOL1     H 1757   0.167   5.144   2.218
    2MOL1    Cl 1758   1.476   2.555   1.838
    2MOL1     C 1759   1.317   2.542   1.761
    2MOL1    Cl 1760   1.314   2.635   1.610
    2MOL1    Cl 1761   1.275   2.373   1.732
    2MOL1     H 1762   1.243   2.585   1.829
    2MOL1    Cl 1763   0.813   2.291   3.926
    2MOL1     C 1764   0.871   2.369   4.073
    2MOL1    Cl 1765   0.737   2.399   4.185
    2MOL1    Cl 1766   0.996   2.270   4.151
    2MOL1     H 1767   0.916   2.465   4.046
    2MOL1    Cl 1768   1.140   0.756   5.130
    2MOL1     C 1769   1.093   0.923   5.168
    2MOL1    Cl 1770   0.923   0.930   5.218
    2MOL1    Cl 1771   1.199   0.990   5.294
    2MOL1     H 1772   1.105   0.983   5.078
    2MOL1    Cl 1773   3.597   3.104   1.049
    2MOL1     C 1774   3.652   2.945   0.993
    2MOL1    Cl 1775   3.789   2.889   1.091
    2MOL1    Cl 1776   3.519   2.828   0.999
    2MOL1     H 1777   3.685   2.955   0.890
    2MOL1    Cl 1778   3.834   4.929   2.986
    2MOL1     C 1779   3.674   4.994   3.028
    2MOL1    Cl 1780   3.665   5.166   2.988
    2MOL1    Cl 1781   3.547   4.903   2.945
    2MOL1     H 1782   3.660   4.983   3.136
    2MOL1    Cl 1783   4.744   3.294   5.131
    2MOL1     C 1784   4.607   3.196   5.186
    2MOL1    Cl 1785   4.455   3.285   5.165
    2MOL1    Cl 1786   4.601   3.042   5.099
    2MOL1     H 1787   4.620   3.175   5.292
    2MOL1    Cl 1788   4.547   2.775   2.834
    2MOL1     C 1789   4.460   2.848   2.970
    2MOL1    Cl 1790   4.291   2.878   2.927
    2MOL1    Cl 1791   4.471   2.745   3.113
    2MOL1     H 1792   4.507   2.944   2.993
    2MOL1    Cl 1793   2.475   4.590   3.534
    2MOL1     C 1794   2.348   4.468   3.557
    2MOL1    Cl 1795   2.410   4.330   3.649
    2MOL1    Cl 1796   2.208   4.540   3.638
    2MOL1     H 1797   2.316   4.433   3.458
    2MOL1    Cl 1798   3.568   2.179   0.826
    2MOL1     C 1799   3.547   2.282   0.968
    2MOL1    Cl 1800   3.663   2.238   1.095
    2MOL1    Cl 1801   3.564   2.453   0.925
    2MOL1     H 1802   3.446   2.267   1.008
    2MOL1    Cl 1803   2.305   2.217   2.693
    2MOL1     C 1804   2.280   2.056   2.622
    2MOL1    Cl 1805   2.109   2.011   2.626
    2MOL1    Cl 1806   2.342   2.052   2.456
    2MOL1     H 1807   2.337   1.984   2.681
    2MOL1    Cl 1808   2.819   2.969   3.399
    2MOL1     C 1809   2.951   2.910   3.500
    2MOL1    Cl 1810   3.037   3.046   3.575
    2MOL1    Cl 1811   2.891   2.798   3.623
    2MOL1     H 1812   3.022   2.856   3.436
    2MOL1    Cl 1813   5.067   1.746   1.708
    2MOL1     C 1814   5.027   1.918   1.715
    2MOL1    Cl 1815   4.939   1.967   1.569
    2MOL1    Cl 1816   4.932   1.953   1.860
    2MOL1     H 1817   5.120   1.975   1.720
    2MOL1    Cl 1818   1.601   1.430   3.474
    2MOL1     C 1819   1.776   1.452   3.483
    2MOL1    Cl 1820   1.857   1.297   3.515
    2MOL1    Cl 1821   1.838   1.524   3.334
    2MOL1     H 1822   1.798   1.520   3.566
    2MOL1    Cl 1823   3.393   4.276   2.101
    2MOL1     C 1824   3.430   4.179   2.245
    2MOL1    Cl 1825   3.386   4.267   2.392
    2MOL1    Cl 1826   3.345   4.024   2.238
    2MOL1     H 1827   3.537   4.160   2.247
    2MOL1    Cl 1828   2.103   3.726   0.562
    2MOL1     C 1829   2.064   3.571   0.485
    2MOL1    Cl 1830   1.926   3.589   0.376
    2MOL1    Cl 1831   2.205   3.509   0.397
    2MOL1     H 1832   2.038   3.500   0.563
    2MOL1    Cl 1833   4.505   2.254   3.211
    2MOL1     C 1834   4.637   2.140   3.241
    2MOL1    Cl 1835   4.736   2.194   3.378
    2MOL1    Cl 1836   4.575   1.977   3.269
    2MOL1     H 1837   4.701   2.138   3.152
    2MOL1    Cl 1838   2.359   3.758   1.422
    2MOL1     C 1839   2.418   3.923   1.402
    2MOL1    Cl 1840   2.560   3.927   1.296
    2MOL1    Cl 1841   2.290   4.028   1.338
    2MOL1     H 1842   2.448   3.962   1.501
    2MOL1    Cl 1843   0.920   4.849   4.653
    2MOL1     C 1844   1.049   4.928   4.746
    2MOL1    Cl 1845   1.208   4.875   4.690
    2MOL1    Cl 1846   1.034   5.105   4.734
    2MOL1     H 1847   1.038   4.900   4.851
    2MOL1    Cl 1848   3.534   3.164   3.591
    2MOL1     C 1849   3.666   3.244   3.677
    2MOL1    Cl 1850   3.605   3.380   3.773
    2MOL1    Cl 1851   3.753   3.129   3.780
    2MOL1     H 1852   3.737   3.284   3.603
    2MOL1    Cl 1853   3.643   3.715   1.258
    2MOL1     C 1854   3.787   3.817   1.250
    2MOL1    Cl 1855   3.828   3.854   1.082
    2MOL1    Cl 1856   3.764   3.966   1.343
    2MOL1     H 1857   3.871   3.762   1.294
    2MOL1    Cl 1858   2.643   1.286   4.092
    2MOL1     C 1859   2.535   1.292   3.952
    2MOL1    Cl 1860   2.369   1.323   4.003
    2MOL1    Cl 1861   2.589   1.416   3.837
    2MOL1     H 1862   2.539   1.195   3.901
    2MOL1    Cl 1863   2.007   3.723   4.859
    2MOL1     C 1864   2.114   3.594   4.916
    2MOL1    Cl 1865   2.050   3.435   4.870
    2MOL1    Cl 1866   2.278   3.617   4.853
    2MOL1     H 1867   2.118   3.599   5.025
    2MOL1    Cl 1868   4.238   3.921   3.082
    2MOL1     C 1869   4.286   3.783   3.182
    2MOL1    Cl 1870   4.438   3.816   3.266
    2MOL1    Cl 1871   4.158   3.743   3.298
    2MOL1     H 1872   4.300   3.697   3.116
    2MOL1    Cl 1873   3.105   1.423   5.052
    2MOL1     C 1874   3.088   1.592   5.002
    2MOL1    Cl 1875   3.177   1.623   4.852
    2MOL1    Cl 1876   2.916   1.634   4.982
    2MOL1     H 1877   3.129   1.656   5.080
    2MOL1    Cl 1878   0.661   0.772   4.012
    2MOL1     C 1879   0.659   0.628   4.116
    2MOL1    Cl 1880   0.495   0.596   4.176
    2MOL1    Cl 1881   0.722   0.488   4.029
    2MOL1     H 1882   0.724   0.647   4.202
    2MOL1    Cl 1883   3.703   0.805   2.055
    2MOL1     C 1884   3.571   0.921   2.033
    2MOL1    Cl 1885   3.437   0.847   1.944
    2MOL1    Cl 1886   3.515   0.982   2.190
    2MOL1     H 1887   3.608   1.006   1.975
    2MOL1    Cl 1888   2.920   0.272   2.639
    2MOL1     C 1889   2.834   0.143   2.552
    2MOL1    Cl 1890   2.744   0.209   2.415
    2MOL1    Cl 1891   2.948   0.018   2.498
    2MOL1     H 1892   2.763   0.097   2.621
    2MOL1    Cl 1893   2.609   4.560   2.639
    2MOL1     C 1894   2.698   4.578   2.487
    2MOL1    Cl 1895   2.668   4.440   2.380
    2MOL1    Cl 1896   2.653   4.730   2.406
    2MOL1     H 1897   2.805   4.581   2.510
    2MOL1    Cl 1898   0.828   0.930   2.332
    2MOL1     C 1899   0.877   1.009   2.182
    2MOL1    Cl 1900   1.045   1.063   2.191
    2MOL1    Cl 1901   0.853   0.900   2.044
    2MOL1     H 1902   0.814   1.097   2.167
    2MOL1    Cl 1903   2.526   4.443   3.131
    2MOL1     C 1904   2.358   4.404   3.169
    2MOL1    Cl 1905   2.349   4.272   3.286
    2MOL1    Cl 1906   2.273   4.547   3.230
    2MOL1     H 1907   2.308   4.372   3.077
    2MOL1    Cl 1908   4.100   1.767   4.821
    2MOL1     C 1909   4.259   1.839   4.788
    2MOL1    Cl 1910   4.246   1.961   4.660
    2MOL1    Cl 1911   4.326   1.911   4.936
    2MOL1     H 1912   4.326   1.760   4.754
    2MOL1    Cl 1913   0.227   0.454   0.390
    2MOL1     C 1914   0.382   0.462   0.304
    2MOL1    Cl 1915   0.458   0.620   0.327
    2MOL1    Cl 1916   0.490   0.332   0.357
    2MOL1     H 1917   0.362   0.448   0.197
    2MOL1    Cl 1918   3.824   3.875   5.001
    2MOL1     C 1919   3.925   3.886   5.145
    2MOL1    Cl 1920   3.970   4.055   5.177
    2MOL1    Cl 1921   3.842   3.817   5.285
    2MOL1     H 1922   4.017   3.829   5.128
    2MOL1    Cl 1923   1.944   2.217   2.775
    2MOL1     C 1924   1.974   2.391   2.788
    2MOL1    Cl 1925   1.943   2.447   2.954
    2MOL1    Cl 1926   2.139   2.430   2.739
    2MOL1     H 1927   1.905   2.443   2.721
    2MOL1    Cl 1928   1.981   4.163   1.630
    2MOL1     C 1929   2.152   4.144   1.589
    2MOL1    Cl 1930   2.187   4.220   1.432
    2MOL1    Cl 1931   2.256   4.211   1.716
    2MOL1     H 1932   2.173   4.037   1.580
    2MOL1    Cl 1933   4.125   3.787   1.830
    2MOL1     C 1934   4.076   3.630   1.896
    2MOL1    Cl 1935   4.192   3.575   2.018
    2MOL1    Cl 1936   3.913   3.640   1.965
    2MOL1     H 1937   4.074   3.558   1.814
    2MOL1    Cl 1938   2.612   4.453   0.700
    2MOL1     C 1939   2.645   4.590   0.593
    2MOL1    Cl 1940   2.775   4.691   0.659
    2MOL1    Cl 1941   2.687   4.533   0.430
    2MOL1     H 1942   2.555   4.651   0.585
    2MOL1    Cl 1943   2.894   2.211   4.772
    2MOL1     C 1944   2.821   2.371   4.751
    2MOL1    Cl 1945   2.942   2.489   4.698
    2MOL1    Cl 1946   2.687   2.363   4.635
    2MOL1     H 1947   2.781   2.403   4.847
    2MOL1    Cl 1948   1.633   3.496   2.655
    2MOL1     C 1949   1.549   3.342   2.673
    2MOL1    Cl 1950   1.611   3.252   2.813
    2MOL1    Cl 1951   1.374   3.368   2.689
    2MOL1     H 1952   1.566   3.282   2.583
    2MOL1    Cl 1953   0.724   4.116   4.800
    2MOL1     C 1954   0.705   4.244   4.921
    2MOL1    Cl 1955   0.580   4.199   5.039
    2MOL1    Cl 1956   0.859   4.277   5.002
    2MOL1     H 1957   0.672   4.335   4.870
    2MOL1    Cl 1958   0.356   2.422   1.641
    2MOL1     C 1959   0.229   2.410   1.764
    2MOL1    Cl 1960   0.105   2.533   1.738
    2MOL1    Cl 1961   0.158   2.248   1.764
    2MOL1     H 1962   0.275   2.427   1.862
    2MOL1    Cl 1963   4.330   0.930   4.112
    2MOL1     C 1964   4.495   0.970   4.160
    2MOL1    Cl 1965   4.494   1.096   4.286
    2MOL1    Cl 1966   4.580   0.826   4.217
    2MOL1     H 1967   4.548   1.009   4.073
    2MOL1    Cl 1968   3.910   0.975   0.453
    2MOL1     C 1969   4.005   1.124   0.433
    2MOL1    Cl 1970   3.898   1.265   0.425
    2MOL1    Cl 1971   4.122   1.141   0.565
    2MOL1     H 1972   4.060   1.116   0.339
    2MOL1    Cl 1973   1.941   1.680   4.069
    2MOL1     C 1974   1.941   1.790   3.930
    2MOL1    Cl 1975   1.896   1.703   3.782
    2MOL1    Cl 1976   1.832   1.926   3.958
    2MOL1     H 1977   2.043   1.829   3.917
    2MOL1    Cl 1978   0.352   1.705   2.111
    2MOL1     C 1979   0.258   1.843   2.053
    2MOL1    Cl 1980   0.363   1.963   1.976
    2MOL1    Cl 1981   0.131   1.790   1.941
    2MOL1     H 1982   0.209   1.891   2.139
    2MOL1    Cl 1983   1.787   0.459   3.426
    2MOL1     C 1984   1.655   0.565   3.375
    2MOL1    Cl 1985   1.577   0.640   3.515
    2MOL1    Cl 1986   1.714   0.689   3.263
    2MOL1     H 1987   1.581   0.505   3.322
    2MOL1    Cl 1988   2.364   4.222   1.243
    2MOL1     C 1989   2.220   4.228   1.140
    2MOL1    Cl 1990   2.103   4.105   1.190
    2MOL1    Cl 1991   2.146   4.389   1.145
    2MOL1     H 1992   2.250   4.208   1.037
    2MOL1    Cl 1993   3.595   1.710   4.401
    2MOL1     C 1994   3.434   1.774   4.365
    2MOL1    Cl 1995   3.444   1.911   4.253
    2MOL1    Cl 1996   3.330   1.647   4.297
    2MOL1     H 1997   3.389   1.808   4.458
    2MOL1    Cl 1998   2.117   3.810   4.128
    2MOL1     C 1999   2.271   3.743   4.183
    2MOL1    Cl 2000   2.406   3.813   4.092
    2MOL1    Cl 2001   2.292   3.771   4.357
    2MOL1     H 2002   2.270   3.635   4.166
    2MOL1    Cl 2003   3.081   1.133   4.991
    2MOL1     C 2004   3.164   0.985   4.940
    2MOL1    Cl 2005   3.336   0.992   4.980
    2MOL1    Cl 2006   3.088   0.842   5.014
    2MOL1     H 2007   3.154   0.976   4.831
    2MOL1    Cl 2008   3.034   2.666   2.428
    2MOL1     C 2009   3.129   2.813   2.454
    2MOL1    Cl 2010   3.054   2.914   2.578
    2MOL1    Cl 2011   3.296   2.773   2.497
    2MOL1     H 2012   3.130   2.870   2.360
    2MOL1    Cl 2013   4.598   4.332   0.822
    2MOL1     C 2014   4.752   4.259   0.868
    2MOL1    Cl 2015   4.837   4.363   0.984
    2MOL1    Cl 2016   4.727   4.097   0.936
    2MOL1     H 2017   4.814   4.250   0.778
    2MOL1    Cl 2018   1.989   2.898   4.476
    2MOL1     C 2019   2.156   2.865   4.425
    2MOL1    Cl 2020   2.259   3.006   4.454
    2MOL1    Cl 2021   2.219   2.723   4.510
    2MOL1     H 2022   2.156   2.844   4.318
    2MOL1    Cl 2023   2.531   4.119   4.277
    2MOL1     C 2024   2.617   4.127   4.431
    2MOL1    Cl 2025   2.503   4.136   4.566
    2MOL1    Cl 2026   2.725   3.988   4.450
    2MOL1     H 2027   2.678   4.218   4.432
    2MOL1    Cl 2028   4.468   5.162   2.482
    2MOL1     C 2029   4.406   5.163   2.648
    2MOL1    Cl 2030   4.375   4.997   2.703
    2MOL1    Cl 2031   4.520   5.244   2.756
    2MOL1     H 2032   4.312   5.218   2.649
    2MOL1    Cl 2033   1.934   3.902   2.132
    2MOL1     C 2034   1.850   3.746   2.125
    2MOL1    Cl 2035   1.748   3.724   2.268
    2MOL1    Cl 2036   1.753   3.735   1.977
    2MOL1     H 2037   1.925   3.667   2.123
    2MOL1    Cl 2038   3.566   0.666   1.057
    2MOL1     C 2039   3.478   0.819   1.047
    2MOL1    Cl 2040   3.567   0.935   0.947
    2MOL1    Cl 2041   3.315   0.793   0.982
    2MOL1     H 2042   3.469   0.860   1.148
    2MOL1    Cl 2043   0.471   3.809   3.143
    2MOL1     C 2044   0.343   3.749   3.036
    2MOL1    Cl 2045   0.353   3.573   3.020
    2MOL1    Cl 2046   0.184   3.797   3.096
    2MOL1     H 2047   0.358   3.793   2.937
    2MOL1    Cl 2048   2.960   2.625   4.891
    2MOL1     C 2049   2.871   2.755   4.808
    2MOL1    Cl 2050   2.753   2.687   4.695
    2MOL1    Cl 2051   2.792   2.861   4.926
    2MOL1     H 2052   2.943   2.814   4.751
    2MOL1    Cl 2053   2.345   0.801   0.601
    2MOL1     C 2054   2.275   0.671   0.699
    2MOL1    Cl 2055   2.102   0.700   0.725
    2MOL1    Cl 2056   2.301   0.514   0.623
    2MOL1     H 2057   2.325   0.671   0.797
    2MOL1    Cl 2058   2.856   0.424   2.332
    2MOL1     C 2059   2.976   0.326   2.246
    2MOL1    Cl 2060   3.097   0.262   2.359
    2MOL1    Cl 2061   2.897   0.194   2.158
    2MOL1     H 2062   3.027   0.390   2.174
    2MOL1    Cl 2063   1.727   3.544   4.471
    2MOL1     C 2064   1.818   3.572   4.621
    2MOL1    Cl 2065   1.855   3.745   4.639
    2MOL1    Cl 2066   1.727   3.513   4.761
    2MOL1     H 2067   1.912   3.517   4.615
    2MOL1    Cl 2068   0.689   2.797   0.608
    2MOL1     C 2069   0.802   2.838   0.738
    2MOL1    Cl 2070   0.835   2.696   0.839
    2MOL1    Cl 2071   0.953   2.903   0.671
    2MOL1     H 2072   0.757   2.915   0.801
    2MOL1    Cl 2073   3.011   0.392   3.419
    2MOL1     C 2074   3.006   0.217   3.442
    2MOL1    Cl 2075   2.929   0.177   3.597
    2MOL1    Cl 2076   2.920   0.138   3.308
    2MOL1     H 2077   3.108   0.179   3.444
    2MOL1    Cl 2078   2.065   2.893   1.282
    2MOL1     C 2079   2.102   2.985   1.136
    2MOL1    Cl 2080   2.197   2.887   1.022
    2MOL1    Cl 2081   1.954   3.043   1.059
    2MOL1     H 2082   2.162   3.072   1.164
    2MOL1    Cl 2083   2.990   5.314   4.157
    2MOL1     C 2084   3.087   5.198   4.066
    2MOL1    Cl 2085   3.199   5.282   3.957
    2MOL1    Cl 2086   3.176   5.091   4.176
    2MOL1     H 2087   3.020   5.136   4.005
    2MOL1    Cl 2088   0.408   0.375   4.109
    2MOL1     C 2089   0.256   0.393   4.198
    2MOL1    Cl 2090   0.286   0.394   4.373
    2MOL1    Cl 2091   0.172   0.542   4.149
    2MOL1     H 2092   0.192   0.308   4.174
    2MOL1    Cl 2093   2.318   2.560   4.094
    2MOL1     C 2094   2.439   2.654   4.006
    2MOL1    Cl 2095   2.489   2.795   4.102
    2MOL1    Cl 2096   2.579   2.554   3.966
    2MOL1     H 2097   2.394   2.690   3.913
    2MOL1    Cl 2098   0.755   1.557   0.146
    2MOL1     C 2099   0.761   1.389   0.201
    2MOL1    Cl 2100   0.662   1.285   0.098
    2MOL1    Cl 2101   0.929   1.332   0.205
    2MOL1     H 2102   0.722   1.385   0.303
    2MOL1    Cl 2103   4.776   2.919   2.047
    2MOL1     C 2104   4.668   3.000   1.933
    2MOL1    Cl 2105   4.603   2.883   1.816
    2MOL1    Cl 2106   4.537   3.082   2.018
    2MOL1     H 2107   4.726   3.075   1.878
    2MOL1    Cl 2108   3.013   3.132   0.667
    2MOL1     C 2109   3.111   3.258   0.592
    2MOL1    Cl 2110   3.240   3.311   0.701
    2MOL1    Cl 2111   3.179   3.201   0.438
    2MOL1     H 2112   3.047   3.344   0.571
    2MOL1    Cl 2113   2.727   4.820   1.675
    2MOL1     C 2114   2.567   4.884   1.637
    2MOL1    Cl 2115   2.520   5.009   1.753
    2MOL1    Cl 2116   2.564   4.949   1.472
    2MOL1     H 2117   2.494   4.802   1.643
    2MOL1    Cl 2118   2.775   3.913   4.854
    2MOL1     C 2119   2.676   4.047   4.795
    2MOL1    Cl 2120   2.511   4.036   4.858
    2MOL1    Cl 2121   2.749   4.202   4.838
    2MOL1     H 2122   2.671   4.041   4.686
    2MOL1    Cl 2123   4.083   3.907   2.853
    2MOL1     C 2124   3.981   4.028   2.774
    2MOL1    Cl 2125   4.061   4.092   2.630
    2MOL1    Cl 2126   3.823   3.959   2.732
    2MOL1     H 2127   3.965   4.110   2.844
    2MOL1    Cl 2128   2.200   1.543   2.643
    2MOL1     C 2129   2.314   1.531   2.508
    2MOL1    Cl 2130   2.253   1.420   2.384
    2MOL1    Cl 2131   2.344   1.691   2.439
    2MOL1     H 2132   2.408   1.492   2.547
    2MOL1    Cl 2133   4.949   2.387   0.800
    2MOL1     C 2134   4.894   2.353   0.635
    2MOL1    Cl 2135   4.875   2.504   0.544
    2MOL1    Cl 2136   5.008   2.245   0.553
    2MOL1     H 2137   4.797   2.303   0.640
    2MOL1    Cl 2138   4.265   0.453   3.134
    2MOL1     C 2139   4.236   0.621   3.182
    2MOL1    Cl 2140   4.102   0.631   3.296
    2MOL1    Cl 2141   4.383   0.692   3.252
    2MOL1     H 2142   4.210   0.678   3.092
    2MOL1    Cl 2143   4.744   2.291   0.320
    2MOL1     C 2144   4.831   2.355   0.180
    2MOL1    Cl 2145   4.945   2.234   0.117
    2MOL1    Cl 2146   4.718   2.405   0.053
    2MOL1     H 2147   4.888   2.443   0.211
    2MOL1    Cl 2148   3.288   1.345   1.019
    2MOL1     C 2149   3.394   1.212   1.067
    2MOL1    Cl 2150   3.300   1.080   1.139
    2MOL1    Cl 2151   3.487   1.152   0.928
    2MOL1     H 2152   3.465   1.249   1.141
    2MOL1    Cl 2153   2.683   4.644   4.643
    2MOL1     C 2154   2.692   4.476   4.698
    2MOL1    Cl 2155   2.566   4.378   4.622
    2MOL1    Cl 2156   2.852   4.408   4.663
    2MOL1     H 2157   2.677   4.474   4.806
    2MOL1    Cl 2158   1.620   5.211   0.748
    2MOL1     C 2159   1.489   5.235   0.632
    2MOL1    Cl 2160   1.543   5.198   0.468
    2MOL1    Cl 2161   1.349   5.135   0.675
    2MOL1     H 2162   1.458   5.340   0.636
    2MOL1    Cl 2163   1.481   3.153   4.477
    2MOL1     C 2164   1.406   3.311   4.505
    2MOL1    Cl 2165   1.505   3.441   4.437
    2MOL1    Cl 2166   1.242   3.315   4.436
    2MOL1     H 2167   1.398   3.327   4.613
    2MOL1    Cl 2168   1.058   2.212   2.460
    2MOL1     C 2169   1.181   2.329   2.409
    2MOL1    Cl 2170   1.299   2.252   2.301
    2MOL1    Cl 2171   1.105   2.468   2.328
    2MOL1     H 2172   1.234   2.365   2.498
    2MOL1    Cl 2173   1.197   1.377   0.600
    2MOL1     C 2174   1.368   1.408   0.565
    2MOL1    Cl 2175   1.472   1.301   0.660
    2MOL1    Cl 2176   1.400   1.389   0.391
    2MOL1     H 2177   1.391   1.512   0.593
    2MOL1    Cl 2178   0.284   5.332   3.285
    2MOL1     C 2179   0.334   5.166   3.249
    2MOL1    Cl 2180   0.465   5.165   3.130
    2MOL1    Cl 2181   0.385   5.083   3.398
    2MOL1     H 2182   0.249   5.113   3.207
    2MOL1    Cl 2183   2.810   4.029   0.485
    2MOL1     C 2184   2.801   3.964   0.320
    2MOL1    Cl 2185   2.712   4.075   0.215
    2MOL1    Cl 2186   2.964   3.934   0.256
    2MOL1     H 2187   2.748   3.869   0.324
    2MOL1    Cl 2188   4.922   1.932   0.916
    2MOL1     C 2189   5.096   1.907   0.895
    2MOL1    Cl 2190   5.130   1.739   0.852
    2MOL1    Cl 2191   5.161   2.017   0.773
    2MOL1     H 2192   5.145   1.928   0.990
    2MOL1    Cl 2193   3.380   4.616   4.073
    2MOL1     C 2194   3.276   4.757   4.098
    2MOL1    Cl 2195   3.148   4.762   3.976
    2MOL1    Cl 2196   3.207   4.756   4.261
    2MOL1     H 2197   3.337   4.847   4.088
    2MOL1    Cl 2198   0.314   3.430   3.477
    2MOL1     C 2199   0.422   3.322   3.388
    2MOL1    Cl 2200   0.333   3.183   3.324
    2MOL1    Cl 2201   0.504   3.409   3.258
    2MOL1     H 2202   0.498   3.285   3.458
    2MOL1    Cl 2203   2.851   0.554   1.768
    2MOL1     C 2204   2.858   0.514   1.940
    2MOL1    Cl 2205   2.705   0.554   2.020
    2MOL1    Cl 2206   2.896   0.342   1.962
    2MOL1     H 2207   2.938   0.573   1.986
    2MOL1    Cl 2208   4.727   5.174   4.284
    2MOL1     C 2209   4.812   5.035   4.356
    2MOL1    Cl 2210   4.716   4.887   4.338
    2MOL1    Cl 2211   4.972   5.015   4.283
    2MOL1     H 2212   4.825   5.055   4.463
    2MOL1    Cl 2213   4.189   1.048   1.986
    2MOL1     C 2214   4.034   0.992   2.050
    2MOL1    Cl 2215   3.998   1.071   2.204
    2MOL1    Cl 2216   3.904   1.021   1.934
    2MOL1     H 2217   4.041   0.884   2.068
    2MOL1    Cl 2218   2.446   4.853   2.483
    2MOL1     C 2219   2.326   4.746   2.409
    2MOL1    Cl 2220   2.281   4.616   2.520
    2MOL1    Cl 2221   2.184   4.837   2.358
    2MOL1     H 2222   2.371   4.700   2.320
    2MOL1    Cl 2223   2.353   2.791   0.881
    2MOL1     C 2224   2.281   2.629   0.892
    2MOL1    Cl 2225   2.361   2.534   1.018
    2MOL1    Cl 2226   2.107   2.640   0.923
    2MOL1     H 2227   2.296   2.579   0.796
    2MOL1    Cl 2228   2.188   4.598   0.440
    2MOL1     C 2229   2.233   4.769   0.443
    2MOL1    Cl 2230   2.318   4.813   0.293
    2MOL1    Cl 2231   2.090   4.871   0.466
    2MOL1     H 2232   2.301   4.785   0.527
    2MOL1    Cl 2233   3.467   1.106   2.444
    2MOL1     C 2234   3.632   1.168   2.424
    2MOL1    Cl 2235   3.725   1.061   2.317
    2MOL1    Cl 2236   3.630   1.333   2.360
    2MOL1     H 2237   3.681   1.169   2.521
    2MOL1    Cl 2238   3.873   4.068   0.921
    2MOL1     C 2239   3.722   4.054   0.828
    2MOL1    Cl 2240   3.751   3.971   0.675
    2MOL1    Cl 2241   3.599   3.970   0.923
    2MOL1     H 2242   3.686   4.155   0.807
    2MOL1    Cl 2243   1.735   4.277   2.002
    2MOL1     C 2244   1.719   4.322   2.172
    2MOL1    Cl 2245   1.622   4.469   2.190
    2MOL1    Cl 2246   1.648   4.189   2.265
    2MOL1     H 2247   1.819   4.342   2.212
    2MOL1    Cl 2248   5.079   2.700   2.927
    2MOL1     C 2249   4.964   2.811   3.001
    2MOL1    Cl 2250   4.844   2.723   3.098
    2MOL1    Cl 2251   5.048   2.931   3.101
    2MOL1     H 2252   4.911   2.864   2.922
    2MOL1    Cl 2253   1.676   1.373   2.171
    2MOL1     C 2254   1.586   1.242   2.248
    2MOL1    Cl 2255   1.412   1.266   2.229
    2MOL1    Cl 2256   1.634   1.085   2.182
    2MOL1     H 2257   1.609   1.243   2.355
    2MOL1    Cl 2258   0.277   0.650   1.500
    2MOL1     C 2259   0.153   0.526   1.474
    2MOL1    Cl 2260   0.217   0.365   1.513
    2MOL1    Cl 2261   0.009   0.560   1.571
    2MOL1     H 2262   0.125   0.527   1.369
    2MOL1    Cl 2263   0.898   4.260   0.189
    2MOL1     C 2264   1.072   4.286   0.197
    2MOL1    Cl 2265   1.159   4.132   0.203
    2MOL1    Cl 2266   1.127   4.383   0.059
    2MOL1     H 2267   1.095   4.342   0.289
    2MOL1    Cl 2268   3.194   2.687   0.747
    2MOL1     C 2269   3.068   2.761   0.848
    2MOL1    Cl 2270   3.072   2.695   1.012
    2MOL1    Cl 2271   3.088   2.937   0.850
    2MOL1     H 2272   2.971   2.738   0.804
    2MOL1    Cl 2273   0.465   2.082   2.582
    2MOL1     C 2274   0.604   2.000   2.508
    2MOL1    Cl 2275   0.745   2.107   2.504
    2MOL1    Cl 2276   0.642   1.850   2.594
    2MOL1     H 2277   0.578   1.974   2.405
    2MOL1    Cl 2278   2.602   0.673   4.857
    2MOL1     C 2279   2.632   0.784   4.992
    2MOL1    Cl 2280   2.520   0.921   4.985
    2MOL1    Cl 2281   2.616   0.699   5.147
    2MOL1     H 2282   2.734   0.822   4.984
    2MOL1    Cl 2283   0.246   4.304   4.180
    2MOL1     C 2284   0.405   4.352   4.241
    2MOL1    Cl 2285   0.464   4.236   4.361
    2MOL1    Cl 2286   0.521   4.368   4.108
    2MOL1     H 2287   0.395   4.450   4.289
    2MOL1    Cl 2288   4.950   4.069   1.627
    2MOL1     C 2289   5.107   4.008   1.572
    2MOL1    Cl 2290   5.111   3.831   1.576
    2MOL1    Cl 2291   5.143   4.067   1.408
    2MOL1     H 2292   5.184   4.046   1.639
    2MOL1    Cl 2293   2.532   2.211   0.481
    2MOL1     C 2294   2.633   2.331   0.398
    2MOL1    Cl 2295   2.622   2.489   0.478
    2MOL1    Cl 2296   2.802   2.276   0.392
    2MOL1     H 2297   2.597   2.341   0.296
    2MOL1    Cl 2298   3.411   2.475   2.032
    2MOL1     C 2299   3.355   2.474   2.200
    2MOL1    Cl 2300   3.236   2.603   2.226
    2MOL1    Cl 2301   3.286   2.317   2.243
    2MOL1     H 2302   3.440   2.493   2.265
    2MOL1    Cl 2303   4.027   1.447   5.173
    2MOL1     C 2304   4.106   1.290   5.197
    2MOL1    Cl 2305   4.211   1.294   5.339
    2MOL1    Cl 2306   3.986   1.162   5.211
    2MOL1     H 2307   4.168   1.270   5.109
    2MOL1    Cl 2308   1.041   2.149   4.660
    2MOL1     C 2309   1.184   2.163   4.558
    2MOL1    Cl 2310   1.322   2.079   4.631
    2MOL1    Cl 2311   1.152   2.099   4.395
    2MOL1     H 2312   1.210   2.269   4.548
    2MOL1    Cl 2313   0.567   0.308   2.180
    2MOL1     C 2314   0.408   0.380   2.150
    2MOL1    Cl 2315   0.399   0.444   1.985
    2MOL1    Cl 2316   0.279   0.261   2.177
    2MOL1     H 2317   0.393   0.462   2.220
    2MOL1    Cl 2318   3.710   0.529   1.171
    2MOL1     C 2319   3.824   0.425   1.083
    2MOL1    Cl 2320   3.800   0.440   0.908
    2MOL1    Cl 2321   3.991   0.465   1.126
    2MOL1     H 2322   3.804   0.321   1.112
    2MOL1    Cl 2323   3.048   2.356   3.748
    2MOL1     C 2324   3.143   2.291   3.614
    2MOL1    Cl 2325   3.103   2.121   3.586
    2MOL1    Cl 2326   3.116   2.386   3.467
    2MOL1     H 2327   3.249   2.298   3.640
    2MOL1    Cl 2328   3.588   2.862   3.536
    2MOL1     C 2329   3.762   2.848   3.565
    2MOL1    Cl 2330   3.847   2.991   3.504
    2MOL1    Cl 2331   3.795   2.825   3.737
    2MOL1     H 2332   3.799   2.760   3.511
    2MOL1    Cl 2333   3.071   4.347   1.817
    2MOL1     C 2334   3.204   4.464   1.815
    2MOL1    Cl 2335   3.346   4.397   1.735
    2MOL1    Cl 2336   3.153   4.614   1.736
    2MOL1     H 2337   3.230   4.488   1.919
    2MOL1    Cl 2338   0.555   1.273   4.050
    2MOL1     C 2339   0.521   1.337   4.212
    2MOL1    Cl 2340   0.508   1.205   4.330
    2MOL1    Cl 2341   0.647   1.452   4.261
    2MOL1     H 2342   0.426   1.390   4.209
    2MOL1    Cl 2343   0.490   1.863   1.525
    2MOL1     C 2344   0.358   1.849   1.642
    2MOL1    Cl 2345   0.411   1.755   1.783
    2MOL1    Cl 2346   0.301   2.009   1.692
    2MOL1     H 2347   0.276   1.796   1.595
    2MOL1    Cl 2348   0.159   2.854   1.527
    2MOL1     C 2349   0.109   2.944   1.383
    2MOL1    Cl 2350   0.182   3.105   1.381
    2MOL1    Cl 2351   0.150   2.854   1.236
    2MOL1     H 2352   0.000   2.956   1.387
    2MOL1    Cl 2353   1.023   3.654   0.226
    2MOL1     C 2354   0.900   3.686   0.103
    2MOL1    Cl 2355   0.767   3.569   0.117
    2MOL1    Cl 2356   0.839   3.851   0.117
    2MOL1     H 2357   0.945   3.674   0.004
    2MOL1    Cl 2358   3.543   1.334   1.357
    2MOL1     C 2359   3.622   1.335   1.516
    2MOL1    Cl 2360   3.798   1.324   1.498
    2MOL1    Cl 2361   3.578   1.482   1.606
    2MOL1     H 2362   3.587   1.249   1.572
    2MOL1    Cl 2363   3.546   1.571   4.705
    2MOL1     C 2364   3.506   1.733   4.764
    2MOL1    Cl 2365   3.491   1.734   4.941
    2MOL1    Cl 2366   3.628   1.851   4.712
    2MOL1     H 2367   3.410   1.763   4.721
    2MOL1    Cl 2368   0.744   3.839   4.210
    2MOL1     C 2369   0.701   3.996   4.281
    2MOL1    Cl 2370   0.586   3.974   4.414
    2MOL1    Cl 2371   0.846   4.081   4.337
    2MOL1     H 2372   0.654   4.056   4.204
    2MOL1    Cl 2373   3.459   3.292   5.230
    2MOL1     C 2374   3.607   3.216   5.169
    2MOL1    Cl 2375   3.735   3.337   5.149
    2MOL1    Cl 2376   3.660   3.087   5.279
    2MOL1     H 2377   3.586   3.172   5.072
    2MOL1    Cl 2378   1.117   2.764   1.493
    2MOL1     C 2379   0.948   2.712   1.494
    2MOL1    Cl 2380   0.904   2.636   1.340
    2MOL1    Cl 2381   0.918   2.601   1.629
    2MOL1     H 2382   0.885   2.800   1.508
    2MOL1    Cl 2383   4.331   1.207   0.468
    2MOL1     C 2384   4.375   1.124   0.318
    2MOL1    Cl 2385   4.249   1.147   0.195
    2MOL1    Cl 2386   4.531   1.181   0.258
    2MOL1     H 2387   4.383   1.017   0.339
    2MOL1    Cl 2388   3.236   0.885   3.408
    2MOL1     C 2389   3.093   0.847   3.505
    2MOL1    Cl 2390   3.047   0.677   3.485
    2MOL1    Cl 2391   3.122   0.885   3.676
    2MOL1     H 2392   3.010   0.910   3.470
    2MOL1    Cl 2393   4.341   1.514   4.769
    2MOL1     C 2394   4.364   1.385   4.888
    2MOL1    Cl 2395   4.398   1.231   4.806
    2MOL1    Cl 2396   4.496   1.426   4.999
    2MOL1     H 2397   4.272   1.373   4.945
    2MOL1    Cl 2398   4.605   2.201   3.764
    2MOL1     C 2399   4.771   2.154   3.802
    2MOL1    Cl 2400   4.834   2.250   3.937
    2MOL1    Cl 2401   4.779   1.981   3.840
    2MOL1     H 2402   4.833   2.173   3.715
    2MOL1    Cl 2403   3.360   0.778   3.976
    2MOL1     C 2404   3.405   0.743   3.809
    2MOL1    Cl 2405   3.331   0.591   3.755
    2MOL1    Cl 2406   3.357   0.876   3.702
    2MOL1     H 2407   3.513   0.732   3.804
    2MOL1    Cl 2408   3.788   3.650   1.687
    2MOL1     C 2409   3.884   3.795   1.656
    2MOL1    Cl 2410   4.031   3.755   1.566
    2MOL1    Cl 2411   3.788   3.916   1.568
    2MOL1     H 2412   3.913   3.839   1.752
    2MOL1    Cl 2413   0.582   0.020   1.293
    2MOL1     C 2414   0.536   0.168   1.378
    2MOL1    Cl 2415   0.680   0.263   1.420
    2MOL1    Cl 2416   0.424   0.264   1.279
    2MOL1     H 2417   0.485   0.140   1.470
    2MOL1    Cl 2418   2.161   3.907   3.526
    2MOL1     C 2419   2.165   3.982   3.686
    2MOL1    Cl 2420   2.101   3.871   3.808
    2MOL1    Cl 2421   2.330   4.032   3.728
    2MOL1     H 2422   2.102   4.071   3.684
    2MOL1    Cl 2423   4.644   4.073   1.284
    2MOL1     C 2424   4.512   3.974   1.348
    2MOL1    Cl 2425   4.391   3.942   1.222
    2MOL1    Cl 2426   4.574   3.821   1.413
    2MOL1     H 2427   4.464   4.028   1.429
    2MOL1    Cl 2428   2.986   4.279   4.513
    2MOL1     C 2429   3.122   4.368   4.582
    2MOL1    Cl 2430   3.107   4.376   4.759
    2MOL1    Cl 2431   3.276   4.294   4.536
    2MOL1     H 2432   3.120   4.470   4.543
    2MOL1    Cl 2433   2.014   1.720   4.791
    2MOL1     C 2434   2.094   1.877   4.789
    2MOL1    Cl 2435   2.244   1.870   4.695
    2MOL1    Cl 2436   1.986   2.002   4.724
    2MOL1     H 2437   2.120   1.904   4.892
    2MOL1    Cl 2438   1.656   3.452   1.921
    2MOL1     C 2439   1.512   3.495   2.015
    2MOL1    Cl 2440   1.467   3.363   2.124
    2MOL1    Cl 2441   1.540   3.644   2.106
    2MOL1     H 2442   1.429   3.512   1.946
    2MOL1    Cl 2443   4.231   4.573   3.852
    2MOL1     C 2444   4.198   4.423   3.763
    2MOL1    Cl 2445   4.336   4.312   3.776
    2MOL1    Cl 2446   4.050   4.346   3.823
    2MOL1     H 2447   4.184   4.448   3.658
    2MOL1    Cl 2448   0.720   1.074   3.648
    2MOL1     C 2449   0.709   0.981   3.798
    2MOL1    Cl 2450   0.708   1.089   3.939
    2MOL1    Cl 2451   0.564   0.879   3.798
    2MOL1     H 2452   0.797   0.916   3.805
    2MOL1    Cl 2453   1.539   4.527   0.758
    2MOL1     C 2454   1.697   4.454   0.721
    2MOL1    Cl 2455   1.678   4.318   0.610
    2MOL1    Cl 2456   1.806   4.576   0.653
    2MOL1     H 2457   1.740   4.417   0.814
    2MOL1    Cl 2458   3.199   0.599   0.148
    2MOL1     C 2459   3.259   0.436   0.117
    2MOL1    Cl 2460   3.431   0.439   0.076
    2MOL1    Cl 2461   3.231   0.331   0.258
    2MOL1     H 2462   3.204   0.394   0.032
    2MOL1    Cl 2463   3.912   1.025   3.233
    2MOL1     C 2464   3.808   0.889   3.277
    2MOL1    Cl 2465   3.890   0.782   3.392
    2MOL1    Cl 2466   3.655   0.946   3.344
    2MOL1     H 2467   3.787   0.832   3.186
    2MOL1    Cl 2468   0.334   4.564   4.002
    2MOL1     C 2469   0.168   4.626   3.997
    2MOL1    Cl 2470   0.153   4.755   3.876
    2MOL1    Cl 2471   0.054   4.495   3.963
    2MOL1     H 2472   0.144   4.668   4.095
    2MOL1    Cl 2473   4.308   1.651   5.053
    2MOL1     C 2474   4.386   1.721   5.196
    2MOL1    Cl 2475   4.323   1.884   5.228
    2MOL1    Cl 2476   4.363   1.617   5.337
    2MOL1     H 2477   4.493   1.729   5.176
    2MOL1    Cl 2478   0.527   0.631   2.930
    2MOL1     C 2479   0.469   0.710   2.783
    2MOL1    Cl 2480   0.577   0.843   2.737
    2MOL1    Cl 2481   0.453   0.593   2.651
    2MOL1     H 2482   0.370   0.753   2.804
    2MOL1    Cl 2483   0.497   2.297   2.269
    2MOL1     C 2484   0.461   2.175   2.145
    2MOL1    Cl 2485   0.451   2.250   1.985
    2MOL1    Cl 2486   0.584   2.048   2.146
    2MOL1     H 2487   0.365   2.130   2.168
    2MOL1    Cl 2488   3.580   2.103   1.498
    2MOL1     C 2489   3.693   2.205   1.590
    2MOL1    Cl 2490   3.604   2.311   1.701
    2MOL1    Cl 2491   3.809   2.104   1.679
    2MOL1     H 2492   3.748   2.267   1.519
    2MOL1    Cl 2493   2.644   0.986   4.169
    2MOL1     C 2494   2.627   0.929   4.336
    2MOL1    Cl 2495   2.476   0.839   4.357
    2MOL1    Cl 2496   2.766   0.828   4.382
    2MOL1     H 2497   2.625   1.016   4.402
    2MOL1    Cl 2498   4.565   2.578   5.082
    2MOL1     C 2499   4.649   2.530   4.934
    2MOL1    Cl 2500   4.676   2.671   4.830
    2MOL1    Cl 2501   4.802   2.450   4.973
    2MOL1     H 2502   4.586   2.459   4.880
    2MOL1    Cl 2503   3.666   0.773   2.924
    2MOL1     C 2504   3.825   0.772   2.845
    2MOL1    Cl 2505   3.843   0.914   2.741
    2MOL1    Cl 2506   3.954   0.767   2.966
    2MOL1     H 2507   3.832   0.683   2.783
    2MOL1    Cl 2508   3.286   2.272   3.239
    2MOL1     C 2509   3.366   2.115   3.257
    2MOL1    Cl 2510   3.509   2.129   3.360
    2MOL1    Cl 2511   3.254   1.994   3.322
    2MOL1     H 2512   3.398   2.082   3.158
    2MOL1    Cl 2513   3.821   1.835   1.406
    2MOL1     C 2514   3.816   1.681   1.492
    2MOL1    Cl 2515   3.748   1.554   1.389
    2MOL1    Cl 2516   3.979   1.635   1.547
    2MOL1     H 2517   3.752   1.692   1.580
    2MOL1    Cl 2518   0.586   3.463   1.666
    2MOL1     C 2519   0.423   3.411   1.618
    2MOL1    Cl 2520   0.305   3.454   1.743
    2MOL1    Cl 2521   0.378   3.483   1.462
    2MOL1     H 2522   0.424   3.302   1.607
    2MOL1    Cl 2523   2.493   3.635   4.661
    2MOL1     C 2524   2.478   3.809   4.633
    2MOL1    Cl 2525   2.538   3.852   4.471
    2MOL1    Cl 2526   2.310   3.861   4.652
    2MOL1     H 2527   2.539   3.862   4.707
    2MOL1    Cl 2528   1.937   1.732   1.874
    2MOL1     C 2529   1.982   1.563   1.906
    2MOL1    Cl 2530   2.122   1.556   2.014
    2MOL1    Cl 2531   1.845   1.474   1.974
    2MOL1     H 2532   2.010   1.517   1.811
    2MOL1    Cl 2533   4.683   2.660   0.291
    2MOL1     C 2534   4.550   2.560   0.351
    2MOL1    Cl 2535   4.522   2.422   0.244
    2MOL1    Cl 2536   4.583   2.505   0.517
    2MOL1     H 2537   4.459   2.621   0.353
    2MOL1    Cl 2538   3.065   4.650   3.741
    2MOL1     C 2539   3.092   4.592   3.576
    2MOL1    Cl 2540   2.964   4.650   3.468
    2MOL1    Cl 2541   3.251   4.643   3.517
    2MOL1     H 2542   3.089   4.483   3.576
    2MOL1    Cl 2543   5.048   4.045   5.240
    2MOL1     C 2544   5.028   3.873   5.206
    2MOL1    Cl 2545   4.886   3.845   5.104
    2MOL1    Cl 2546   5.174   3.807   5.130
    2MOL1     H 2547   5.013   3.821   5.301
    2MOL1    Cl 2548   1.369   2.621   3.312
    2MOL1     C 2549   1.199   2.669   3.323
    2MOL1    Cl 2550   1.100   2.575   3.211
    2MOL1    Cl 2551   1.140   2.650   3.490
    2MOL1     H 2552   1.192   2.775   3.296
    2MOL1    Cl 2553   2.591   2.763   1.484
    2MOL1     C 2554   2.572   2.828   1.321
    2MOL1    Cl 2555   2.549   2.696   1.204
    2MOL1    Cl 2556   2.435   2.941   1.314
    2MOL1     H 2557   2.662   2.882   1.294
    2MOL1    Cl 2558   0.011   3.719   3.524
    2MOL1     C 2559   0.116   3.589   3.581
    2MOL1    Cl 2560   0.103   3.572   3.757
    2MOL1    Cl 2561   0.075   3.436   3.501
    2MOL1     H 2562   0.219   3.614   3.557
    2MOL1    Cl 2563   2.421   4.764   3.201
    2MOL1     C 2564   2.496   4.836   3.344
    2MOL1    Cl 2565   2.532   5.007   3.318
    2MOL1    Cl 2566   2.392   4.815   3.486
    2MOL1     H 2567   2.591   4.784   3.363
    2MOL1    Cl 2568   5.163   2.764   4.284
    2MOL1     C 2569   5.007   2.720   4.214
    2MOL1    Cl 2570   4.965   2.829   4.080
    2MOL1    Cl 2571   5.009   2.552   4.158
    2MOL1     H 2572   4.930   2.730   4.291
    2MOL1    Cl 2573   2.712   2.319   3.455
    2MOL1     C 2574   2.577   2.247   3.544
    2MOL1    Cl 2575   2.556   2.327   3.700
    2MOL1    Cl 2576   2.428   2.257   3.448
    2MOL1     H 2577   2.599   2.142   3.562
    2MOL1    Cl 2578   2.021   0.881   4.122
    2MOL1     C 2579   1.948   0.727   4.073
    2MOL1    Cl 2580   1.801   0.756   3.977
    2MOL1    Cl 2581   2.063   0.629   3.981
    2MOL1     H 2582   1.920   0.672   4.163
    2MOL1    Cl 2583   0.800   0.250   0.834
    2MOL1     C 2584   0.913   0.381   0.871
    2MOL1    Cl 2585   0.891   0.438   1.037
    2MOL1    Cl 2586   1.080   0.328   0.846
    2MOL1     H 2587   0.893   0.464   0.803
    2MOL1    Cl 2588   4.252   1.543   3.775
    2MOL1     C 2589   4.167   1.436   3.662
    2MOL1    Cl 2590   4.060   1.325   3.751
    2MOL1    Cl 2591   4.075   1.530   3.544
    2MOL1     H 2592   4.241   1.376   3.609
    2MOL1    Cl 2593   3.121   4.902   3.521
    2MOL1     C 2594   3.214   4.913   3.371
    2MOL1    Cl 2595   3.178   5.064   3.286
    2MOL1    Cl 2596   3.388   4.900   3.405
    2MOL1     H 2597   3.186   4.829   3.306
    2MOL1    Cl 2598   2.286   2.488   2.938
    2MOL1     C 2599   2.215   2.560   3.083
    2MOL1    Cl 2600   2.086   2.674   3.039
    2MOL1    Cl 2601   2.152   2.435   3.191
    2MOL1     H 2602   2.293   2.616   3.136
    2MOL1    Cl 2603   1.368   0.536   5.224
    2MOL1     C 2604   1.440   0.698   5.227
    2MOL1    Cl 2605   1.338   0.810   5.319
    2MOL1    Cl 2606   1.604   0.692   5.295
    2MOL1     H 2607   1.447   0.734   5.124
    2MOL1    Cl 2608   2.390   4.401   4.332
    2MOL1     C 2609   2.217   4.436   4.338
    2MOL1    Cl 2610   2.140   4.396   4.184
    2MOL1    Cl 2611   2.140   4.348   4.471
    2MOL1     H 2612   2.204   4.543   4.356
    2MOL1    Cl 2613   0.618   3.693   5.054
    2MOL1     C 2614   0.774   3.775   5.047
    2MOL1    Cl 2615   0.775   3.916   5.155
    2MOL1    Cl 2616   0.906   3.664   5.089
    2MOL1     H 2617   0.791   3.810   4.945
    2MOL1    Cl 2618   5.248   2.977   1.897
    2MOL1     C 2619   5.097   3.069   1.883
    2MOL1    Cl 2620   5.107   3.184   1.748
    2MOL1    Cl 2621   4.959   2.960   1.862
    2MOL1     H 2622   5.082   3.125   1.975
    2MOL1    Cl 2623   3.350   1.382   3.583
    2MOL1     C 2624   3.368   1.206   3.575
    2MOL1    Cl 2625   3.432   1.143   3.727
    2MOL1    Cl 2626   3.212   1.130   3.537
    2MOL1     H 2627   3.438   1.182   3.495
    2MOL1    Cl 2628   1.478   0.202   1.178
    2MOL1     C 2629   1.544   0.078   1.285
    2MOL1    Cl 2630   1.687   0.001   1.212
    2MOL1    Cl 2631   1.585   0.146   1.443
    2MOL1     H 2632   1.468   0.001   1.300
    2MOL1    Cl 2633   2.710   2.850   3.758
    2MOL1     C 2634   2.758   2.934   3.906
    2MOL1    Cl 2635   2.932   2.969   3.904
    2MOL1    Cl 2636   2.665   3.083   3.928
    2MOL1     H 2637   2.738   2.867   3.991
    2MOL1    Cl 2638   5.164   3.211   1.193
    2MOL1     C 2639   5.122   3.376   1.242
    2MOL1    Cl 2640   4.948   3.388   1.276
    2MOL1    Cl 2641   5.217   3.426   1.382
    2MOL1     H 2642   5.145   3.444   1.159
    2MOL1    Cl 2643   1.831   0.409   0.087
    2MOL1     C 2644   1.881   0.278   0.196
    2MOL1    Cl 2645   1.935   0.137   0.103
    2MOL1    Cl 2646   2.010   0.334   0.305
    2MOL1     H 2647   1.795   0.249   0.257
    2MOL1    Cl 2648   1.009   2.047   2.896
    2MOL1     C 2649   1.082   1.975   3.040
    2MOL1    Cl 2650   1.258   1.993   3.038
    2MOL1    Cl 2651   1.014   2.048   3.187
    2MOL1     H 2652   1.058   1.869   3.041
    2MOL1    Cl 2653   2.550   3.920   2.371
    2MOL1     C 2654   2.699   3.860   2.445
    2MOL1    Cl 2655   2.786   3.992   2.525
    2MOL1    Cl 2656   2.663   3.730   2.561
    2MOL1     H 2657   2.762   3.818   2.367
    2MOL1    Cl 2658   1.602   0.428   2.852
    2MOL1     C 2659   1.482   0.550   2.899
    2MOL1    Cl 2660   1.377   0.487   3.028
    2MOL1    Cl 2661   1.562   0.699   2.951
    2MOL1     H 2662   1.420   0.572   2.812
    2MOL1    Cl 2663   4.978   4.888   2.723
    2MOL1     C 2664   5.051   5.020   2.815
    2MOL1    Cl 2665   4.928   5.134   2.870
    2MOL1    Cl 2666   5.143   4.956   2.952
    2MOL1     H 2667   5.121   5.073   2.749
    2MOL1    Cl 2668   2.722   4.007   3.243
    2MOL1     C 2669   2.593   3.889   3.212
    2MOL1    Cl 2670   2.471   3.958   3.103
    2MOL1    Cl 2671   2.660   3.740   3.144
    2MOL1     H 2672   2.545   3.865   3.307
    2MOL1    Cl 2673   5.222   5.111   0.252
    2MOL1     C 2674   5.067   5.024   0.255
    2MOL1    Cl 2675   5.078   4.874   0.162
    2MOL1    Cl 2676   5.018   4.991   0.422
    2MOL1     H 2677   4.992   5.088   0.209
    2MOL1    Cl 2678   1.635   4.148   5.066
    2MOL1     C 2679   1.520   4.060   5.168
    2MOL1    Cl 2680   1.506   3.892   5.115
    2MOL1    Cl 2681   1.569   4.068   5.338
    2MOL1     H 2682   1.422   4.108   5.158
    2MOL1    Cl 2683   0.643   1.862   3.419
    2MOL1     C 2684   0.513   1.964   3.484
    2MOL1    Cl 2685   0.356   1.883   3.464
    2MOL1    Cl 2686   0.542   2.002   3.654
    2MOL1     H 2687   0.511   2.057   3.427
    2MOL1    Cl 2688   4.756   0.537   4.802
    2MOL1     C 2689   4.598   0.458   4.815
    2MOL1    Cl 2690   4.468   0.577   4.801
    2MOL1    Cl 2691   4.581   0.332   4.691
    2MOL1     H 2692   4.592   0.410   4.913
    2MOL1    Cl 2693   4.372   2.291   2.393
    2MOL1     C 2694   4.300   2.415   2.498
    2MOL1    Cl 2695   4.374   2.410   2.659
    2MOL1    Cl 2696   4.318   2.576   2.426
    2MOL1     H 2697   4.193   2.393   2.508
    2MOL1    Cl 2698   3.519   4.753   1.518
    2MOL1     C 2699   3.498   4.642   1.654
    2MOL1    Cl 2700   3.604   4.501   1.636
    2MOL1    Cl 2701   3.530   4.724   1.808
    2MOL1     H 2702   3.395   4.608   1.655
    2MOL1    Cl 2703   5.193   5.153   0.573
    2MOL1     C 2704   5.197   5.196   0.745
    2MOL1    Cl 2705   5.051   5.284   0.791
    2MOL1    Cl 2706   5.217   5.051   0.845
    2MOL1     H 2707   5.284   5.261   0.762
    2MOL1    Cl 2708   3.933   5.014   0.167
    2MOL1     C 2709   3.973   5.153   0.269
    2MOL1    Cl 2710   4.149   5.171   0.282
    2MOL1    Cl 2711   3.900   5.300   0.205
    2MOL1     H 2712   3.933   5.135   0.369
    2MOL1    Cl 2713   0.650   4.927   2.482
    2MOL1     C 2714   0.640   5.102   2.458
    2MOL1    Cl 2715   0.736   5.151   2.317
    2MOL1    Cl 2716   0.471   5.153   2.439
    2MOL1     H 2717   0.681   5.151   2.546
    2MOL1    Cl 2718   3.008   5.212   4.451
    2MOL1     C 2719   2.858   5.143   4.388
    2MOL1    Cl 2720   2.890   5.044   4.245
    2MOL1    Cl 2721   2.776   5.048   4.512
    2MOL1     H 2722   2.792   5.226   4.359
    2MOL1    Cl 2723   4.497   4.042   1.831
    2MOL1     C 2724   4.414   4.198   1.839
    2MOL1    Cl 2725   4.274   4.189   1.948
    2MOL1    Cl 2726   4.526   4.325   1.893
    2MOL1     H 2727   4.379   4.224   1.739
    2MOL1    Cl 2728   3.134   3.684   4.902
    2MOL1     C 2729   3.308   3.689   4.866
    2MOL1    Cl 2730   3.350   3.565   4.748
    2MOL1    Cl 2731   3.354   3.850   4.808
    2MOL1     H 2732   3.363   3.669   4.959
    2MOL1    Cl 2733   2.657   0.597   4.270
    2MOL1     C 2734   2.783   0.529   4.373
    2MOL1    Cl 2735   2.754   0.356   4.400
    2MOL1    Cl 2736   2.943   0.555   4.302
    2MOL1     H 2737   2.780   0.580   4.470
    2MOL1    Cl 2738   3.268   3.472   1.772
    2MOL1     C 2739   3.361   3.326   1.812
    2MOL1    Cl 2740   3.442   3.345   1.968
    2MOL1    Cl 2741   3.256   3.184   1.813
    2MOL1     H 2742   3.437   3.312   1.735
    2MOL1    Cl 2743   0.296   2.897   3.594
    2MOL1     C 2744   0.205   3.047   3.571
    2MOL1    Cl 2745   0.080   3.065   3.696
    2MOL1    Cl 2746   0.315   3.186   3.573
    2MOL1     H 2747   0.156   3.043   3.474
    2MOL1    Cl 2748   1.607   3.753   3.009
    2MOL1     C 2749   1.504   3.846   3.119
    2MOL1    Cl 2750   1.550   4.017   3.118
    2MOL1    Cl 2751   1.333   3.827   3.076
    2MOL1     H 2752   1.518   3.807   3.220
    2MOL1    Cl 2753   2.954   4.174   1.689
    2MOL1     C 2754   2.806   4.256   1.740
    2MOL1    Cl 2755   2.750   4.194   1.896
    2MOL1    Cl 2756   2.833   4.431   1.750
    2MOL1     H 2757   2.729   4.237   1.666
    2MOL1    Cl 2758   5.135   1.840   2.967
    2MOL1     C 2759   5.130   1.664   2.951
    2MOL1    Cl 2760   5.268   1.605   2.858
    2MOL1    Cl 2761   5.126   1.587   3.111
    2MOL1     H 2762   5.038   1.636   2.898
    2MOL1    Cl 2763   4.551   3.555   3.057
    2MOL1     C 2764   4.427   3.432   3.026
    2MOL1    Cl 2765   4.343   3.389   3.175
    2MOL1    Cl 2766   4.312   3.490   2.904
    2MOL1     H 2767   4.477   3.343   2.986
    2MOL1    Cl 2768   2.720   5.034   2.580
    2MOL1     C 2769   2.768   4.882   2.658
    2MOL1    Cl 2770   2.876   4.913   2.794
    2MOL1    Cl 2771   2.625   4.792   2.712
    2MOL1     H 2772   2.821   4.821   2.585
    2MOL1    Cl 2773   2.961   3.419   2.406
    2MOL1     C 2774   3.035   3.259   2.424
    2MOL1    Cl 2775   3.091   3.198   2.267
    2MOL1    Cl 2776   3.168   3.265   2.540
    2MOL1     H 2777   2.959   3.190   2.462
    2MOL1    Cl 2778   1.760   3.460   4.183
    2MOL1     C 2779   1.927   3.509   4.152
    2MOL1    Cl 2780   1.972   3.644   4.258
    2MOL1    Cl 2781   2.037   3.372   4.176
    2MOL1     H 2782   1.935   3.542   4.049
    2MOL1    Cl 2783   5.105   1.806   0.567
    2MOL1     C 2784   4.932   1.774   0.576
    2MOL1    Cl 2785   4.900   1.629   0.673
    2MOL1    Cl 2786   4.845   1.913   0.642
    2MOL1     H 2787   4.895   1.755   0.474
    2MOL1    Cl 2788   2.159   3.193   2.215
    2MOL1     C 2789   2.047   3.104   2.110
    2MOL1    Cl 2790   2.008   3.200   1.966
    2MOL1    Cl 2791   2.116   2.948   2.064
    2MOL1     H 2792   1.955   3.086   2.166
    2MOL1    Cl 2793   2.041   0.870   5.130
    2MOL1     C 2794   1.987   0.934   4.974
    2MOL1    Cl 2795   2.121   0.939   4.858
    2MOL1    Cl 2796   1.853   0.837   4.910
    2MOL1     H 2797   1.951   1.036   4.990
    2MOL1    Cl 2798   0.338   4.925   3.977
    2MOL1     C 2799   0.307   5.096   4.007
    2MOL1    Cl 2800   0.409   5.197   3.903
    2MOL1    Cl 2801   0.136   5.135   3.981
    2MOL1     H 2802   0.332   5.118   4.111
    2MOL1    Cl 2803   1.605   4.552   1.867
    2MOL1     C 2804   1.669   4.496   1.712
    2MOL1    Cl 2805   1.838   4.545   1.692
    2MOL1    Cl 2806   1.653   4.320   1.698
    2MOL1     H 2807   1.610   4.542   1.632
    2MOL1    Cl 2808   4.759   1.178   4.263
    2MOL1     C 2809   4.880   1.050   4.277
    2MOL1    Cl 2810   4.803   0.890   4.269
    2MOL1    Cl 2811   5.003   1.066   4.151
    2MOL1     H 2812   4.929   1.059   4.375
    2MOL1    Cl 2813   2.200   3.277   0.259
    2MOL1     C 2814   2.375   3.285   0.286
    2MOL1    Cl 2815   2.414   3.420   0.395
    2MOL1    Cl 2816   2.435   3.132   0.352
    2MOL1     H 2817   2.423   3.303   0.190
    2MOL1    Cl 2818   2.827   4.070   1.500
    2MOL1     C 2819   2.755   4.199   1.402
    2MOL1    Cl 2820   2.810   4.187   1.234
    2MOL1    Cl 2821   2.578   4.194   1.411
    2MOL1     H 2822   2.788   4.296   1.442
    2MOL1    Cl 2823   1.162   0.939   3.901
    2MOL1     C 2824   1.337   0.947   3.928
    2MOL1    Cl 2825   1.421   0.984   3.776
    2MOL1    Cl 2826   1.376   1.068   4.052
    2MOL1     H 2827   1.371   0.850   3.963
    2MOL1    Cl 2828   1.664   0.915   2.782
    2MOL1     C 2829   1.590   1.073   2.811
    2MOL1    Cl 2830   1.454   1.059   2.924
    2MOL1    Cl 2831   1.710   1.188   2.872
    2MOL1     H 2832   1.552   1.111   2.716
    2MOL1    Cl 2833   1.842   3.201   3.544
    2MOL1     C 2834   1.998   3.189   3.463
    2MOL1    Cl 2835   2.041   3.343   3.386
    2MOL1    Cl 2836   2.124   3.140   3.577
    2MOL1     H 2837   1.991   3.113   3.385
    2MOL1    Cl 2838   4.004   4.219   3.078
    2MOL1     C 2839   3.833   4.258   3.052
    2MOL1    Cl 2840   3.816   4.384   2.928
    2MOL1    Cl 2841   3.742   4.113   3.005
    2MOL1     H 2842   3.791   4.296   3.145
    2MOL1    Cl 2843   2.589   5.078   0.368
    2MOL1     C 2844   2.685   5.098   0.516
    2MOL1    Cl 2845   2.711   5.270   0.551
    2MOL1    Cl 2846   2.605   5.018   0.653
    2MOL1     H 2847   2.782   5.051   0.501
    2MOL1    Cl 2848   1.498   3.868   4.174
    2MOL1     C 2849   1.650   3.819   4.099
    2MOL1    Cl 2850   1.774   3.791   4.222
    2MOL1    Cl 2851   1.627   3.673   4.000
    2MOL1     H 2852   1.684   3.899   4.033
    2MOL1    Cl 2853   2.398   2.169   1.183
    2MOL1     C 2854   2.373   2.248   1.340
    2MOL1    Cl 2855   2.316   2.415   1.317
    2MOL1    Cl 2856   2.258   2.156   1.439
    2MOL1     H 2857   2.469   2.252   1.392
    2MOL1    Cl 2858   2.167   1.333   2.077
    2MOL1     C 2859   2.015   1.332   2.168
    2MOL1    Cl 2860   1.944   1.494   2.172
    2MOL1    Cl 2861   1.901   1.216   2.097
    2MOL1     H 2862   2.036   1.301   2.270
    2MOL1    Cl 2863   2.097   2.829   0.348
    2MOL1     C 2864   2.270   2.862   0.362
    2MOL1    Cl 2865   2.299   2.997   0.474
    2MOL1    Cl 2866   2.357   2.717   0.416
    2MOL1     H 2867   2.308   2.890   0.264
    2MOL1    Cl 2868   3.639   2.488   4.227
    2MOL1     C 2869   3.540   2.537   4.366
    2MOL1    Cl 2870   3.392   2.617   4.311
    2MOL1    Cl 2871   3.502   2.397   4.468
    2MOL1     H 2872   3.598   2.608   4.426
    2MOL1    Cl 2873   0.793   0.339   2.107
    2MOL1     C 2874   0.703   0.394   1.965
    2MOL1    Cl 2875   0.810   0.402   1.823
    2MOL1    Cl 2876   0.565   0.289   1.933
    2MOL1     H 2877   0.666   0.495   1.985
    2MOL1    Cl 2878   0.225   2.833   3.845
    2MOL1     C 2879   0.050   2.837   3.871
    2MOL1    Cl 2880   0.000   2.707   3.981
    2MOL1    Cl 2881   0.000   2.994   3.935
    2MOL1     H 2882   0.000   2.822   3.775
    2MOL1    Cl 2883   4.149   4.959   0.723
    2MOL1     C 2884   4.292   4.888   0.800
    2MOL1    Cl 2885   4.254   4.838   0.966
    2MOL1    Cl 2886   4.353   4.751   0.706
    2MOL1     H 2887   4.370   4.965   0.804
    2MOL1    Cl 2888   0.440   4.240   1.070
    2MOL1     C 2889   0.285   4.304   1.127
    2MOL1    Cl 2890   0.297   4.477   1.160
    2MOL1    Cl 2891   0.157   4.272   1.008
    2MOL1     H 2892   0.259   4.253   1.220
    2MOL1    Cl 2893   2.325   2.411   3.874
    2MOL1     C 2894   2.210   2.326   3.769
    2MOL1    Cl 2895   2.097   2.440   3.695
    2MOL1    Cl 2896   2.296   2.234   3.645
    2MOL1     H 2897   2.153   2.256   3.831
    2MOL1    Cl 2898   0.593   4.271   1.258
    2MOL1     C 2899   0.580   4.094   1.247
    2MOL1    Cl 2900   0.733   4.017   1.290
    2MOL1    Cl 2901   0.448   4.035   1.350
    2MOL1     H 2902   0.556   4.068   1.143
    2MOL1    Cl 2903   1.593   3.830   0.356
    2MOL1     C 2904   1.431   3.902   0.353
    2MOL1    Cl 2905   1.322   3.814   0.461
    2MOL1    Cl 2906   1.438   4.073   0.397
    2MOL1     H 2907   1.392   3.894   0.251
    2MOL1    Cl 2908   3.112   2.155   2.405
    2MOL1     C 2909   3.195   2.091   2.548
    2MOL1    Cl 2910   3.370   2.109   2.531
    2MOL1    Cl 2911   3.138   2.172   2.695
    2MOL1     H 2912   3.172   1.985   2.556
    2MOL1    Cl 2913   1.828   2.641   2.467
    2MOL1     C 2914   1.941   2.758   2.537
    2MOL1    Cl 2915   2.072   2.793   2.423
    2MOL1    Cl 2916   1.856   2.907   2.582
    2MOL1     H 2917   1.984   2.715   2.627
    2MOL1    Cl 2918   3.412   5.307   2.094
    2MOL1     C 2919   3.414   5.130   2.102
    2MOL1    Cl 2920   3.318   5.072   2.239
    2MOL1    Cl 2921   3.353   5.061   1.950
    2MOL1     H 2922   3.517   5.097   2.116
    2MOL1    Cl 2923   3.758   0.001   1.504
    2MOL1     C 2924   3.690   0.089   1.642
    2MOL1    Cl 2925   3.516   0.116   1.620
    2MOL1    Cl 2926   3.720   0.001   1.793
    2MOL1     H 2927   3.740   0.186   1.649
    2MOL1    Cl 2928   0.882   2.442   4.475
    2MOL1     C 2929   1.027   2.514   4.404
    2MOL1    Cl 2930   1.142   2.387   4.356
    2MOL1    Cl 2931   0.985   2.616   4.265
    2MOL1     H 2932   1.075   2.577   4.480
    2MOL1    Cl 2933   4.467   3.874   4.878
    2MOL1     C 2934   4.625   3.886   4.958
    2MOL1    Cl 2935   4.749   3.800   4.865
    2MOL1    Cl 2936   4.671   4.056   4.979
    2MOL1     H 2937   4.618   3.841   5.057
    2MOL1    Cl 2938   4.822   1.768   4.226
    2MOL1     C 2939   4.933   1.890   4.162
    2MOL1    Cl 2940   4.991   1.844   4.001
    2MOL1    Cl 2941   4.855   2.049   4.158
    2MOL1     H 2942   5.020   1.896   4.229
    2MOL1    Cl 2943   4.063   2.476   2.788
    2MOL1     C 2944   4.080   2.300   2.799
    2MOL1    Cl 2945   3.989   2.220   2.670
    2MOL1    Cl 2946   4.251   2.254   2.793
    2MOL1     H 2947   4.040   2.268   2.896
    2MOL1    Cl 2948   1.465   2.836   5.009
    2MOL1     C 2949   1.468   2.840   5.186
    2MOL1    Cl 2950   1.303   2.855   5.250
    2MOL1    Cl 2951   1.546   2.695   5.250
    2MOL1     H 2952   1.525   2.927   5.217
    2MOL1    Cl 2953   3.612   2.003   3.166
    2MOL1     C 2954   3.659   2.168   3.123
    2MOL1    Cl 2955   3.645   2.276   3.263
    2MOL1    Cl 2956   3.824   2.171   3.058
    2MOL1     H 2957   3.591   2.204   3.045
    2MOL1    Cl 2958   2.871   4.775   0.904
    2MOL1     C 2959   2.754   4.850   1.013
    2MOL1    Cl 2960   2.603   4.887   0.928
    2MOL1    Cl 2961   2.722   4.745   1.152
    2MOL1     H 2962   2.797   4.944   1.050
    2MOL1    Cl 2963   1.555   3.748   0.966
    2MOL1     C 2964   1.674   3.852   0.885
    2MOL1    Cl 2965   1.741   3.772   0.742
    2MOL1    Cl 2966   1.600   4.007   0.840
    2MOL1     H 2967   1.755   3.872   0.955
    2MOL1    Cl 2968   5.021   3.270   4.988
    2MOL1     C 2969   5.076   3.217   5.148
    2MOL1    Cl 2970   4.951   3.122   5.229
    2MOL1    Cl 2971   5.226   3.124   5.134
    2MOL1     H 2972   5.097   3.306   5.208
    2MOL1    Cl 2973   3.017   4.905   3.095
    2MOL1     C 2974   2.918   5.051   3.086
    2MOL1    Cl 2975   2.939   5.131   2.929
    2MOL1    Cl 2976   2.747   5.012   3.114
    2MOL1     H 2977   2.950   5.120   3.164
    2MOL1    Cl 2978   4.861   4.016   3.709
    2MOL1     C 2979   4.811   3.852   3.666
    2MOL1    Cl 2980   4.697   3.855   3.530
    2MOL1    Cl 2981   4.953   3.753   3.626
    2MOL1     H 2982   4.761   3.807   3.752
    2MOL1    Cl 2983   1.600   0.908   3.010
    2MOL1     C 2984   1.588   0.934   3.184
    2MOL1    Cl 2985   1.489   1.077   3.218
    2MOL1    Cl 2986   1.520   0.791   3.264
    2MOL1     H 2987   1.688   0.951   3.224
    2MOL1    Cl 2988   3.384   2.837   4.711
    2MOL1     C 2989   3.308   2.685   4.662
    2MOL1    Cl 2990   3.150   2.715   4.588
    2MOL1    Cl 2991   3.413   2.597   4.549
    2MOL1     H 2992   3.294   2.623   4.751
    2MOL1    Cl 2993   2.464   4.366   0.504
    2MOL1     C 2994   2.349   4.298   0.620
    2MOL1    Cl 2995   2.390   4.129   0.656
    2MOL1    Cl 2996   2.347   4.395   0.769
    2MOL1     H 2997   2.249   4.301   0.576
    2MOL1    Cl 2998   3.327   1.487   0.373
    2MOL1     C 2999   3.237   1.611   0.284
    2MOL1    Cl 3000   3.211   1.562   0.116
    2MOL1    Cl 3001   3.082   1.644   0.364
    2MOL1     H 3002   3.296   1.703   0.285
    2MOL1    Cl 3003   2.308   1.929   3.994
    2MOL1     C 3004   2.349   1.769   4.060
    2MOL1    Cl 3005   2.297   1.756   4.228
    2MOL1    Cl 3006   2.277   1.641   3.961
    2MOL1     H 3007   2.458   1.758   4.056
    2MOL1    Cl 3008   1.160   0.880   2.822
    2MOL1     C 3009   1.273   0.938   2.699
    2MOL1    Cl 3010   1.196   0.941   2.540
    2MOL1    Cl 3011   1.334   1.100   2.741
    2MOL1     H 3012   1.358   0.870   2.695
    2MOL1    Cl 3013   2.892   4.500   5.163
    2MOL1     C 3014   2.828   4.335   5.151
    2MOL1    Cl 3015   2.654   4.338   5.121
    2MOL1    Cl 3016   2.912   4.246   5.023
    2MOL1     H 3017   2.846   4.284   5.246
    2MOL1    Cl 3018   2.378   4.615   1.625
    2MOL1     C 3019   2.275   4.478   1.581
    2MOL1    Cl 3020   2.154   4.528   1.462
    2MOL1    Cl 3021   2.373   4.345   1.518
    2MOL1     H 3022   2.224   4.443   1.670
    2MOL1    Cl 3023   0.952   2.650   5.017
    2MOL1     C 3024   0.973   2.522   5.138
    2MOL1    Cl 3025   0.915   2.367   5.076
    2MOL1    Cl 3026   1.143   2.510   5.187
    2MOL1     H 3027   0.914   2.548   5.226
    2MOL1    Cl 3028   1.767   1.111   1.701
    2MOL1     C 3029   1.696   1.190   1.843
    2MOL1    Cl 3030   1.520   1.199   1.828
    2MOL1    Cl 3031   1.742   1.105   1.991
    2MOL1     H 3032   1.736   1.292   1.848
    2MOL1    Cl 3033   0.499   3.792   3.613
    2MOL1     C 3034   0.519   3.617   3.630
    2MOL1    Cl 3035   0.570   3.544   3.477
    2MOL1    Cl 3036   0.637   3.580   3.758
    2MOL1     H 3037   0.423   3.574   3.659
    2MOL1    Cl 3038   0.316   0.106   3.943
    2MOL1     C 3039   0.281   0.189   3.791
    2MOL1    Cl 3040   0.430   0.216   3.699
    2MOL1    Cl 3041   0.165   0.095   3.695
    2MOL1     H 3042   0.236   0.286   3.814
    2MOL1    Cl 3043   4.152   5.123   3.406
    2MOL1     C 3044   4.274   5.207   3.308
    2MOL1    Cl 3045   4.395   5.092   3.248
    2MOL1    Cl 3046   4.198   5.294   3.174
    2MOL1     H 3047   4.325   5.280   3.372
    2MOL1    Cl 3048   3.177   4.052   1.666
    2MOL1     C 3049   3.296   4.036   1.536
    2MOL1    Cl 3050   3.458   4.011   1.603
    2MOL1    Cl 3051   3.253   3.903   1.427
    2MOL1     H 3052   3.297   4.129   1.478
    2MOL1    Cl 3053   4.508   4.180   3.875
    2MOL1     C 3054   4.650   4.284   3.858
    2MOL1    Cl 3055   4.663   4.395   3.996
    2MOL1    Cl 3056   4.798   4.188   3.842
    2MOL1     H 3057   4.638   4.344   3.768
    2MOL1    Cl 3058   0.774   3.760   0.553
    2MOL1     C 3059   0.878   3.759   0.410
    2MOL1    Cl 3060   0.879   3.919   0.333
    2MOL1    Cl 3061   1.042   3.708   0.452
    2MOL1     H 3062   0.837   3.687   0.338
    2MOL1    Cl 3063   5.139   2.204   5.003
    2MOL1     C 3064   5.095   2.343   5.103
    2MOL1    Cl 3065   5.228   2.385   5.214
    2MOL1    Cl 3066   5.053   2.482   5.002
    2MOL1     H 3067   5.008   2.317   5.163
    2MOL1    Cl 3068   0.944   5.034   2.502
    2MOL1     C 3069   1.040   5.179   2.468
    2MOL1    Cl 3070   1.173   5.142   2.357
    2MOL1    Cl 3071   0.938   5.308   2.402
    2MOL1     H 3072   1.083   5.215   2.562
    2MOL1    Cl 3073   1.122   1.360   4.143
    2MOL1     C 3074   0.994   1.251   4.199
    2MOL1    Cl 3075   0.836   1.304   4.138
    2MOL1    Cl 3076   1.027   1.085   4.148
    2MOL1     H 3077   0.991   1.254   4.308
    2MOL1    Cl 3078   4.065   2.637   4.207
    2MOL1     C 3079   3.909   2.721   4.221
    2MOL1    Cl 3080   3.803   2.637   4.335
    2MOL1    Cl 3081   3.933   2.890   4.269
    2MOL1     H 3082   3.861   2.720   4.122
    2MOL1    Cl 3083   2.339   3.428   5.338
    2MOL1     C 3084   2.329   3.528   5.192
    2MOL1    Cl 3085   2.276   3.430   5.054
    2MOL1    Cl 3086   2.219   3.665   5.217
    2MOL1     H 3087   2.429   3.567   5.170
    2MOL1    Cl 3088   1.132   0.544   1.005
    2MOL1     C 3089   1.292   0.603   0.959
    2MOL1    Cl 3090   1.287   0.778   0.929
    2MOL1    Cl 3091   1.412   0.565   1.083
    2MOL1     H 3092   1.321   0.554   0.866
    2MOL1    Cl 3093   0.537   3.721   0.640
    2MOL1     C 3094   0.404   3.658   0.542
    2MOL1    Cl 3095   0.417   3.482   0.525
    2MOL1    Cl 3096   0.248   3.701   0.614
    2MOL1     H 3097   0.410   3.703   0.443
    2MOL1    Cl 3098   3.340   1.674   3.483
    2MOL1     C 3099   3.170   1.719   3.462
    2MOL1    Cl 3100   3.119   1.692   3.294
    2MOL1    Cl 3101   3.067   1.629   3.574
    2MOL1     H 3102   3.160   1.826   3.484
    2MOL1    Cl 3103   2.648   4.840   0.412
    2MOL1     C 3104   2.782   4.769   0.321
    2MOL1    Cl 3105   2.724   4.640   0.214
    2MOL1    Cl 3106   2.868   4.893   0.228
    2MOL1     H 3107   2.852   4.725   0.393
    2MOL1    Cl 3108   3.656   3.373   3.370
    2MOL1     C 3109   3.697   3.527   3.446
    2MOL1    Cl 3110   3.813   3.617   3.346
    2MOL1    Cl 3111   3.551   3.624   3.473
    2MOL1     H 3112   3.744   3.507   3.543
    2MOL1    Cl 3113   2.894   3.874   0.942
    2MOL1     C 3114   2.830   4.037   0.968
    2MOL1    Cl 3115   2.690   4.032   1.077
    2MOL1    Cl 3116   2.956   4.144   1.032
    2MOL1     H 3117   2.796   4.077   0.872
    2MOL1    Cl 3118   4.577   4.410   1.239
    2MOL1     C 3119   4.444   4.313   1.175
    2MOL1    Cl 3120   4.506   4.179   1.077
    2MOL1    Cl 3121   4.342   4.252   1.306
    2MOL1     H 3122   4.383   4.376   1.110
    2MOL1    Cl 3123   4.658   2.931   0.361
    2MOL1     C 3124   4.586   3.067   0.273
    2MOL1    Cl 3125   4.672   3.217   0.310
    2MOL1    Cl 3126   4.587   3.036   0.099
    2MOL1     H 3127   4.482   3.078   0.306
    2MOL1    Cl 3128   2.999   1.136   2.307
    2MOL1     C 3129   2.866   1.021   2.283
    2MOL1    Cl 3130   2.745   1.089   2.172
    2MOL1    Cl 3131   2.927   0.867   2.221
    2MOL1     H 3132   2.818   1.003   2.379
    2MOL1    Cl 3133   3.412   4.453   2.942
    2MOL1     C 3134   3.446   4.620   2.990
    2MOL1    Cl 3135   3.306   4.692   3.070
    2MOL1    Cl 3136   3.588   4.626   3.096
    2MOL1     H 3137   3.468   4.678   2.900
    2MOL1    Cl 3138   3.567   3.481   3.968
    2MOL1     C 3139   3.738   3.498   3.925
    2MOL1    Cl 3140   3.824   3.345   3.949
    2MOL1    Cl 3141   3.755   3.554   3.758
    2MOL1     H 3142   3.782   3.573   3.991
    2MOL1    Cl 3143   4.073   0.197   0.261
    2MOL1     C 3144   4.181   0.330   0.214
    2MOL1    Cl 3145   4.307   0.272   0.104
    2MOL1    Cl 3146   4.089   0.461   0.139
    2MOL1     H 3147   4.229   0.369   0.304
    2MOL1    Cl 3148   3.237   3.006   3.399
    2MOL1     C 3149   3.257   3.173   3.453
    2MOL1    Cl 3150   3.416   3.236   3.406
    2MOL1    Cl 3151   3.128   3.276   3.388
    2MOL1     H 3152   3.251   3.175   3.562
    2MOL1    Cl 3153   0.642   2.776   1.922
    2MOL1     C 3154   0.607   2.623   1.841
    2MOL1    Cl 3155   0.432   2.605   1.816
    2MOL1    Cl 3156   0.692   2.614   1.686
    2MOL1     H 3157   0.641   2.541   1.905
    2MOL1    Cl 3158   5.032   4.274   3.053
    2MOL1     C 3159   5.201   4.305   3.011
    2MOL1    Cl 3160   5.275   4.414   3.129
    2MOL1    Cl 3161   5.292   4.153   3.000
    2MOL1     H 3162   5.204   4.354   2.913
    2MOL1    Cl 3163   2.132   3.538   1.549
    2MOL1     C 3164   2.309   3.523   1.552
    2MOL1    Cl 3165   2.380   3.645   1.658
    2MOL1    Cl 3166   2.356   3.360   1.603
    2MOL1     H 3167   2.346   3.540   1.450
    2MOL1    Cl 3168   5.055   1.459   2.581
    2MOL1     C 3169   5.069   1.370   2.429
    2MOL1    Cl 3170   5.208   1.260   2.434
    2MOL1    Cl 3171   4.920   1.281   2.394
    2MOL1     H 3172   5.085   1.442   2.348
    2MOL1    Cl 3173   4.179   3.110   3.838
    2MOL1     C 3174   4.179   3.121   4.015
    2MOL1    Cl 3175   4.210   2.963   4.088
    2MOL1    Cl 3176   4.299   3.240   4.070
    2MOL1     H 3177   4.080   3.155   4.047
    2MOL1    Cl 3178   1.685   3.553   3.594
    2MOL1     C 3179   1.605   3.562   3.436
    2MOL1    Cl 3180   1.689   3.461   3.318
    2MOL1    Cl 3181   1.435   3.515   3.449
    2MOL1     H 3182   1.609   3.666   3.402
    2MOL1    Cl 3183   2.576   3.165   2.511
    2MOL1     C 3184   2.520   3.265   2.646
    2MOL1    Cl 3185   2.635   3.257   2.780
    2MOL1    Cl 3186   2.497   3.433   2.594
    2MOL1     H 3187   2.424   3.226   2.680
    2MOL1    Cl 3188   1.842   3.037   0.142
    2MOL1     C 3189   1.900   2.871   0.124
    2MOL1    Cl 3190   1.796   2.780   0.013
    2MOL1    Cl 3191   2.068   2.870   0.068
    2MOL1     H 3192   1.896   2.822   0.222
    2MOL1    Cl 3193   4.747   0.936   2.998
    2MOL1     C 3194   4.823   0.822   2.885
    2MOL1    Cl 3195   4.706   0.767   2.764
    2MOL1    Cl 3196   4.963   0.897   2.806
    2MOL1     H 3197   4.857   0.736   2.942
    2MOL1    Cl 3198   4.780   1.926   1.302
    2MOL1     C 3199   4.868   2.058   1.225
    2MOL1    Cl 3200   4.794   2.214   1.265
    2MOL1    Cl 3201   5.039   2.056   1.274
    2MOL1     H 3202   4.863   2.045   1.117
    2MOL1    Cl 3203   3.238   3.898   0.390
    2MOL1     C 3204   3.198   4.062   0.441
    2MOL1    Cl 3205   3.296   4.181   0.352
    2MOL1    Cl 3206   3.025   4.094   0.418
    2MOL1     H 3207   3.221   4.072   0.547
    2MOL1    Cl 3208   2.728   3.996   3.638
    2MOL1     C 3209   2.751   4.172   3.642
    2MOL1    Cl 3210   2.918   4.214   3.603
    2MOL1    Cl 3211   2.639   4.251   3.530
    2MOL1     H 3212   2.729   4.208   3.743
    2MOL1    Cl 3213   2.199   4.624   2.171
    2MOL1     C 3214   2.061   4.517   2.198
    2MOL1    Cl 3215   2.105   4.384   2.306
    2MOL1    Cl 3216   1.923   4.607   2.264
    2MOL1     H 3217   2.031   4.474   2.102
    2MOL1    Cl 3218   1.621   1.596   0.695
    2MOL1     C 3219   1.550   1.756   0.720
    2MOL1    Cl 3220   1.676   1.875   0.760
    2MOL1    Cl 3221   1.459   1.807   0.576
    2MOL1     H 3222   1.480   1.750   0.804
    2MOL1    Cl 3223   0.408   2.824   4.454
    2MOL1     C 3224   0.274   2.853   4.343
    2MOL1    Cl 3225   0.313   2.794   4.180
    2MOL1    Cl 3226   0.125   2.777   4.402
    2MOL1     H 3227   0.257   2.961   4.337
    2MOL1    Cl 3228   0.328   1.626   4.756
    2MOL1     C 3229   0.490   1.586   4.697
    2MOL1    Cl 3230   0.582   1.499   4.821
    2MOL1    Cl 3231   0.479   1.490   4.548
    2MOL1     H 3232   0.542   1.679   4.674
    2MOL1    Cl 3233   4.778   2.964   0.660
    2MOL1     C 3234   4.929   2.893   0.719
    2MOL1    Cl 3235   4.907   2.826   0.881
    2MOL1    Cl 3236   4.988   2.769   0.606
    2MOL1     H 3237   5.004   2.973   0.724
    2MOL1    Cl 3238   2.415   4.248   4.774
    2MOL1     C 3239   2.253   4.196   4.824
    2MOL1    Cl 3240   2.252   4.153   4.996
    2MOL1    Cl 3241   2.134   4.322   4.790
    2MOL1     H 3242   2.227   4.107   4.766
    2MOL1    Cl 3243   3.088   3.495   3.419
    2MOL1     C 3244   3.076   3.467   3.245
    2MOL1    Cl 3245   3.029   3.616   3.161
    2MOL1    Cl 3246   3.229   3.404   3.181
    2MOL1     H 3247   2.998   3.392   3.227
    2MOL1    Cl 3248   2.849   4.410   0.333
    2MOL1     C 3249   3.021   4.414   0.371
    2MOL1    Cl 3250   3.110   4.298   0.271
    2MOL1    Cl 3251   3.086   4.578   0.348
    2MOL1     H 3252   3.034   4.387   0.476
    2MOL1    Cl 3253   3.442   4.611   0.461
    2MOL1     C 3254   3.398   4.439   0.460
    2MOL1    Cl 3255   3.526   4.342   0.534
    2MOL1    Cl 3256   3.244   4.414   0.543
    2MOL1     H 3257   3.387   4.408   0.356
    2MOL1    Cl 3258   2.284   3.905   1.075
    2MOL1     C 3259   2.398   3.772   1.052
    2MOL1    Cl 3260   2.469   3.724   1.208
    2MOL1    Cl 3261   2.318   3.633   0.975
    2MOL1     H 3262   2.479   3.806   0.987
    2MOL1    Cl 3263   4.021   4.087   3.723
    2MOL1     C 3264   4.089   3.924   3.743
    2MOL1    Cl 3265   4.252   3.933   3.809
    2MOL1    Cl 3266   3.984   3.825   3.846
    2MOL1     H 3267   4.094   3.877   3.644
    2MOL1    Cl 3268   5.340   4.638   4.206
    2MOL1     C 3269   5.217   4.765   4.190
    2MOL1    Cl 3270   5.093   4.749   4.315
    2MOL1    Cl 3271   5.292   4.926   4.196
    2MOL1     H 3272   5.169   4.753   4.092
    2MOL1    Cl 3273   4.221   0.456   3.693
    2MOL1     C 3274   4.162   0.328   3.586
    2MOL1    Cl 3275   4.044   0.226   3.671
    2MOL1    Cl 3276   4.090   0.397   3.440
    2MOL1     H 3277   4.246   0.265   3.557
    2MOL1    Cl 3278   2.338   2.545   3.417
    2MOL1     C 3279   2.447   2.682   3.444
    2MOL1    Cl 3280   2.372   2.801   3.552
    2MOL1    Cl 3281   2.602   2.627   3.509
    2MOL1     H 3282   2.465   2.731   3.347
    2MOL1    Cl 3283   4.918   4.714   2.569
    2MOL1     C 3284   5.066   4.645   2.638
    2MOL1    Cl 3285   5.051   4.628   2.814
    2MOL1    Cl 3286   5.102   4.489   2.563
    2MOL1     H 3287   5.149   4.713   2.617
    2MOL1    Cl 3288   2.521   0.726   2.018
    2MOL1     C 3289   2.379   0.829   2.044
    2MOL1    Cl 3290   2.280   0.765   2.176
    2MOL1    Cl 3291   2.428   0.996   2.077
    2MOL1     H 3292   2.319   0.828   1.952
    2MOL1    Cl 3293   0.414   2.382   2.979
    2MOL1     C 3294   0.249   2.359   3.039
    2MOL1    Cl 3295   0.155   2.258   2.927
    2MOL1    Cl 3296   0.251   2.287   3.201
    2MOL1     H 3297   0.201   2.457   3.045
    2MOL1    Cl 3298   1.161   4.198   1.155
    2MOL1     C 3299   1.089   4.047   1.097
    2MOL1    Cl 3300   1.214   3.931   1.049
    2MOL1    Cl 3301   0.984   3.977   1.222
    2MOL1     H 3302   1.027   4.069   1.009
    2MOL1    Cl 3303   2.482   3.014   0.602
    2MOL1     C 3304   2.626   3.039   0.701
    2MOL1    Cl 3305   2.690   3.202   0.679
    2MOL1    Cl 3306   2.591   3.009   0.872
    2MOL1     H 3307   2.702   2.967   0.669
    2MOL1    Cl 3308   0.790   0.695   1.004
    2MOL1     C 3309   0.692   0.654   0.863
    2MOL1    Cl 3310   0.636   0.485   0.873
    2MOL1    Cl 3311   0.554   0.764   0.848
    2MOL1     H 3312   0.754   0.664   0.774
    2MOL1    Cl 3313   5.196   2.089   3.304
    2MOL1     C 3314   5.036   2.153   3.261
    2MOL1    Cl 3315   5.051   2.285   3.144
    2MOL1    Cl 3316   4.933   2.024   3.197
    2MOL1     H 3317   4.990   2.192   3.351
    2MOL1    Cl 3318   2.645   1.234   3.442
    2MOL1     C 3319   2.552   1.089   3.481
    2MOL1    Cl 3320   2.649   0.977   3.579
    2MOL1    Cl 3321   2.402   1.132   3.566
    2MOL1     H 3322   2.525   1.039   3.388
    2MOL1    Cl 3323   5.169   1.023   2.387
    2MOL1     C 3324   5.098   1.035   2.226
    2MOL1    Cl 3325   5.136   0.892   2.130
    2MOL1    Cl 3326   4.922   1.058   2.237
    2MOL1     H 3327   5.140   1.123   2.175
    2MOL1    Cl 3328   4.111   0.482   4.572
    2MOL1     C 3329   3.948   0.547   4.551
    2MOL1    Cl 3330   3.845   0.502   4.688
    2MOL1    Cl 3331   3.953   0.723   4.532
    2MOL1     H 3332   3.906   0.504   4.460
    2MOL1    Cl 3333   5.142   1.044   5.053
    2MOL1     C 3334   5.104   0.871   5.059
    2MOL1    Cl 3335   5.232   0.782   5.143
    2MOL1    Cl 3336   4.947   0.844   5.136
    2MOL1     H 3337   5.099   0.834   4.956
    2MOL1    Cl 3338   2.773   0.527   1.414
    2MOL1     C 3339   2.930   0.577   1.480
    2MOL1    Cl 3340   2.908   0.705   1.601
    2MOL1    Cl 3341   3.014   0.438   1.551
    2MOL1     H 3342   2.991   0.616   1.399
    2MOL1    Cl 3343   2.065   1.513   3.761
    2MOL1     C 3344   2.154   1.368   3.810
    2MOL1    Cl 3345   2.060   1.222   3.776
    2MOL1    Cl 3346   2.312   1.361   3.728
    2MOL1     H 3347   2.172   1.373   3.918
    2MOL1    Cl 3348   3.395   1.378   2.245
    2MOL1     C 3349   3.513   1.370   2.113
    2MOL1    Cl 3350   3.634   1.498   2.130
    2MOL1    Cl 3351   3.591   1.211   2.108
    2MOL1     H 3352   3.460   1.385   2.019
    2MOL1    Cl 3353   3.834   2.306   4.286
    2MOL1     C 3354   3.890   2.145   4.333
    2MOL1    Cl 3355   4.006   2.156   4.467
    2MOL1    Cl 3356   3.753   2.042   4.378
    2MOL1     H 3357   3.941   2.100   4.248
    2MOL1    Cl 3358   1.316   2.241   4.300
    2MOL1     C 3359   1.461   2.343   4.295
    2MOL1    Cl 3360   1.596   2.256   4.221
    2MOL1    Cl 3361   1.428   2.493   4.206
    2MOL1     H 3362   1.488   2.369   4.397
    2MOL1    Cl 3363   0.966   0.543   1.984
    2MOL1     C 3364   1.096   0.470   2.080
    2MOL1    Cl 3365   1.043   0.315   2.148
    2MOL1    Cl 3366   1.241   0.447   1.980
    2MOL1     H 3367   1.121   0.537   2.162
  5.5400000  5.5400000  5.5400000
