[ defaults ]
; nbfunc	comb-rule	gen-pairs	fudgeLJ	fudgeQQ
     1	     2	yes   	0.500000	0.833333

[ atomtypes ]
;type, bondingtype, atomic_number, mass, charge, ptype, sigma, epsilon
mop_tetramer.pdb_0	     6	12.01078	0.0000000000000000	A    	0.3480646886945065	0.3635030558377792
mop_tetramer.pdb_1	     8	15.99943	0.0000000000000000	A    	0.3039812205065809	0.8795023257036865
mop_tetramer.pdb_2	     6	12.01078	0.0000000000000000	A    	0.3480646886945065	0.3635030558377792
mop_tetramer.pdb_3	     6	12.01078	0.0000000000000000	A    	0.3480646886945065	0.3635030558377792
mop_tetramer.pdb_4	     6	12.01078	0.0000000000000000	A    	0.3480646886945065	0.3635030558377792
mop_tetramer.pdb_5	     6	12.01078	0.0000000000000000	A    	0.3480646886945065	0.3635030558377792
mop_tetramer.pdb_6	     6	12.01078	0.0000000000000000	A    	0.3480646886945065	0.3635030558377792
mop_tetramer.pdb_7	     6	12.01078	0.0000000000000000	A    	0.3480646886945065	0.3635030558377792
mop_tetramer.pdb_8	     6	12.01078	0.0000000000000000	A    	0.3480646886945065	0.3635030558377792
mop_tetramer.pdb_9	     6	12.01078	0.0000000000000000	A    	0.3480646886945065	0.3635030558377792
mop_tetramer.pdb_10	     8	15.99943	0.0000000000000000	A    	0.3025106490435313	0.7048581468486769
mop_tetramer.pdb_11	     6	12.01078	0.0000000000000000	A    	0.337953176162662	0.4553891161106184
mop_tetramer.pdb_12	     6	12.01078	0.0000000000000000	A    	0.3480646886945065	0.3635030558377792
mop_tetramer.pdb_13	     6	12.01078	0.0000000000000000	A    	0.3480646886945065	0.3635030558377792
mop_tetramer.pdb_14	     6	12.01078	0.0000000000000000	A    	0.3480646886945065	0.3635030558377792
mop_tetramer.pdb_15	     6	12.01078	0.0000000000000000	A    	0.3480646886945065	0.3635030558377792
mop_tetramer.pdb_16	     6	12.01078	0.0000000000000000	A    	0.3480646886945065	0.3635030558377792
mop_tetramer.pdb_17	     6	12.01078	0.0000000000000000	A    	0.3480646886945065	0.3635030558377792
mop_tetramer.pdb_18	     6	12.01078	0.0000000000000000	A    	0.3480646886945065	0.3635030558377792
mop_tetramer.pdb_19	     6	12.01078	0.0000000000000000	A    	0.3480646886945065	0.3635030558377792
mop_tetramer.pdb_20	     6	12.01078	0.0000000000000000	A    	0.337953176162662	0.4553891161106184
mop_tetramer.pdb_21	     7	14.00672	0.0000000000000000	A    	0.3206876023663901	0.7016212989374017
mop_tetramer.pdb_22	     6	12.01078	0.0000000000000000	A    	0.337953176162662	0.4553891161106184
mop_tetramer.pdb_23	     6	12.01078	0.0000000000000000	A    	0.3480646886945065	0.3635030558377792
mop_tetramer.pdb_24	     6	12.01078	0.0000000000000000	A    	0.3480646886945065	0.3635030558377792
mop_tetramer.pdb_25	     1	1.007947	0.0000000000000000	A    	0.2572581535063279	0.06531785996356952
mop_tetramer.pdb_26	     1	1.007947	0.0000000000000000	A    	0.2572581535063279	0.06531785996356952
mop_tetramer.pdb_27	     1	1.007947	0.0000000000000000	A    	0.2572581535063279	0.06531785996356952
mop_tetramer.pdb_28	     1	1.007947	0.0000000000000000	A    	0.2583225710839196	0.068656285380106
mop_tetramer.pdb_29	     1	1.007947	0.0000000000000000	A    	0.2583225710839196	0.068656285380106
mop_tetramer.pdb_30	     1	1.007947	0.0000000000000000	A    	0.2583225710839196	0.068656285380106
mop_tetramer.pdb_31	     1	1.007947	0.0000000000000000	A    	0.2572581535063279	0.06531785996356952
mop_tetramer.pdb_32	     1	1.007947	0.0000000000000000	A    	0.2572581535063279	0.06531785996356952
mop_tetramer.pdb_33	     1	1.007947	0.0000000000000000	A    	0.2572581535063279	0.06531785996356952
mop_tetramer.pdb_34	     1	1.007947	0.0000000000000000	A    	0.2572581535063279	0.06531785996356952
mop_tetramer.pdb_35	     1	1.007947	0.0000000000000000	A    	0.2572581535063279	0.06531785996356952
mop_tetramer.pdb_36	     1	1.007947	0.0000000000000000	A    	0.2572581535063279	0.06531785996356952
mop_tetramer.pdb_37	     1	1.007947	0.0000000000000000	A    	0.2583225710839196	0.068656285380106
mop_tetramer.pdb_38	     1	1.007947	0.0000000000000000	A    	0.1103427677297317	0.05895596890015097
mop_tetramer.pdb_39	     1	1.007947	0.0000000000000000	A    	0.2644543413268124	0.06602135607582665
mop_tetramer.pdb_40	     1	1.007947	0.0000000000000000	A    	0.2644543413268124	0.06602135607582665
mop_tetramer.pdb_41	     1	1.007947	0.0000000000000000	A    	0.2644543413268124	0.06602135607582665
mop_tetramer.pdb_42	     1	1.007947	0.0000000000000000	A    	0.2572581535063279	0.06531785996356952
mop_tetramer.pdb_43	     1	1.007947	0.0000000000000000	A    	0.2572581535063279	0.06531785996356952
mop_tetramer.pdb_44	     6	12.01078	0.0000000000000000	A    	0.3480646886945065	0.3635030558377792
mop_tetramer.pdb_45	     8	15.99943	0.0000000000000000	A    	0.3039812205065809	0.8795023257036865
mop_tetramer.pdb_46	     6	12.01078	0.0000000000000000	A    	0.3480646886945065	0.3635030558377792
mop_tetramer.pdb_47	     6	12.01078	0.0000000000000000	A    	0.3480646886945065	0.3635030558377792
mop_tetramer.pdb_48	     6	12.01078	0.0000000000000000	A    	0.3480646886945065	0.3635030558377792
mop_tetramer.pdb_49	     6	12.01078	0.0000000000000000	A    	0.3480646886945065	0.3635030558377792
mop_tetramer.pdb_50	     6	12.01078	0.0000000000000000	A    	0.3480646886945065	0.3635030558377792
mop_tetramer.pdb_51	     6	12.01078	0.0000000000000000	A    	0.3480646886945065	0.3635030558377792
mop_tetramer.pdb_52	     6	12.01078	0.0000000000000000	A    	0.3480646886945065	0.3635030558377792
mop_tetramer.pdb_53	     6	12.01078	0.0000000000000000	A    	0.3480646886945065	0.3635030558377792
mop_tetramer.pdb_54	     8	15.99943	0.0000000000000000	A    	0.3025106490435313	0.7048581468486769
mop_tetramer.pdb_55	     6	12.01078	0.0000000000000000	A    	0.337953176162662	0.4553891161106184
mop_tetramer.pdb_56	     6	12.01078	0.0000000000000000	A    	0.3480646886945065	0.3635030558377792
mop_tetramer.pdb_57	     6	12.01078	0.0000000000000000	A    	0.3480646886945065	0.3635030558377792
mop_tetramer.pdb_58	     6	12.01078	0.0000000000000000	A    	0.3480646886945065	0.3635030558377792
mop_tetramer.pdb_59	     6	12.01078	0.0000000000000000	A    	0.3480646886945065	0.3635030558377792
mop_tetramer.pdb_60	     6	12.01078	0.0000000000000000	A    	0.3480646886945065	0.3635030558377792
mop_tetramer.pdb_61	     6	12.01078	0.0000000000000000	A    	0.3480646886945065	0.3635030558377792
mop_tetramer.pdb_62	     6	12.01078	0.0000000000000000	A    	0.3480646886945065	0.3635030558377792
mop_tetramer.pdb_63	     6	12.01078	0.0000000000000000	A    	0.3480646886945065	0.3635030558377792
mop_tetramer.pdb_64	     6	12.01078	0.0000000000000000	A    	0.337953176162662	0.4553891161106184
mop_tetramer.pdb_65	     7	14.00672	0.0000000000000000	A    	0.3206876023663901	0.7016212989374017
mop_tetramer.pdb_66	     6	12.01078	0.0000000000000000	A    	0.337953176162662	0.4553891161106184
mop_tetramer.pdb_67	     6	12.01078	0.0000000000000000	A    	0.3480646886945065	0.3635030558377792
mop_tetramer.pdb_68	     6	12.01078	0.0000000000000000	A    	0.3480646886945065	0.3635030558377792
mop_tetramer.pdb_69	     1	1.007947	0.0000000000000000	A    	0.2572581535063279	0.06531785996356952
mop_tetramer.pdb_70	     1	1.007947	0.0000000000000000	A    	0.2572581535063279	0.06531785996356952
mop_tetramer.pdb_71	     1	1.007947	0.0000000000000000	A    	0.2572581535063279	0.06531785996356952
mop_tetramer.pdb_72	     1	1.007947	0.0000000000000000	A    	0.2583225710839196	0.068656285380106
mop_tetramer.pdb_73	     1	1.007947	0.0000000000000000	A    	0.2583225710839196	0.068656285380106
mop_tetramer.pdb_74	     1	1.007947	0.0000000000000000	A    	0.2583225710839196	0.068656285380106
mop_tetramer.pdb_75	     1	1.007947	0.0000000000000000	A    	0.2572581535063279	0.06531785996356952
mop_tetramer.pdb_76	     1	1.007947	0.0000000000000000	A    	0.2572581535063279	0.06531785996356952
mop_tetramer.pdb_77	     1	1.007947	0.0000000000000000	A    	0.2572581535063279	0.06531785996356952
mop_tetramer.pdb_78	     1	1.007947	0.0000000000000000	A    	0.2572581535063279	0.06531785996356952
mop_tetramer.pdb_79	     1	1.007947	0.0000000000000000	A    	0.2572581535063279	0.06531785996356952
mop_tetramer.pdb_80	     1	1.007947	0.0000000000000000	A    	0.2572581535063279	0.06531785996356952
mop_tetramer.pdb_81	     1	1.007947	0.0000000000000000	A    	0.2583225710839196	0.068656285380106
mop_tetramer.pdb_82	     1	1.007947	0.0000000000000000	A    	0.1103427677297317	0.05895596890015097
mop_tetramer.pdb_83	     1	1.007947	0.0000000000000000	A    	0.2644543413268124	0.06602135607582665
mop_tetramer.pdb_84	     1	1.007947	0.0000000000000000	A    	0.2644543413268124	0.06602135607582665
mop_tetramer.pdb_85	     1	1.007947	0.0000000000000000	A    	0.2644543413268124	0.06602135607582665
mop_tetramer.pdb_86	     1	1.007947	0.0000000000000000	A    	0.2572581535063279	0.06531785996356952
mop_tetramer.pdb_87	     1	1.007947	0.0000000000000000	A    	0.2572581535063279	0.06531785996356952
mop_tetramer.pdb_88	     6	12.01078	0.0000000000000000	A    	0.3480646886945065	0.3635030558377792
mop_tetramer.pdb_89	     8	15.99943	0.0000000000000000	A    	0.3039812205065809	0.8795023257036865
mop_tetramer.pdb_90	     6	12.01078	0.0000000000000000	A    	0.3480646886945065	0.3635030558377792
mop_tetramer.pdb_91	     6	12.01078	0.0000000000000000	A    	0.3480646886945065	0.3635030558377792
mop_tetramer.pdb_92	     6	12.01078	0.0000000000000000	A    	0.3480646886945065	0.3635030558377792
mop_tetramer.pdb_93	     6	12.01078	0.0000000000000000	A    	0.3480646886945065	0.3635030558377792
mop_tetramer.pdb_94	     6	12.01078	0.0000000000000000	A    	0.3480646886945065	0.3635030558377792
mop_tetramer.pdb_95	     6	12.01078	0.0000000000000000	A    	0.3480646886945065	0.3635030558377792
mop_tetramer.pdb_96	     6	12.01078	0.0000000000000000	A    	0.3480646886945065	0.3635030558377792
mop_tetramer.pdb_97	     6	12.01078	0.0000000000000000	A    	0.3480646886945065	0.3635030558377792
mop_tetramer.pdb_98	     8	15.99943	0.0000000000000000	A    	0.3025106490435313	0.7048581468486769
mop_tetramer.pdb_99	     6	12.01078	0.0000000000000000	A    	0.337953176162662	0.4553891161106184
mop_tetramer.pdb_100	     6	12.01078	0.0000000000000000	A    	0.3480646886945065	0.3635030558377792
mop_tetramer.pdb_101	     6	12.01078	0.0000000000000000	A    	0.3480646886945065	0.3635030558377792
mop_tetramer.pdb_102	     6	12.01078	0.0000000000000000	A    	0.3480646886945065	0.3635030558377792
mop_tetramer.pdb_103	     6	12.01078	0.0000000000000000	A    	0.3480646886945065	0.3635030558377792
mop_tetramer.pdb_104	     6	12.01078	0.0000000000000000	A    	0.3480646886945065	0.3635030558377792
mop_tetramer.pdb_105	     6	12.01078	0.0000000000000000	A    	0.3480646886945065	0.3635030558377792
mop_tetramer.pdb_106	     6	12.01078	0.0000000000000000	A    	0.3480646886945065	0.3635030558377792
mop_tetramer.pdb_107	     6	12.01078	0.0000000000000000	A    	0.3480646886945065	0.3635030558377792
mop_tetramer.pdb_108	     6	12.01078	0.0000000000000000	A    	0.337953176162662	0.4553891161106184
mop_tetramer.pdb_109	     7	14.00672	0.0000000000000000	A    	0.3206876023663901	0.7016212989374017
mop_tetramer.pdb_110	     6	12.01078	0.0000000000000000	A    	0.337953176162662	0.4553891161106184
mop_tetramer.pdb_111	     6	12.01078	0.0000000000000000	A    	0.3480646886945065	0.3635030558377792
mop_tetramer.pdb_112	     6	12.01078	0.0000000000000000	A    	0.3480646886945065	0.3635030558377792
mop_tetramer.pdb_113	     1	1.007947	0.0000000000000000	A    	0.2572581535063279	0.06531785996356952
mop_tetramer.pdb_114	     1	1.007947	0.0000000000000000	A    	0.2572581535063279	0.06531785996356952
mop_tetramer.pdb_115	     1	1.007947	0.0000000000000000	A    	0.2572581535063279	0.06531785996356952
mop_tetramer.pdb_116	     1	1.007947	0.0000000000000000	A    	0.2583225710839196	0.068656285380106
mop_tetramer.pdb_117	     1	1.007947	0.0000000000000000	A    	0.2583225710839196	0.068656285380106
mop_tetramer.pdb_118	     1	1.007947	0.0000000000000000	A    	0.2583225710839196	0.068656285380106
mop_tetramer.pdb_119	     1	1.007947	0.0000000000000000	A    	0.2572581535063279	0.06531785996356952
mop_tetramer.pdb_120	     1	1.007947	0.0000000000000000	A    	0.2572581535063279	0.06531785996356952
mop_tetramer.pdb_121	     1	1.007947	0.0000000000000000	A    	0.2572581535063279	0.06531785996356952
mop_tetramer.pdb_122	     1	1.007947	0.0000000000000000	A    	0.2572581535063279	0.06531785996356952
mop_tetramer.pdb_123	     1	1.007947	0.0000000000000000	A    	0.2572581535063279	0.06531785996356952
mop_tetramer.pdb_124	     1	1.007947	0.0000000000000000	A    	0.2572581535063279	0.06531785996356952
mop_tetramer.pdb_125	     1	1.007947	0.0000000000000000	A    	0.2583225710839196	0.068656285380106
mop_tetramer.pdb_126	     1	1.007947	0.0000000000000000	A    	0.1103427677297317	0.05895596890015097
mop_tetramer.pdb_127	     1	1.007947	0.0000000000000000	A    	0.2644543413268124	0.06602135607582665
mop_tetramer.pdb_128	     1	1.007947	0.0000000000000000	A    	0.2644543413268124	0.06602135607582665
mop_tetramer.pdb_129	     1	1.007947	0.0000000000000000	A    	0.2644543413268124	0.06602135607582665
mop_tetramer.pdb_130	     1	1.007947	0.0000000000000000	A    	0.2572581535063279	0.06531785996356952
mop_tetramer.pdb_131	     1	1.007947	0.0000000000000000	A    	0.2572581535063279	0.06531785996356952
mop_tetramer.pdb_132	     6	12.01078	0.0000000000000000	A    	0.3480646886945065	0.3635030558377792
mop_tetramer.pdb_133	     8	15.99943	0.0000000000000000	A    	0.3039812205065809	0.8795023257036865
mop_tetramer.pdb_134	     6	12.01078	0.0000000000000000	A    	0.3480646886945065	0.3635030558377792
mop_tetramer.pdb_135	     6	12.01078	0.0000000000000000	A    	0.3480646886945065	0.3635030558377792
mop_tetramer.pdb_136	     6	12.01078	0.0000000000000000	A    	0.3480646886945065	0.3635030558377792
mop_tetramer.pdb_137	     6	12.01078	0.0000000000000000	A    	0.3480646886945065	0.3635030558377792
mop_tetramer.pdb_138	     6	12.01078	0.0000000000000000	A    	0.3480646886945065	0.3635030558377792
mop_tetramer.pdb_139	     6	12.01078	0.0000000000000000	A    	0.3480646886945065	0.3635030558377792
mop_tetramer.pdb_140	     6	12.01078	0.0000000000000000	A    	0.3480646886945065	0.3635030558377792
mop_tetramer.pdb_141	     6	12.01078	0.0000000000000000	A    	0.3480646886945065	0.3635030558377792
mop_tetramer.pdb_142	     8	15.99943	0.0000000000000000	A    	0.3025106490435313	0.7048581468486769
mop_tetramer.pdb_143	     6	12.01078	0.0000000000000000	A    	0.337953176162662	0.4553891161106184
mop_tetramer.pdb_144	     6	12.01078	0.0000000000000000	A    	0.3480646886945065	0.3635030558377792
mop_tetramer.pdb_145	     6	12.01078	0.0000000000000000	A    	0.3480646886945065	0.3635030558377792
mop_tetramer.pdb_146	     6	12.01078	0.0000000000000000	A    	0.3480646886945065	0.3635030558377792
mop_tetramer.pdb_147	     6	12.01078	0.0000000000000000	A    	0.3480646886945065	0.3635030558377792
mop_tetramer.pdb_148	     6	12.01078	0.0000000000000000	A    	0.3480646886945065	0.3635030558377792
mop_tetramer.pdb_149	     6	12.01078	0.0000000000000000	A    	0.3480646886945065	0.3635030558377792
mop_tetramer.pdb_150	     6	12.01078	0.0000000000000000	A    	0.3480646886945065	0.3635030558377792
mop_tetramer.pdb_151	     6	12.01078	0.0000000000000000	A    	0.3480646886945065	0.3635030558377792
mop_tetramer.pdb_152	     6	12.01078	0.0000000000000000	A    	0.337953176162662	0.4553891161106184
mop_tetramer.pdb_153	     7	14.00672	0.0000000000000000	A    	0.3206876023663901	0.7016212989374017
mop_tetramer.pdb_154	     6	12.01078	0.0000000000000000	A    	0.337953176162662	0.4553891161106184
mop_tetramer.pdb_155	     6	12.01078	0.0000000000000000	A    	0.3480646886945065	0.3635030558377792
mop_tetramer.pdb_156	     6	12.01078	0.0000000000000000	A    	0.3480646886945065	0.3635030558377792
mop_tetramer.pdb_157	     1	1.007947	0.0000000000000000	A    	0.2572581535063279	0.06531785996356952
mop_tetramer.pdb_158	     1	1.007947	0.0000000000000000	A    	0.2572581535063279	0.06531785996356952
mop_tetramer.pdb_159	     1	1.007947	0.0000000000000000	A    	0.2572581535063279	0.06531785996356952
mop_tetramer.pdb_160	     1	1.007947	0.0000000000000000	A    	0.2583225710839196	0.068656285380106
mop_tetramer.pdb_161	     1	1.007947	0.0000000000000000	A    	0.2583225710839196	0.068656285380106
mop_tetramer.pdb_162	     1	1.007947	0.0000000000000000	A    	0.2583225710839196	0.068656285380106
mop_tetramer.pdb_163	     1	1.007947	0.0000000000000000	A    	0.2572581535063279	0.06531785996356952
mop_tetramer.pdb_164	     1	1.007947	0.0000000000000000	A    	0.2572581535063279	0.06531785996356952
mop_tetramer.pdb_165	     1	1.007947	0.0000000000000000	A    	0.2572581535063279	0.06531785996356952
mop_tetramer.pdb_166	     1	1.007947	0.0000000000000000	A    	0.2572581535063279	0.06531785996356952
mop_tetramer.pdb_167	     1	1.007947	0.0000000000000000	A    	0.2572581535063279	0.06531785996356952
mop_tetramer.pdb_168	     1	1.007947	0.0000000000000000	A    	0.2572581535063279	0.06531785996356952
mop_tetramer.pdb_169	     1	1.007947	0.0000000000000000	A    	0.2583225710839196	0.068656285380106
mop_tetramer.pdb_170	     1	1.007947	0.0000000000000000	A    	0.1103427677297317	0.05895596890015097
mop_tetramer.pdb_171	     1	1.007947	0.0000000000000000	A    	0.2644543413268124	0.06602135607582665
mop_tetramer.pdb_172	     1	1.007947	0.0000000000000000	A    	0.2644543413268124	0.06602135607582665
mop_tetramer.pdb_173	     1	1.007947	0.0000000000000000	A    	0.2644543413268124	0.06602135607582665
mop_tetramer.pdb_174	     1	1.007947	0.0000000000000000	A    	0.2572581535063279	0.06531785996356952
mop_tetramer.pdb_175	     1	1.007947	0.0000000000000000	A    	0.2572581535063279	0.06531785996356952
mop_tetramer.pdb_176	     6	12.01078	0.0000000000000000	A    	0.337953176162662	0.4553891161106184
mop_tetramer.pdb_177	     8	15.99943	0.0000000000000000	A    	0.3025106490435313	0.7048581468486769
mop_tetramer.pdb_178	     1	1.007947	0.0000000000000000	A    	0.2583225710839196	0.068656285380106
mop_tetramer.pdb_179	     1	1.007947	0.0000000000000000	A    	0.2583225710839196	0.068656285380106
mop_tetramer.pdb_180	     1	1.007947	0.0000000000000000	A    	0.2583225710839196	0.068656285380106
mop_tetramer.pdb_181	     6	12.01078	0.0000000000000000	A    	0.337953176162662	0.4553891161106184
mop_tetramer.pdb_182	     6	12.01078	0.0000000000000000	A    	0.337953176162662	0.4553891161106184
mop_tetramer.pdb_183	     6	12.01078	0.0000000000000000	A    	0.337953176162662	0.4553891161106184
mop_tetramer.pdb_184	     6	12.01078	0.0000000000000000	A    	0.337953176162662	0.4553891161106184
mop_tetramer.pdb_185	     8	15.99943	0.0000000000000000	A    	0.3025106490435313	0.7048581468486769
mop_tetramer.pdb_186	     6	12.01078	0.0000000000000000	A    	0.3480646886945065	0.3635030558377792
mop_tetramer.pdb_187	     8	15.99943	0.0000000000000000	A    	0.3039812205065809	0.8795023257036865
mop_tetramer.pdb_188	     1	1.007947	0.0000000000000000	A    	0.2644543413268124	0.06602135607582665
mop_tetramer.pdb_189	     1	1.007947	0.0000000000000000	A    	0.2644543413268124	0.06602135607582665
mop_tetramer.pdb_190	     1	1.007947	0.0000000000000000	A    	0.2644543413268124	0.06602135607582665
mop_tetramer.pdb_191	     1	1.007947	0.0000000000000000	A    	0.2644543413268124	0.06602135607582665
mop_tetramer.pdb_192	     1	1.007947	0.0000000000000000	A    	0.2644543413268124	0.06602135607582665
mop_tetramer.pdb_193	     1	1.007947	0.0000000000000000	A    	0.2644543413268124	0.06602135607582665
mop_tetramer.pdb_194	     1	1.007947	0.0000000000000000	A    	0.2644543413268124	0.06602135607582665
mop_tetramer.pdb_195	     1	1.007947	0.0000000000000000	A    	0.2644543413268124	0.06602135607582665
mop_tetramer.pdb_196	     1	1.007947	0.0000000000000000	A    	0.2644543413268124	0.06602135607582665
MOL1_0     	    17	35.4532	0.0000000000000000	A    	0.3307527806460624	1.111270837866897
MOL1_1     	     6	12.01078	0.0000000000000000	A    	0.337953176162662	0.4553891161106184
MOL1_2     	    17	35.4532	0.0000000000000000	A    	0.3307527806460624	1.111270837866897
MOL1_3     	    17	35.4532	0.0000000000000000	A    	0.3307527806460624	1.111270837866897
MOL1_4     	     1	1.007947	0.0000000000000000	A    	0.2114993556865165	0.06568879999999999

[ moleculetype ]
mop_tetramer.pdb	         3

[ atoms ]
;index, atom type, resnum, resname, name, cgnr, charge, mass
     1 mop_tetramer.pdb_0       1 mop_tetramer.pdb C          1      0.645940005779     12.010780000000
     2 mop_tetramer.pdb_1       1 mop_tetramer.pdb O          1     -0.544089972973     15.999430000000
     3 mop_tetramer.pdb_2       1 mop_tetramer.pdb C          1     -0.136050000787     12.010780000000
     4 mop_tetramer.pdb_3       1 mop_tetramer.pdb C          1     -0.075800001621     12.010780000000
     5 mop_tetramer.pdb_4       1 mop_tetramer.pdb C          1     -0.130689993501     12.010780000000
     6 mop_tetramer.pdb_5       1 mop_tetramer.pdb C          1     -0.001200000057     12.010780000000
     7 mop_tetramer.pdb_6       1 mop_tetramer.pdb C          1     -0.073179997504     12.010780000000
     8 mop_tetramer.pdb_7       1 mop_tetramer.pdb C          1      0.009440000169     12.010780000000
     9 mop_tetramer.pdb_8       1 mop_tetramer.pdb C          1     -0.198620006442     12.010780000000
    10 mop_tetramer.pdb_9       1 mop_tetramer.pdb C          1      0.126609995961     12.010780000000
    11 mop_tetramer.pdb_10       1 mop_tetramer.pdb O          1     -0.325459986925     15.999430000000
    12 mop_tetramer.pdb_11       1 mop_tetramer.pdb C          1      0.112080000341     12.010780000000
    13 mop_tetramer.pdb_12       1 mop_tetramer.pdb C          1     -0.152669996023     12.010780000000
    14 mop_tetramer.pdb_13       1 mop_tetramer.pdb C          1     -0.081469997764     12.010780000000
    15 mop_tetramer.pdb_14       1 mop_tetramer.pdb C          1     -0.045880001038     12.010780000000
    16 mop_tetramer.pdb_15       1 mop_tetramer.pdb C          1     -0.108779996634     12.010780000000
    17 mop_tetramer.pdb_16       1 mop_tetramer.pdb C          1     -0.131850004196     12.010780000000
    18 mop_tetramer.pdb_17       1 mop_tetramer.pdb C          1     -0.102240003645     12.010780000000
    19 mop_tetramer.pdb_18       1 mop_tetramer.pdb C          1     -0.112839996815     12.010780000000
    20 mop_tetramer.pdb_19       1 mop_tetramer.pdb C          1     -0.107239998877     12.010780000000
    21 mop_tetramer.pdb_20       1 mop_tetramer.pdb C          1      0.142279997468     12.010780000000
    22 mop_tetramer.pdb_21       1 mop_tetramer.pdb N          1     -0.559679985046     14.006720000000
    23 mop_tetramer.pdb_22       1 mop_tetramer.pdb C          1     -0.101000003517     12.010780000000
    24 mop_tetramer.pdb_23       1 mop_tetramer.pdb C          1     -0.130689993501     12.010780000000
    25 mop_tetramer.pdb_24       1 mop_tetramer.pdb C          1     -0.075800001621     12.010780000000
    26 mop_tetramer.pdb_25       1 mop_tetramer.pdb H          1      0.155279994011      1.007947000000
    27 mop_tetramer.pdb_26       1 mop_tetramer.pdb H          1      0.143160000443      1.007947000000
    28 mop_tetramer.pdb_27       1 mop_tetramer.pdb H          1      0.144710004330      1.007947000000
    29 mop_tetramer.pdb_28       1 mop_tetramer.pdb H          1      0.045139998198      1.007947000000
    30 mop_tetramer.pdb_29       1 mop_tetramer.pdb H          1      0.045139998198      1.007947000000
    31 mop_tetramer.pdb_30       1 mop_tetramer.pdb H          1      0.045139998198      1.007947000000
    32 mop_tetramer.pdb_31       1 mop_tetramer.pdb H          1      0.155000001192      1.007947000000
    33 mop_tetramer.pdb_32       1 mop_tetramer.pdb H          1      0.142979994416      1.007947000000
    34 mop_tetramer.pdb_33       1 mop_tetramer.pdb H          1      0.136680006981      1.007947000000
    35 mop_tetramer.pdb_34       1 mop_tetramer.pdb H          1      0.134389996529      1.007947000000
    36 mop_tetramer.pdb_35       1 mop_tetramer.pdb H          1      0.142320007086      1.007947000000
    37 mop_tetramer.pdb_36       1 mop_tetramer.pdb H          1      0.132170006633      1.007947000000
    38 mop_tetramer.pdb_37       1 mop_tetramer.pdb H          1      0.089079998434      1.007947000000
    39 mop_tetramer.pdb_38       1 mop_tetramer.pdb H          1      0.302879989147      1.007947000000
    40 mop_tetramer.pdb_39       1 mop_tetramer.pdb H          1      0.044560000300      1.007947000000
    41 mop_tetramer.pdb_40       1 mop_tetramer.pdb H          1      0.044560000300      1.007947000000
    42 mop_tetramer.pdb_41       1 mop_tetramer.pdb H          1      0.044560000300      1.007947000000
    43 mop_tetramer.pdb_42       1 mop_tetramer.pdb H          1      0.143160000443      1.007947000000
    44 mop_tetramer.pdb_43       1 mop_tetramer.pdb H          1      0.155279994011      1.007947000000
    45 mop_tetramer.pdb_44       1 mop_tetramer.pdb C          1      0.672100007534     12.010780000000
    46 mop_tetramer.pdb_45       1 mop_tetramer.pdb O          1     -0.599640011787     15.999430000000
    47 mop_tetramer.pdb_46       1 mop_tetramer.pdb C          1     -0.140489995480     12.010780000000
    48 mop_tetramer.pdb_47       1 mop_tetramer.pdb C          1     -0.090190000832     12.010780000000
    49 mop_tetramer.pdb_48       1 mop_tetramer.pdb C          1     -0.128089994192     12.010780000000
    50 mop_tetramer.pdb_49       1 mop_tetramer.pdb C          1     -0.009340000339     12.010780000000
    51 mop_tetramer.pdb_50       1 mop_tetramer.pdb C          1     -0.076540000737     12.010780000000
    52 mop_tetramer.pdb_51       1 mop_tetramer.pdb C          1      0.007029999979     12.010780000000
    53 mop_tetramer.pdb_52       1 mop_tetramer.pdb C          1     -0.147709995508     12.010780000000
    54 mop_tetramer.pdb_53       1 mop_tetramer.pdb C          1      0.128279998899     12.010780000000
    55 mop_tetramer.pdb_54       1 mop_tetramer.pdb O          1     -0.324369996786     15.999430000000
    56 mop_tetramer.pdb_55       1 mop_tetramer.pdb C          1      0.113119997084     12.010780000000
    57 mop_tetramer.pdb_56       1 mop_tetramer.pdb C          1     -0.201089993119     12.010780000000
    58 mop_tetramer.pdb_57       1 mop_tetramer.pdb C          1     -0.082160003483     12.010780000000
    59 mop_tetramer.pdb_58       1 mop_tetramer.pdb C          1     -0.041519999504     12.010780000000
    60 mop_tetramer.pdb_59       1 mop_tetramer.pdb C          1     -0.103900000453     12.010780000000
    61 mop_tetramer.pdb_60       1 mop_tetramer.pdb C          1     -0.131070002913     12.010780000000
    62 mop_tetramer.pdb_61       1 mop_tetramer.pdb C          1     -0.112960003316     12.010780000000
    63 mop_tetramer.pdb_62       1 mop_tetramer.pdb C          1     -0.101939998567     12.010780000000
    64 mop_tetramer.pdb_63       1 mop_tetramer.pdb C          1     -0.107320003211     12.010780000000
    65 mop_tetramer.pdb_64       1 mop_tetramer.pdb C          1      0.153160005808     12.010780000000
    66 mop_tetramer.pdb_65       1 mop_tetramer.pdb N          1     -0.566810011864     14.006720000000
    67 mop_tetramer.pdb_66       1 mop_tetramer.pdb C          1     -0.114050000906     12.010780000000
    68 mop_tetramer.pdb_67       1 mop_tetramer.pdb C          1     -0.128089994192     12.010780000000
    69 mop_tetramer.pdb_68       1 mop_tetramer.pdb C          1     -0.090190000832     12.010780000000
    70 mop_tetramer.pdb_69       1 mop_tetramer.pdb H          1      0.148440003395      1.007947000000
    71 mop_tetramer.pdb_70       1 mop_tetramer.pdb H          1      0.139500007033      1.007947000000
    72 mop_tetramer.pdb_71       1 mop_tetramer.pdb H          1      0.157409995794      1.007947000000
    73 mop_tetramer.pdb_72       1 mop_tetramer.pdb H          1      0.045770000666      1.007947000000
    74 mop_tetramer.pdb_73       1 mop_tetramer.pdb H          1      0.045770000666      1.007947000000
    75 mop_tetramer.pdb_74       1 mop_tetramer.pdb H          1      0.045770000666      1.007947000000
    76 mop_tetramer.pdb_75       1 mop_tetramer.pdb H          1      0.140990003943      1.007947000000
    77 mop_tetramer.pdb_76       1 mop_tetramer.pdb H          1      0.141090005636      1.007947000000
    78 mop_tetramer.pdb_77       1 mop_tetramer.pdb H          1      0.136710003018      1.007947000000
    79 mop_tetramer.pdb_78       1 mop_tetramer.pdb H          1      0.138689994812      1.007947000000
    80 mop_tetramer.pdb_79       1 mop_tetramer.pdb H          1      0.140609994531      1.007947000000
    81 mop_tetramer.pdb_80       1 mop_tetramer.pdb H          1      0.135580003262      1.007947000000
    82 mop_tetramer.pdb_81       1 mop_tetramer.pdb H          1      0.086319997907      1.007947000000
    83 mop_tetramer.pdb_82       1 mop_tetramer.pdb H          1      0.314749985933      1.007947000000
    84 mop_tetramer.pdb_83       1 mop_tetramer.pdb H          1      0.046590000391      1.007947000000
    85 mop_tetramer.pdb_84       1 mop_tetramer.pdb H          1      0.046590000391      1.007947000000
    86 mop_tetramer.pdb_85       1 mop_tetramer.pdb H          1      0.046590000391      1.007947000000
    87 mop_tetramer.pdb_86       1 mop_tetramer.pdb H          1      0.139500007033      1.007947000000
    88 mop_tetramer.pdb_87       1 mop_tetramer.pdb H          1      0.148440003395      1.007947000000
    89 mop_tetramer.pdb_88       1 mop_tetramer.pdb C          1      0.672559976578     12.010780000000
    90 mop_tetramer.pdb_89       1 mop_tetramer.pdb O          1     -0.618449985981     15.999430000000
    91 mop_tetramer.pdb_90       1 mop_tetramer.pdb C          1     -0.143099993467     12.010780000000
    92 mop_tetramer.pdb_91       1 mop_tetramer.pdb C          1     -0.097620002925     12.010780000000
    93 mop_tetramer.pdb_92       1 mop_tetramer.pdb C          1     -0.128260001540     12.010780000000
    94 mop_tetramer.pdb_93       1 mop_tetramer.pdb C          1     -0.003909999970     12.010780000000
    95 mop_tetramer.pdb_94       1 mop_tetramer.pdb C          1     -0.077500000596     12.010780000000
    96 mop_tetramer.pdb_95       1 mop_tetramer.pdb C          1      0.008100000210     12.010780000000
    97 mop_tetramer.pdb_96       1 mop_tetramer.pdb C          1     -0.148399993777     12.010780000000
    98 mop_tetramer.pdb_97       1 mop_tetramer.pdb C          1      0.127969995141     12.010780000000
    99 mop_tetramer.pdb_98       1 mop_tetramer.pdb O          1     -0.323940008879     15.999430000000
   100 mop_tetramer.pdb_99       1 mop_tetramer.pdb C          1      0.111749999225     12.010780000000
   101 mop_tetramer.pdb_100       1 mop_tetramer.pdb C          1     -0.200880005956     12.010780000000
   102 mop_tetramer.pdb_101       1 mop_tetramer.pdb C          1     -0.079559996724     12.010780000000
   103 mop_tetramer.pdb_102       1 mop_tetramer.pdb C          1     -0.044969998300     12.010780000000
   104 mop_tetramer.pdb_103       1 mop_tetramer.pdb C          1     -0.109279997647     12.010780000000
   105 mop_tetramer.pdb_104       1 mop_tetramer.pdb C          1     -0.134580001235     12.010780000000
   106 mop_tetramer.pdb_105       1 mop_tetramer.pdb C          1     -0.102799996734     12.010780000000
   107 mop_tetramer.pdb_106       1 mop_tetramer.pdb C          1     -0.109839998186     12.010780000000
   108 mop_tetramer.pdb_107       1 mop_tetramer.pdb C          1     -0.103820003569     12.010780000000
   109 mop_tetramer.pdb_108       1 mop_tetramer.pdb C          1      0.149200007319     12.010780000000
   110 mop_tetramer.pdb_109       1 mop_tetramer.pdb N          1     -0.565989971161     14.006720000000
   111 mop_tetramer.pdb_110       1 mop_tetramer.pdb C          1     -0.103280000389     12.010780000000
   112 mop_tetramer.pdb_111       1 mop_tetramer.pdb C          1     -0.128260001540     12.010780000000
   113 mop_tetramer.pdb_112       1 mop_tetramer.pdb C          1     -0.097620002925     12.010780000000
   114 mop_tetramer.pdb_113       1 mop_tetramer.pdb H          1      0.149100005627      1.007947000000
   115 mop_tetramer.pdb_114       1 mop_tetramer.pdb H          1      0.142920002341      1.007947000000
   116 mop_tetramer.pdb_115       1 mop_tetramer.pdb H          1      0.155320003629      1.007947000000
   117 mop_tetramer.pdb_116       1 mop_tetramer.pdb H          1      0.046199999750      1.007947000000
   118 mop_tetramer.pdb_117       1 mop_tetramer.pdb H          1      0.046199999750      1.007947000000
   119 mop_tetramer.pdb_118       1 mop_tetramer.pdb H          1      0.046199999750      1.007947000000
   120 mop_tetramer.pdb_119       1 mop_tetramer.pdb H          1      0.142149999738      1.007947000000
   121 mop_tetramer.pdb_120       1 mop_tetramer.pdb H          1      0.139689996839      1.007947000000
   122 mop_tetramer.pdb_121       1 mop_tetramer.pdb H          1      0.134389996529      1.007947000000
   123 mop_tetramer.pdb_122       1 mop_tetramer.pdb H          1      0.133819997311      1.007947000000
   124 mop_tetramer.pdb_123       1 mop_tetramer.pdb H          1      0.142000004649      1.007947000000
   125 mop_tetramer.pdb_124       1 mop_tetramer.pdb H          1      0.132300004363      1.007947000000
   126 mop_tetramer.pdb_125       1 mop_tetramer.pdb H          1      0.087650001049      1.007947000000
   127 mop_tetramer.pdb_126       1 mop_tetramer.pdb H          1      0.309430003166      1.007947000000
   128 mop_tetramer.pdb_127       1 mop_tetramer.pdb H          1      0.044199999422      1.007947000000
   129 mop_tetramer.pdb_128       1 mop_tetramer.pdb H          1      0.044199999422      1.007947000000
   130 mop_tetramer.pdb_129       1 mop_tetramer.pdb H          1      0.044199999422      1.007947000000
   131 mop_tetramer.pdb_130       1 mop_tetramer.pdb H          1      0.142920002341      1.007947000000
   132 mop_tetramer.pdb_131       1 mop_tetramer.pdb H          1      0.149100005627      1.007947000000
   133 mop_tetramer.pdb_132       1 mop_tetramer.pdb C          1      0.676660001278     12.010780000000
   134 mop_tetramer.pdb_133       1 mop_tetramer.pdb O          1     -0.605660021305     15.999430000000
   135 mop_tetramer.pdb_134       1 mop_tetramer.pdb C          1     -0.142360001802     12.010780000000
   136 mop_tetramer.pdb_135       1 mop_tetramer.pdb C          1     -0.092339999974     12.010780000000
   137 mop_tetramer.pdb_136       1 mop_tetramer.pdb C          1     -0.125459998846     12.010780000000
   138 mop_tetramer.pdb_137       1 mop_tetramer.pdb C          1     -0.008399999700     12.010780000000
   139 mop_tetramer.pdb_138       1 mop_tetramer.pdb C          1     -0.076169997454     12.010780000000
   140 mop_tetramer.pdb_139       1 mop_tetramer.pdb C          1      0.010019999929     12.010780000000
   141 mop_tetramer.pdb_140       1 mop_tetramer.pdb C          1     -0.144240006804     12.010780000000
   142 mop_tetramer.pdb_141       1 mop_tetramer.pdb C          1      0.125119999051     12.010780000000
   143 mop_tetramer.pdb_142       1 mop_tetramer.pdb O          1     -0.326200008392     15.999430000000
   144 mop_tetramer.pdb_143       1 mop_tetramer.pdb C          1      0.112209998071     12.010780000000
   145 mop_tetramer.pdb_144       1 mop_tetramer.pdb C          1     -0.202450007200     12.010780000000
   146 mop_tetramer.pdb_145       1 mop_tetramer.pdb C          1     -0.082489997149     12.010780000000
   147 mop_tetramer.pdb_146       1 mop_tetramer.pdb C          1     -0.049940001220     12.010780000000
   148 mop_tetramer.pdb_147       1 mop_tetramer.pdb C          1     -0.098899997771     12.010780000000
   149 mop_tetramer.pdb_148       1 mop_tetramer.pdb C          1     -0.119920000434     12.010780000000
   150 mop_tetramer.pdb_149       1 mop_tetramer.pdb C          1     -0.109520003200     12.010780000000
   151 mop_tetramer.pdb_150       1 mop_tetramer.pdb C          1     -0.111709997058     12.010780000000
   152 mop_tetramer.pdb_151       1 mop_tetramer.pdb C          1     -0.112139999866     12.010780000000
   153 mop_tetramer.pdb_152       1 mop_tetramer.pdb C          1      0.162550002337     12.010780000000
   154 mop_tetramer.pdb_153       1 mop_tetramer.pdb N          1     -0.549889981747     14.006720000000
   155 mop_tetramer.pdb_154       1 mop_tetramer.pdb C          1     -0.114000000060     12.010780000000
   156 mop_tetramer.pdb_155       1 mop_tetramer.pdb C          1     -0.125459998846     12.010780000000
   157 mop_tetramer.pdb_156       1 mop_tetramer.pdb C          1     -0.092339999974     12.010780000000
   158 mop_tetramer.pdb_157       1 mop_tetramer.pdb H          1      0.146410003304      1.007947000000
   159 mop_tetramer.pdb_158       1 mop_tetramer.pdb H          1      0.142330005765      1.007947000000
   160 mop_tetramer.pdb_159       1 mop_tetramer.pdb H          1      0.158930003643      1.007947000000
   161 mop_tetramer.pdb_160       1 mop_tetramer.pdb H          1      0.045159999281      1.007947000000
   162 mop_tetramer.pdb_161       1 mop_tetramer.pdb H          1      0.045159999281      1.007947000000
   163 mop_tetramer.pdb_162       1 mop_tetramer.pdb H          1      0.045159999281      1.007947000000
   164 mop_tetramer.pdb_163       1 mop_tetramer.pdb H          1      0.140320003033      1.007947000000
   165 mop_tetramer.pdb_164       1 mop_tetramer.pdb H          1      0.140119999647      1.007947000000
   166 mop_tetramer.pdb_165       1 mop_tetramer.pdb H          1      0.145689994097      1.007947000000
   167 mop_tetramer.pdb_166       1 mop_tetramer.pdb H          1      0.162340000272      1.007947000000
   168 mop_tetramer.pdb_167       1 mop_tetramer.pdb H          1      0.136069998145      1.007947000000
   169 mop_tetramer.pdb_168       1 mop_tetramer.pdb H          1      0.131449997425      1.007947000000
   170 mop_tetramer.pdb_169       1 mop_tetramer.pdb H          1      0.076860003173      1.007947000000
   171 mop_tetramer.pdb_170       1 mop_tetramer.pdb H          1      0.329199999571      1.007947000000
   172 mop_tetramer.pdb_171       1 mop_tetramer.pdb H          1      0.048110000789      1.007947000000
   173 mop_tetramer.pdb_172       1 mop_tetramer.pdb H          1      0.048110000789      1.007947000000
   174 mop_tetramer.pdb_173       1 mop_tetramer.pdb H          1      0.048110000789      1.007947000000
   175 mop_tetramer.pdb_174       1 mop_tetramer.pdb H          1      0.142330005765      1.007947000000
   176 mop_tetramer.pdb_175       1 mop_tetramer.pdb H          1      0.146410003304      1.007947000000
   177 mop_tetramer.pdb_176       1 mop_tetramer.pdb C          1      0.124480001628     12.010780000000
   178 mop_tetramer.pdb_177       1 mop_tetramer.pdb O          1     -0.427630007267     15.999430000000
   179 mop_tetramer.pdb_178       1 mop_tetramer.pdb H          1      0.050140000880      1.007947000000
   180 mop_tetramer.pdb_179       1 mop_tetramer.pdb H          1      0.050140000880      1.007947000000
   181 mop_tetramer.pdb_180       1 mop_tetramer.pdb H          1      0.050140000880      1.007947000000
   182 mop_tetramer.pdb_181       1 mop_tetramer.pdb C          1     -0.113119997084     12.010780000000
   183 mop_tetramer.pdb_182       1 mop_tetramer.pdb C          1      0.184359997511     12.010780000000
   184 mop_tetramer.pdb_183       1 mop_tetramer.pdb C          1     -0.113119997084     12.010780000000
   185 mop_tetramer.pdb_184       1 mop_tetramer.pdb C          1     -0.113119997084     12.010780000000
   186 mop_tetramer.pdb_185       1 mop_tetramer.pdb O          1     -0.457509994507     15.999430000000
   187 mop_tetramer.pdb_186       1 mop_tetramer.pdb C          1      0.748749971390     12.010780000000
   188 mop_tetramer.pdb_187       1 mop_tetramer.pdb O          1     -0.604009985924     15.999430000000
   189 mop_tetramer.pdb_188       1 mop_tetramer.pdb H          1      0.050790000707      1.007947000000
   190 mop_tetramer.pdb_189       1 mop_tetramer.pdb H          1      0.050790000707      1.007947000000
   191 mop_tetramer.pdb_190       1 mop_tetramer.pdb H          1      0.050790000707      1.007947000000
   192 mop_tetramer.pdb_191       1 mop_tetramer.pdb H          1      0.050790000707      1.007947000000
   193 mop_tetramer.pdb_192       1 mop_tetramer.pdb H          1      0.050790000707      1.007947000000
   194 mop_tetramer.pdb_193       1 mop_tetramer.pdb H          1      0.050790000707      1.007947000000
   195 mop_tetramer.pdb_194       1 mop_tetramer.pdb H          1      0.050790000707      1.007947000000
   196 mop_tetramer.pdb_195       1 mop_tetramer.pdb H          1      0.050790000707      1.007947000000
   197 mop_tetramer.pdb_196       1 mop_tetramer.pdb H          1      0.050790000707      1.007947000000

[ pairs ]
;ai    aj   funct
    60	    80	     1
    20	    38	     1
    52	    81	     1
   108	   126	     1
   185	   191	     1
    96	   122	     1
    14	    15	     1
    98	   118	     1
   158	   159	     1
   126	   130	     1
   154	   172	     1
   167	   168	     1
    64	    66	     1
     2	   177	     1
     9	    14	     1
    38	    45	     1
   170	   171	     1
     5	     8	     1
    89	   114	     1
     7	    25	     1
    62	    78	     1
   142	   161	     1
    82	    86	     1
    16	    37	     1
    23	    45	     1
    51	    87	     1
    19	    40	     1
    51	    76	     1
   140	   143	     1
   107	   128	     1
   184	   197	     1
    18	    22	     1
   103	   123	     1
   171	   186	     1
   104	   107	     1
   110	   157	     1
   147	   150	     1
    62	    82	     1
   142	   165	     1
    61	    64	     1
   140	   156	     1
   182	   194	     1
     3	    43	     1
    22	    40	     1
    53	    58	     1
   184	   190	     1
     2	    25	     1
   103	   116	     1
   148	   168	     1
    65	    90	     1
     6	    44	     1
   126	   127	     1
   157	   158	     1
    96	   101	     1
   103	   109	     1
     6	    13	     1
     9	    20	     1
   152	   155	     1
    63	    86	     1
   139	   164	     1
     4	     7	     1
    11	    28	     1
    26	    27	     1
   110	   130	     1
   114	   115	     1
   186	   192	     1
   140	   149	     1
     5	    14	     1
   182	   187	     1
    96	   121	     1
    25	   178	     1
   131	   132	     1
   152	   166	     1
    98	   117	     1
   139	   175	     1
   149	   152	     1
     8	    33	     1
    63	    79	     1
   140	   169	     1
   139	   157	     1
     8	    13	     1
    82	    85	     1
    10	    29	     1
    89	    93	     1
   106	   122	     1
    16	    36	     1
    83	    90	     1
   104	   124	     1
   185	   194	     1
    96	   125	     1
    15	    18	     1
     2	     4	     1
   107	   127	     1
   184	   196	     1
    17	    21	     1
   108	   111	     1
   126	   133	     1
   147	   167	     1
   150	   170	     1
    96	   107	     1
   170	   174	     1
   147	   160	     1
    98	   103	     1
     7	    28	     1
    62	    81	     1
    54	    75	     1
    11	    14	     1
    25	    26	     1
    20	    34	     1
   141	   146	     1
    52	    77	     1
    53	    64	     1
    50	    88	     1
     1	     5	     1
   185	   187	     1
   184	   189	     1
    95	   120	     1
    91	   115	     1
    93	   131	     1
    64	    82	     1
   164	   165	     1
    95	   113	     1
   170	   187	     1
   156	   159	     1
    63	    85	     1
     8	    19	     1
   147	   153	     1
   140	   166	     1
    49	    87	     1
    10	    15	     1
   182	   197	     1
    15	    35	     1
   186	   191	     1
    51	    72	     1
   108	   124	     1
    18	    38	     1
   107	   133	     1
    14	    24	     1
    52	    63	     1
    66	    84	     1
    56	    57	     1
   151	   174	     1
   138	   176	     1
   175	   176	     1
    63	    89	     1
    62	    67	     1
    82	    84	     1
   109	   135	     1
   186	   195	     1
    15	    28	     1
    58	    59	     1
   101	   116	     1
    47	    71	     1
   185	   193	     1
   127	   134	     1
   151	   187	     1
    17	    20	     1
    70	    71	     1
    97	   108	     1
    48	    51	     1
   108	   110	     1
   151	   167	     1
   154	   174	     1
    92	   112	     1
     3	   177	     1
     9	    16	     1
   170	   173	     1
    91	    94	     1
   139	   160	     1
   142	   163	     1
    45	    88	     1
    32	    33	     1
   106	   125	     1
   140	   165	     1
    45	    68	     1
    19	    42	     1
   133	   137	     1
    16	    19	     1
   140	   145	     1
    51	    69	     1
    15	    21	     1
   107	   130	     1
   153	   169	     1
   183	   188	     1
   151	   171	     1
   171	   188	     1
     6	    33	     1
     8	    11	     1
     1	   180	     1
    38	    40	     1
   144	   145	     1
    94	   101	     1
    34	    35	     1
     5	    43	     1
   142	   147	     1
    57	    72	     1
   182	   196	     1
    19	    35	     1
    22	    42	     1
     1	    44	     1
   112	   115	     1
   185	   190	     1
   107	   123	     1
    53	    60	     1
   106	   111	     1
     1	    24	     1
    94	   132	     1
   126	   129	     1
    47	    50	     1
     6	    26	     1
   150	   166	     1
    50	    53	     1
   137	   175	     1
    90	   113	     1
    94	   114	     1
    21	    37	     1
    48	    88	     1
   109	   125	     1
    19	    39	     1
   140	   151	     1
   186	   194	     1
    48	    68	     1
    55	    76	     1
   135	   159	     1
   153	   186	     1
    91	   131	     1
    49	    52	     1
    95	   116	     1
   152	   168	     1
    52	    55	     1
    98	   119	     1
   155	   171	     1
     4	   178	     1
    69	    70	     1
   100	   101	     1
    50	    57	     1
    64	    78	     1
    64	    67	     1
    95	    98	     1
   143	   164	     1
   139	   159	     1
   111	   127	     1
   145	   160	     1
    10	    31	     1
   110	   136	     1
   146	   147	     1
   133	   156	     1
    20	    23	     1
   182	   193	     1
    18	    34	     1
    50	    77	     1
   107	   129	     1
     9	    12	     1
    97	   100	     1
    92	    95	     1
   152	   154	     1
     1	   179	     1
    38	    39	     1
    93	   113	     1
   138	   165	     1
   138	   145	     1
   110	   129	     1
    20	    36	     1
    61	    65	     1
   141	   148	     1
    19	    45	     1
    59	    62	     1
    23	    39	     1
    47	    87	     1
   136	   156	     1
    66	   113	     1
    76	    77	     1
   185	   189	     1
    68	    71	     1
    50	    70	     1
    49	    58	     1
   106	   110	     1
    97	   104	     1
    51	    54	     1
   126	   128	     1
     9	    32	     1
     7	    43	     1
    35	    36	     1
   102	   103	     1
    89	   112	     1
   111	   133	     1
    21	    47	     1
   138	   158	     1
    78	    79	     1
   141	   152	     1
    49	    69	     1
   109	   124	     1
   186	   193	     1
     6	     9	     1
   184	   195	     1
   135	   138	     1
    46	    69	     1
    99	   120	     1
    66	    86	     1
    13	    28	     1
    95	   115	     1
   154	   183	     1
    89	   132	     1
   150	   169	     1
   149	   153	     1
    95	   108	     1
    99	   102	     1
     8	    34	     1
     7	    27	     1
    94	    97	     1
     7	    16	     1
    54	    74	     1
   134	   157	     1
    58	    68	     1
    10	    30	     1
    24	    27	     1
   186	   197	     1
   137	   140	     1
    20	    22	     1
   182	   192	     1
    83	    91	     1
   104	   125	     1
    92	   132	     1
    53	    56	     1
    51	    60	     1
    39	    47	     1
    96	    99	     1
    63	    84	     1
    22	    69	     1
    59	    79	     1
     7	    20	     1
   150	   155	     1
   139	   142	     1
    53	    76	     1
   110	   128	     1
    45	    70	     1
    52	    78	     1
   186	   190	     1
    51	    71	     1
    55	    72	     1
    18	    37	     1
    66	    92	     1
   155	   187	     1
   120	   121	     1
   105	   109	     1
   123	   124	     1
    94	   121	     1
   151	   173	     1
    65	    81	     1
    96	   112	     1
     6	    15	     1
    46	    48	     1
     7	    10	     1
    38	    42	     1
   166	   167	     1
   143	   160	     1
    94	   103	     1
    59	    72	     1
   135	   175	     1
    21	    46	     1
    93	    96	     1
    62	    66	     1
    82	    83	     1
    60	    81	     1
   137	   157	     1
   109	   134	     1
   137	   146	     1
     5	    25	     1
   136	   139	     1
    12	    13	     1
    51	    64	     1
   185	   192	     1
     3	    27	     1
    67	    83	     1
    60	    63	     1
     1	    26	     1
    66	    85	     1
    55	    58	     1
   154	   173	     1
    96	   105	     1
   170	   172	     1
     8	    24	     1
    87	    88	     1
    11	    32	     1
    59	    65	     1
   139	   148	     1
   146	   156	     1
   142	   162	     1
    54	    73	     1
   141	   164	     1
   138	   141	     1
   134	   136	     1
   141	   144	     1
    19	    41	     1
    22	    48	     1
   186	   196	     1
   153	   188	     1
    79	    80	     1
    18	    23	     1
   153	   168	     1
   113	   114	     1
   127	   135	     1
   152	   170	     1
   184	   187	     1
    45	    49	     1
    52	    57	     1
    98	   121	     1
    50	    59	     1
    64	    80	     1
    39	    46	     1
   103	   106	     1
     8	    37	     1
   133	   176	     1
    63	    83	     1
     8	    17	     1
   139	   152	     1
   143	   146	     1
    93	   102	     1
    54	    77	     1
   150	   154	     1
    82	    89	     1
    10	    33	     1
   106	   126	     1
   133	   158	     1
     4	    44	     1
    52	    68	     1
   182	   195	     1
   186	   189	     1
    22	    41	     1
    97	   120	     1
     4	    24	     1
   108	   122	     1
    54	    59	     1
    67	    89	     1
    95	   131	     1
   184	   191	     1
    99	   116	     1
    52	    61	     1
   148	   169	     1
    65	    91	     1
   105	   108	     1
   151	   172	     1
    97	   102	     1
    65	    80	     1
   122	   123	     1
    43	    44	     1
    95	   104	     1
   102	   112	     1
     1	   181	     1
   148	   151	     1
    38	    41	     1
   136	   176	     1
     7	    32	     1
    90	    92	     1
    21	    36	     1
   138	   147	     1
     3	     6	     1

[ bonds ]
;ai    aj   funct r k
     1      3      1      0.145462892503  233580.248617646750 
     1    178      1      0.134574123280  252005.673256632901 
     1      2      1      0.122519838622  487602.327766196802 
     3      4      1      0.138719322718  301905.092578520998 
     4      5      1      0.138719322718  301905.092578520998 
     4     26      1      0.108535849592  332422.631675317942 
     5     27      1      0.108535849592  332422.631675317942 
     5      6      1      0.138719322718  301905.092578520998 
     6      7      1      0.145462892503  233580.248617646750 
     7     14      1      0.138719322718  301905.092578520998 
     8      9      1      0.138719322718  301905.092578520998 
     7      8      1      0.138719322718  301905.092578520998 
     9     10      1      0.138719322718  301905.092578520998 
    10     11      1      0.136294580649  356218.264001121745 
    10     13      1      0.138719322718  301905.092578520998 
    11     12      1      0.142589505373  306888.771877388994 
    12     30      1      0.109389949263  309655.084322414012 
    13     32      1      0.108535849592  332422.631675317942 
    13     14      1      0.138719322718  301905.092578520998 
    14     33      1      0.108535849592  332422.631675317942 
     8     15      1      0.145462892503  233580.248617646750 
    15     20      1      0.138719322718  301905.092578520998 
    15     16      1      0.138719322718  301905.092578520998 
    16     17      1      0.138719322718  301905.092578520998 
    17     18      1      0.138719322718  301905.092578520998 
    18     19      1      0.138719322718  301905.092578520998 
    19     20      1      0.138719322718  301905.092578520998 
    19     21      1      0.149864681646  242452.869388089370 
    20     37      1      0.108535849592  332422.631675317942 
    21     22      1      0.145009858627  294600.927775905351 
    21     38      1      0.109389949263  309655.084322414012 
    22     45      1      0.138189777668  412347.817359175009 
    23     41      1      0.109389949263  309655.084322414012 
    21     23      1      0.152190126495  221435.259290285845 
     6     24      1      0.138719322718  301905.092578520998 
    24     25      1      0.138719322718  301905.092578520998 
     3     25      1      0.138719322718  301905.092578520998 
     9     28      1      0.108535849592  332422.631675317942 
    12     29      1      0.109389949263  309655.084322414012 
    12     31      1      0.109389949263  309655.084322414012 
    16     34      1      0.108535849592  332422.631675317942 
    17     35      1      0.108535849592  332422.631675317942 
    18     36      1      0.108535849592  332422.631675317942 
    22     39      1      0.101948186503  422704.914414302446 
    23     40      1      0.109389949263  309655.084322414012 
    23     42      1      0.109389949263  309655.084322414012 
    24     43      1      0.108535849592  332422.631675317942 
    25     44      1      0.108535849592  332422.631675317942 
    45     46      1      0.122519838622  487602.327766196802 
    45     47      1      0.145462892503  233580.248617646750 
    47     69      1      0.138719322718  301905.092578520998 
    47     48      1      0.138719322718  301905.092578520998 
    48     49      1      0.138719322718  301905.092578520998 
    49     50      1      0.138719322718  301905.092578520998 
    50     68      1      0.138719322718  301905.092578520998 
    50     51      1      0.145462892503  233580.248617646750 
    51     52      1      0.138719322718  301905.092578520998 
    52     59      1      0.145462892503  233580.248617646750 
    52     53      1      0.138719322718  301905.092578520998 
    53     72      1      0.108535849592  332422.631675317942 
    53     54      1      0.138719322718  301905.092578520998 
    54     55      1      0.136294580649  356218.264001121745 
    55     56      1      0.142589505373  306888.771877388994 
    56     75      1      0.109389949263  309655.084322414012 
    57     58      1      0.138719322718  301905.092578520998 
    54     57      1      0.138719322718  301905.092578520998 
    51     58      1      0.138719322718  301905.092578520998 
    59     60      1      0.138719322718  301905.092578520998 
    60     61      1      0.138719322718  301905.092578520998 
    60     78      1      0.108535849592  332422.631675317942 
    61     79      1      0.108535849592  332422.631675317942 
    62     80      1      0.108535849592  332422.631675317942 
    61     62      1      0.138719322718  301905.092578520998 
    62     63      1      0.138719322718  301905.092578520998 
    63     64      1      0.138719322718  301905.092578520998 
    59     64      1      0.138719322718  301905.092578520998 
    65     82      1      0.109389949263  309655.084322414012 
    65     67      1      0.152190126495  221435.259290285845 
    63     65      1      0.149864681646  242452.869388089370 
    65     66      1      0.145009858627  294600.927775905351 
    66     83      1      0.101948186503  422704.914414302446 
    67     86      1      0.109389949263  309655.084322414012 
    67     84      1      0.109389949263  309655.084322414012 
    68     69      1      0.138719322718  301905.092578520998 
    68     87      1      0.108535849592  332422.631675317942 
    69     88      1      0.108535849592  332422.631675317942 
    48     70      1      0.108535849592  332422.631675317942 
    49     71      1      0.108535849592  332422.631675317942 
    56     73      1      0.109389949263  309655.084322414012 
    56     74      1      0.109389949263  309655.084322414012 
    57     76      1      0.108535849592  332422.631675317942 
    58     77      1      0.108535849592  332422.631675317942 
    64     81      1      0.108535849592  332422.631675317942 
    67     85      1      0.109389949263  309655.084322414012 
    89     91      1      0.145462892503  233580.248617646750 
    66     89      1      0.138189777668  412347.817359175009 
    89     90      1      0.122519838622  487602.327766196802 
    91     92      1      0.138719322718  301905.092578520998 
    92     93      1      0.138719322718  301905.092578520998 
    92    114      1      0.108535849592  332422.631675317942 
    93    115      1      0.108535849592  332422.631675317942 
    94     95      1      0.145462892503  233580.248617646750 
    93     94      1      0.138719322718  301905.092578520998 
    95    102      1      0.138719322718  301905.092578520998 
    95     96      1      0.138719322718  301905.092578520998 
    96     97      1      0.138719322718  301905.092578520998 
    97     98      1      0.138719322718  301905.092578520998 
    98     99      1      0.136294580649  356218.264001121745 
    98    101      1      0.138719322718  301905.092578520998 
    99    100      1      0.142589505373  306888.771877388994 
   100    117      1      0.109389949263  309655.084322414012 
   100    118      1      0.109389949263  309655.084322414012 
   101    120      1      0.108535849592  332422.631675317942 
   102    121      1      0.108535849592  332422.631675317942 
   101    102      1      0.138719322718  301905.092578520998 
    96    103      1      0.145462892503  233580.248617646750 
   103    108      1      0.138719322718  301905.092578520998 
   103    104      1      0.138719322718  301905.092578520998 
   104    105      1      0.138719322718  301905.092578520998 
   105    106      1      0.138719322718  301905.092578520998 
   106    107      1      0.138719322718  301905.092578520998 
   107    108      1      0.138719322718  301905.092578520998 
   107    109      1      0.149864681646  242452.869388089370 
   108    125      1      0.108535849592  332422.631675317942 
   109    110      1      0.145009858627  294600.927775905351 
   109    126      1      0.109389949263  309655.084322414012 
   110    133      1      0.138189777668  412347.817359175009 
   109    111      1      0.152190126495  221435.259290285845 
   111    129      1      0.109389949263  309655.084322414012 
    94    112      1      0.138719322718  301905.092578520998 
   112    113      1      0.138719322718  301905.092578520998 
    91    113      1      0.138719322718  301905.092578520998 
    97    116      1      0.108535849592  332422.631675317942 
   100    119      1      0.109389949263  309655.084322414012 
   104    122      1      0.108535849592  332422.631675317942 
   105    123      1      0.108535849592  332422.631675317942 
   106    124      1      0.108535849592  332422.631675317942 
   110    127      1      0.101948186503  422704.914414302446 
   111    128      1      0.109389949263  309655.084322414012 
   111    130      1      0.109389949263  309655.084322414012 
   112    131      1      0.108535849592  332422.631675317942 
   113    132      1      0.108535849592  332422.631675317942 
   133    134      1      0.122519838622  487602.327766196802 
   133    135      1      0.145462892503  233580.248617646750 
   135    157      1      0.138719322718  301905.092578520998 
   135    136      1      0.138719322718  301905.092578520998 
   136    137      1      0.138719322718  301905.092578520998 
   137    138      1      0.138719322718  301905.092578520998 
   138    156      1      0.138719322718  301905.092578520998 
   139    140      1      0.138719322718  301905.092578520998 
   138    139      1      0.145462892503  233580.248617646750 
   140    147      1      0.145462892503  233580.248617646750 
   141    160      1      0.108535849592  332422.631675317942 
   140    141      1      0.138719322718  301905.092578520998 
   141    142      1      0.138719322718  301905.092578520998 
   142    143      1      0.136294580649  356218.264001121745 
   143    144      1      0.142589505373  306888.771877388994 
   144    163      1      0.109389949263  309655.084322414012 
   142    145      1      0.138719322718  301905.092578520998 
   145    146      1      0.138719322718  301905.092578520998 
   139    146      1      0.138719322718  301905.092578520998 
   147    148      1      0.138719322718  301905.092578520998 
   148    149      1      0.138719322718  301905.092578520998 
   148    166      1      0.108535849592  332422.631675317942 
   149    167      1      0.108535849592  332422.631675317942 
   150    168      1      0.108535849592  332422.631675317942 
   149    150      1      0.138719322718  301905.092578520998 
   150    151      1      0.138719322718  301905.092578520998 
   151    152      1      0.138719322718  301905.092578520998 
   147    152      1      0.138719322718  301905.092578520998 
   153    170      1      0.109389949263  309655.084322414012 
   153    155      1      0.152190126495  221435.259290285845 
   151    153      1      0.149864681646  242452.869388089370 
   153    154      1      0.145009858627  294600.927775905351 
   154    171      1      0.101948186503  422704.914414302446 
   155    174      1      0.109389949263  309655.084322414012 
   155    172      1      0.109389949263  309655.084322414012 
   156    175      1      0.108535849592  332422.631675317942 
   156    157      1      0.138719322718  301905.092578520998 
   157    176      1      0.108535849592  332422.631675317942 
   136    158      1      0.108535849592  332422.631675317942 
   137    159      1      0.108535849592  332422.631675317942 
   144    161      1      0.109389949263  309655.084322414012 
   144    162      1      0.109389949263  309655.084322414012 
   145    164      1      0.108535849592  332422.631675317942 
   146    165      1      0.108535849592  332422.631675317942 
   152    169      1      0.108535849592  332422.631675317942 
   155    173      1      0.109389949263  309655.084322414012 
   177    179      1      0.109389949263  309655.084322414012 
   177    180      1      0.109389949263  309655.084322414012 
   177    178      1      0.142589505373  306888.771877388994 
   177    181      1      0.109389949263  309655.084322414012 
   182    183      1      0.152190126495  221435.259290285845 
   182    190      1      0.109389949263  309655.084322414012 
   183    186      1      0.142589505373  306888.771877388994 
   183    184      1      0.152190126495  221435.259290285845 
   184    193      1      0.109389949263  309655.084322414012 
   184    192      1      0.109389949263  309655.084322414012 
   183    185      1      0.152190126495  221435.259290285845 
   186    187      1      0.134574123280  252005.673256632901 
   154    187      1      0.138189777668  412347.817359175009 
   187    188      1      0.122519838622  487602.327766196802 
   182    189      1      0.109389949263  309655.084322414012 
   182    191      1      0.109389949263  309655.084322414012 
   184    194      1      0.109389949263  309655.084322414012 
   185    195      1      0.109389949263  309655.084322414012 
   185    196      1      0.109389949263  309655.084322414012 
   185    197      1      0.109389949263  309655.084322414012 

[ angles ]
;ai    aj   ak   funct theta  k
   107    109    110      1     116.547586263400     445.222086509286 
   142    145    164      1     129.183592992600     285.070774532144 
    48     47     69      1     126.806242045100     484.492885493347 
     7      8     15      1     126.806242045100     484.492885493347 
   189    182    190      1     115.603099953300     408.161690475075 
    45     47     48      1     126.806242045100     484.492885493347 
   139    138    156      1     126.806242045100     484.492885493347 
   135    136    158      1     129.183592992600     285.070774532144 
    91     92     93      1     126.806242045100     484.492885493347 
   148    149    167      1     129.183592992600     285.070774532144 
    67     65     82      1     116.547586263400     445.222086509286 
    73     56     75      1     115.603099953300     408.161690475075 
    17     18     19      1     126.806242045100     484.492885493347 
   151    150    168      1     129.183592992600     285.070774532144 
   105    106    107      1     126.806242045100     484.492885493347 
   146    145    164      1     129.183592992600     285.070774532144 
    50     51     58      1     126.806242045100     484.492885493347 
    22     45     47      1     126.806242045100     484.492885493347 
    48     49     71      1     129.183592992600     285.070774532144 
    69     68     87      1     129.183592992600     285.070774532144 
    18     19     21      1     126.806242045100     484.492885493347 
   103    108    125      1     129.183592992600     285.070774532144 
    62     63     65      1     126.806242045100     484.492885493347 
    94     95     96      1     126.806242045100     484.492885493347 
     4      5      6      1     126.806242045100     484.492885493347 
   143    144    163      1     116.547586263400     445.222086509286 
    55     56     75      1     116.547586263400     445.222086509286 
     7     14     33      1     129.183592992600     285.070774532144 
   151    153    154      1     116.547586263400     445.222086509286 
    17     16     34      1     129.183592992600     285.070774532144 
     7     14     13      1     126.806242045100     484.492885493347 
    95    102    101      1     126.806242045100     484.492885493347 
   109    111    130      1     116.547586263400     445.222086509286 
   141    140    147      1     126.806242045100     484.492885493347 
    41     23     42      1     115.603099953300     408.161690475075 
   138    139    140      1     126.806242045100     484.492885493347 
   141    142    143      1     126.806242045100     484.492885493347 
   104    105    106      1     126.806242045100     484.492885493347 
    21     23     41      1     116.547586263400     445.222086509286 
    60     61     79      1     129.183592992600     285.070774532144 
    49     48     70      1     129.183592992600     285.070774532144 
    95    102    121      1     129.183592992600     285.070774532144 
    65     67     86      1     116.547586263400     445.222086509286 
    66     89     91      1     126.806242045100     484.492885493347 
    17     18     36      1     129.183592992600     285.070774532144 
    21     22     39      1     115.507132767400     530.901282784327 
   105    104    122      1     129.183592992600     285.070774532144 
    22     21     23      1     116.547586263400     445.222086509286 
     8      9     10      1     126.806242045100     484.492885493347 
    40     23     41      1     115.603099953300     408.161690475075 
    84     67     86      1     115.603099953300     408.161690475075 
    51     50     68      1     126.806242045100     484.492885493347 
    96     97    116      1     129.183592992600     285.070774532144 
   139    146    165      1     129.183592992600     285.070774532144 
   149    150    151      1     126.806242045100     484.492885493347 
   156    157    176      1     129.183592992600     285.070774532144 
   139    146    145      1     126.806242045100     484.492885493347 
   153    155    174      1     116.547586263400     445.222086509286 
    48     49     50      1     126.806242045100     484.492885493347 
   105    106    124      1     129.183592992600     285.070774532144 
    94     95    102      1     126.806242045100     484.492885493347 
   135    136    137      1     126.806242045100     484.492885493347 
    19     21     23      1     116.547586263400     445.222086509286 
   110    109    111      1     116.547586263400     445.222086509286 
   111    109    126      1     116.547586263400     445.222086509286 
   182    183    184      1     116.547586263400     445.222086509286 
   112    113    132      1     129.183592992600     285.070774532144 
    95     94    112      1     126.806242045100     484.492885493347 
   178    177    181      1     116.547586263400     445.222086509286 
   171    154    187      1     115.507132767400     530.901282784327 
    18     17     35      1     129.183592992600     285.070774532144 
   136    137    159      1     129.183592992600     285.070774532144 
    10     13     32      1     129.183592992600     285.070774532144 
    95     96     97      1     126.806242045100     484.492885493347 
   184    183    186      1     116.547586263400     445.222086509286 
   138    139    146      1     126.806242045100     484.492885493347 
   149    148    166      1     129.183592992600     285.070774532144 
    66     65     67      1     116.547586263400     445.222086509286 
    61     62     63      1     126.806242045100     484.492885493347 
   154    187    186      1     126.806242045100     484.492885493347 
   162    144    163      1     115.603099953300     408.161690475075 
   151    152    169      1     129.183592992600     285.070774532144 
    46     45     47      1     126.806242045100     484.492885493347 
    85     67     86      1     115.603099953300     408.161690475075 
     3      4     26      1     129.183592992600     285.070774532144 
   143    144    162      1     116.547586263400     445.222086509286 
   173    155    174      1     115.603099953300     408.161690475075 
   183    182    191      1     116.547586263400     445.222086509286 
    94    112    131      1     129.183592992600     285.070774532144 
     8      7     14      1     126.806242045100     484.492885493347 
    98     99    100      1     110.353880618100     544.678275491328 
    15     16     34      1     129.183592992600     285.070774532144 
    15     20     19      1     126.806242045100     484.492885493347 
    59     60     78      1     129.183592992600     285.070774532144 
   179    177    181      1     115.603099953300     408.161690475075 
    39     22     45      1     115.507132767400     530.901282784327 
   195    185    197      1     115.603099953300     408.161690475075 
    21     23     40      1     116.547586263400     445.222086509286 
    65     67     85      1     116.547586263400     445.222086509286 
    66     89     90      1     126.806242045100     484.492885493347 
   127    110    133      1     115.507132767400     530.901282784327 
    62     61     79      1     129.183592992600     285.070774532144 
   185    183    186      1     116.547586263400     445.222086509286 
   183    184    193      1     116.547586263400     445.222086509286 
     6     24     25      1     126.806242045100     484.492885493347 
   186    187    188      1     127.469141619100    1685.413543333009 
    98    101    102      1     126.806242045100     484.492885493347 
   107    109    126      1     116.547586263400     445.222086509286 
    11     12     31      1     116.547586263400     445.222086509286 
   149    150    168      1     129.183592992600     285.070774532144 
    99    100    119      1     116.547586263400     445.222086509286 
    51     58     77      1     129.183592992600     285.070774532144 
     1      3     25      1     126.806242045100     484.492885493347 
    20     19     21      1     126.806242045100     484.492885493347 
    84     67     85      1     115.603099953300     408.161690475075 
    50     68     69      1     126.806242045100     484.492885493347 
   102    101    120      1     129.183592992600     285.070774532144 
   183    185    197      1     116.547586263400     445.222086509286 
   154    153    170      1     116.547586263400     445.222086509286 
    63     65     66      1     116.547586263400     445.222086509286 
    64     63     65      1     126.806242045100     484.492885493347 
   139    140    141      1     126.806242045100     484.492885493347 
   142    143    144      1     110.353880618100     544.678275491328 
    52     53     72      1     129.183592992600     285.070774532144 
   134    133    135      1     126.806242045100     484.492885493347 
    10     11     12      1     110.353880618100     544.678275491328 
    52     51     58      1     126.806242045100     484.492885493347 
    61     62     80      1     129.183592992600     285.070774532144 
   161    144    162      1     115.603099953300     408.161690475075 
    49     50     51      1     126.806242045100     484.492885493347 
    52     53     54      1     126.806242045100     484.492885493347 
   184    183    185      1     116.547586263400     445.222086509286 
    13     14     33      1     129.183592992600     285.070774532144 
    91    113    112      1     126.806242045100     484.492885493347 
     5      6     24      1     126.806242045100     484.492885493347 
   142    145    146      1     126.806242045100     484.492885493347 
   151    153    170      1     116.547586263400     445.222086509286 
     9      8     15      1     126.806242045100     484.492885493347 
     9     10     11      1     126.806242045100     484.492885493347 
    89     91    113      1     126.806242045100     484.492885493347 
   137    136    158      1     129.183592992600     285.070774532144 
     6      5     27      1     129.183592992600     285.070774532144 
   103    108    107      1     126.806242045100     484.492885493347 
    16     15     20      1     126.806242045100     484.492885493347 
   183    182    190      1     116.547586263400     445.222086509286 
    91    113    132      1     129.183592992600     285.070774532144 
    59     64     81      1     129.183592992600     285.070774532144 
     1      3      4      1     126.806242045100     484.492885493347 
   157    156    175      1     129.183592992600     285.070774532144 
   107    108    125      1     129.183592992600     285.070774532144 
   147    152    169      1     129.183592992600     285.070774532144 
   155    153    170      1     116.547586263400     445.222086509286 
     6      7      8      1     126.806242045100     484.492885493347 
    59     64     63      1     126.806242045100     484.492885493347 
    96    103    108      1     126.806242045100     484.492885493347 
   147    152    151      1     126.806242045100     484.492885493347 
    63     64     81      1     129.183592992600     285.070774532144 
   139    140    147      1     126.806242045100     484.492885493347 
    51     52     53      1     126.806242045100     484.492885493347 
   183    184    192      1     116.547586263400     445.222086509286 
    59     60     61      1     126.806242045100     484.492885493347 
    10      9     28      1     129.183592992600     285.070774532144 
    16     17     18      1     126.806242045100     484.492885493347 
    74     56     75      1     115.603099953300     408.161690475075 
    99    100    118      1     116.547586263400     445.222086509286 
   106    107    108      1     126.806242045100     484.492885493347 
   128    111    130      1     115.603099953300     408.161690475075 
   192    184    194      1     115.603099953300     408.161690475075 
   133    135    157      1     126.806242045100     484.492885493347 
   141    142    145      1     126.806242045100     484.492885493347 
   136    135    157      1     126.806242045100     484.492885493347 
    15     16     17      1     126.806242045100     484.492885493347 
    96     95    102      1     126.806242045100     484.492885493347 
   150    151    153      1     126.806242045100     484.492885493347 
    96     97     98      1     126.806242045100     484.492885493347 
   148    147    152      1     126.806242045100     484.492885493347 
    73     56     74      1     115.603099953300     408.161690475075 
    49     50     68      1     126.806242045100     484.492885493347 
   180    177    181      1     115.603099953300     408.161690475075 
   117    100    119      1     115.603099953300     408.161690475075 
    19     18     36      1     129.183592992600     285.070774532144 
   106    105    123      1     129.183592992600     285.070774532144 
   101    102    121      1     129.183592992600     285.070774532144 
    22     45     46      1     126.806242045100     484.492885493347 
   138    156    175      1     129.183592992600     285.070774532144 
    18     19     20      1     126.806242045100     484.492885493347 
    91     92    114      1     129.183592992600     285.070774532144 
   140    141    160      1     129.183592992600     285.070774532144 
   183    186    187      1     110.353880618100     544.678275491328 
     6      7     14      1     126.806242045100     484.492885493347 
    62     63     64      1     126.806242045100     484.492885493347 
   138    156    157      1     126.806242045100     484.492885493347 
    21     22     45      1     117.346557051400     463.769802376852 
    51     52     59      1     126.806242045100     484.492885493347 
    16     17     35      1     129.183592992600     285.070774532144 
     8     15     20      1     126.806242045100     484.492885493347 
   182    183    186      1     116.547586263400     445.222086509286 
    55     56     74      1     116.547586263400     445.222086509286 
    14     13     32      1     129.183592992600     285.070774532144 
    97     98     99      1     126.806242045100     484.492885493347 
    52     59     60      1     126.806242045100     484.492885493347 
    89     91     92      1     126.806242045100     484.492885493347 
   109    111    129      1     116.547586263400     445.222086509286 
     5      6      7      1     126.806242045100     484.492885493347 
     8      9     28      1     129.183592992600     285.070774532144 
     4      3     25      1     126.806242045100     484.492885493347 
    93     92    114      1     129.183592992600     285.070774532144 
    10     13     14      1     126.806242045100     484.492885493347 
    53     52     59      1     126.806242045100     484.492885493347 
    94    112    113      1     126.806242045100     484.492885493347 
    90     89     91      1     126.806242045100     484.492885493347 
    29     12     31      1     115.603099953300     408.161690475075 
    63     65     82      1     116.547586263400     445.222086509286 
    53     54     55      1     126.806242045100     484.492885493347 
   113    112    131      1     129.183592992600     285.070774532144 
   172    155    174      1     115.603099953300     408.161690475075 
    65     66     83      1     115.507132767400     530.901282784327 
   151    153    155      1     116.547586263400     445.222086509286 
   103    104    105      1     126.806242045100     484.492885493347 
    55     54     57      1     126.806242045100     484.492885493347 
     4      5     27      1     129.183592992600     285.070774532144 
    95     96    103      1     126.806242045100     484.492885493347 
   192    184    193      1     115.603099953300     408.161690475075 
   133    135    136      1     126.806242045100     484.492885493347 
   110    133    135      1     126.806242045100     484.492885493347 
     7      6     24      1     126.806242045100     484.492885493347 
    60     59     64      1     126.806242045100     484.492885493347 
   153    155    173      1     116.547586263400     445.222086509286 
    21     23     42      1     116.547586263400     445.222086509286 
    52     59     64      1     126.806242045100     484.492885493347 
    54     53     72      1     129.183592992600     285.070774532144 
     3      4      5      1     126.806242045100     484.492885493347 
    19     21     22      1     116.547586263400     445.222086509286 
   117    100    118      1     115.603099953300     408.161690475075 
    63     62     80      1     129.183592992600     285.070774532144 
   178    177    180      1     116.547586263400     445.222086509286 
   150    149    167      1     129.183592992600     285.070774532144 
    30     12     31      1     115.603099953300     408.161690475075 
   196    185    197      1     115.603099953300     408.161690475075 
    40     23     42      1     115.603099953300     408.161690475075 
   136    137    138      1     126.806242045100     484.492885493347 
    96    103    104      1     126.806242045100     484.492885493347 
   129    111    130      1     115.603099953300     408.161690475075 
    57     58     77      1     129.183592992600     285.070774532144 
    24     25     44      1     129.183592992600     285.070774532144 
   137    138    156      1     126.806242045100     484.492885493347 
    19     20     37      1     129.183592992600     285.070774532144 
    47     69     88      1     129.183592992600     285.070774532144 
    65     66     89      1     117.346557051400     463.769802376852 
    54     55     56      1     110.353880618100     544.678275491328 
   182    183    185      1     116.547586263400     445.222086509286 
   143    144    161      1     116.547586263400     445.222086509286 
    47     69     68      1     126.806242045100     484.492885493347 
    55     56     73      1     116.547586263400     445.222086509286 
   108    107    109      1     126.806242045100     484.492885493347 
   109    111    128      1     116.547586263400     445.222086509286 
    92     91    113      1     126.806242045100     484.492885493347 
   104    103    108      1     126.806242045100     484.492885493347 
     2      1      3      1     126.806242045100     484.492885493347 
   179    177    180      1     115.603099953300     408.161690475075 
    29     12     30      1     115.603099953300     408.161690475075 
   103    104    122      1     129.183592992600     285.070774532144 
   195    185    196      1     115.603099953300     408.161690475075 
   172    155    173      1     115.603099953300     408.161690475075 
    65     67     84      1     116.547586263400     445.222086509286 
   109    110    127      1     115.507132767400     530.901282784327 
   193    184    194      1     115.603099953300     408.161690475075 
    58     57     76      1     129.183592992600     285.070774532144 
    83     66     89      1     115.507132767400     530.901282784327 
   138    137    159      1     129.183592992600     285.070774532144 
    50     49     71      1     129.183592992600     285.070774532144 
    68     69     88      1     129.183592992600     285.070774532144 
    11     10     13      1     126.806242045100     484.492885493347 
    11     12     30      1     116.547586263400     445.222086509286 
   143    142    145      1     126.806242045100     484.492885493347 
    93     94     95      1     126.806242045100     484.492885493347 
   147    148    166      1     129.183592992600     285.070774532144 
   152    151    153      1     126.806242045100     484.492885493347 
   110    133    134      1     126.806242045100     484.492885493347 
     3     25     44      1     129.183592992600     285.070774532144 
   118    100    119      1     115.603099953300     408.161690475075 
   153    155    172      1     116.547586263400     445.222086509286 
    54     57     76      1     129.183592992600     285.070774532144 
   183    185    196      1     116.547586263400     445.222086509286 
     3     25     24      1     126.806242045100     484.492885493347 
    98     97    116      1     129.183592992600     285.070774532144 
   183    184    194      1     116.547586263400     445.222086509286 
    47     48     70      1     129.183592992600     285.070774532144 
     8     15     16      1     126.806242045100     484.492885493347 
     9     10     13      1     126.806242045100     484.492885493347 
    54     57     58      1     126.806242045100     484.492885493347 
   178    177    179      1     116.547586263400     445.222086509286 
   107    106    124      1     129.183592992600     285.070774532144 
   107    109    111      1     116.547586263400     445.222086509286 
   145    146    165      1     129.183592992600     285.070774532144 
   135    157    156      1     126.806242045100     484.492885493347 
   189    182    191      1     115.603099953300     408.161690475075 
   142    141    160      1     129.183592992600     285.070774532144 
   140    147    148      1     126.806242045100     484.492885493347 
     1    178    177      1     110.353880618100     544.678275491328 
   190    182    191      1     115.603099953300     408.161690475075 
    63     65     67      1     116.547586263400     445.222086509286 
     5      4     26      1     129.183592992600     285.070774532144 
    22     21     38      1     116.547586263400     445.222086509286 
    92     93    115      1     129.183592992600     285.070774532144 
   109    110    133      1     117.346557051400     463.769802376852 
   148    149    150      1     126.806242045100     484.492885493347 
   154    153    155      1     116.547586263400     445.222086509286 
   183    182    189      1     116.547586263400     445.222086509286 
     7      8      9      1     126.806242045100     484.492885493347 
   161    144    163      1     115.603099953300     408.161690475075 
    93     94    112      1     126.806242045100     484.492885493347 
    45     47     69      1     126.806242045100     484.492885493347 
   135    157    176      1     129.183592992600     285.070774532144 
    25     24     43      1     129.183592992600     285.070774532144 
    15     20     37      1     129.183592992600     285.070774532144 
    23     21     38      1     116.547586263400     445.222086509286 
   140    147    152      1     126.806242045100     484.492885493347 
   154    187    188      1     126.806242045100     484.492885493347 
    94     93    115      1     129.183592992600     285.070774532144 
   153    154    187      1     117.346557051400     463.769802376852 
    19     21     38      1     116.547586263400     445.222086509286 
     6     24     43      1     129.183592992600     285.070774532144 
   137    138    139      1     126.806242045100     484.492885493347 
   140    141    142      1     126.806242045100     484.492885493347 
     2      1    178      1     127.469141619100    1685.413543333009 
    97     98    101      1     126.806242045100     484.492885493347 
    61     60     78      1     129.183592992600     285.070774532144 
    97     96    103      1     126.806242045100     484.492885493347 
    11     12     29      1     116.547586263400     445.222086509286 
    50     68     87      1     129.183592992600     285.070774532144 
    47     48     49      1     126.806242045100     484.492885493347 
    50     51     52      1     126.806242045100     484.492885493347 
    99    100    117      1     116.547586263400     445.222086509286 
   104    105    123      1     129.183592992600     285.070774532144 
   128    111    129      1     115.603099953300     408.161690475075 
    66     65     82      1     116.547586263400     445.222086509286 
     3      1    178      1     126.806242045100     484.492885493347 
   110    109    126      1     116.547586263400     445.222086509286 
    51     58     57      1     126.806242045100     484.492885493347 
   147    148    149      1     126.806242045100     484.492885493347 
    53     54     57      1     126.806242045100     484.492885493347 
   150    151    152      1     126.806242045100     484.492885493347 
    99     98    101      1     126.806242045100     484.492885493347 
   183    185    195      1     116.547586263400     445.222086509286 
   153    154    171      1     115.507132767400     530.901282784327 
    98    101    120      1     129.183592992600     285.070774532144 
   140    139    146      1     126.806242045100     484.492885493347 
    60     61     62      1     126.806242045100     484.492885493347 
    92     93     94      1     126.806242045100     484.492885493347 
   106    107    109      1     126.806242045100     484.492885493347 

[ dihedrals ]
;ai    aj   ak   al   funct phi  k
    39    22    45    46     1      0.000000000000      4.182570687614                 1
    39    22    45    46     1    180.000000000000      9.774548562162                 2
    39    22    45    46     1      0.000000000000     -0.099945007433                 3
    39    22    45    46     1    180.000000000000     -0.312229150711                 4
    65    63    62    80     1    180.000000000000     15.321515534534                 2
   101    98    97   116     1    180.000000000000     15.321515534534                 2
    66    65    67    86     1      0.000000000000      0.483407861024                 3
     5     6    24    25     1    180.000000000000     15.321515534534                 2
    87    68    69    88     1    180.000000000000     15.321515534534                 2
    52    53    54    55     1    180.000000000000     15.321515534534                 2
   103   108   107   109     1    180.000000000000     15.321515534534                 2
     9    10    11    12     1      0.000000000000      0.096562646130                 1
     9    10    11    12     1    180.000000000000      9.051163262839                 2
     9    10    11    12     1      0.000000000000      0.460621027180                 3
     9    10    11    12     1    180.000000000000      0.628447028268                 4
    59    52    53    72     1    180.000000000000     15.321515534534                 2
   107   109   111   129     1      0.000000000000      0.483407861024                 3
   154   153   155   172     1      0.000000000000      0.483407861024                 3
    64    59    60    78     1    180.000000000000     15.321515534534                 2
    52    51    50    68     1      0.000000000000     -0.248922474306                 1
    52    51    50    68     1    180.000000000000      5.422273188333                 2
    52    51    50    68     1      0.000000000000     -0.207395652714                 3
    52    51    50    68     1    180.000000000000      0.324889992629                 4
   185   183   184   194     1      0.000000000000      0.435413753811                 3
    97    96    95   102     1    180.000000000000     15.321515534534                 2
   105   104   103   108     1    180.000000000000     15.321515534534                 2
   151   153   154   171     1      0.000000000000      2.968968382716                 1
   151   153   154   171     1    180.000000000000      0.456916736419                 2
   151   153   154   171     1      0.000000000000     -0.003901685447                 3
   151   153   154   171     1    180.000000000000      0.247360639132                 4
    93    92    91   113     1    180.000000000000     15.321515534534                 2
   140   147   152   169     1    180.000000000000     15.321515534534                 2
     2     1     3     4     1      0.000000000000      0.096729726145                 1
     2     1     3     4     1    180.000000000000      2.208453177871                 2
     2     1     3     4     1      0.000000000000      0.092704235419                 3
     2     1     3     4     1    180.000000000000      0.218617330356                 4
    47    48    49    50     1    180.000000000000     15.321515534534                 2
   153   154   187   186     1      0.000000000000     -0.327066907409                 1
   153   154   187   186     1    180.000000000000      8.906429405246                 2
   153   154   187   186     1      0.000000000000      0.249356511004                 3
   153   154   187   186     1    180.000000000000      0.709799847636                 4
   109   110   133   134     1      0.000000000000     -1.642314942943                 1
   109   110   133   134     1    180.000000000000     12.143776038342                 2
   109   110   133   134     1      0.000000000000      0.882664392185                 3
   109   110   133   134     1    180.000000000000     -0.666751512870                 4
    12    11    10    13     1      0.000000000000      0.096562646130                 1
    12    11    10    13     1    180.000000000000      9.051163262839                 2
    12    11    10    13     1      0.000000000000      0.460621027180                 3
    12    11    10    13     1    180.000000000000      0.628447028268                 4
    20    19    21    23     1      0.000000000000     -0.209493772716                 1
    20    19    21    23     1    180.000000000000     -0.086696549584                 2
    20    19    21    23     1      0.000000000000     -0.245725149055                 3
    20    19    21    23     1    180.000000000000     -0.011192401362                 4
   108   107   109   110     1      0.000000000000      0.319327265238                 1
   108   107   109   110     1    180.000000000000      1.453262701414                 2
   108   107   109   110     1      0.000000000000     -0.246342236944                 3
   108   107   109   110     1    180.000000000000     -0.009580626465                 4
    76    57    58    77     1    180.000000000000     15.321515534534                 2
    38    21    23    40     1      0.000000000000      0.799950138473                 3
    14     7     8    15     1    180.000000000000     15.321515534534                 2
    95    96    97   116     1    180.000000000000     15.321515534534                 2
    51    58    57    76     1    180.000000000000     15.321515534534                 2
    18    19    21    38     1      0.000000000000     -0.111667099222                 1
    18    19    21    38     1    180.000000000000     -0.842238491321                 2
    18    19    21    38     1      0.000000000000     -0.271602403482                 3
    18    19    21    38     1    180.000000000000      0.197497532854                 4
   104   105   106   107     1    180.000000000000     15.321515534534                 2
   137   138   156   175     1    180.000000000000     15.321515534534                 2
     9     8     7    14     1    180.000000000000     15.321515534534                 2
   136   135   157   156     1    180.000000000000     15.321515534534                 2
    21    22    45    47     1      0.000000000000     -0.393051315741                 1
    21    22    45    47     1    180.000000000000      7.447721220773                 2
    21    22    45    47     1      0.000000000000      1.550794852412                 3
    21    22    45    47     1    180.000000000000      2.531245346694                 4
    63    65    66    89     1      0.000000000000     -3.680084993523                 1
    63    65    66    89     1    180.000000000000      1.436743590150                 2
    63    65    66    89     1      0.000000000000     -0.493284102028                 3
    63    65    66    89     1    180.000000000000     -0.782044469430                 4
   185   183   182   191     1      0.000000000000      0.435413753811                 3
    58    51    50    68     1      0.000000000000      0.262670110903                 1
    58    51    50    68     1    180.000000000000      6.121679935206                 2
    58    51    50    68     1      0.000000000000      0.143102929049                 3
    58    51    50    68     1    180.000000000000      1.288193103368                 4
   109   107   106   124     1    180.000000000000     15.321515534534                 2
     1   178   177   179     1      0.000000000000      0.198220506977                 3
    58    51    52    59     1    180.000000000000     15.321515534534                 2
    93    94    95   102     1      0.000000000000      0.262670110903                 1
    93    94    95   102     1    180.000000000000      6.121679935206                 2
    93    94    95   102     1      0.000000000000      0.143102929049                 3
    93    94    95   102     1    180.000000000000      1.288193103368                 4
    50    49    48    70     1    180.000000000000     15.321515534534                 2
   137   138   156   157     1    180.000000000000     15.321515534534                 2
   104   103   108   107     1    180.000000000000     15.321515534534                 2
    10    11    12    29     1      0.000000000000      0.198220506977                 3
    94   112   113   132     1    180.000000000000     15.321515534534                 2
    62    63    65    82     1      0.000000000000     -0.111667099222                 1
    62    63    65    82     1    180.000000000000     -0.842238491321                 2
    62    63    65    82     1      0.000000000000     -0.271602403482                 3
    62    63    65    82     1    180.000000000000      0.197497532854                 4
    98    97    96   103     1    180.000000000000     15.321515534534                 2
    94    95   102   101     1    180.000000000000     15.321515534534                 2
    89    91    92    93     1    180.000000000000     15.321515534534                 2
   186   183   185   196     1      0.000000000000      0.466735938990                 3
   186   183   185   196     1      0.000000000000      1.436153909162                 1
    19    21    23    42     1      0.000000000000      0.483407861024                 3
    98    99   100   117     1      0.000000000000      0.198220506977                 3
    92    91   113   112     1    180.000000000000     15.321515534534                 2
    97    98   101   120     1    180.000000000000     15.321515534534                 2
   103   104   105   106     1    180.000000000000     15.321515534534                 2
   136   135   157   176     1    180.000000000000     15.321515534534                 2
    52    51    58    77     1    180.000000000000     15.321515534534                 2
    45    47    48    70     1    180.000000000000     15.321515534534                 2
   133   135   157   156     1    180.000000000000     15.321515534534                 2
   126   109   111   128     1      0.000000000000      0.799950138473                 3
    92    93    94   112     1    180.000000000000     15.321515534534                 2
     5     6     7     8     1      0.000000000000     -0.248922474306                 1
     5     6     7     8     1    180.000000000000      5.422273188333                 2
     5     6     7     8     1      0.000000000000     -0.207395652714                 3
     5     6     7     8     1    180.000000000000      0.324889992629                 4
    95    94   112   113     1    180.000000000000     15.321515534534                 2
   103   108   107   106     1    180.000000000000     15.321515534534                 2
    94    95   102   121     1    180.000000000000     15.321515534534                 2
     8     7    14    33     1    180.000000000000     15.321515534534                 2
   106   107   109   111     1      0.000000000000     -0.209493772716                 1
   106   107   109   111     1    180.000000000000     -0.086696549584                 2
   106   107   109   111     1      0.000000000000     -0.245725149055                 3
   106   107   109   111     1    180.000000000000     -0.011192401362                 4
   155   153   154   171     1      0.000000000000     -1.689904633694                 1
   155   153   154   171     1    180.000000000000      0.990787464690                 2
   155   153   154   171     1      0.000000000000      0.275123010560                 3
   155   153   154   171     1    180.000000000000      0.016843739520                 4
   164   145   146   165     1    180.000000000000     15.321515534534                 2
    23    21    22    39     1      0.000000000000     -2.201337422850                 1
    23    21    22    39     1    180.000000000000     -0.596993296482                 2
    23    21    22    39     1      0.000000000000      1.351458656520                 3
    23    21    22    39     1    180.000000000000     -0.695635083798                 4
    83    66    89    91     1      0.000000000000      0.916137150682                 1
    83    66    89    91     1    180.000000000000      7.692928051170                 2
    83    66    89    91     1      0.000000000000      0.503979796369                 3
    83    66    89    91     1    180.000000000000      0.333929757812                 4
   148   149   150   151     1    180.000000000000     15.321515534534                 2
   184   183   182   191     1      0.000000000000      0.435413753811                 3
   120   101   102   121     1    180.000000000000     15.321515534534                 2
    54    55    56    74     1      0.000000000000      0.198220506977                 3
    59    64    63    62     1    180.000000000000     15.321515534534                 2
   133   135   157   176     1    180.000000000000     15.321515534534                 2
    53    54    57    76     1    180.000000000000     15.321515534534                 2
     7     6    24    43     1    180.000000000000     15.321515534534                 2
     8     9    10    13     1    180.000000000000     15.321515534534                 2
    68    50    49    71     1    180.000000000000     15.321515534534                 2
    25     3     4    26     1    180.000000000000     15.321515534534                 2
   152   151   153   170     1      0.000000000000     -0.081947038501                 1
   152   151   153   170     1    180.000000000000     -0.542076737958                 2
   152   151   153   170     1      0.000000000000     -0.216448126947                 3
   152   151   153   170     1    180.000000000000      0.316266568086                 4
    38    21    22    39     1      0.000000000000     -3.520647105606                 1
    38    21    22    39     1    180.000000000000      0.638103264990                 2
    38    21    22    39     1      0.000000000000      0.741921146398                 3
    38    21    22    39     1    180.000000000000     -0.338995565113                 4
    66    65    67    85     1      0.000000000000      0.483407861024                 3
   135   157   156   138     1    180.000000000000     15.321515534534                 2
    63    65    67    86     1      0.000000000000      0.483407861024                 3
   135   136   137   138     1    180.000000000000     15.321515534534                 2
   141   142   143   144     1      0.000000000000      0.096562646130                 1
   141   142   143   144     1    180.000000000000      9.051163262839                 2
   141   142   143   144     1      0.000000000000      0.460621027180                 3
   141   142   143   144     1    180.000000000000      0.628447028268                 4
     4     3    25    44     1    180.000000000000     15.321515534534                 2
   107   109   111   128     1      0.000000000000      0.483407861024                 3
    32    13    14    33     1    180.000000000000     15.321515534534                 2
     4     3    25    24     1    180.000000000000     15.321515534534                 2
   139   140   147   148     1    180.000000000000      4.866977563957                 2
   185   183   184   193     1      0.000000000000      0.435413753811                 3
   112    94    93   115     1    180.000000000000     15.321515534534                 2
   146   139   138   156     1      0.000000000000      0.262670110903                 1
   146   139   138   156     1    180.000000000000      6.121679935206                 2
   146   139   138   156     1      0.000000000000      0.143102929049                 3
   146   139   138   156     1    180.000000000000      1.288193103368                 4
    22    21    23    42     1      0.000000000000      0.483407861024                 3
   182   183   185   197     1      0.000000000000      0.435413753811                 3
     1     3    25    44     1    180.000000000000     15.321515534534                 2
    15     8     9    28     1    180.000000000000     15.321515534534                 2
    15    20    19    18     1    180.000000000000     15.321515534534                 2
    17    16    15    20     1    180.000000000000     15.321515534534                 2
    66    89    91   113     1      0.000000000000      0.274487762821                 1
    66    89    91   113     1    180.000000000000      3.019538213351                 2
    66    89    91   113     1      0.000000000000     -0.014779178335                 3
    66    89    91   113     1    180.000000000000     -0.505949306129                 4
   104   105   106   124     1    180.000000000000     15.321515534534                 2
    93    94   112   131     1    180.000000000000     15.321515534534                 2
   136   137   138   139     1    180.000000000000     15.321515534534                 2
    48    47    69    88     1    180.000000000000     15.321515534534                 2
   123   105   106   124     1    180.000000000000     15.321515534534                 2
   110   109   111   128     1      0.000000000000      0.483407861024                 3
   141   142   145   146     1    180.000000000000     15.321515534534                 2
    97    96   103   104     1    180.000000000000      4.866977563957                 2
    10    13    14    33     1    180.000000000000     15.321515534534                 2
   126   109   110   127     1      0.000000000000     -3.520647105606                 1
   126   109   110   127     1    180.000000000000      0.638103264990                 2
   126   109   110   127     1      0.000000000000      0.741921146398                 3
   126   109   110   127     1    180.000000000000     -0.338995565113                 4
   158   136   137   159     1    180.000000000000     15.321515534534                 2
   142   143   144   163     1      0.000000000000      0.198220506977                 3
   151   153   155   174     1      0.000000000000      0.483407861024                 3
    45    47    48    49     1    180.000000000000     15.321515534534                 2
   170   153   154   171     1      0.000000000000     -1.532230322247                 1
   170   153   154   171     1    180.000000000000      0.927096599408                 2
   170   153   154   171     1      0.000000000000     -0.096074194149                 3
   170   153   154   171     1    180.000000000000     -0.040360627949                 4
   103   104   105   123     1    180.000000000000     15.321515534534                 2
    23    21    22    45     1      0.000000000000      0.376448181625                 1
    23    21    22    45     1    180.000000000000     -0.628731554429                 2
    23    21    22    45     1      0.000000000000     -1.235676498799                 3
    23    21    22    45     1    180.000000000000     -0.373746021650                 4
   136   137   138   156     1    180.000000000000     15.321515534534                 2
   182   183   184   192     1      0.000000000000      0.435413753811                 3
   140   141   142   145     1    180.000000000000     15.321515534534                 2
     5     6     7    14     1      0.000000000000      0.262670110903                 1
     5     6     7    14     1    180.000000000000      6.121679935206                 2
     5     6     7    14     1      0.000000000000      0.143102929049                 3
     5     6     7    14     1    180.000000000000      1.288193103368                 4
    69    47    48    70     1    180.000000000000     15.321515534534                 2
   102    95    94   112     1      0.000000000000      0.262670110903                 1
   102    95    94   112     1    180.000000000000      6.121679935206                 2
   102    95    94   112     1      0.000000000000      0.143102929049                 3
   102    95    94   112     1    180.000000000000      1.288193103368                 4
     9    10    13    14     1    180.000000000000     15.321515534534                 2
     3     4     5    27     1    180.000000000000     15.321515534534                 2
    62    63    64    81     1    180.000000000000     15.321515534534                 2
   153   151   152   169     1    180.000000000000     15.321515534534                 2
   127   110   133   134     1      0.000000000000      4.182570687614                 1
   127   110   133   134     1    180.000000000000      9.774548562162                 2
   127   110   133   134     1      0.000000000000     -0.099945007433                 3
   127   110   133   134     1    180.000000000000     -0.312229150711                 4
    94    95    96    97     1    180.000000000000     15.321515534534                 2
    38    21    22    45     1      0.000000000000      3.391162299558                 1
    38    21    22    45     1    180.000000000000     -1.259707815441                 2
    38    21    22    45     1      0.000000000000     -0.381726901395                 3
    38    21    22    45     1    180.000000000000     -0.007834617511                 4
    43    24    25    44     1    180.000000000000     15.321515534534                 2
    15    16    17    35     1    180.000000000000     15.321515534534                 2
   105   106   107   109     1    180.000000000000     15.321515534534                 2
    96   103   104   122     1    180.000000000000     15.321515534534                 2
   106   107   109   110     1      0.000000000000      0.319327265238                 1
   106   107   109   110     1    180.000000000000      1.453262701414                 2
   106   107   109   110     1      0.000000000000     -0.246342236944                 3
   106   107   109   110     1    180.000000000000     -0.009580626465                 4
   151   153   154   187     1      0.000000000000     -3.483764942823                 1
   151   153   154   187     1    180.000000000000      1.728522205608                 2
   151   153   154   187     1      0.000000000000     -1.188952256407                 3
   151   153   154   187     1    180.000000000000      0.060078698362                 4
   107   109   110   127     1      0.000000000000      5.485802153513                 1
   107   109   110   127     1    180.000000000000      2.546265639162                 2
   107   109   110   127     1      0.000000000000      0.371337584977                 3
   107   109   110   127     1    180.000000000000      0.568707884241                 4
   141   140   147   148     1    180.000000000000      4.866977563957                 2
    16    15    20    19     1    180.000000000000     15.321515534534                 2
   135   157   156   175     1    180.000000000000     15.321515534534                 2
    51    52    53    72     1    180.000000000000     15.321515534534                 2
   184   183   182   190     1      0.000000000000      0.435413753811                 3
   184   183   185   197     1      0.000000000000      0.435413753811                 3
    11    10    13    32     1    180.000000000000     15.321515534534                 2
    54    55    56    73     1      0.000000000000      0.198220506977                 3
   147   152   151   153     1    180.000000000000     15.321515534534                 2
    94    93    92   114     1    180.000000000000     15.321515534534                 2
     7     8    15    16     1    180.000000000000      4.866977563957                 2
   166   148   149   167     1    180.000000000000     15.321515534534                 2
   139   138   156   175     1    180.000000000000     15.321515534534                 2
   126   109   110   133     1      0.000000000000      3.391162299558                 1
   126   109   110   133     1    180.000000000000     -1.259707815441                 2
   126   109   110   133     1      0.000000000000     -0.381726901395                 3
   126   109   110   133     1    180.000000000000     -0.007834617511                 4
    92    93    94    95     1    180.000000000000     15.321515534534                 2
   143   142   141   160     1    180.000000000000     15.321515534534                 2
     8    15    20    19     1    180.000000000000     15.321515534534                 2
    51    58    57    54     1    180.000000000000     15.321515534534                 2
   141   140   147   152     1    180.000000000000      4.866977563957                 2
   150   149   148   166     1    180.000000000000     15.321515534534                 2
   140   139   146   165     1    180.000000000000     15.321515534534                 2
   152   147   148   166     1    180.000000000000     15.321515534534                 2
   138   156   157   176     1    180.000000000000     15.321515534534                 2
   133   135   136   158     1    180.000000000000     15.321515534534                 2
    64    63    65    66     1      0.000000000000      0.319327265238                 1
    64    63    65    66     1    180.000000000000      1.453262701414                 2
    64    63    65    66     1      0.000000000000     -0.246342236944                 3
    64    63    65    66     1    180.000000000000     -0.009580626465                 4
   108   107   109   126     1      0.000000000000     -0.111667099222                 1
   108   107   109   126     1    180.000000000000     -0.842238491321                 2
   108   107   109   126     1      0.000000000000     -0.271602403482                 3
   108   107   109   126     1    180.000000000000      0.197497532854                 4
    22    21    23    41     1      0.000000000000      0.483407861024                 3
   186   183   182   189     1      0.000000000000      0.466735938990                 3
   186   183   182   189     1      0.000000000000      1.436153909162                 1
   140   139   146   145     1    180.000000000000     15.321515534534                 2
   182   183   185   196     1      0.000000000000      0.435413753811                 3
    20    15    16    34     1    180.000000000000     15.321515534534                 2
    21    19    18    36     1    180.000000000000     15.321515534534                 2
   186   183   184   194     1      0.000000000000      0.466735938990                 3
   186   183   184   194     1      0.000000000000      1.436153909162                 1
    94    95    96   103     1    180.000000000000     15.321515534534                 2
   150   151   152   169     1    180.000000000000     15.321515534534                 2
     9     8    15    20     1    180.000000000000      4.866977563957                 2
    66    89    91    92     1      0.000000000000      0.274487762821                 1
    66    89    91    92     1    180.000000000000      3.019538213351                 2
    66    89    91    92     1      0.000000000000     -0.014779178335                 3
    66    89    91    92     1    180.000000000000     -0.505949306129                 4
   140   147   152   151     1    180.000000000000     15.321515534534                 2
     7     8    15    20     1    180.000000000000      4.866977563957                 2
    89    91   113   112     1    180.000000000000     15.321515534534                 2
   138   139   146   165     1    180.000000000000     15.321515534534                 2
     4     3     1   178     1      0.000000000000     -0.092038780573                 1
     4     3     1   178     1    180.000000000000      2.118738132728                 2
     4     3     1   178     1      0.000000000000     -0.147731088038                 3
     4     3     1   178     1    180.000000000000     -0.011541837973                 4
    95    96   103   108     1    180.000000000000      4.866977563957                 2
    52    53    54    57     1    180.000000000000     15.321515534534                 2
   138   139   146   145     1    180.000000000000     15.321515534534                 2
    95    94    93   115     1    180.000000000000     15.321515534534                 2
   155   153   154   187     1      0.000000000000      0.143907056470                 1
   155   153   154   187     1    180.000000000000     -1.104937930908                 2
   155   153   154   187     1      0.000000000000     -1.751074622900                 3
   155   153   154   187     1    180.000000000000     -0.525935606810                 4
    49    50    68    87     1    180.000000000000     15.321515534534                 2
    49    50    51    52     1      0.000000000000     -0.248922474306                 1
    49    50    51    52     1    180.000000000000      5.422273188333                 2
    49    50    51    52     1      0.000000000000     -0.207395652714                 3
    49    50    51    52     1    180.000000000000      0.324889992629                 4
    45    47    69    88     1    180.000000000000     15.321515534534                 2
    97    98    99   100     1      0.000000000000      0.096562646130                 1
    97    98    99   100     1    180.000000000000      9.051163262839                 2
    97    98    99   100     1      0.000000000000      0.460621027180                 3
    97    98    99   100     1    180.000000000000      0.628447028268                 4
    95    96    97    98     1    180.000000000000     15.321515534534                 2
   142   143   144   162     1      0.000000000000      0.198220506977                 3
   107   109   110   133     1      0.000000000000     -3.680084993523                 1
   107   109   110   133     1    180.000000000000      1.436743590150                 2
   107   109   110   133     1      0.000000000000     -0.493284102028                 3
   107   109   110   133     1    180.000000000000     -0.782044469430                 4
     7     8     9    28     1    180.000000000000     15.321515534534                 2
     3    25    24    43     1    180.000000000000     15.321515534534                 2
   152   151   153   155     1      0.000000000000     -0.115745833916                 1
   152   151   153   155     1    180.000000000000      0.130895252211                 2
   152   151   153   155     1      0.000000000000     -0.190742393933                 3
   152   151   153   155     1    180.000000000000     -0.068061630921                 4
   170   153   155   172     1      0.000000000000      0.799950138473                 3
    45    47    69    68     1    180.000000000000     15.321515534534                 2
   141   140   139   146     1    180.000000000000     15.321515534534                 2
    35    17    18    36     1    180.000000000000     15.321515534534                 2
    59    64    63    65     1    180.000000000000     15.321515534534                 2
   182   183   186   187     1      0.000000000000      3.403725560223                 1
   182   183   186   187     1    180.000000000000      0.455793765486                 2
   182   183   186   187     1      0.000000000000     -0.722731447478                 3
   182   183   186   187     1    180.000000000000      0.853070353964                 4
    89    91   113   132     1    180.000000000000     15.321515534534                 2
   138   137   136   158     1    180.000000000000     15.321515534534                 2
    15    20    19    21     1    180.000000000000     15.321515534534                 2
   147   152   151   150     1    180.000000000000     15.321515534534                 2
   154   153   155   174     1      0.000000000000      0.483407861024                 3
    24     6     5    27     1    180.000000000000     15.321515534534                 2
    38    21    23    42     1      0.000000000000      0.799950138473                 3
   139   146   145   164     1    180.000000000000     15.321515534534                 2
   149   150   151   152     1    180.000000000000     15.321515534534                 2
    46    45    47    69     1      0.000000000000     -0.291468447114                 1
    46    45    47    69     1    180.000000000000      0.943729609264                 2
    46    45    47    69     1      0.000000000000      0.014545277512                 3
    46    45    47    69     1    180.000000000000      0.588418914261                 4
   171   154   187   188     1      0.000000000000      2.797111079610                 1
   171   154   187   188     1    180.000000000000      1.941290349631                 2
   171   154   187   188     1      0.000000000000     -0.027598990012                 3
   171   154   187   188     1    180.000000000000     -0.539873804674                 4
    97    98   101   102     1    180.000000000000     15.321515534534                 2
     7    14    13    32     1    180.000000000000     15.321515534534                 2
    20    19    18    36     1    180.000000000000     15.321515534534                 2
    22    45    47    69     1      0.000000000000      0.274487762821                 1
    22    45    47    69     1    180.000000000000      3.019538213351                 2
    22    45    47    69     1      0.000000000000     -0.014779178335                 3
    22    45    47    69     1    180.000000000000     -0.505949306129                 4
     2     1   178   177     1      0.000000000000      1.862807185822                 1
     2     1   178   177     1    180.000000000000      7.256706173755                 2
     2     1   178   177     1      0.000000000000     -1.829339050982                 3
     2     1   178   177     1    180.000000000000      0.486025787732                 4
    82    65    67    85     1      0.000000000000      0.799950138473                 3
   145   142   141   160     1    180.000000000000     15.321515534534                 2
   105   106   107   108     1    180.000000000000     15.321515534534                 2
    53    54    55    56     1      0.000000000000      0.096562646130                 1
    53    54    55    56     1    180.000000000000      9.051163262839                 2
    53    54    55    56     1      0.000000000000      0.460621027180                 3
    53    54    55    56     1    180.000000000000      0.628447028268                 4
     1   178   177   181     1      0.000000000000      0.198220506977                 3
   147   148   149   150     1    180.000000000000     15.321515534534                 2
    92    91   113   132     1    180.000000000000     15.321515534534                 2
   122   104   105   123     1    180.000000000000     15.321515534534                 2
    10    11    12    31     1      0.000000000000      0.198220506977                 3
   114    92    93   115     1    180.000000000000     15.321515534534                 2
    17    18    19    21     1    180.000000000000     15.321515534534                 2
    49    48    47    69     1    180.000000000000     15.321515534534                 2
    65    66    89    91     1      0.000000000000     -0.393051315741                 1
    65    66    89    91     1    180.000000000000      7.447721220773                 2
    65    66    89    91     1      0.000000000000      1.550794852412                 3
    65    66    89    91     1    180.000000000000      2.531245346694                 4
    96   103   104   105     1    180.000000000000     15.321515534534                 2
    98    99   100   119     1      0.000000000000      0.198220506977                 3
    50    68    69    88     1    180.000000000000     15.321515534534                 2
    60    61    62    63     1    180.000000000000     15.321515534534                 2
    79    61    62    80     1    180.000000000000     15.321515534534                 2
    48    49    50    51     1    180.000000000000     15.321515534534                 2
   126   109   111   130     1      0.000000000000      0.799950138473                 3
    53    54    57    58     1    180.000000000000     15.321515534534                 2
   134   133   135   157     1      0.000000000000     -0.291468447114                 1
   134   133   135   157     1    180.000000000000      0.943729609264                 2
   134   133   135   157     1      0.000000000000      0.014545277512                 3
   134   133   135   157     1    180.000000000000      0.588418914261                 4
    55    54    53    72     1    180.000000000000     15.321515534534                 2
   143   142   145   164     1    180.000000000000     15.321515534534                 2
   156   138   137   159     1    180.000000000000     15.321515534534                 2
    15    16    17    18     1    180.000000000000     15.321515534534                 2
   170   153   154   187     1      0.000000000000      3.574320968312                 1
   170   153   154   187     1    180.000000000000     -1.013704646495                 2
   170   153   154   187     1      0.000000000000     -1.182440296463                 3
   170   153   154   187     1    180.000000000000     -0.113535463369                 4
    51    50    68    87     1    180.000000000000     15.321515534534                 2
    50    51    58    57     1    180.000000000000     15.321515534534                 2
    52    59    64    81     1    180.000000000000     15.321515534534                 2
   144   143   142   145     1      0.000000000000      0.096562646130                 1
   144   143   142   145     1    180.000000000000      9.051163262839                 2
   144   143   142   145     1      0.000000000000      0.460621027180                 3
   144   143   142   145     1    180.000000000000      0.628447028268                 4
   148   147   152   169     1    180.000000000000     15.321515534534                 2
   140   139   138   156     1      0.000000000000     -0.248922474306                 1
   140   139   138   156     1    180.000000000000      5.422273188333                 2
   140   139   138   156     1      0.000000000000     -0.207395652714                 3
   140   139   138   156     1    180.000000000000      0.324889992629                 4
   184   183   186   187     1      0.000000000000      3.403725560223                 1
   184   183   186   187     1    180.000000000000      0.455793765486                 2
   184   183   186   187     1      0.000000000000     -0.722731447478                 3
   184   183   186   187     1    180.000000000000      0.853070353964                 4
   150   151   153   170     1      0.000000000000     -0.081947038501                 1
   150   151   153   170     1    180.000000000000     -0.542076737958                 2
   150   151   153   170     1      0.000000000000     -0.216448126947                 3
   150   151   153   170     1    180.000000000000      0.316266568086                 4
    39    22    45    47     1      0.000000000000      0.916137150682                 1
    39    22    45    47     1    180.000000000000      7.692928051170                 2
    39    22    45    47     1      0.000000000000      0.503979796369                 3
    39    22    45    47     1    180.000000000000      0.333929757812                 4
    20    19    21    22     1      0.000000000000      0.319327265238                 1
    20    19    21    22     1    180.000000000000      1.453262701414                 2
    20    19    21    22     1      0.000000000000     -0.246342236944                 3
    20    19    21    22     1    180.000000000000     -0.009580626465                 4
     7     6    24    25     1    180.000000000000     15.321515534534                 2
   140   147   148   149     1    180.000000000000     15.321515534534                 2
    50    51    58    77     1    180.000000000000     15.321515534534                 2
    93    94   112   113     1    180.000000000000     15.321515534534                 2
    21    22    45    46     1      0.000000000000     -1.642314942943                 1
    21    22    45    46     1    180.000000000000     12.143776038342                 2
    21    22    45    46     1      0.000000000000      0.882664392185                 3
    21    22    45    46     1    180.000000000000     -0.666751512870                 4
   107   109   111   130     1      0.000000000000      0.483407861024                 3
   154   153   155   173     1      0.000000000000      0.483407861024                 3
   185   183   182   190     1      0.000000000000      0.435413753811                 3
    46    45    47    48     1      0.000000000000     -0.291468447114                 1
    46    45    47    48     1    180.000000000000      0.943729609264                 2
    46    45    47    48     1      0.000000000000      0.014545277512                 3
    46    45    47    48     1    180.000000000000      0.588418914261                 4
    52    59    60    61     1    180.000000000000     15.321515534534                 2
     8    15    16    17     1    180.000000000000     15.321515534534                 2
   138   139   140   141     1    180.000000000000     15.321515534534                 2
    22    45    47    48     1      0.000000000000      0.274487762821                 1
    22    45    47    48     1    180.000000000000      3.019538213351                 2
    22    45    47    48     1      0.000000000000     -0.014779178335                 3
    22    45    47    48     1    180.000000000000     -0.505949306129                 4
   186   183   185   195     1      0.000000000000      0.466735938990                 3
   186   183   185   195     1      0.000000000000      1.436153909162                 1
    19    21    23    41     1      0.000000000000      0.483407861024                 3
    19    21    22    39     1      0.000000000000      5.485802153513                 1
    19    21    22    39     1    180.000000000000      2.546265639162                 2
    19    21    22    39     1      0.000000000000      0.371337584977                 3
    19    21    22    39     1    180.000000000000      0.568707884241                 4
     6     5     4    26     1    180.000000000000     15.321515534534                 2
    63    62    61    79     1    180.000000000000     15.321515534534                 2
     6    24    25    44     1    180.000000000000     15.321515534534                 2
    96    95    94   112     1      0.000000000000     -0.248922474306                 1
    96    95    94   112     1    180.000000000000      5.422273188333                 2
    96    95    94   112     1      0.000000000000     -0.207395652714                 3
    96    95    94   112     1    180.000000000000      0.324889992629                 4
   108   107   109   111     1      0.000000000000     -0.209493772716                 1
   108   107   109   111     1    180.000000000000     -0.086696549584                 2
   108   107   109   111     1      0.000000000000     -0.245725149055                 3
   108   107   109   111     1    180.000000000000     -0.011192401362                 4
    38    21    23    41     1      0.000000000000      0.799950138473                 3
   142   145   146   165     1    180.000000000000     15.321515534534                 2
   110   109   111   130     1      0.000000000000      0.483407861024                 3
   106   107   109   126     1      0.000000000000     -0.111667099222                 1
   106   107   109   126     1    180.000000000000     -0.842238491321                 2
   106   107   109   126     1      0.000000000000     -0.271602403482                 3
   106   107   109   126     1    180.000000000000      0.197497532854                 4
   147   148   149   167     1    180.000000000000     15.321515534534                 2
    10     9     8    15     1    180.000000000000     15.321515534534                 2
     3    25    24     6     1    180.000000000000     15.321515534534                 2
   147   140   141   160     1    180.000000000000     15.321515534534                 2
    19    18    17    35     1    180.000000000000     15.321515534534                 2
    82    65    67    84     1      0.000000000000      0.799950138473                 3
     1   178   177   180     1      0.000000000000      0.198220506977                 3
    99    98   101   120     1    180.000000000000     15.321515534534                 2
    96    97    98    99     1    180.000000000000     15.321515534534                 2
   182   183   184   194     1      0.000000000000      0.435413753811                 3
    51    52    59    64     1    180.000000000000      4.866977563957                 2
    60    59    64    81     1    180.000000000000     15.321515534534                 2
     4     5     6     7     1    180.000000000000     15.321515534534                 2
    64    63    65    82     1      0.000000000000     -0.111667099222                 1
    64    63    65    82     1    180.000000000000     -0.842238491321                 2
    64    63    65    82     1      0.000000000000     -0.271602403482                 3
    64    63    65    82     1    180.000000000000      0.197497532854                 4
    60    61    62    80     1    180.000000000000     15.321515534534                 2
    83    66    89    90     1      0.000000000000      4.182570687614                 1
    83    66    89    90     1    180.000000000000      9.774548562162                 2
    83    66    89    90     1      0.000000000000     -0.099945007433                 3
    83    66    89    90     1    180.000000000000     -0.312229150711                 4
   139   140   141   160     1    180.000000000000     15.321515534534                 2
    65    66    89    90     1      0.000000000000     -1.642314942943                 1
    65    66    89    90     1    180.000000000000     12.143776038342                 2
    65    66    89    90     1      0.000000000000      0.882664392185                 3
    65    66    89    90     1    180.000000000000     -0.666751512870                 4
    48    49    50    68     1    180.000000000000     15.321515534534                 2
    98    99   100   118     1      0.000000000000      0.198220506977                 3
   146   139   140   147     1    180.000000000000     15.321515534534                 2
   139   138   137   159     1    180.000000000000     15.321515534534                 2
   137   136   135   157     1    180.000000000000     15.321515534534                 2
     9     8    15    16     1    180.000000000000      4.866977563957                 2
    51    52    53    54     1    180.000000000000     15.321515534534                 2
     5     6    24    43     1    180.000000000000     15.321515534534                 2
     8     7     6    24     1      0.000000000000     -0.248922474306                 1
     8     7     6    24     1    180.000000000000      5.422273188333                 2
     8     7     6    24     1      0.000000000000     -0.207395652714                 3
     8     7     6    24     1    180.000000000000      0.324889992629                 4
     1     3     4    26     1    180.000000000000     15.321515534534                 2
    66    65    67    84     1      0.000000000000      0.483407861024                 3
   126   109   111   129     1      0.000000000000      0.799950138473                 3
    95    96   103   104     1    180.000000000000      4.866977563957                 2
   137   138   139   140     1      0.000000000000     -0.248922474306                 1
   137   138   139   140     1    180.000000000000      5.422273188333                 2
   137   138   139   140     1      0.000000000000     -0.207395652714                 3
   137   138   139   140     1    180.000000000000      0.324889992629                 4
    55    54    57    76     1    180.000000000000     15.321515534534                 2
    18    19    21    23     1      0.000000000000     -0.209493772716                 1
    18    19    21    23     1    180.000000000000     -0.086696549584                 2
    18    19    21    23     1      0.000000000000     -0.245725149055                 3
    18    19    21    23     1    180.000000000000     -0.011192401362                 4
    51    50    49    71     1    180.000000000000     15.321515534534                 2
    63    65    67    85     1      0.000000000000      0.483407861024                 3
     6     7     8     9     1    180.000000000000     15.321515534534                 2
    54    53    52    59     1    180.000000000000     15.321515534534                 2
    53    52    59    64     1    180.000000000000      4.866977563957                 2
     8    15    16    34     1    180.000000000000     15.321515534534                 2
    95   102   101   120     1    180.000000000000     15.321515534534                 2
    16    17    18    19     1    180.000000000000     15.321515534534                 2
   139   138   156   157     1    180.000000000000     15.321515534534                 2
   111   109   110   127     1      0.000000000000     -2.201337422850                 1
   111   109   110   127     1    180.000000000000     -0.596993296482                 2
   111   109   110   127     1      0.000000000000      1.351458656520                 3
   111   109   110   127     1    180.000000000000     -0.695635083798                 4
   185   183   184   192     1      0.000000000000      0.435413753811                 3
   109   107   108   125     1    180.000000000000     15.321515534534                 2
    55    54    57    58     1    180.000000000000     15.321515534534                 2
    91    92    93   115     1    180.000000000000     15.321515534534                 2
    50    51    52    53     1    180.000000000000     15.321515534534                 2
   153   151   150   168     1    180.000000000000     15.321515534534                 2
   140   147   148   166     1    180.000000000000     15.321515534534                 2
    62    63    65    67     1      0.000000000000     -0.209493772716                 1
    62    63    65    67     1    180.000000000000     -0.086696549584                 2
    62    63    65    67     1      0.000000000000     -0.245725149055                 3
    62    63    65    67     1    180.000000000000     -0.011192401362                 4
    54    55    56    75     1      0.000000000000      0.198220506977                 3
   106   107   108   125     1    180.000000000000     15.321515534534                 2
    11    10    13    14     1    180.000000000000     15.321515534534                 2
     7     6     5    27     1    180.000000000000     15.321515534534                 2
    52    59    60    78     1    180.000000000000     15.321515534534                 2
   135   136   137   159     1    180.000000000000     15.321515534534                 2
    14     7     6    24     1      0.000000000000      0.262670110903                 1
    14     7     6    24     1    180.000000000000      6.121679935206                 2
    14     7     6    24     1      0.000000000000      0.143102929049                 3
    14     7     6    24     1    180.000000000000      1.288193103368                 4
   100    99    98   101     1      0.000000000000      0.096562646130                 1
   100    99    98   101     1    180.000000000000      9.051163262839                 2
   100    99    98   101     1      0.000000000000      0.460621027180                 3
   100    99    98   101     1    180.000000000000      0.628447028268                 4
    13    10     9    28     1    180.000000000000     15.321515534534                 2
   110   133   135   157     1      0.000000000000      0.274487762821                 1
   110   133   135   157     1    180.000000000000      3.019538213351                 2
   110   133   135   157     1      0.000000000000     -0.014779178335                 3
   110   133   135   157     1    180.000000000000     -0.505949306129                 4
    47    69    68    50     1    180.000000000000     15.321515534534                 2
   185   183   182   189     1      0.000000000000      0.435413753811                 3
    82    65    66    83     1      0.000000000000     -3.520647105606                 1
    82    65    66    83     1    180.000000000000      0.638103264990                 2
    82    65    66    83     1      0.000000000000      0.741921146398                 3
    82    65    66    83     1    180.000000000000     -0.338995565113                 4
   151   153   155   173     1      0.000000000000      0.483407861024                 3
     3     4     5     6     1    180.000000000000     15.321515534534                 2
    59    60    61    62     1    180.000000000000     15.321515534534                 2
   183   186   187   188     1      0.000000000000      1.567840373549                 1
   183   186   187   188     1    180.000000000000      7.214024003457                 2
   183   186   187   188     1      0.000000000000      0.501503632629                 3
   183   186   187   188     1    180.000000000000      0.466382938060                 4
   186   183   182   191     1      0.000000000000      0.466735938990                 3
   186   183   182   191     1      0.000000000000      1.436153909162                 1
     8     9    10    11     1    180.000000000000     15.321515534534                 2
    91   113   112    94     1    180.000000000000     15.321515534534                 2
    19    21    23    40     1      0.000000000000      0.483407861024                 3
    90    89    91   113     1      0.000000000000     -0.291468447114                 1
    90    89    91   113     1    180.000000000000      0.943729609264                 2
    90    89    91   113     1      0.000000000000      0.014545277512                 3
    90    89    91   113     1    180.000000000000      0.588418914261                 4
   153   154   187   188     1      0.000000000000     -0.114130334323                 1
   153   154   187   188     1    180.000000000000      8.395248326301                 2
   153   154   187   188     1      0.000000000000      1.967987052417                 3
   153   154   187   188     1    180.000000000000     -0.696317780663                 4
    67    65    66    83     1      0.000000000000     -2.201337422850                 1
    67    65    66    83     1    180.000000000000     -0.596993296482                 2
    67    65    66    83     1      0.000000000000      1.351458656520                 3
    67    65    66    83     1    180.000000000000     -0.695635083798                 4
     4     5     6    24     1    180.000000000000     15.321515534534                 2
     1     3     4     5     1    180.000000000000     15.321515534534                 2
   102    95    96   103     1    180.000000000000     15.321515534534                 2
    53    52    51    58     1    180.000000000000     15.321515534534                 2
    96    95   102   101     1    180.000000000000     15.321515534534                 2
   171   154   187   186     1      0.000000000000      0.778014734531                 1
   171   154   187   186     1    180.000000000000      7.761535877614                 2
   171   154   187   186     1      0.000000000000      0.282245399057                 3
   171   154   187   186     1    180.000000000000      0.657669945786                 4
   152   151   150   168     1    180.000000000000     15.321515534534                 2
   110   109   111   129     1      0.000000000000      0.483407861024                 3
   150   151   153   155     1      0.000000000000     -0.115745833916                 1
   150   151   153   155     1    180.000000000000      0.130895252211                 2
   150   151   153   155     1      0.000000000000     -0.190742393933                 3
   150   151   153   155     1    180.000000000000     -0.068061630921                 4
   137   138   139   146     1      0.000000000000      0.262670110903                 1
   137   138   139   146     1    180.000000000000      6.121679935206                 2
   137   138   139   146     1      0.000000000000      0.143102929049                 3
   137   138   139   146     1    180.000000000000      1.288193103368                 4
   139   146   145   142     1    180.000000000000     15.321515534534                 2
    57    54    53    72     1    180.000000000000     15.321515534534                 2
   104   103   108   125     1    180.000000000000     15.321515534534                 2
    64    63    62    80     1    180.000000000000     15.321515534534                 2
    16    17    18    36     1    180.000000000000     15.321515534534                 2
   167   149   150   168     1    180.000000000000     15.321515534534                 2
   108   103   104   122     1    180.000000000000     15.321515534534                 2
    52    51    58    57     1    180.000000000000     15.321515534534                 2
   170   153   155   174     1      0.000000000000      0.799950138473                 3
   185   183   186   187     1      0.000000000000      3.403725560223                 1
   185   183   186   187     1    180.000000000000      0.455793765486                 2
   185   183   186   187     1      0.000000000000     -0.722731447478                 3
   185   183   186   187     1    180.000000000000      0.853070353964                 4
    54    57    58    77     1    180.000000000000     15.321515534534                 2
   111   109   110   133     1      0.000000000000      0.376448181625                 1
   111   109   110   133     1    180.000000000000     -0.628731554429                 2
   111   109   110   133     1      0.000000000000     -1.235676498799                 3
   111   109   110   133     1    180.000000000000     -0.373746021650                 4
    49    50    68    69     1    180.000000000000     15.321515534534                 2
   182   183   184   193     1      0.000000000000      0.435413753811                 3
   175   156   157   176     1    180.000000000000     15.321515534534                 2
    50    51    52    59     1    180.000000000000     15.321515534534                 2
    65    63    64    81     1    180.000000000000     15.321515534534                 2
    96    95   102   121     1    180.000000000000     15.321515534534                 2
     6     7     8    15     1    180.000000000000     15.321515534534                 2
   154   187   186   183     1      0.000000000000     -0.884640743069                 1
   154   187   186   183     1    180.000000000000     14.246024208577                 2
   154   187   186   183     1      0.000000000000     -0.164033477336                 3
   154   187   186   183     1    180.000000000000      1.020652775816                 4
   184   183   182   189     1      0.000000000000      0.435413753811                 3
   184   183   185   196     1      0.000000000000      0.435413753811                 3
     5     4     3    25     1    180.000000000000     15.321515534534                 2
    20    19    21    38     1      0.000000000000     -0.111667099222                 1
    20    19    21    38     1    180.000000000000     -0.842238491321                 2
    20    19    21    38     1      0.000000000000     -0.271602403482                 3
    20    19    21    38     1    180.000000000000      0.197497532854                 4
    61    62    63    65     1    180.000000000000     15.321515534534                 2
    95    94   112   131     1    180.000000000000     15.321515534534                 2
    91    92    93    94     1    180.000000000000     15.321515534534                 2
   127   110   133   135     1      0.000000000000      0.916137150682                 1
   127   110   133   135     1    180.000000000000      7.692928051170                 2
   127   110   133   135     1      0.000000000000      0.503979796369                 3
   127   110   133   135     1    180.000000000000      0.333929757812                 4
   157   135   136   158     1    180.000000000000     15.321515534534                 2
    11    10     9    28     1    180.000000000000     15.321515534534                 2
    18    19    21    22     1      0.000000000000      0.319327265238                 1
    18    19    21    22     1    180.000000000000      1.453262701414                 2
    18    19    21    22     1      0.000000000000     -0.246342236944                 3
    18    19    21    22     1    180.000000000000     -0.009580626465                 4
    63    65    67    84     1      0.000000000000      0.483407861024                 3
   103    96    97   116     1    180.000000000000     15.321515534534                 2
    49    50    51    58     1      0.000000000000      0.262670110903                 1
    49    50    51    58     1    180.000000000000      6.121679935206                 2
    49    50    51    58     1      0.000000000000      0.143102929049                 3
    49    50    51    58     1    180.000000000000      1.288193103368                 4
    82    65    66    89     1      0.000000000000      3.391162299558                 1
    82    65    66    89     1    180.000000000000     -1.259707815441                 2
    82    65    66    89     1      0.000000000000     -0.381726901395                 3
    82    65    66    89     1    180.000000000000     -0.007834617511                 4
    62    61    60    78     1    180.000000000000     15.321515534534                 2
    18    17    16    34     1    180.000000000000     15.321515534534                 2
     8     7    14    13     1    180.000000000000     15.321515534534                 2
    22    21    23    40     1      0.000000000000      0.483407861024                 3
   142   141   140   147     1    180.000000000000     15.321515534534                 2
    51    52    59    60     1    180.000000000000      4.866977563957                 2
   182   183   185   195     1      0.000000000000      0.435413753811                 3
    62    63    65    66     1      0.000000000000      0.319327265238                 1
    62    63    65    66     1    180.000000000000      1.453262701414                 2
    62    63    65    66     1      0.000000000000     -0.246342236944                 3
    62    63    65    66     1    180.000000000000     -0.009580626465                 4
   133   135   136   137     1    180.000000000000     15.321515534534                 2
    67    65    66    89     1      0.000000000000      0.376448181625                 1
    67    65    66    89     1    180.000000000000     -0.628731554429                 2
    67    65    66    89     1      0.000000000000     -1.235676498799                 3
    67    65    66    89     1    180.000000000000     -0.373746021650                 4
   186   183   184   193     1      0.000000000000      0.466735938990                 3
   186   183   184   193     1      0.000000000000      1.436153909162                 1
    99    98    97   116     1    180.000000000000     15.321515534534                 2
    18    19    20    37     1    180.000000000000     15.321515534534                 2
    47    69    68    87     1    180.000000000000     15.321515534534                 2
    56    55    54    57     1      0.000000000000      0.096562646130                 1
    56    55    54    57     1    180.000000000000      9.051163262839                 2
    56    55    54    57     1      0.000000000000      0.460621027180                 3
    56    55    54    57     1    180.000000000000      0.628447028268                 4
   149   148   147   152     1    180.000000000000     15.321515534534                 2
    52    59    64    63     1    180.000000000000     15.321515534534                 2
   141   142   145   164     1    180.000000000000     15.321515534534                 2
   148   147   152   151     1    180.000000000000     15.321515534534                 2
     6     7    14    33     1    180.000000000000     15.321515534534                 2
    59    60    61    79     1    180.000000000000     15.321515534534                 2
     6     7    14    13     1    180.000000000000     15.321515534534                 2
    91   113   112   131     1    180.000000000000     15.321515534534                 2
   142   143   144   161     1      0.000000000000      0.198220506977                 3
   110   133   135   136     1      0.000000000000      0.274487762821                 1
   110   133   135   136     1    180.000000000000      3.019538213351                 2
   110   133   135   136     1      0.000000000000     -0.014779178335                 3
   110   133   135   136     1    180.000000000000     -0.505949306129                 4
   143   142   145   146     1    180.000000000000     15.321515534534                 2
   151   153   155   172     1      0.000000000000      0.483407861024                 3
   152   151   153   154     1      0.000000000000      0.190168945013                 1
   152   151   153   154     1    180.000000000000      1.016716522115                 2
   152   151   153   154     1      0.000000000000     -0.201325063474                 3
   152   151   153   154     1    180.000000000000      0.143508076897                 4
    61    60    59    64     1    180.000000000000     15.321515534534                 2
    51    50    68    69     1    180.000000000000     15.321515534534                 2
    53    52    59    60     1    180.000000000000      4.866977563957                 2
     9    10    13    32     1    180.000000000000     15.321515534534                 2
   140   141   142   143     1    180.000000000000     15.321515534534                 2
    64    63    65    67     1      0.000000000000     -0.209493772716                 1
    64    63    65    67     1    180.000000000000     -0.086696549584                 2
    64    63    65    67     1      0.000000000000     -0.245725149055                 3
    64    63    65    67     1    180.000000000000     -0.011192401362                 4
   186   183   182   190     1      0.000000000000      0.466735938990                 3
   186   183   182   190     1      0.000000000000      1.436153909162                 1
    98   101   102   121     1    180.000000000000     15.321515534534                 2
     1     3    25    24     1    180.000000000000     15.321515534534                 2
   109   110   133   135     1      0.000000000000     -0.393051315741                 1
   109   110   133   135     1    180.000000000000      7.447721220773                 2
   109   110   133   135     1      0.000000000000      1.550794852412                 3
   109   110   133   135     1    180.000000000000      2.531245346694                 4
    90    89    91    92     1      0.000000000000     -0.291468447114                 1
    90    89    91    92     1    180.000000000000      0.943729609264                 2
    90    89    91    92     1      0.000000000000      0.014545277512                 3
    90    89    91    92     1    180.000000000000      0.588418914261                 4
     3     1   178   177     1      0.000000000000     -1.368177341489                 1
     3     1   178   177     1    180.000000000000     13.676281683789                 2
     3     1   178   177     1      0.000000000000      1.937518799802                 3
     3     1   178   177     1    180.000000000000      1.501034144756                 4
   150   151   153   154     1      0.000000000000      0.190168945013                 1
   150   151   153   154     1    180.000000000000      1.016716522115                 2
   150   151   153   154     1      0.000000000000     -0.201325063474                 3
   150   151   153   154     1    180.000000000000      0.143508076897                 4
    48    47    69    68     1    180.000000000000     15.321515534534                 2
   151   150   149   167     1    180.000000000000     15.321515534534                 2
    96   103   108   125     1    180.000000000000     15.321515534534                 2
   170   153   155   173     1      0.000000000000      0.799950138473                 3
    16    15    20    37     1    180.000000000000     15.321515534534                 2
   139   140   147   152     1    180.000000000000      4.866977563957                 2
    47    48    49    71     1    180.000000000000     15.321515534534                 2
    89    91    92   114     1    180.000000000000     15.321515534534                 2
    25     3     1   178     1      0.000000000000     -0.092038780573                 1
    25     3     1   178     1    180.000000000000      2.118738132728                 2
    25     3     1   178     1      0.000000000000     -0.147731088038                 3
    25     3     1   178     1    180.000000000000     -0.011541837973                 4
    10    11    12    30     1      0.000000000000      0.198220506977                 3
   108   107   106   124     1    180.000000000000     15.321515534534                 2
    17    18    19    20     1    180.000000000000     15.321515534534                 2
    96   103   108   107     1    180.000000000000     15.321515534534                 2
    95   102   101    98     1    180.000000000000     15.321515534534                 2
   186   183   185   197     1      0.000000000000      0.466735938990                 3
   186   183   185   197     1      0.000000000000      1.436153909162                 1
   184   183   185   195     1      0.000000000000      0.435413753811                 3
    99    98   101   102     1    180.000000000000     15.321515534534                 2
   113    91    92   114     1    180.000000000000     15.321515534534                 2
    26     4     5    27     1    180.000000000000     15.321515534534                 2
    60    59    64    63     1    180.000000000000     15.321515534534                 2
    61    62    63    64     1    180.000000000000     15.321515534534                 2
     2     1     3    25     1      0.000000000000      0.096729726145                 1
     2     1     3    25     1    180.000000000000      2.208453177871                 2
     2     1     3    25     1      0.000000000000      0.092704235419                 3
     2     1     3    25     1    180.000000000000      0.218617330356                 4
    21    19    20    37     1    180.000000000000     15.321515534534                 2
   149   150   151   153     1    180.000000000000     15.321515534534                 2
     7    14    13    10     1    180.000000000000     15.321515534534                 2
    97    96   103   108     1    180.000000000000      4.866977563957                 2
   106   105   104   122     1    180.000000000000     15.321515534534                 2
    70    48    49    71     1    180.000000000000     15.321515534534                 2
   107   106   105   123     1    180.000000000000     15.321515534534                 2
     8    15    20    37     1    180.000000000000     15.321515534534                 2
    82    65    67    86     1      0.000000000000      0.799950138473                 3
   148   149   150   168     1    180.000000000000     15.321515534534                 2
     7     8     9    10     1    180.000000000000     15.321515534534                 2
   134   133   135   136     1      0.000000000000     -0.291468447114                 1
   134   133   135   136     1    180.000000000000      0.943729609264                 2
   134   133   135   136     1      0.000000000000      0.014545277512                 3
   134   133   135   136     1    180.000000000000      0.588418914261                 4
    63    65    66    83     1      0.000000000000      5.485802153513                 1
    63    65    66    83     1    180.000000000000      2.546265639162                 2
    63    65    66    83     1      0.000000000000      0.371337584977                 3
    63    65    66    83     1    180.000000000000      0.568707884241                 4
    34    16    17    35     1    180.000000000000     15.321515534534                 2
    96    97    98   101     1    180.000000000000     15.321515534534                 2
   138   139   140   147     1    180.000000000000     15.321515534534                 2
    93    94    95    96     1      0.000000000000     -0.248922474306                 1
    93    94    95    96     1    180.000000000000      5.422273188333                 2
    93    94    95    96     1      0.000000000000     -0.207395652714                 3
    93    94    95    96     1    180.000000000000      0.324889992629                 4
    78    60    61    79     1    180.000000000000     15.321515534534                 2
   139   140   141   142     1    180.000000000000     15.321515534534                 2
   131   112   113   132     1    180.000000000000     15.321515534534                 2
    19    21    22    45     1      0.000000000000     -3.680084993523                 1
    19    21    22    45     1    180.000000000000      1.436743590150                 2
    19    21    22    45     1      0.000000000000     -0.493284102028                 3
    19    21    22    45     1    180.000000000000     -0.782044469430                 4
   186   183   184   192     1      0.000000000000      0.466735938990                 3
   186   183   184   192     1      0.000000000000      1.436153909162                 1
    66    65    83    89     4    180.000000000000      1.394666666667                 2
    63    62    64    65     4    180.000000000000      1.534133333333                 2
   107   108   109   106     4    180.000000000000      1.534133333333                 2
    50    49    51    68     4    180.000000000000      1.534133333333                 2
     9    10    28     8     4    180.000000000000      1.534133333333                 2
   156   157   175   138     4    180.000000000000      1.534133333333                 2
   106   124   105   107     4    180.000000000000      1.534133333333                 2
   104   122   103   105     4    180.000000000000      1.534133333333                 2
    66    83    89    65     4    180.000000000000      1.394666666667                 2
     4     5    26     3     4    180.000000000000      1.534133333333                 2
   104   105   122   103     4    180.000000000000      1.534133333333                 2
   141   160   140   142     4    180.000000000000      1.534133333333                 2
   152   169   147   151     4    180.000000000000      1.534133333333                 2
    61    62    79    60     4    180.000000000000      1.534133333333                 2
   106   105   107   124     4    180.000000000000      1.534133333333                 2
   148   147   149   166     4    180.000000000000      1.534133333333                 2
    61    79    60    62     4    180.000000000000      1.534133333333                 2
   107   106   108   109     4    180.000000000000      1.534133333333                 2
   151   150   152   153     4    180.000000000000      1.534133333333                 2
    13    32    10    14     4    180.000000000000      1.534133333333                 2
    48    49    70    47     4    180.000000000000      1.534133333333                 2
   113   132    91   112     4    180.000000000000      1.534133333333                 2
   112   131    94   113     4    180.000000000000      1.534133333333                 2
    20    37    15    19     4    180.000000000000      1.534133333333                 2
     6     5     7    24     4    180.000000000000      1.534133333333                 2
    91    89    92   113     4    180.000000000000      1.534133333333                 2
   136   137   158   135     4    180.000000000000      1.534133333333                 2
   157   156   176   135     4    180.000000000000      1.534133333333                 2
    17    35    16    18     4    180.000000000000      1.534133333333                 2
    60    61    78    59     4    180.000000000000      1.534133333333                 2
   147   152   140   148     4    180.000000000000      1.534133333333                 2
    14    33     7    13     4    180.000000000000      1.534133333333                 2
   136   158   135   137     4    180.000000000000      1.534133333333                 2
    94    95   112    93     4    180.000000000000      1.534133333333                 2
    50    68    49    51     4    180.000000000000      1.534133333333                 2
    66    89    65    83     4    180.000000000000      1.394666666667                 2
    51    52    58    50     4    180.000000000000      1.534133333333                 2
   139   138   140   146     4    180.000000000000      1.534133333333                 2
   110   133   109   127     4    180.000000000000      1.394666666667                 2
   152   151   169   147     4    180.000000000000      1.534133333333                 2
    53    52    54    72     4    180.000000000000      1.534133333333                 2
    52    59    51    53     4    180.000000000000      1.534133333333                 2
    94   112    93    95     4    180.000000000000      1.534133333333                 2
   112   113   131    94     4    180.000000000000      1.534133333333                 2
   147   148   152   140     4    180.000000000000      1.534133333333                 2
     7     8    14     6     4    180.000000000000      1.534133333333                 2
   136   135   137   158     4    180.000000000000      1.534133333333                 2
   150   168   149   151     4    180.000000000000      1.534133333333                 2
   156   175   138   157     4    180.000000000000      1.534133333333                 2
    89    91    66    90     4    180.000000000000      1.534133333333                 2
    62    61    63    80     4    180.000000000000      1.534133333333                 2
   137   136   138   159     4    180.000000000000      1.534133333333                 2
    52    51    53    59     4    180.000000000000      1.534133333333                 2
    64    81    59    63     4    180.000000000000      1.534133333333                 2
    98    97    99   101     4    180.000000000000      1.534133333333                 2
    92    93   114    91     4    180.000000000000      1.534133333333                 2
    25     3    24    44     4    180.000000000000      1.534133333333                 2
   154   187   153   171     4    180.000000000000      1.394666666667                 2
    51    50    52    58     4    180.000000000000      1.534133333333                 2
    69    68    88    47     4    180.000000000000      1.534133333333                 2
    60    78    59    61     4    180.000000000000      1.534133333333                 2
   103   108    96   104     4    180.000000000000      1.534133333333                 2
    63    64    65    62     4    180.000000000000      1.534133333333                 2
    59    60    64    52     4    180.000000000000      1.534133333333                 2
   101   102   120    98     4    180.000000000000      1.534133333333                 2
   149   150   167   148     4    180.000000000000      1.534133333333                 2
    47    45    48    69     4    180.000000000000      1.534133333333                 2
    24    25    43     6     4    180.000000000000      1.534133333333                 2
     3    25     1     4     4    180.000000000000      1.534133333333                 2
    45    47    22    46     4    180.000000000000      1.534133333333                 2
    93    94   115    92     4    180.000000000000      1.534133333333                 2
   142   143   145   141     4    180.000000000000      1.534133333333                 2
     5    27     4     6     4    180.000000000000      1.534133333333                 2
     8     9    15     7     4    180.000000000000      1.534133333333                 2
     8    15     7     9     4    180.000000000000      1.534133333333                 2
    49    71    48    50     4    180.000000000000      1.534133333333                 2
   108   103   107   125     4    180.000000000000      1.534133333333                 2
    60    59    61    78     4    180.000000000000      1.534133333333                 2
   110   127   133   109     4    180.000000000000      1.394666666667                 2
     8     7     9    15     4    180.000000000000      1.534133333333                 2
   187   154   186   188     4    180.000000000000     14.644000000000                 2
   103    96   104   108     4    180.000000000000      1.534133333333                 2
   133   135   110   134     4    180.000000000000      1.534133333333                 2
   101    98   102   120     4    180.000000000000      1.534133333333                 2
    24    43     6    25     4    180.000000000000      1.534133333333                 2
    98    99   101    97     4    180.000000000000      1.534133333333                 2
    97    98   116    96     4    180.000000000000      1.534133333333                 2
   105   104   106   123     4    180.000000000000      1.534133333333                 2
    93    92    94   115     4    180.000000000000      1.534133333333                 2
   151   153   150   152     4    180.000000000000      1.534133333333                 2
   135   157   133   136     4    180.000000000000      1.534133333333                 2
    92   114    91    93     4    180.000000000000      1.534133333333                 2
    13    10    14    32     4    180.000000000000      1.534133333333                 2
    48    47    49    70     4    180.000000000000      1.534133333333                 2
   104   103   105   122     4    180.000000000000      1.534133333333                 2
    10    11    13     9     4    180.000000000000      1.534133333333                 2
    54    55    57    53     4    180.000000000000      1.534133333333                 2
     1     3   178     2     4    180.000000000000     14.644000000000                 2
   103   104   108    96     4    180.000000000000      1.534133333333                 2
    97   116    96    98     4    180.000000000000      1.534133333333                 2
   139   140   146   138     4    180.000000000000      1.534133333333                 2
    25    24    44     3     4    180.000000000000      1.534133333333                 2
   149   167   148   150     4    180.000000000000      1.534133333333                 2
    19    21    18    20     4    180.000000000000      1.534133333333                 2
    22    39    45    21     4    180.000000000000      1.394666666667                 2
    18    19    36    17     4    180.000000000000      1.534133333333                 2
   110   109   127   133     4    180.000000000000      1.394666666667                 2
    58    77    51    57     4    180.000000000000      1.534133333333                 2
    62    80    61    63     4    180.000000000000      1.534133333333                 2
   149   148   150   167     4    180.000000000000      1.534133333333                 2
    57    76    54    58     4    180.000000000000      1.534133333333                 2
    45    46    47    22     4    180.000000000000      1.534133333333                 2
   102   101   121    95     4    180.000000000000      1.534133333333                 2
    51    58    50    52     4    180.000000000000      1.534133333333                 2
    91   113    89    92     4    180.000000000000      1.534133333333                 2
   187   188   154   186     4    180.000000000000     14.644000000000                 2
     6     7    24     5     4    180.000000000000      1.534133333333                 2
     3     4    25     1     4    180.000000000000      1.534133333333                 2
    89    66    90    91     4    180.000000000000      1.534133333333                 2
    57    58    76    54     4    180.000000000000      1.534133333333                 2
   102    95   101   121     4    180.000000000000      1.534133333333                 2
    25    44     3    24     4    180.000000000000      1.534133333333                 2
   138   156   137   139     4    180.000000000000      1.534133333333                 2
    62    63    80    61     4    180.000000000000      1.534133333333                 2
   156   138   157   175     4    180.000000000000      1.534133333333                 2
   133   134   135   110     4    180.000000000000      1.534133333333                 2
    59    64    52    60     4    180.000000000000      1.534133333333                 2
     5     6    27     4     4    180.000000000000      1.534133333333                 2
   154   153   171   187     4    180.000000000000      1.394666666667                 2
   101   120    98   102     4    180.000000000000      1.534133333333                 2
    15    20     8    16     4    180.000000000000      1.534133333333                 2
     9    28     8    10     4    180.000000000000      1.534133333333                 2
    52    53    59    51     4    180.000000000000      1.534133333333                 2
   145   164   142   146     4    180.000000000000      1.534133333333                 2
   112    94   113   131     4    180.000000000000      1.534133333333                 2
   140   139   141   147     4    180.000000000000      1.534133333333                 2
    64    63    81    59     4    180.000000000000      1.534133333333                 2
   145   146   164   142     4    180.000000000000      1.534133333333                 2
     9     8    10    28     4    180.000000000000      1.534133333333                 2
    58    51    57    77     4    180.000000000000      1.534133333333                 2
    15    16    20     8     4    180.000000000000      1.534133333333                 2
    58    57    77    51     4    180.000000000000      1.534133333333                 2
   108   107   125   103     4    180.000000000000      1.534133333333                 2
   137   138   159   136     4    180.000000000000      1.534133333333                 2
   137   159   136   138     4    180.000000000000      1.534133333333                 2
   157   176   135   156     4    180.000000000000      1.534133333333                 2
    96   103    95    97     4    180.000000000000      1.534133333333                 2
     5     4     6    27     4    180.000000000000      1.534133333333                 2
    68    50    69    87     4    180.000000000000      1.534133333333                 2
    68    69    87    50     4    180.000000000000      1.534133333333                 2
    17    18    35    16     4    180.000000000000      1.534133333333                 2
   154   171   187   153     4    180.000000000000      1.394666666667                 2
    47    48    69    45     4    180.000000000000      1.534133333333                 2
   113   112   132    91     4    180.000000000000      1.534133333333                 2
    64    59    63    81     4    180.000000000000      1.534133333333                 2
   142   145   141   143     4    180.000000000000      1.534133333333                 2
   108   125   103   107     4    180.000000000000      1.534133333333                 2
   138   139   156   137     4    180.000000000000      1.534133333333                 2
    20    15    19    37     4    180.000000000000      1.534133333333                 2
    16    34    15    17     4    180.000000000000      1.534133333333                 2
    69    47    68    88     4    180.000000000000      1.534133333333                 2
   146   165   139   145     4    180.000000000000      1.534133333333                 2
    22    45    21    39     4    180.000000000000      1.394666666667                 2
    49    50    71    48     4    180.000000000000      1.534133333333                 2
     1     2     3   178     4    180.000000000000     14.644000000000                 2
   113    91   112   132     4    180.000000000000      1.534133333333                 2
   142   141   143   145     4    180.000000000000      1.534133333333                 2
   187   186   188   154     4    180.000000000000     14.644000000000                 2
    45    22    46    47     4    180.000000000000      1.534133333333                 2
     6    24     5     7     4    180.000000000000      1.534133333333                 2
   141   142   160   140     4    180.000000000000      1.534133333333                 2
   150   149   151   168     4    180.000000000000      1.534133333333                 2
     4     3     5    26     4    180.000000000000      1.534133333333                 2
     7    14     6     8     4    180.000000000000      1.534133333333                 2
    47    69    45    48     4    180.000000000000      1.534133333333                 2
    24     6    25    43     4    180.000000000000      1.534133333333                 2
    63    65    62    64     4    180.000000000000      1.534133333333                 2
   147   140   148   152     4    180.000000000000      1.534133333333                 2
   145   142   146   164     4    180.000000000000      1.534133333333                 2
    97    96    98   116     4    180.000000000000      1.534133333333                 2
    20    19    37    15     4    180.000000000000      1.534133333333                 2
    16    15    17    34     4    180.000000000000      1.534133333333                 2
    15     8    16    20     4    180.000000000000      1.534133333333                 2
    16    17    34    15     4    180.000000000000      1.534133333333                 2
    61    60    62    79     4    180.000000000000      1.534133333333                 2
   140   147   139   141     4    180.000000000000      1.534133333333                 2
   107   109   106   108     4    180.000000000000      1.534133333333                 2
    92    91    93   114     4    180.000000000000      1.534133333333                 2
    14    13    33     7     4    180.000000000000      1.534133333333                 2
    19    20    21    18     4    180.000000000000      1.534133333333                 2
     3     1     4    25     4    180.000000000000      1.534133333333                 2
    95    96   102    94     4    180.000000000000      1.534133333333                 2
    89    90    91    66     4    180.000000000000      1.534133333333                 2
    59    52    60    64     4    180.000000000000      1.534133333333                 2
   151   152   153   150     4    180.000000000000      1.534133333333                 2
   105   123   104   106     4    180.000000000000      1.534133333333                 2
    13    14    32    10     4    180.000000000000      1.534133333333                 2
   102   121    95   101     4    180.000000000000      1.534133333333                 2
   157   135   156   176     4    180.000000000000      1.534133333333                 2
   135   133   136   157     4    180.000000000000      1.534133333333                 2
   146   145   165   139     4    180.000000000000      1.534133333333                 2
    49    48    50    71     4    180.000000000000      1.534133333333                 2
     1   178     2     3     4    180.000000000000     14.644000000000                 2
    50    51    68    49     4    180.000000000000      1.534133333333                 2
    95    94    96   102     4    180.000000000000      1.534133333333                 2
     4    26     3     5     4    180.000000000000      1.534133333333                 2
    10    13     9    11     4    180.000000000000      1.534133333333                 2
   148   149   166   147     4    180.000000000000      1.534133333333                 2
    18    36    17    19     4    180.000000000000      1.534133333333                 2
    98   101    97    99     4    180.000000000000      1.534133333333                 2
   135   136   157   133     4    180.000000000000      1.534133333333                 2
    22    21    39    45     4    180.000000000000      1.394666666667                 2
    18    17    19    36     4    180.000000000000      1.534133333333                 2
   105   106   123   104     4    180.000000000000      1.534133333333                 2
    48    70    47    49     4    180.000000000000      1.534133333333                 2
   106   107   124   105     4    180.000000000000      1.534133333333                 2
    91    92   113    89     4    180.000000000000      1.534133333333                 2
    19    18    20    21     4    180.000000000000      1.534133333333                 2
   138   137   139   156     4    180.000000000000      1.534133333333                 2
   150   151   168   149     4    180.000000000000      1.534133333333                 2
    96    97   103    95     4    180.000000000000      1.534133333333                 2
    93   115    92    94     4    180.000000000000      1.534133333333                 2
    17    16    18    35     4    180.000000000000      1.534133333333                 2
    57    54    58    76     4    180.000000000000      1.534133333333                 2
    94    93    95   112     4    180.000000000000      1.534133333333                 2
    69    88    47    68     4    180.000000000000      1.534133333333                 2
   152   147   151   169     4    180.000000000000      1.534133333333                 2
    10     9    11    13     4    180.000000000000      1.534133333333                 2
    54    57    53    55     4    180.000000000000      1.534133333333                 2
   139   146   138   140     4    180.000000000000      1.534133333333                 2
     7     6     8    14     4    180.000000000000      1.534133333333                 2
    53    72    52    54     4    180.000000000000      1.534133333333                 2
   146   139   145   165     4    180.000000000000      1.534133333333                 2
    68    87    50    69     4    180.000000000000      1.534133333333                 2
    14     7    13    33     4    180.000000000000      1.534133333333                 2
    54    53    55    57     4    180.000000000000      1.534133333333                 2
    96    95    97   103     4    180.000000000000      1.534133333333                 2
   133   110   134   135     4    180.000000000000      1.534133333333                 2
    53    54    72    52     4    180.000000000000      1.534133333333                 2
   141   140   142   160     4    180.000000000000      1.534133333333                 2
   140   141   147   139     4    180.000000000000      1.534133333333                 2
   148   166   147   149     4    180.000000000000      1.534133333333                 2
    95   102    94    96     4    180.000000000000      1.534133333333                 2

[ settles ]
;i  funct   dOH  dHH


[ exclusions ]
;ai    aj

[ moleculetype ]
MOL1	         3

[ atoms ]
;index, atom type, resnum, resname, name, cgnr, charge, mass
     1 MOL1_0       2 MOL1     Cl         1     -0.113980001211     35.453200000000
     2 MOL1_1       2 MOL1     C          1      0.223370002210     12.010780000000
     3 MOL1_2       2 MOL1     Cl         1     -0.113980001211     35.453200000000
     4 MOL1_3       2 MOL1     Cl         1     -0.113980001211     35.453200000000
     5 MOL1_4       2 MOL1     H          1      0.118570001423      1.007947000000

[ pairs ]
;ai    aj   funct

[ bonds ]
;ai    aj   funct r k
     1      2      1      0.179147538137  144269.526418976020 
     2      3      1      0.179147538137  144269.526418976020 
     2      4      1      0.179147538137  144269.526418976020 
     2      5      1      0.109389949263  309655.084322414012 

[ angles ]
;ai    aj   ak   funct theta  k
     3      2      4      1     116.547586263400     445.222086509286 
     1      2      4      1     116.547586263400     445.222086509286 
     4      2      5      1     116.547586263400     445.222086509286 
     1      2      3      1     116.547586263400     445.222086509286 
     3      2      5      1     116.547586263400     445.222086509286 
     1      2      5      1     116.547586263400     445.222086509286 

[ dihedrals ]
;ai    aj   ak   al   funct phi  k

[ settles ]
;i  funct   dOH  dHH


[ exclusions ]
;ai    aj


[ system ]
;name
FOO

[ molecules ]
;name	number
mop_tetramer.pdb	1
MOL1	634

