Generated by Interchange
3367
    1mop_t    C    1   2.373   1.270   0.979
    1mop_t    O    2   2.380   1.392   0.988
    1mop_t    C    3   2.414   1.195   0.859
    1mop_t    C    4   2.356   1.074   0.822
    1mop_t    C    5   2.403   1.006   0.708
    1mop_t    C    6   2.508   1.058   0.631
    1mop_t    C    7   2.560   0.987   0.513
    1mop_t    C    8   2.482   0.961   0.399
    1mop_t    C    9   2.536   0.885   0.293
    1mop_t    C   10   2.667   0.839   0.296
    1mop_t    O   11   2.703   0.765   0.187
    1mop_t    C   12   2.838   0.720   0.182
    1mop_t    C   13   2.747   0.870   0.406
    1mop_t    C   14   2.694   0.943   0.513
    1mop_t    C   15   2.343   1.007   0.386
    1mop_t    C   16   2.309   1.143   0.393
    1mop_t    C   17   2.176   1.184   0.387
    1mop_t    C   18   2.076   1.089   0.371
    1mop_t    C   19   2.109   0.953   0.361
    1mop_t    C   20   2.242   0.913   0.370
    1mop_t    C   21   2.003   0.847   0.350
    1mop_t    N   22   1.925   0.854   0.473
    1mop_t    C   23   1.924   0.876   0.222
    1mop_t    C   24   2.563   1.182   0.669
    1mop_t    C   25   2.516   1.250   0.781
    1mop_t    H   26   2.274   1.031   0.880
    1mop_t    H   27   2.355   0.912   0.680
    1mop_t    H   28   2.474   0.861   0.207
    1mop_t    H   29   2.850   0.662   0.090
    1mop_t    H   30   2.861   0.654   0.266
    1mop_t    H   31   2.907   0.805   0.178
    1mop_t    H   32   2.850   0.838   0.412
    1mop_t    H   33   2.757   0.963   0.599
    1mop_t    H   34   2.386   1.219   0.406
    1mop_t    H   35   2.150   1.289   0.396
    1mop_t    H   36   1.972   1.122   0.368
    1mop_t    H   37   2.266   0.807   0.369
    1mop_t    H   38   2.047   0.747   0.342
    1mop_t    H   39   1.865   0.934   0.477
    1mop_t    H   40   1.857   0.961   0.232
    1mop_t    H   41   1.864   0.791   0.190
    1mop_t    H   42   1.992   0.897   0.138
    1mop_t    H   43   2.644   1.226   0.610
    1mop_t    H   44   2.561   1.345   0.808
    1mop_t    C   45   1.982   0.811   0.592
    1mop_t    O   46   2.061   0.718   0.598
    1mop_t    C   47   1.950   0.891   0.716
    1mop_t    C   48   1.859   0.997   0.716
    1mop_t    C   49   1.845   1.080   0.828
    1mop_t    C   50   1.919   1.059   0.944
    1mop_t    C   51   1.904   1.149   1.060
    1mop_t    C   52   1.787   1.153   1.140
    1mop_t    C   53   1.776   1.247   1.244
    1mop_t    C   54   1.876   1.339   1.271
    1mop_t    O   55   1.850   1.426   1.373
    1mop_t    C   56   1.962   1.493   1.428
    1mop_t    C   57   1.989   1.338   1.190
    1mop_t    C   58   2.003   1.244   1.087
    1mop_t    C   59   1.669   1.076   1.104
    1mop_t    C   60   1.666   0.936   1.102
    1mop_t    C   61   1.554   0.868   1.055
    1mop_t    C   62   1.444   0.940   1.011
    1mop_t    C   63   1.445   1.080   1.015
    1mop_t    C   64   1.557   1.147   1.060
    1mop_t    C   65   1.330   1.164   0.965
    1mop_t    N   66   1.315   1.134   0.824
    1mop_t    C   67   1.210   1.127   1.054
    1mop_t    C   68   2.007   0.949   0.947
    1mop_t    C   69   2.022   0.866   0.834
    1mop_t    H   70   1.797   1.020   0.631
    1mop_t    H   71   1.773   1.162   0.823
    1mop_t    H   72   1.684   1.252   1.302
    1mop_t    H   73   1.928   1.549   1.515
    1mop_t    H   74   2.005   1.564   1.357
    1mop_t    H   75   2.038   1.421   1.462
    1mop_t    H   76   2.067   1.413   1.203
    1mop_t    H   77   2.091   1.249   1.023
    1mop_t    H   78   1.753   0.879   1.134
    1mop_t    H   79   1.554   0.759   1.050
    1mop_t    H   80   1.358   0.886   0.972
    1mop_t    H   81   1.561   1.256   1.057
    1mop_t    H   82   1.350   1.270   0.976
    1mop_t    H   83   1.269   1.047   0.807
    1mop_t    H   84   1.170   1.028   1.031
    1mop_t    H   85   1.129   1.198   1.044
    1mop_t    H   86   1.238   1.128   1.160
    1mop_t    H   87   2.064   0.927   1.036
    1mop_t    H   88   2.093   0.783   0.838
    1mop_t    C   89   1.410   1.177   0.732
    1mop_t    O   90   1.474   1.281   0.745
    1mop_t    C   91   1.444   1.082   0.620
    1mop_t    C   92   1.379   0.959   0.606
    1mop_t    C   93   1.423   0.863   0.513
    1mop_t    C   94   1.531   0.889   0.430
    1mop_t    C   95   1.578   0.783   0.339
    1mop_t    C   96   1.514   0.753   0.217
    1mop_t    C   97   1.569   0.655   0.132
    1mop_t    C   98   1.683   0.583   0.168
    1mop_t    O   99   1.729   0.494   0.075
    1mop_t    C  100   1.868   0.465   0.080
    1mop_t    C  101   1.737   0.601   0.294
    1mop_t    C  102   1.684   0.700   0.379
    1mop_t    C  103   1.378   0.801   0.188
    1mop_t    C  104   1.346   0.936   0.168
    1mop_t    C  105   1.213   0.976   0.157
    1mop_t    C  106   1.110   0.881   0.165
    1mop_t    C  107   1.140   0.746   0.185
    1mop_t    C  108   1.273   0.708   0.196
    1mop_t    C  109   1.033   0.640   0.206
    1mop_t    N  110   0.958   0.672   0.327
    1mop_t    C  111   0.942   0.629   0.084
    1mop_t    C  112   1.592   1.016   0.438
    1mop_t    C  113   1.549   1.111   0.532
    1mop_t    H  114   1.295   0.930   0.666
    1mop_t    H  115   1.371   0.768   0.508
    1mop_t    H  116   1.521   0.631   0.038
    1mop_t    H  117   1.893   0.403  -0.006
    1mop_t    H  118   1.895   0.409   0.170
    1mop_t    H  119   1.928   0.557   0.072
    1mop_t    H  120   1.822   0.544   0.330
    1mop_t    H  121   1.726   0.711   0.478
    1mop_t    H  122   1.425   1.011   0.165
    1mop_t    H  123   1.189   1.081   0.145
    1mop_t    H  124   1.007   0.915   0.159
    1mop_t    H  125   1.297   0.604   0.218
    1mop_t    H  126   1.080   0.542   0.223
    1mop_t    H  127   0.884   0.739   0.312
    1mop_t    H  128   0.888   0.722   0.065
    1mop_t    H  129   0.869   0.549   0.096
    1mop_t    H  130   1.002   0.607  -0.006
    1mop_t    H  131   1.674   1.041   0.371
    1mop_t    H  132   1.601   1.207   0.540
    1mop_t    C  133   1.023   0.669   0.450
    1mop_t    O  134   1.107   0.584   0.479
    1mop_t    C  135   0.994   0.782   0.545
    1mop_t    C  136   0.918   0.892   0.506
    1mop_t    C  137   0.901   1.003   0.588
    1mop_t    C  138   0.961   1.008   0.714
    1mop_t    C  139   0.942   1.128   0.797
    1mop_t    C  140   0.827   1.151   0.876
    1mop_t    C  141   0.822   1.265   0.958
    1mop_t    C  142   0.925   1.360   0.960
    1mop_t    O  143   0.910   1.463   1.048
    1mop_t    C  144   1.031   1.522   1.095
    1mop_t    C  145   1.029   1.346   0.869
    1mop_t    C  146   1.036   1.233   0.788
    1mop_t    C  147   0.705   1.072   0.855
    1mop_t    C  148   0.694   0.936   0.882
    1mop_t    C  149   0.579   0.865   0.844
    1mop_t    C  150   0.474   0.930   0.778
    1mop_t    C  151   0.482   1.067   0.751
    1mop_t    C  152   0.597   1.136   0.791
    1mop_t    C  153   0.376   1.143   0.674
    1mop_t    N  154   0.370   1.099   0.536
    1mop_t    C  155   0.240   1.136   0.743
    1mop_t    C  156   1.037   0.897   0.755
    1mop_t    C  157   1.054   0.785   0.671
    1mop_t    H  158   0.874   0.897   0.408
    1mop_t    H  159   0.840   1.086   0.555
    1mop_t    H  160   0.734   1.282   1.021
    1mop_t    H  161   1.005   1.595   1.172
    1mop_t    H  162   1.082   1.576   1.015
    1mop_t    H  163   1.097   1.447   1.140
    1mop_t    H  164   1.108   1.420   0.861
    1mop_t    H  165   1.117   1.226   0.716
    1mop_t    H  166   0.776   0.882   0.929
    1mop_t    H  167   0.574   0.758   0.862
    1mop_t    H  168   0.388   0.872   0.747
    1mop_t    H  169   0.607   1.242   0.765
    1mop_t    H  170   0.403   1.249   0.671
    1mop_t    H  171   0.311   1.022   0.508
    1mop_t    H  172   0.201   1.033   0.749
    1mop_t    H  173   0.166   1.196   0.690
    1mop_t    H  174   0.247   1.174   0.846
    1mop_t    H  175   1.085   0.897   0.853
    1mop_t    H  176   1.117   0.702   0.703
    1mop_t    C  177   2.317   1.245   1.206
    1mop_t    O  178   2.339   1.184   1.078
    1mop_t    H  179   2.410   1.244   1.263
    1mop_t    H  180   2.242   1.187   1.259
    1mop_t    H  181   2.281   1.348   1.197
    1mop_t    C  182   0.505   1.001   0.106
    1mop_t    C  183   0.560   1.071   0.231
    1mop_t    C  184   0.679   0.990   0.281
    1mop_t    C  185   0.603   1.213   0.193
    1mop_t    O  186   0.454   1.067   0.331
    1mop_t    C  187   0.472   1.130   0.449
    1mop_t    O  188   0.566   1.203   0.477
    1mop_t    H  189   0.581   0.996   0.027
    1mop_t    H  190   0.472   0.899   0.128
    1mop_t    H  191   0.418   1.055   0.067
    1mop_t    H  192   0.648   0.890   0.315
    1mop_t    H  193   0.724   1.040   0.366
    1mop_t    H  194   0.756   0.978   0.204
    1mop_t    H  195   0.517   1.276   0.171
    1mop_t    H  196   0.658   1.263   0.274
    1mop_t    H  197   0.670   1.212   0.107
    2MOL1    Cl  198   4.174   0.394   2.690
    2MOL1     C  199   4.343   0.343   2.681
    2MOL1    Cl  200   4.388   0.302   2.515
    2MOL1    Cl  201   4.450   0.470   2.744
    2MOL1     H  202   4.356   0.254   2.744
    2MOL1    Cl  203   1.842   2.483   4.403
    2MOL1     C  204   1.678   2.496   4.335
    2MOL1    Cl  205   1.645   2.360   4.226
    2MOL1    Cl  206   1.558   2.503   4.465
    2MOL1     H  207   1.672   2.589   4.278
    2MOL1    Cl  208   1.725   2.469   0.996
    2MOL1     C  209   1.844   2.339   1.009
    2MOL1    Cl  210   1.945   2.362   1.153
    2MOL1    Cl  211   1.763   2.181   1.015
    2MOL1     H  212   1.908   2.342   0.921
    2MOL1    Cl  213   2.630   0.866   3.861
    2MOL1     C  214   2.611   0.702   3.798
    2MOL1    Cl  215   2.681   0.583   3.908
    2MOL1    Cl  216   2.439   0.667   3.769
    2MOL1     H  217   2.663   0.696   3.702
    2MOL1    Cl  218   2.456   1.831   2.885
    2MOL1     C  219   2.312   1.748   2.822
    2MOL1    Cl  220   2.318   1.737   2.645
    2MOL1    Cl  221   2.298   1.586   2.894
    2MOL1     H  222   2.224   1.806   2.850
    2MOL1    Cl  223   5.110   1.219   0.699
    2MOL1     C  224   5.041   1.277   0.547
    2MOL1    Cl  225   4.866   1.249   0.544
    2MOL1    Cl  226   5.077   1.449   0.524
    2MOL1     H  227   5.086   1.221   0.465
    2MOL1    Cl  228   2.724   0.773   2.466
    2MOL1     C  229   2.888   0.790   2.528
    2MOL1    Cl  230   3.007   0.750   2.403
    2MOL1    Cl  231   2.915   0.955   2.589
    2MOL1     H  232   2.901   0.721   2.611
    2MOL1    Cl  233   3.898   4.048   4.914
    2MOL1     C  234   3.766   3.975   4.820
    2MOL1    Cl  235   3.654   4.100   4.762
    2MOL1    Cl  236   3.831   3.882   4.684
    2MOL1     H  237   3.711   3.907   4.885
    2MOL1    Cl  238   0.797   4.247   3.335
    2MOL1     C  239   0.778   4.143   3.476
    2MOL1    Cl  240   0.755   3.974   3.427
    2MOL1    Cl  241   0.919   4.157   3.584
    2MOL1     H  242   0.690   4.175   3.531
    2MOL1    Cl  243   3.979   1.310   2.452
    2MOL1     C  244   3.903   1.374   2.598
    2MOL1    Cl  245   3.777   1.492   2.557
    2MOL1    Cl  246   3.835   1.242   2.696
    2MOL1     H  247   3.979   1.425   2.658
    2MOL1    Cl  248   4.966   3.191   4.355
    2MOL1     C  249   4.883   3.095   4.479
    2MOL1    Cl  250   4.816   2.947   4.408
    2MOL1    Cl  251   4.993   3.056   4.612
    2MOL1     H  252   4.800   3.154   4.519
    2MOL1    Cl  253   0.500   2.753   1.526
    2MOL1     C  254   0.537   2.893   1.425
    2MOL1    Cl  255   0.661   2.853   1.305
    2MOL1    Cl  256   0.390   2.952   1.345
    2MOL1     H  257   0.575   2.973   1.489
    2MOL1    Cl  258   1.468   2.066   2.218
    2MOL1     C  259   1.522   2.031   2.383
    2MOL1    Cl  260   1.645   2.148   2.435
    2MOL1    Cl  261   1.384   2.033   2.495
    2MOL1     H  262   1.566   1.932   2.385
    2MOL1    Cl  263   4.400   4.465   0.854
    2MOL1     C  264   4.297   4.443   0.712
    2MOL1    Cl  265   4.269   4.271   0.681
    2MOL1    Cl  266   4.143   4.529   0.732
    2MOL1     H  267   4.349   4.486   0.625
    2MOL1    Cl  268   2.504   5.201   3.894
    2MOL1     C  269   2.631   5.264   3.789
    2MOL1    Cl  270   2.744   5.134   3.744
    2MOL1    Cl  271   2.562   5.339   3.645
    2MOL1     H  272   2.687   5.340   3.844
    2MOL1    Cl  273   2.971   1.778   3.206
    2MOL1     C  274   2.866   1.895   3.125
    2MOL1    Cl  275   2.854   1.858   2.952
    2MOL1    Cl  276   2.705   1.896   3.199
    2MOL1     H  277   2.910   1.994   3.136
    2MOL1    Cl  278   0.605   2.989   5.098
    2MOL1     C  279   0.677   3.114   4.995
    2MOL1    Cl  280   0.640   3.276   5.057
    2MOL1    Cl  281   0.852   3.090   4.982
    2MOL1     H  282   0.634   3.105   4.895
    2MOL1    Cl  283   4.623   3.389   2.208
    2MOL1     C  284   4.587   3.555   2.159
    2MOL1    Cl  285   4.700   3.607   2.032
    2MOL1    Cl  286   4.420   3.569   2.103
    2MOL1     H  287   4.601   3.620   2.245
    2MOL1    Cl  288   2.108   1.254   3.629
    2MOL1     C  289   2.159   1.162   3.486
    2MOL1    Cl  290   2.020   1.125   3.382
    2MOL1    Cl  291   2.283   1.251   3.396
    2MOL1     H  292   2.202   1.067   3.520
    2MOL1    Cl  293   1.363   2.067   3.018
    2MOL1     C  294   1.389   2.057   2.843
    2MOL1    Cl  295   1.357   1.893   2.785
    2MOL1    Cl  296   1.287   2.175   2.758
    2MOL1     H  297   1.494   2.081   2.822
    2MOL1    Cl  298   3.065   4.566   4.939
    2MOL1     C  299   3.140   4.651   4.803
    2MOL1    Cl  300   3.138   4.826   4.830
    2MOL1    Cl  301   3.305   4.593   4.777
    2MOL1     H  302   3.081   4.630   4.713
    2MOL1    Cl  303   2.609   2.364   1.929
    2MOL1     C  304   2.707   2.477   2.023
    2MOL1    Cl  305   2.872   2.486   1.958
    2MOL1    Cl  306   2.632   2.638   2.024
    2MOL1     H  307   2.713   2.441   2.126
    2MOL1    Cl  308   2.814   1.929   5.213
    2MOL1     C  309   2.730   2.013   5.081
    2MOL1    Cl  310   2.587   2.098   5.143
    2MOL1    Cl  311   2.839   2.126   5.000
    2MOL1     H  312   2.697   1.938   5.009
    2MOL1    Cl  313   4.868   0.256   1.456
    2MOL1     C  314   4.913   0.295   1.289
    2MOL1    Cl  315   4.867   0.163   1.180
    2MOL1    Cl  316   4.838   0.447   1.238
    2MOL1     H  317   5.022   0.308   1.284
    2MOL1    Cl  318   3.189   0.960   1.198
    2MOL1     C  319   3.055   0.856   1.248
    2MOL1    Cl  320   3.066   0.820   1.421
    2MOL1    Cl  321   2.899   0.933   1.210
    2MOL1     H  322   3.061   0.762   1.193
    2MOL1    Cl  323   4.048   3.340   1.843
    2MOL1     C  324   3.901   3.261   1.903
    2MOL1    Cl  325   3.934   3.093   1.948
    2MOL1    Cl  326   3.835   3.351   2.041
    2MOL1     H  327   3.826   3.262   1.823
    2MOL1    Cl  328   0.933   0.752   3.674
    2MOL1     C  329   1.065   0.869   3.665
    2MOL1    Cl  330   1.033   1.008   3.770
    2MOL1    Cl  331   1.219   0.793   3.708
    2MOL1     H  332   1.072   0.905   3.562
    2MOL1    Cl  333   0.531   5.112   4.199
    2MOL1     C  334   0.692   5.171   4.155
    2MOL1    Cl  335   0.780   5.049   4.063
    2MOL1    Cl  336   0.679   5.322   4.063
    2MOL1     H  337   0.747   5.192   4.247
    2MOL1    Cl  338   2.772   3.496   3.586
    2MOL1     C  339   2.857   3.616   3.487
    2MOL1    Cl  340   2.846   3.574   3.315
    2MOL1    Cl  341   2.791   3.778   3.515
    2MOL1     H  342   2.962   3.616   3.515
    2MOL1    Cl  343   0.424   0.804   2.329
    2MOL1     C  344   0.355   0.914   2.450
    2MOL1    Cl  345   0.416   1.078   2.426
    2MOL1    Cl  346   0.178   0.911   2.442
    2MOL1     H  347   0.386   0.880   2.549
    2MOL1    Cl  348   4.845   2.092   2.206
    2MOL1     C  349   4.976   1.996   2.135
    2MOL1    Cl  350   4.913   1.888   2.010
    2MOL1    Cl  351   5.101   2.102   2.068
    2MOL1     H  352   5.022   1.935   2.213
    2MOL1    Cl  353   1.387   3.665   2.261
    2MOL1     C  354   1.244   3.562   2.278
    2MOL1    Cl  355   1.200   3.546   2.449
    2MOL1    Cl  356   1.108   3.627   2.185
    2MOL1     H  357   1.268   3.463   2.239
    2MOL1    Cl  358   4.053   1.374   1.986
    2MOL1     C  359   3.910   1.441   2.065
    2MOL1    Cl  360   3.789   1.491   1.945
    2MOL1    Cl  361   3.840   1.323   2.178
    2MOL1     H  362   3.940   1.529   2.123
    2MOL1    Cl  363   0.718   2.344   2.319
    2MOL1     C  364   0.819   2.236   2.221
    2MOL1    Cl  365   0.720   2.139   2.112
    2MOL1    Cl  366   0.939   2.330   2.130
    2MOL1     H  367   0.873   2.169   2.289
    2MOL1    Cl  368   2.239   3.963   1.859
    2MOL1     C  369   2.207   3.800   1.798
    2MOL1    Cl  370   2.195   3.802   1.621
    2MOL1    Cl  371   2.334   3.688   1.850
    2MOL1     H  372   2.112   3.766   1.838
    2MOL1    Cl  373   1.063   4.468   1.313
    2MOL1     C  374   1.027   4.557   1.165
    2MOL1    Cl  375   1.053   4.731   1.189
    2MOL1    Cl  376   1.127   4.497   1.031
    2MOL1     H  377   0.922   4.541   1.139
    2MOL1    Cl  378   0.104   1.370   4.883
    2MOL1     C  379   0.239   1.292   4.798
    2MOL1    Cl  380   0.373   1.259   4.909
    2MOL1    Cl  381   0.185   1.143   4.719
    2MOL1     H  382   0.274   1.360   4.720
    2MOL1    Cl  383   1.177   3.815   4.789
    2MOL1     C  384   1.334   3.896   4.788
    2MOL1    Cl  385   1.462   3.784   4.739
    2MOL1    Cl  386   1.331   4.037   4.680
    2MOL1     H  387   1.356   3.931   4.889
    2MOL1    Cl  388   0.480   0.794   4.907
    2MOL1     C  389   0.319   0.745   4.851
    2MOL1    Cl  390   0.205   0.880   4.864
    2MOL1    Cl  391   0.326   0.685   4.685
    2MOL1     H  392   0.283   0.664   4.916
    2MOL1    Cl  393   1.160   4.474   2.222
    2MOL1     C  394   1.079   4.318   2.244
    2MOL1    Cl  395   1.175   4.212   2.349
    2MOL1    Cl  396   0.916   4.341   2.310
    2MOL1     H  397   1.070   4.270   2.146
    2MOL1    Cl  398   3.730   3.957   0.208
    2MOL1     C  399   3.683   4.126   0.179
    2MOL1    Cl  400   3.803   4.206   0.075
    2MOL1    Cl  401   3.522   4.135   0.106
    2MOL1     H  402   3.681   4.178   0.275
    2MOL1    Cl  403   1.454   1.655   1.442
    2MOL1     C  404   1.601   1.556   1.456
    2MOL1    Cl  405   1.745   1.659   1.457
    2MOL1    Cl  406   1.594   1.457   1.603
    2MOL1     H  407   1.606   1.490   1.370
    2MOL1    Cl  408   3.624   0.610   2.408
    2MOL1     C  409   3.488   0.662   2.306
    2MOL1    Cl  410   3.448   0.831   2.337
    2MOL1    Cl  411   3.525   0.636   2.135
    2MOL1     H  412   3.401   0.601   2.332
    2MOL1    Cl  413   0.108   0.545   1.850
    2MOL1     C  414   0.154   0.622   2.002
    2MOL1    Cl  415   0.324   0.673   1.997
    2MOL1    Cl  416   0.049   0.761   2.037
    2MOL1     H  417   0.142   0.550   2.083
    2MOL1    Cl  418   3.814   2.758   1.216
    2MOL1     C  419   3.892   2.636   1.113
    2MOL1    Cl  420   3.920   2.701   0.950
    2MOL1    Cl  421   4.043   2.580   1.185
    2MOL1     H  422   3.824   2.550   1.104
    2MOL1    Cl  423   4.956   1.634   3.352
    2MOL1     C  424   4.956   1.803   3.405
    2MOL1    Cl  425   4.808   1.840   3.496
    2MOL1    Cl  426   5.100   1.838   3.502
    2MOL1     H  427   4.958   1.867   3.316
    2MOL1    Cl  428   1.892   3.542   2.332
    2MOL1     C  429   2.041   3.597   2.410
    2MOL1    Cl  430   2.126   3.713   2.307
    2MOL1    Cl  431   2.006   3.667   2.569
    2MOL1     H  432   2.106   3.510   2.425
    2MOL1    Cl  433   0.498   0.328   4.738
    2MOL1     C  434   0.571   0.268   4.887
    2MOL1    Cl  435   0.504   0.110   4.931
    2MOL1    Cl  436   0.747   0.259   4.871
    2MOL1     H  437   0.548   0.338   4.968
    2MOL1    Cl  438   4.459   0.758   4.464
    2MOL1     C  439   4.550   0.613   4.509
    2MOL1    Cl  440   4.700   0.658   4.593
    2MOL1    Cl  441   4.451   0.506   4.610
    2MOL1     H  442   4.577   0.559   4.418
    2MOL1    Cl  443   3.982   4.653   1.666
    2MOL1     C  444   3.876   4.717   1.540
    2MOL1    Cl  445   3.969   4.758   1.395
    2MOL1    Cl  446   3.747   4.602   1.501
    2MOL1     H  447   3.829   4.809   1.578
    2MOL1    Cl  448   4.493   4.532   4.735
    2MOL1     C  449   4.478   4.573   4.907
    2MOL1    Cl  450   4.494   4.427   5.007
    2MOL1    Cl  451   4.599   4.694   4.954
    2MOL1     H  452   4.379   4.615   4.924
    2MOL1    Cl  453   4.214   4.367   1.733
    2MOL1     C  454   4.041   4.365   1.770
    2MOL1    Cl  455   4.001   4.226   1.872
    2MOL1    Cl  456   3.992   4.516   1.848
    2MOL1     H  457   3.986   4.355   1.676
    2MOL1    Cl  458   3.857   3.895   3.328
    2MOL1     C  459   3.845   4.070   3.351
    2MOL1    Cl  460   3.788   4.107   3.514
    2MOL1    Cl  461   4.001   4.148   3.320
    2MOL1     H  462   3.772   4.109   3.279
    2MOL1    Cl  463   0.257   0.786   3.401
    2MOL1     C  464   0.371   0.921   3.399
    2MOL1    Cl  465   0.371   1.005   3.555
    2MOL1    Cl  466   0.534   0.865   3.358
    2MOL1     H  467   0.339   0.992   3.322
    2MOL1    Cl  468   3.189   2.671   2.768
    2MOL1     C  469   3.040   2.655   2.863
    2MOL1    Cl  470   2.982   2.814   2.916
    2MOL1    Cl  471   2.915   2.571   2.770
    2MOL1     H  472   3.063   2.596   2.952
    2MOL1    Cl  473   3.596   2.261   2.363
    2MOL1     C  474   3.700   2.390   2.427
    2MOL1    Cl  475   3.606   2.539   2.451
    2MOL1    Cl  476   3.776   2.339   2.579
    2MOL1     H  477   3.778   2.410   2.354
    2MOL1    Cl  478   4.952   0.549   2.377
    2MOL1     C  479   5.018   0.705   2.429
    2MOL1    Cl  480   5.186   0.722   2.376
    2MOL1    Cl  481   4.919   0.838   2.366
    2MOL1     H  482   5.015   0.709   2.538
    2MOL1    Cl  483   0.264   0.128   3.086
    2MOL1     C  484   0.439   0.132   3.058
    2MOL1    Cl  485   0.488   0.001   2.949
    2MOL1    Cl  486   0.488   0.289   2.992
    2MOL1     H  487   0.490   0.117   3.154
    2MOL1    Cl  488   5.291   3.683   1.354
    2MOL1     C  489   5.115   3.692   1.338
    2MOL1    Cl  490   5.036   3.627   1.482
    2MOL1    Cl  491   5.063   3.859   1.309
    2MOL1     H  492   5.085   3.632   1.252
    2MOL1    Cl  493   1.607   3.284   1.115
    2MOL1     C  494   1.541   3.317   0.954
    2MOL1    Cl  495   1.668   3.378   0.846
    2MOL1    Cl  496   1.467   3.171   0.886
    2MOL1     H  497   1.464   3.394   0.964
    2MOL1    Cl  498   4.844   0.279   2.208
    2MOL1     C  499   4.866   0.107   2.174
    2MOL1    Cl  500   4.746   0.050   2.056
    2MOL1    Cl  501   5.030   0.075   2.115
    2MOL1     H  502   4.851   0.051   2.267
    2MOL1    Cl  503   2.945   4.414   4.126
    2MOL1     C  504   2.777   4.431   4.177
    2MOL1    Cl  505   2.764   4.424   4.354
    2MOL1    Cl  506   2.708   4.582   4.116
    2MOL1     H  507   2.719   4.348   4.136
    2MOL1    Cl  508   4.615   1.657   0.475
    2MOL1     C  509   4.696   1.719   0.330
    2MOL1    Cl  510   4.616   1.660   0.184
    2MOL1    Cl  511   4.700   1.896   0.332
    2MOL1     H  512   4.799   1.682   0.330
    2MOL1    Cl  513   2.965   4.555   4.374
    2MOL1     C  514   2.915   4.721   4.412
    2MOL1    Cl  515   2.743   4.726   4.454
    2MOL1    Cl  516   3.014   4.787   4.544
    2MOL1     H  517   2.931   4.783   4.323
    2MOL1    Cl  518   3.922   4.234   2.092
    2MOL1     C  519   3.775   4.138   2.065
    2MOL1    Cl  520   3.665   4.222   1.954
    2MOL1    Cl  521   3.816   3.978   2.002
    2MOL1     H  522   3.724   4.125   2.160
    2MOL1    Cl  523   0.940   0.073   3.427
    2MOL1     C  524   0.988   0.243   3.436
    2MOL1    Cl  525   0.897   0.326   3.563
    2MOL1    Cl  526   1.162   0.257   3.464
    2MOL1     H  527   0.964   0.290   3.341
    2MOL1    Cl  528   0.792   1.446   2.654
    2MOL1     C  529   0.952   1.376   2.624
    2MOL1    Cl  530   1.070   1.502   2.586
    2MOL1    Cl  531   1.006   1.281   2.765
    2MOL1     H  532   0.945   1.308   2.539
    2MOL1    Cl  533   1.031   0.920   2.418
    2MOL1     C  534   1.127   0.774   2.390
    2MOL1    Cl  535   1.042   0.664   2.280
    2MOL1    Cl  536   1.286   0.815   2.325
    2MOL1     H  537   1.141   0.723   2.485
    2MOL1    Cl  538   2.780   1.280   3.903
    2MOL1     C  539   2.901   1.151   3.908
    2MOL1    Cl  540   2.998   1.162   4.056
    2MOL1    Cl  541   2.823   0.992   3.898
    2MOL1     H  542   2.967   1.162   3.822
    2MOL1    Cl  543   4.758   5.233   1.286
    2MOL1     C  544   4.619   5.125   1.279
    2MOL1    Cl  545   4.523   5.155   1.133
    2MOL1    Cl  546   4.671   4.956   1.285
    2MOL1     H  547   4.556   5.144   1.367
    2MOL1    Cl  548   0.373   4.505   0.332
    2MOL1     C  549   0.531   4.427   0.313
    2MOL1    Cl  550   0.638   4.471   0.447
    2MOL1    Cl  551   0.513   4.251   0.302
    2MOL1     H  552   0.575   4.463   0.220
    2MOL1    Cl  553   2.317   3.497   2.144
    2MOL1     C  554   2.429   3.420   2.256
    2MOL1    Cl  555   2.465   3.527   2.393
    2MOL1    Cl  556   2.364   3.266   2.314
    2MOL1     H  557   2.522   3.399   2.203
    2MOL1    Cl  558   0.515   3.209   1.192
    2MOL1     C  559   0.380   3.136   1.105
    2MOL1    Cl  560   0.225   3.201   1.163
    2MOL1    Cl  561   0.396   3.162   0.931
    2MOL1     H  562   0.381   3.028   1.124
    2MOL1    Cl  563   3.309   3.791   1.007
    2MOL1     C  564   3.372   3.626   1.025
    2MOL1    Cl  565   3.515   3.626   1.129
    2MOL1    Cl  566   3.247   3.519   1.091
    2MOL1     H  567   3.401   3.589   0.926
    2MOL1    Cl  568   3.361   3.059   5.023
    2MOL1     C  569   3.196   2.994   5.019
    2MOL1    Cl  570   3.141   2.956   5.183
    2MOL1    Cl  571   3.086   3.108   4.941
    2MOL1     H  572   3.197   2.902   4.961
    2MOL1    Cl  573   1.204   1.428   1.879
    2MOL1     C  574   1.114   1.282   1.926
    2MOL1    Cl  575   1.215   1.138   1.910
    2MOL1    Cl  576   1.053   1.298   2.092
    2MOL1     H  577   1.028   1.272   1.859
    2MOL1    Cl  578   1.849   2.774   4.765
    2MOL1     C  579   1.982   2.664   4.725
    2MOL1    Cl  580   2.138   2.737   4.766
    2MOL1    Cl  581   1.962   2.509   4.810
    2MOL1     H  582   1.980   2.644   4.618
    2MOL1    Cl  583   2.284   4.321   4.142
    2MOL1     C  584   2.275   4.146   4.170
    2MOL1    Cl  585   2.405   4.095   4.279
    2MOL1    Cl  586   2.117   4.102   4.237
    2MOL1     H  587   2.288   4.095   4.075
    2MOL1    Cl  588   0.704   0.413   0.033
    2MOL1     C  589   0.784   0.309   0.151
    2MOL1    Cl  590   0.821   0.399   0.299
    2MOL1    Cl  591   0.682   0.168   0.188
    2MOL1     H  592   0.877   0.273   0.108
    2MOL1    Cl  593   0.939   0.663   3.010
    2MOL1     C  594   1.111   0.636   2.973
    2MOL1    Cl  595   1.201   0.788   2.983
    2MOL1    Cl  596   1.180   0.515   3.082
    2MOL1     H  597   1.118   0.598   2.871
    2MOL1    Cl  598   4.595   3.340   3.312
    2MOL1     C  599   4.494   3.198   3.279
    2MOL1    Cl  600   4.323   3.245   3.269
    2MOL1    Cl  601   4.545   3.119   3.129
    2MOL1     H  602   4.505   3.127   3.361
    2MOL1    Cl  603   3.268   4.730   5.259
    2MOL1     C  604   3.122   4.812   5.201
    2MOL1    Cl  605   2.978   4.743   5.277
    2MOL1    Cl  606   3.132   4.986   5.231
    2MOL1     H  607   3.115   4.796   5.093
    2MOL1    Cl  608   1.930   0.155   3.394
    2MOL1     C  609   1.848   0.109   3.544
    2MOL1    Cl  610   1.926   0.183   3.684
    2MOL1    Cl  611   1.676   0.154   3.537
    2MOL1     H  612   1.854   0.000   3.554
    2MOL1    Cl  613   1.099   0.917   4.024
    2MOL1     C  614   0.976   0.843   4.127
    2MOL1    Cl  615   0.815   0.904   4.087
    2MOL1    Cl  616   0.981   0.666   4.113
    2MOL1     H  617   0.998   0.869   4.231
    2MOL1    Cl  618   1.991   5.073   2.550
    2MOL1     C  619   2.055   5.140   2.399
    2MOL1    Cl  620   1.937   5.123   2.268
    2MOL1    Cl  621   2.100   5.310   2.421
    2MOL1     H  622   2.145   5.084   2.372
    2MOL1    Cl  623   1.292   1.170   2.355
    2MOL1     C  624   1.257   1.343   2.372
    2MOL1    Cl  625   1.348   1.412   2.508
    2MOL1    Cl  626   1.295   1.429   2.222
    2MOL1     H  627   1.151   1.354   2.393
    2MOL1    Cl  628   1.545   1.766   0.067
    2MOL1     C  629   1.630   1.650   0.170
    2MOL1    Cl  630   1.668   1.722   0.327
    2MOL1    Cl  631   1.534   1.503   0.191
    2MOL1     H  632   1.724   1.623   0.121
    2MOL1    Cl  633   4.343   3.212   2.385
    2MOL1     C  634   4.224   3.123   2.481
    2MOL1    Cl  635   4.115   3.031   2.375
    2MOL1    Cl  636   4.304   3.014   2.596
    2MOL1     H  637   4.164   3.195   2.537
    2MOL1    Cl  638   2.905   5.019   1.550
    2MOL1     C  639   2.961   4.865   1.482
    2MOL1    Cl  640   2.978   4.744   1.610
    2MOL1    Cl  641   2.849   4.808   1.357
    2MOL1     H  642   3.059   4.881   1.436
    2MOL1    Cl  643   4.159   2.498   3.372
    2MOL1     C  644   4.331   2.463   3.345
    2MOL1    Cl  645   4.351   2.324   3.237
    2MOL1    Cl  646   4.414   2.605   3.280
    2MOL1     H  647   4.376   2.439   3.442
    2MOL1    Cl  648   4.315   0.635   3.629
    2MOL1     C  649   4.289   0.797   3.694
    2MOL1    Cl  650   4.130   0.809   3.772
    2MOL1    Cl  651   4.418   0.840   3.809
    2MOL1     H  652   4.292   0.869   3.611
    2MOL1    Cl  653   4.151   1.175   3.353
    2MOL1     C  654   4.209   1.009   3.340
    2MOL1    Cl  655   4.230   0.963   3.170
    2MOL1    Cl  656   4.362   0.989   3.428
    2MOL1     H  657   4.135   0.942   3.385
    2MOL1    Cl  658   1.987   0.398   3.260
    2MOL1     C  659   2.102   0.337   3.381
    2MOL1    Cl  660   2.022   0.316   3.538
    2MOL1    Cl  661   2.174   0.184   3.327
    2MOL1     H  662   2.182   0.410   3.393
    2MOL1    Cl  663   0.358   4.540   3.753
    2MOL1     C  664   0.514   4.496   3.682
    2MOL1    Cl  665   0.491   4.405   3.532
    2MOL1    Cl  666   0.613   4.640   3.653
    2MOL1     H  667   0.567   4.432   3.753
    2MOL1    Cl  668   0.203   1.789   4.867
    2MOL1     C  669   0.295   1.931   4.814
    2MOL1    Cl  670   0.391   1.894   4.670
    2MOL1    Cl  671   0.187   2.068   4.784
    2MOL1     H  672   0.364   1.959   4.895
    2MOL1    Cl  673   1.185   5.229   5.107
    2MOL1     C  674   1.107   5.097   5.196
    2MOL1    Cl  675   1.224   5.016   5.302
    2MOL1    Cl  676   0.969   5.157   5.289
    2MOL1     H  677   1.071   5.024   5.123
    2MOL1    Cl  678   0.733   2.279   1.303
    2MOL1     C  679   0.821   2.218   1.162
    2MOL1    Cl  680   0.992   2.193   1.201
    2MOL1    Cl  681   0.748   2.068   1.102
    2MOL1     H  682   0.815   2.293   1.083
    2MOL1    Cl  683   4.874   1.856   2.367
    2MOL1     C  684   4.813   1.695   2.323
    2MOL1    Cl  685   4.677   1.709   2.210
    2MOL1    Cl  686   4.943   1.597   2.251
    2MOL1     H  687   4.778   1.645   2.413
    2MOL1    Cl  688   3.064   1.391   2.703
    2MOL1     C  689   2.928   1.340   2.602
    2MOL1    Cl  690   2.811   1.471   2.583
    2MOL1    Cl  691   2.986   1.285   2.443
    2MOL1     H  692   2.878   1.256   2.651
    2MOL1    Cl  693   3.351   0.539   2.706
    2MOL1     C  694   3.175   0.548   2.685
    2MOL1    Cl  695   3.132   0.682   2.577
    2MOL1    Cl  696   3.112   0.395   2.622
    2MOL1     H  697   3.130   0.566   2.782
    2MOL1    Cl  698   2.511   4.586   1.151
    2MOL1     C  699   2.388   4.693   1.081
    2MOL1    Cl  700   2.411   4.709   0.906
    2MOL1    Cl  701   2.225   4.633   1.117
    2MOL1     H  702   2.399   4.792   1.126
    2MOL1    Cl  703   0.414   3.448   3.979
    2MOL1     C  704   0.559   3.452   4.080
    2MOL1    Cl  705   0.529   3.373   4.236
    2MOL1    Cl  706   0.696   3.376   3.997
    2MOL1     H  707   0.585   3.557   4.099
    2MOL1    Cl  708   2.634   0.001   1.621
    2MOL1     C  709   2.535   0.102   1.728
    2MOL1    Cl  710   2.428   0.002   1.827
    2MOL1    Cl  711   2.638   0.203   1.831
    2MOL1     H  712   2.474   0.168   1.667
    2MOL1    Cl  713   2.734   4.975   3.581
    2MOL1     C  714   2.595   4.905   3.665
    2MOL1    Cl  715   2.452   5.009   3.648
    2MOL1    Cl  716   2.561   4.742   3.605
    2MOL1     H  717   2.619   4.898   3.772
    2MOL1    Cl  718   3.513   3.524   4.785
    2MOL1     C  719   3.632   3.652   4.757
    2MOL1    Cl  720   3.759   3.595   4.647
    2MOL1    Cl  721   3.554   3.797   4.692
    2MOL1     H  722   3.678   3.678   4.853
    2MOL1    Cl  723   1.701   0.094   4.843
    2MOL1     C  724   1.729   0.262   4.794
    2MOL1    Cl  725   1.790   0.357   4.931
    2MOL1    Cl  726   1.842   0.269   4.658
    2MOL1     H  727   1.634   0.304   4.762
    2MOL1    Cl  728   3.418   3.932   2.001
    2MOL1     C  729   3.403   3.799   1.885
    2MOL1    Cl  730   3.256   3.817   1.788
    2MOL1    Cl  731   3.546   3.791   1.780
    2MOL1     H  732   3.396   3.706   1.941
    2MOL1    Cl  733   0.093   2.893   2.123
    2MOL1     C  734   0.234   2.786   2.128
    2MOL1    Cl  735   0.362   2.856   2.228
    2MOL1    Cl  736   0.188   2.626   2.188
    2MOL1     H  737   0.272   2.775   2.026
    2MOL1    Cl  738   1.991   1.027   3.661
    2MOL1     C  739   1.849   0.929   3.623
    2MOL1    Cl  740   1.766   0.993   3.480
    2MOL1    Cl  741   1.895   0.760   3.598
    2MOL1     H  742   1.780   0.934   3.707
    2MOL1    Cl  743   1.563   4.455   3.738
    2MOL1     C  744   1.441   4.572   3.683
    2MOL1    Cl  745   1.519   4.710   3.604
    2MOL1    Cl  746   1.326   4.494   3.574
    2MOL1     H  747   1.387   4.608   3.770
    2MOL1    Cl  748   1.298   3.122   3.521
    2MOL1     C  749   1.306   3.297   3.548
    2MOL1    Cl  750   1.169   3.352   3.645
    2MOL1    Cl  751   1.460   3.340   3.626
    2MOL1     H  752   1.302   3.347   3.451
    2MOL1    Cl  753   5.005   2.271   2.531
    2MOL1     C  754   4.849   2.342   2.488
    2MOL1    Cl  755   4.806   2.471   2.601
    2MOL1    Cl  756   4.852   2.404   2.322
    2MOL1     H  757   4.773   2.264   2.494
    2MOL1    Cl  758   2.299   1.577   1.840
    2MOL1     C  759   2.366   1.427   1.907
    2MOL1    Cl  760   2.409   1.314   1.777
    2MOL1    Cl  761   2.508   1.462   2.008
    2MOL1     H  762   2.290   1.380   1.969
    2MOL1    Cl  763   1.111   0.323   3.682
    2MOL1     C  764   1.202   0.178   3.725
    2MOL1    Cl  765   1.359   0.221   3.794
    2MOL1    Cl  766   1.109   0.078   3.838
    2MOL1     H  767   1.219   0.120   3.634
    2MOL1    Cl  768   4.416   3.810   2.566
    2MOL1     C  769   4.389   3.744   2.728
    2MOL1    Cl  770   4.386   3.874   2.848
    2MOL1    Cl  771   4.238   3.651   2.733
    2MOL1     H  772   4.472   3.676   2.752
    2MOL1    Cl  773   4.357   1.240   3.946
    2MOL1     C  774   4.455   1.337   4.058
    2MOL1    Cl  775   4.495   1.242   4.203
    2MOL1    Cl  776   4.602   1.394   3.979
    2MOL1     H  777   4.396   1.423   4.089
    2MOL1    Cl  778   3.628   2.097   2.600
    2MOL1     C  779   3.796   2.052   2.633
    2MOL1    Cl  780   3.878   2.002   2.484
    2MOL1    Cl  781   3.882   2.186   2.710
    2MOL1     H  782   3.796   1.967   2.703
    2MOL1    Cl  783   5.132   4.027   3.408
    2MOL1     C  784   4.985   4.069   3.318
    2MOL1    Cl  785   4.842   4.050   3.421
    2MOL1    Cl  786   4.995   4.235   3.257
    2MOL1     H  787   4.976   4.001   3.233
    2MOL1    Cl  788   0.458   1.972   0.636
    2MOL1     C  789   0.464   1.797   0.609
    2MOL1    Cl  790   0.334   1.746   0.500
    2MOL1    Cl  791   0.622   1.750   0.544
    2MOL1     H  792   0.450   1.748   0.705
    2MOL1    Cl  793   3.779   1.635   3.573
    2MOL1     C  794   3.647   1.746   3.612
    2MOL1    Cl  795   3.496   1.656   3.641
    2MOL1    Cl  796   3.688   1.846   3.752
    2MOL1     H  797   3.631   1.812   3.526
    2MOL1    Cl  798   1.287   2.364   3.056
    2MOL1     C  799   1.435   2.434   2.989
    2MOL1    Cl  800   1.553   2.466   3.118
    2MOL1    Cl  801   1.505   2.327   2.867
    2MOL1     H  802   1.410   2.529   2.941
    2MOL1    Cl  803   0.468   3.107   0.179
    2MOL1     C  804   0.310   3.050   0.125
    2MOL1    Cl  805   0.212   3.185   0.065
    2MOL1    Cl  806   0.328   2.926   0.000
    2MOL1     H  807   0.258   3.006   0.210
    2MOL1    Cl  808   0.804   4.788   5.077
    2MOL1     C  809   0.802   4.618   5.026
    2MOL1    Cl  810   0.885   4.517   5.145
    2MOL1    Cl  811   0.636   4.562   5.001
    2MOL1     H  812   0.856   4.611   4.931
    2MOL1    Cl  813   4.802   4.728   0.000
    2MOL1     C  814   4.738   4.747   0.164
    2MOL1    Cl  815   4.653   4.902   0.179
    2MOL1    Cl  816   4.631   4.612   0.205
    2MOL1     H  817   4.822   4.747   0.234
    2MOL1    Cl  818   0.904   1.679   0.535
    2MOL1     C  819   0.905   1.527   0.626
    2MOL1    Cl  820   0.804   1.540   0.771
    2MOL1    Cl  821   0.850   1.393   0.524
    2MOL1     H  822   1.008   1.506   0.657
    2MOL1    Cl  823   2.578   0.190   3.587
    2MOL1     C  824   2.459   0.319   3.562
    2MOL1    Cl  825   2.492   0.406   3.411
    2MOL1    Cl  826   2.295   0.252   3.561
    2MOL1     H  827   2.466   0.390   3.645
    2MOL1    Cl  828   0.550   1.680   3.213
    2MOL1     C  829   0.508   1.542   3.316
    2MOL1    Cl  830   0.492   1.593   3.485
    2MOL1    Cl  831   0.358   1.467   3.259
    2MOL1     H  832   0.588   1.469   3.310
    2MOL1    Cl  833   0.201   4.501   4.907
    2MOL1     C  834   0.327   4.430   5.009
    2MOL1    Cl  835   0.338   4.515   5.164
    2MOL1    Cl  836   0.296   4.257   5.035
    2MOL1     H  837   0.423   4.440   4.957
    2MOL1    Cl  838   4.182   1.562   2.238
    2MOL1     C  839   4.300   1.432   2.216
    2MOL1    Cl  840   4.227   1.298   2.125
    2MOL1    Cl  841   4.444   1.491   2.133
    2MOL1     H  842   4.329   1.394   2.315
    2MOL1    Cl  843   1.342   0.584   1.760
    2MOL1     C  844   1.493   0.670   1.791
    2MOL1    Cl  845   1.469   0.799   1.910
    2MOL1    Cl  846   1.619   0.558   1.846
    2MOL1     H  847   1.527   0.715   1.697
    2MOL1    Cl  848   1.946   1.887   3.529
    2MOL1     C  849   2.113   1.841   3.567
    2MOL1    Cl  850   2.145   1.860   3.740
    2MOL1    Cl  851   2.144   1.674   3.516
    2MOL1     H  852   2.180   1.907   3.512
    2MOL1    Cl  853   2.768   3.479   3.825
    2MOL1     C  854   2.602   3.540   3.810
    2MOL1    Cl  855   2.490   3.436   3.899
    2MOL1    Cl  856   2.592   3.707   3.869
    2MOL1     H  857   2.575   3.539   3.705
    2MOL1    Cl  858   0.850   1.245   3.733
    2MOL1     C  859   0.871   1.419   3.704
    2MOL1    Cl  860   0.726   1.508   3.752
    2MOL1    Cl  861   1.013   1.480   3.791
    2MOL1     H  862   0.887   1.434   3.597
    2MOL1    Cl  863   0.869   4.415   2.080
    2MOL1     C  864   0.789   4.433   1.923
    2MOL1    Cl  865   0.787   4.278   1.836
    2MOL1    Cl  866   0.625   4.495   1.943
    2MOL1     H  867   0.846   4.505   1.863
    2MOL1    Cl  868   3.726   4.265   2.744
    2MOL1     C  869   3.731   4.171   2.594
    2MOL1    Cl  870   3.898   4.130   2.552
    2MOL1    Cl  871   3.633   4.024   2.610
    2MOL1     H  872   3.689   4.232   2.514
    2MOL1    Cl  873   0.566   2.585   3.540
    2MOL1     C  874   0.728   2.524   3.578
    2MOL1    Cl  875   0.818   2.641   3.675
    2MOL1    Cl  876   0.717   2.368   3.663
    2MOL1     H  877   0.781   2.508   3.484
    2MOL1    Cl  878   1.901   3.850   1.569
    2MOL1     C  879   1.829   3.876   1.728
    2MOL1    Cl  880   1.655   3.907   1.714
    2MOL1    Cl  881   1.859   3.737   1.834
    2MOL1     H  882   1.876   3.964   1.773
    2MOL1    Cl  883   1.499   1.705   2.608
    2MOL1     C  884   1.626   1.583   2.594
    2MOL1    Cl  885   1.786   1.655   2.620
    2MOL1    Cl  886   1.598   1.451   2.709
    2MOL1     H  887   1.623   1.541   2.493
    2MOL1    Cl  888   3.867   0.064   3.896
    2MOL1     C  889   3.963   0.116   4.035
    2MOL1    Cl  890   3.942   0.290   4.064
    2MOL1    Cl  891   3.919   0.024   4.180
    2MOL1     H  892   4.068   0.097   4.013
    2MOL1    Cl  893   0.330   4.516   4.580
    2MOL1     C  894   0.160   4.564   4.564
    2MOL1    Cl  895   0.104   4.539   4.398
    2MOL1    Cl  896   0.059   4.474   4.678
    2MOL1     H  897   0.152   4.670   4.587
    2MOL1    Cl  898   1.124   1.628   0.802
    2MOL1     C  899   1.038   1.760   0.882
    2MOL1    Cl  900   0.902   1.697   0.977
    2MOL1    Cl  901   1.148   1.854   0.984
    2MOL1     H  902   0.997   1.826   0.805
    2MOL1    Cl  903   2.746   2.992   0.417
    2MOL1     C  904   2.714   2.826   0.364
    2MOL1    Cl  905   2.621   2.826   0.214
    2MOL1    Cl  906   2.866   2.737   0.344
    2MOL1     H  907   2.655   2.776   0.442
    2MOL1    Cl  908   3.776   1.334   3.550
    2MOL1     C  909   3.672   1.371   3.411
    2MOL1    Cl  910   3.701   1.536   3.354
    2MOL1    Cl  911   3.701   1.255   3.280
    2MOL1     H  912   3.568   1.363   3.442
    2MOL1    Cl  913   3.357   0.308   1.856
    2MOL1     C  914   3.502   0.333   1.954
    2MOL1    Cl  915   3.503   0.222   2.092
    2MOL1    Cl  916   3.648   0.313   1.856
    2MOL1     H  917   3.500   0.436   1.993
    2MOL1    Cl  918   4.288   2.644   1.456
    2MOL1     C  919   4.126   2.684   1.513
    2MOL1    Cl  920   4.081   2.584   1.652
    2MOL1    Cl  921   4.116   2.856   1.555
    2MOL1     H  922   4.055   2.665   1.432
    2MOL1    Cl  923   2.827   4.201   2.710
    2MOL1     C  924   2.987   4.272   2.684
    2MOL1    Cl  925   3.094   4.157   2.601
    2MOL1    Cl  926   2.974   4.423   2.591
    2MOL1     H  927   3.031   4.295   2.781
    2MOL1    Cl  928   4.286   1.238   2.752
    2MOL1     C  929   4.433   1.140   2.761
    2MOL1    Cl  930   4.536   1.193   2.895
    2MOL1    Cl  931   4.392   0.968   2.779
    2MOL1     H  932   4.488   1.152   2.668
    2MOL1    Cl  933   0.978   2.164   5.101
    2MOL1     C  934   1.078   2.103   4.967
    2MOL1    Cl  935   1.217   2.014   5.030
    2MOL1    Cl  936   0.982   2.001   4.859
    2MOL1     H  937   1.115   2.189   4.910
    2MOL1    Cl  938   2.425   4.597   4.800
    2MOL1     C  939   2.396   4.588   4.625
    2MOL1    Cl  940   2.280   4.711   4.575
    2MOL1    Cl  941   2.548   4.605   4.536
    2MOL1     H  942   2.354   4.490   4.603
    2MOL1    Cl  943   2.303   5.294   5.141
    2MOL1     C  944   2.409   5.154   5.117
    2MOL1    Cl  945   2.321   5.003   5.145
    2MOL1    Cl  946   2.479   5.157   4.954
    2MOL1     H  947   2.491   5.160   5.189
    2MOL1    Cl  948   2.160   1.398   3.053
    2MOL1     C  949   1.999   1.329   3.022
    2MOL1    Cl  950   1.907   1.433   2.912
    2MOL1    Cl  951   2.013   1.165   2.957
    2MOL1     H  952   1.946   1.324   3.118
    2MOL1    Cl  953   1.886   2.065   5.084
    2MOL1     C  954   1.931   2.220   5.156
    2MOL1    Cl  955   2.107   2.241   5.157
    2MOL1    Cl  956   1.853   2.354   5.070
    2MOL1     H  957   1.896   2.221   5.260
    2MOL1    Cl  958   2.296   1.719   1.607
    2MOL1     C  959   2.310   1.890   1.650
    2MOL1    Cl  960   2.457   1.959   1.580
    2MOL1    Cl  961   2.167   1.980   1.595
    2MOL1     H  962   2.316   1.898   1.758
    2MOL1    Cl  963   2.827   2.792   0.927
    2MOL1     C  964   2.718   2.657   0.894
    2MOL1    Cl  965   2.621   2.689   0.749
    2MOL1    Cl  966   2.809   2.506   0.876
    2MOL1     H  967   2.649   2.646   0.979
    2MOL1    Cl  968   2.933   1.860   1.886
    2MOL1     C  969   3.055   1.886   2.012
    2MOL1    Cl  970   3.115   1.732   2.074
    2MOL1    Cl  971   3.189   1.984   1.949
    2MOL1     H  972   3.008   1.941   2.094
    2MOL1    Cl  973   4.688   4.784   2.651
    2MOL1     C  974   4.701   4.644   2.758
    2MOL1    Cl  975   4.728   4.696   2.925
    2MOL1    Cl  976   4.556   4.543   2.747
    2MOL1     H  977   4.787   4.584   2.727
    2MOL1    Cl  978   3.418   0.459   4.814
    2MOL1     C  979   3.267   0.454   4.906
    2MOL1    Cl  980   3.294   0.381   5.065
    2MOL1    Cl  981   3.198   0.616   4.922
    2MOL1     H  982   3.195   0.392   4.851
    2MOL1    Cl  983   3.947   3.822   4.138
    2MOL1     C  984   3.955   3.999   4.137
    2MOL1    Cl  985   3.907   4.065   4.294
    2MOL1    Cl  986   4.118   4.054   4.093
    2MOL1     H  987   3.885   4.036   4.061
    2MOL1    Cl  988   2.042   1.560   2.609
    2MOL1     C  989   2.043   1.384   2.621
    2MOL1    Cl  990   2.189   1.327   2.703
    2MOL1    Cl  991   1.898   1.327   2.705
    2MOL1     H  992   2.042   1.342   2.520
    2MOL1    Cl  993   2.840   0.458   0.168
    2MOL1     C  994   2.666   0.484   0.146
    2MOL1    Cl  995   2.636   0.620   0.036
    2MOL1    Cl  996   2.589   0.337   0.084
    2MOL1     H  997   2.622   0.508   0.243
    2MOL1    Cl  998   2.412   2.827   2.177
    2MOL1     C  999   2.453   2.930   2.039
    2MOL1    Cl 1000   2.617   2.895   1.981
    2MOL1    Cl 1001   2.335   2.909   1.908
    2MOL1     H 1002   2.450   3.034   2.071
    2MOL1    Cl 1003   1.107   4.937   1.424
    2MOL1     C 1004   1.105   4.918   1.600
    2MOL1    Cl 1005   0.962   4.827   1.651
    2MOL1    Cl 1006   1.253   4.839   1.656
    2MOL1     H 1007   1.100   5.018   1.645
    2MOL1    Cl 1008   4.253   2.147   4.438
    2MOL1     C 1009   4.241   2.320   4.402
    2MOL1    Cl 1010   4.098   2.390   4.480
    2MOL1    Cl 1011   4.387   2.405   4.455
    2MOL1     H 1012   4.231   2.332   4.294
    2MOL1    Cl 1013   1.842   5.199   4.998
    2MOL1     C 1014   1.902   5.075   5.108
    2MOL1    Cl 1015   2.059   5.013   5.053
    2MOL1    Cl 1016   1.915   5.139   5.273
    2MOL1     H 1017   1.831   4.992   5.109
    2MOL1    Cl 1018   3.556   3.966   0.577
    2MOL1     C 1019   3.433   3.921   0.696
    2MOL1    Cl 1020   3.409   4.053   0.812
    2MOL1    Cl 1021   3.280   3.881   0.615
    2MOL1     H 1022   3.467   3.833   0.750
    2MOL1    Cl 1023   4.499   0.933   1.017
    2MOL1     C 1024   4.659   0.987   1.070
    2MOL1    Cl 1025   4.668   1.164   1.072
    2MOL1    Cl 1026   4.698   0.921   1.230
    2MOL1     H 1027   4.733   0.949   0.999
    2MOL1    Cl 1028   4.173   1.965   2.052
    2MOL1     C 1029   4.194   1.835   1.933
    2MOL1    Cl 1030   4.044   1.741   1.917
    2MOL1    Cl 1031   4.242   1.902   1.776
    2MOL1     H 1032   4.273   1.769   1.968
    2MOL1    Cl 1033   4.041   1.723   0.262
    2MOL1     C 1034   4.120   1.744   0.105
    2MOL1    Cl 1035   4.259   1.852   0.120
    2MOL1    Cl 1036   4.170   1.587   0.040
    2MOL1     H 1037   4.048   1.788   0.036
    2MOL1    Cl 1038   4.111   3.237   4.679
    2MOL1     C 1039   3.988   3.238   4.806
    2MOL1    Cl 1040   4.064   3.226   4.966
    2MOL1    Cl 1041   3.889   3.385   4.796
    2MOL1     H 1042   3.923   3.152   4.792
    2MOL1    Cl 1043   1.142   0.545   3.687
    2MOL1     C 1044   1.281   0.519   3.793
    2MOL1    Cl 1045   1.425   0.479   3.698
    2MOL1    Cl 1046   1.310   0.662   3.893
    2MOL1     H 1047   1.259   0.435   3.859
    2MOL1    Cl 1048   3.499   0.416   1.292
    2MOL1     C 1049   3.593   0.367   1.434
    2MOL1    Cl 1050   3.498   0.389   1.582
    2MOL1    Cl 1051   3.646   0.199   1.418
    2MOL1     H 1052   3.682   0.431   1.441
    2MOL1    Cl 1053   1.187   0.313   4.255
    2MOL1     C 1054   1.173   0.459   4.157
    2MOL1    Cl 1055   1.044   0.442   4.037
    2MOL1    Cl 1056   1.145   0.601   4.259
    2MOL1     H 1057   1.268   0.474   4.103
    2MOL1    Cl 1058   3.018   5.340   3.637
    2MOL1     C 1059   3.170   5.250   3.627
    2MOL1    Cl 1060   3.254   5.286   3.475
    2MOL1    Cl 1061   3.274   5.286   3.766
    2MOL1     H 1062   3.146   5.143   3.629
    2MOL1    Cl 1063   2.168   1.252   4.211
    2MOL1     C 1064   2.322   1.164   4.219
    2MOL1    Cl 1065   2.338   1.083   4.376
    2MOL1    Cl 1066   2.334   1.048   4.086
    2MOL1     H 1067   2.403   1.237   4.209
    2MOL1    Cl 1068   3.207   0.663   0.446
    2MOL1     C 1069   3.343   0.757   0.382
    2MOL1    Cl 1070   3.459   0.794   0.511
    2MOL1    Cl 1071   3.423   0.670   0.250
    2MOL1     H 1072   3.304   0.852   0.343
    2MOL1    Cl 1073   1.664   1.979   2.674
    2MOL1     C 1074   1.657   2.155   2.694
    2MOL1    Cl 1075   1.500   2.217   2.640
    2MOL1    Cl 1076   1.686   2.200   2.863
    2MOL1     H 1077   1.735   2.200   2.632
    2MOL1    Cl 1078   5.090   4.017   4.565
    2MOL1     C 1079   4.974   4.033   4.698
    2MOL1    Cl 1080   4.808   4.011   4.639
    2MOL1    Cl 1081   5.010   3.916   4.826
    2MOL1     H 1082   4.983   4.133   4.740
    2MOL1    Cl 1083   0.794   1.059   2.759
    2MOL1     C 1084   0.872   0.900   2.752
    2MOL1    Cl 1085   0.795   0.799   2.629
    2MOL1    Cl 1086   1.045   0.918   2.719
    2MOL1     H 1087   0.860   0.852   2.849
    2MOL1    Cl 1088   4.625   0.848   3.690
    2MOL1     C 1089   4.724   0.993   3.665
    2MOL1    Cl 1090   4.859   0.958   3.556
    2MOL1    Cl 1091   4.625   1.126   3.601
    2MOL1     H 1092   4.764   1.024   3.761
    2MOL1    Cl 1093   5.078   4.910   0.532
    2MOL1     C 1094   5.118   4.799   0.664
    2MOL1    Cl 1095   5.042   4.851   0.815
    2MOL1    Cl 1096   5.068   4.634   0.623
    2MOL1     H 1097   5.226   4.799   0.678
    2MOL1    Cl 1098   0.605   3.497   0.256
    2MOL1     C 1099   0.714   3.398   0.354
    2MOL1    Cl 1100   0.754   3.247   0.272
    2MOL1    Cl 1101   0.862   3.489   0.393
    2MOL1     H 1102   0.663   3.374   0.448
    2MOL1    Cl 1103   1.311   2.401   4.850
    2MOL1     C 1104   1.180   2.483   4.764
    2MOL1    Cl 1105   1.228   2.648   4.720
    2MOL1    Cl 1106   1.133   2.391   4.620
    2MOL1     H 1107   1.093   2.489   4.831
    2MOL1    Cl 1108   1.460   4.016   0.070
    2MOL1     C 1109   1.617   4.094   0.096
    2MOL1    Cl 1110   1.600   4.233   0.205
    2MOL1    Cl 1111   1.734   3.978   0.162
    2MOL1     H 1112   1.655   4.130   0.000
    2MOL1    Cl 1113   0.675   3.160   0.685
    2MOL1     C 1114   0.776   3.305   0.703
    2MOL1    Cl 1115   0.679   3.451   0.676
    2MOL1    Cl 1116   0.851   3.308   0.864
    2MOL1     H 1117   0.855   3.301   0.628
    2MOL1    Cl 1118   4.347   1.545   2.491
    2MOL1     C 1119   4.250   1.632   2.611
    2MOL1    Cl 1120   4.353   1.700   2.738
    2MOL1    Cl 1121   4.155   1.760   2.534
    2MOL1     H 1122   4.180   1.561   2.657
    2MOL1    Cl 1123   2.007   0.754   4.294
    2MOL1     C 1124   2.140   0.640   4.320
    2MOL1    Cl 1125   2.282   0.724   4.384
    2MOL1    Cl 1126   2.090   0.510   4.430
    2MOL1     H 1127   2.167   0.596   4.224
    2MOL1    Cl 1128   0.331   0.402   2.592
    2MOL1     C 1129   0.349   0.229   2.625
    2MOL1    Cl 1130   0.357   0.138   2.473
    2MOL1    Cl 1131   0.493   0.199   2.723
    2MOL1     H 1132   0.262   0.195   2.681
    2MOL1    Cl 1133   1.922   4.445   4.542
    2MOL1     C 1134   1.841   4.586   4.473
    2MOL1    Cl 1135   1.935   4.652   4.338
    2MOL1    Cl 1136   1.677   4.545   4.420
    2MOL1     H 1137   1.834   4.663   4.551
    2MOL1    Cl 1138   4.162   4.750   1.504
    2MOL1     C 1139   4.226   4.588   1.474
    2MOL1    Cl 1140   4.102   4.485   1.400
    2MOL1    Cl 1141   4.370   4.595   1.371
    2MOL1     H 1142   4.255   4.544   1.570
    2MOL1    Cl 1143   0.960   2.760   0.600
    2MOL1     C 1144   1.117   2.680   0.613
    2MOL1    Cl 1145   1.217   2.759   0.736
    2MOL1    Cl 1146   1.097   2.508   0.650
    2MOL1     H 1147   1.168   2.689   0.517
    2MOL1    Cl 1148   1.348   0.724   4.187
    2MOL1     C 1149   1.434   0.842   4.288
    2MOL1    Cl 1150   1.590   0.884   4.214
    2MOL1    Cl 1151   1.335   0.987   4.313
    2MOL1     H 1152   1.453   0.796   4.385
    2MOL1    Cl 1153   1.736   1.442   0.865
    2MOL1     C 1154   1.886   1.534   0.889
    2MOL1    Cl 1155   2.024   1.424   0.906
    2MOL1    Cl 1156   1.912   1.646   0.755
    2MOL1     H 1157   1.876   1.592   0.981
    2MOL1    Cl 1158   1.273   4.516   1.575
    2MOL1     C 1159   1.246   4.625   1.438
    2MOL1    Cl 1160   1.081   4.689   1.441
    2MOL1    Cl 1161   1.364   4.757   1.440
    2MOL1     H 1162   1.259   4.568   1.346
    2MOL1    Cl 1163   5.065   2.838   2.465
    2MOL1     C 1164   5.053   2.748   2.617
    2MOL1    Cl 1165   5.176   2.804   2.732
    2MOL1    Cl 1166   4.891   2.764   2.686
    2MOL1     H 1167   5.072   2.643   2.596
    2MOL1    Cl 1168   0.804   2.286   0.081
    2MOL1     C 1169   0.916   2.414   0.132
    2MOL1    Cl 1170   0.832   2.569   0.146
    2MOL1    Cl 1171   0.993   2.371   0.286
    2MOL1     H 1172   0.994   2.424   0.056
    2MOL1    Cl 1173   3.515   4.865   3.452
    2MOL1     C 1174   3.649   4.753   3.423
    2MOL1    Cl 1175   3.601   4.627   3.307
    2MOL1    Cl 1176   3.792   4.840   3.365
    2MOL1     H 1177   3.674   4.705   3.518
    2MOL1    Cl 1178   2.233   0.940   2.497
    2MOL1     C 1179   2.140   1.042   2.385
    2MOL1    Cl 1180   2.226   1.194   2.353
    2MOL1    Cl 1181   2.110   0.955   2.233
    2MOL1     H 1182   2.044   1.065   2.431
    2MOL1    Cl 1183   0.815   4.696   4.507
    2MOL1     C 1184   0.691   4.571   4.492
    2MOL1    Cl 1185   0.666   4.490   4.648
    2MOL1    Cl 1186   0.540   4.640   4.432
    2MOL1     H 1187   0.726   4.496   4.420
    2MOL1    Cl 1188   2.090   4.704   4.018
    2MOL1     C 1189   2.040   4.845   3.922
    2MOL1    Cl 1190   2.060   4.994   4.015
    2MOL1    Cl 1191   2.132   4.852   3.771
    2MOL1     H 1192   1.934   4.834   3.897
    2MOL1    Cl 1193   1.240   0.247   1.488
    2MOL1     C 1194   1.215   0.318   1.328
    2MOL1    Cl 1195   1.229   0.194   1.202
    2MOL1    Cl 1196   1.056   0.397   1.319
    2MOL1     H 1197   1.292   0.394   1.311
    2MOL1    Cl 1198   2.641   3.189   1.172
    2MOL1     C 1199   2.492   3.137   1.091
    2MOL1    Cl 1200   2.529   3.064   0.934
    2MOL1    Cl 1201   2.402   3.025   1.193
    2MOL1     H 1202   2.430   3.226   1.074
    2MOL1    Cl 1203   0.906   3.566   1.224
    2MOL1     C 1204   1.010   3.621   1.090
    2MOL1    Cl 1205   0.973   3.790   1.049
    2MOL1    Cl 1206   1.181   3.603   1.133
    2MOL1     H 1207   0.989   3.559   1.003
    2MOL1    Cl 1208   3.722   2.548   2.171
    2MOL1     C 1209   3.734   2.423   2.047
    2MOL1    Cl 1210   3.902   2.406   1.991
    2MOL1    Cl 1211   3.672   2.269   2.108
    2MOL1     H 1212   3.673   2.454   1.961
    2MOL1    Cl 1213   2.656   2.674   1.204
    2MOL1     C 1214   2.734   2.519   1.239
    2MOL1    Cl 1215   2.698   2.468   1.405
    2MOL1    Cl 1216   2.682   2.395   1.124
    2MOL1     H 1217   2.842   2.531   1.229
    2MOL1    Cl 1218   2.613   3.593   4.341
    2MOL1     C 1219   2.754   3.497   4.295
    2MOL1    Cl 1220   2.708   3.369   4.181
    2MOL1    Cl 1221   2.879   3.601   4.224
    2MOL1     H 1222   2.795   3.450   4.385
    2MOL1    Cl 1223   1.279   2.653   4.119
    2MOL1     C 1224   1.169   2.789   4.148
    2MOL1    Cl 1225   1.085   2.771   4.303
    2MOL1    Cl 1226   1.258   2.943   4.142
    2MOL1     H 1227   1.094   2.790   4.068
    2MOL1    Cl 1228   1.419   2.785   3.557
    2MOL1     C 1229   1.510   2.917   3.482
    2MOL1    Cl 1230   1.683   2.879   3.478
    2MOL1    Cl 1231   1.450   2.949   3.319
    2MOL1     H 1232   1.496   3.007   3.543
    2MOL1    Cl 1233   3.911   4.765   3.783
    2MOL1     C 1234   3.780   4.754   3.901
    2MOL1    Cl 1235   3.841   4.694   4.057
    2MOL1    Cl 1236   3.701   4.911   3.922
    2MOL1     H 1237   3.706   4.682   3.864
    2MOL1    Cl 1238   0.008   3.259   0.468
    2MOL1     C 1239   0.173   3.211   0.510
    2MOL1    Cl 1240   0.290   3.303   0.414
    2MOL1    Cl 1241   0.203   3.234   0.683
    2MOL1     H 1242   0.185   3.105   0.486
    2MOL1    Cl 1243   1.563   2.224   4.986
    2MOL1     C 1244   1.462   2.342   5.073
    2MOL1    Cl 1245   1.291   2.298   5.061
    2MOL1    Cl 1246   1.512   2.353   5.243
    2MOL1     H 1247   1.476   2.439   5.027
    2MOL1    Cl 1248   0.383   2.065   3.086
    2MOL1     C 1249   0.281   1.922   3.065
    2MOL1    Cl 1250   0.146   1.958   2.955
    2MOL1    Cl 1251   0.376   1.786   3.004
    2MOL1     H 1252   0.240   1.894   3.162
    2MOL1    Cl 1253   3.622   0.269   5.123
    2MOL1     C 1254   3.625   0.227   4.951
    2MOL1    Cl 1255   3.697   0.067   4.927
    2MOL1    Cl 1256   3.461   0.233   4.884
    2MOL1     H 1257   3.686   0.301   4.899
    2MOL1    Cl 1258   1.659   2.915   2.041
    2MOL1     C 1259   1.754   2.821   2.158
    2MOL1    Cl 1260   1.825   2.928   2.281
    2MOL1    Cl 1261   1.654   2.696   2.234
    2MOL1     H 1262   1.836   2.772   2.104
    2MOL1    Cl 1263   4.131   0.473   4.292
    2MOL1     C 1264   4.201   0.635   4.285
    2MOL1    Cl 1265   4.174   0.721   4.438
    2MOL1    Cl 1266   4.374   0.626   4.249
    2MOL1     H 1267   4.152   0.690   4.205
    2MOL1    Cl 1268   0.435   3.817   1.525
    2MOL1     C 1269   0.287   3.834   1.621
    2MOL1    Cl 1270   0.147   3.773   1.532
    2MOL1    Cl 1271   0.304   3.750   1.776
    2MOL1     H 1272   0.271   3.940   1.641
    2MOL1    Cl 1273   0.355   1.585   1.050
    2MOL1     C 1274   0.260   1.625   0.906
    2MOL1    Cl 1275   0.117   1.522   0.894
    2MOL1    Cl 1276   0.214   1.796   0.909
    2MOL1     H 1277   0.323   1.608   0.818
    2MOL1    Cl 1278   3.876   2.485   2.914
    2MOL1     C 1279   3.717   2.546   2.867
    2MOL1    Cl 1280   3.719   2.723   2.858
    2MOL1    Cl 1281   3.666   2.477   2.712
    2MOL1     H 1282   3.645   2.516   2.943
    2MOL1    Cl 1283   0.216   4.992   2.786
    2MOL1     C 1284   0.251   4.818   2.779
    2MOL1    Cl 1285   0.415   4.790   2.719
    2MOL1    Cl 1286   0.230   4.744   2.939
    2MOL1     H 1287   0.180   4.772   2.710
    2MOL1    Cl 1288   0.657   2.586   2.425
    2MOL1     C 1289   0.494   2.525   2.396
    2MOL1    Cl 1290   0.443   2.558   2.230
    2MOL1    Cl 1291   0.486   2.351   2.430
    2MOL1     H 1292   0.425   2.576   2.464
    2MOL1    Cl 1293   0.705   4.118   2.869
    2MOL1     C 1294   0.575   4.000   2.853
    2MOL1    Cl 1295   0.443   4.065   2.753
    2MOL1    Cl 1296   0.636   3.848   2.784
    2MOL1     H 1297   0.535   3.978   2.952
    2MOL1    Cl 1298   2.311   0.553   3.945
    2MOL1     C 1299   2.384   0.684   4.040
    2MOL1    Cl 1300   2.277   0.825   4.043
    2MOL1    Cl 1301   2.418   0.629   4.205
    2MOL1     H 1302   2.478   0.712   3.993
    2MOL1    Cl 1303   1.961   1.803   2.211
    2MOL1     C 1304   1.853   1.943   2.207
    2MOL1    Cl 1305   1.916   2.068   2.099
    2MOL1    Cl 1306   1.690   1.894   2.157
    2MOL1     H 1307   1.846   1.985   2.308
    2MOL1    Cl 1308   1.026   3.281   2.167
    2MOL1     C 1309   0.913   3.246   2.298
    2MOL1    Cl 1310   0.858   3.078   2.290
    2MOL1    Cl 1311   0.988   3.279   2.456
    2MOL1     H 1312   0.826   3.312   2.288
    2MOL1    Cl 1313   4.595   3.785   3.030
    2MOL1     C 1314   4.703   3.718   3.152
    2MOL1    Cl 1315   4.747   3.551   3.112
    2MOL1    Cl 1316   4.849   3.818   3.168
    2MOL1     H 1317   4.651   3.718   3.248
    2MOL1    Cl 1318   4.319   1.174   4.437
    2MOL1     C 1319   4.287   1.027   4.530
    2MOL1    Cl 1320   4.334   1.048   4.699
    2MOL1    Cl 1321   4.116   0.982   4.517
    2MOL1     H 1322   4.347   0.946   4.487
    2MOL1    Cl 1323   0.288   3.248   4.574
    2MOL1     C 1324   0.183   3.139   4.666
    2MOL1    Cl 1325   0.177   3.187   4.836
    2MOL1    Cl 1326   0.020   3.136   4.596
    2MOL1     H 1327   0.224   3.038   4.660
    2MOL1    Cl 1328   1.200   2.058   0.361
    2MOL1     C 1329   1.044   1.978   0.336
    2MOL1    Cl 1330   0.942   2.074   0.228
    2MOL1    Cl 1331   1.067   1.815   0.272
    2MOL1     H 1332   0.994   1.971   0.433
    2MOL1    Cl 1333   2.081   2.222   1.843
    2MOL1     C 1334   1.935   2.139   1.789
    2MOL1    Cl 1335   1.846   2.238   1.672
    2MOL1    Cl 1336   1.975   1.981   1.719
    2MOL1     H 1337   1.871   2.122   1.876
    2MOL1    Cl 1338   2.664   4.355   3.919
    2MOL1     C 1339   2.541   4.480   3.892
    2MOL1    Cl 1340   2.583   4.580   3.752
    2MOL1    Cl 1341   2.382   4.406   3.870
    2MOL1     H 1342   2.538   4.544   3.980
    2MOL1    Cl 1343   3.147   0.477   1.672
    2MOL1     C 1344   3.228   0.570   1.799
    2MOL1    Cl 1345   3.403   0.571   1.773
    2MOL1    Cl 1346   3.165   0.736   1.804
    2MOL1     H 1347   3.208   0.523   1.895
    2MOL1    Cl 1348   2.291   4.715   4.941
    2MOL1     C 1349   2.425   4.820   4.894
    2MOL1    Cl 1350   2.580   4.744   4.934
    2MOL1    Cl 1351   2.417   4.858   4.721
    2MOL1     H 1352   2.417   4.913   4.950
    2MOL1    Cl 1353   2.540   1.792   3.346
    2MOL1     C 1354   2.637   1.905   3.442
    2MOL1    Cl 1355   2.798   1.839   3.472
    2MOL1    Cl 1356   2.648   2.062   3.361
    2MOL1     H 1357   2.587   1.919   3.538
    2MOL1    Cl 1358   0.787   1.764   4.833
    2MOL1     C 1359   0.856   1.818   4.987
    2MOL1    Cl 1360   1.033   1.811   4.982
    2MOL1    Cl 1361   0.801   1.982   5.025
    2MOL1     H 1362   0.821   1.751   5.066
    2MOL1    Cl 1363   3.008   1.172   3.025
    2MOL1     C 1364   3.156   1.157   3.121
    2MOL1    Cl 1365   3.249   1.309   3.117
    2MOL1    Cl 1366   3.118   1.113   3.288
    2MOL1     H 1367   3.218   1.078   3.078
    2MOL1    Cl 1368   3.655   0.894   1.502
    2MOL1     C 1369   3.715   0.810   1.645
    2MOL1    Cl 1370   3.702   0.913   1.789
    2MOL1    Cl 1371   3.627   0.658   1.670
    2MOL1     H 1372   3.821   0.786   1.630
    2MOL1    Cl 1373   0.330   0.495   0.627
    2MOL1     C 1374   0.427   0.352   0.665
    2MOL1    Cl 1375   0.341   0.204   0.620
    2MOL1    Cl 1376   0.584   0.359   0.583
    2MOL1     H 1377   0.445   0.350   0.773
    2MOL1    Cl 1378   0.860   3.657   3.744
    2MOL1     C 1379   0.854   3.834   3.749
    2MOL1    Cl 1380   0.994   3.904   3.666
    2MOL1    Cl 1381   0.703   3.893   3.677
    2MOL1     H 1382   0.857   3.866   3.853
    2MOL1    Cl 1383   5.235   4.065   4.395
    2MOL1     C 1384   5.193   4.234   4.430
    2MOL1    Cl 1385   5.100   4.245   4.581
    2MOL1    Cl 1386   5.340   4.333   4.441
    2MOL1     H 1387   5.132   4.272   4.349
    2MOL1    Cl 1388   3.622   1.724   1.013
    2MOL1     C 1389   3.760   1.811   0.944
    2MOL1    Cl 1390   3.859   1.701   0.846
    2MOL1    Cl 1391   3.706   1.949   0.848
    2MOL1     H 1392   3.822   1.848   1.026
    2MOL1    Cl 1393   3.417   4.732   3.729
    2MOL1     C 1394   3.450   4.568   3.786
    2MOL1    Cl 1395   3.604   4.509   3.721
    2MOL1    Cl 1396   3.452   4.563   3.963
    2MOL1     H 1397   3.370   4.502   3.751
    2MOL1    Cl 1398   1.798   4.636   3.103
    2MOL1     C 1399   1.703   4.714   3.230
    2MOL1    Cl 1400   1.685   4.887   3.197
    2MOL1    Cl 1401   1.545   4.636   3.246
    2MOL1     H 1402   1.757   4.703   3.325
    2MOL1    Cl 1403   2.708   0.494   2.490
    2MOL1     C 1404   2.629   0.563   2.632
    2MOL1    Cl 1405   2.748   0.611   2.754
    2MOL1    Cl 1406   2.527   0.701   2.586
    2MOL1     H 1407   2.564   0.486   2.676
    2MOL1    Cl 1408   3.289   2.132   4.401
    2MOL1     C 1409   3.316   2.143   4.227
    2MOL1    Cl 1410   3.459   2.243   4.192
    2MOL1    Cl 1411   3.335   1.981   4.157
    2MOL1     H 1412   3.229   2.190   4.181
    2MOL1    Cl 1413   3.140   2.383   0.610
    2MOL1     C 1414   2.968   2.391   0.565
    2MOL1    Cl 1415   2.886   2.241   0.609
    2MOL1    Cl 1416   2.890   2.530   0.643
    2MOL1     H 1417   2.962   2.404   0.457
    2MOL1    Cl 1418   1.496   0.449   4.965
    2MOL1     C 1419   1.620   0.573   4.942
    2MOL1    Cl 1420   1.718   0.591   5.088
    2MOL1    Cl 1421   1.722   0.533   4.802
    2MOL1     H 1422   1.570   0.668   4.922
    2MOL1    Cl 1423   0.881   1.636   1.802
    2MOL1     C 1424   0.783   1.629   1.655
    2MOL1    Cl 1425   0.623   1.561   1.690
    2MOL1    Cl 1426   0.767   1.790   1.582
    2MOL1     H 1427   0.833   1.563   1.583
    2MOL1    Cl 1428   5.069   3.248   0.202
    2MOL1     C 1429   5.006   3.130   0.318
    2MOL1    Cl 1430   4.916   3.210   0.447
    2MOL1    Cl 1431   4.904   3.011   0.235
    2MOL1     H 1432   5.091   3.077   0.363
    2MOL1    Cl 1433   0.704   1.709   3.850
    2MOL1     C 1434   0.658   1.711   4.021
    2MOL1    Cl 1435   0.560   1.569   4.060
    2MOL1    Cl 1436   0.803   1.717   4.124
    2MOL1     H 1437   0.599   1.800   4.040
    2MOL1    Cl 1438   0.783   0.752   0.610
    2MOL1     C 1439   0.737   0.589   0.558
    2MOL1    Cl 1440   0.601   0.597   0.445
    2MOL1    Cl 1441   0.875   0.507   0.483
    2MOL1     H 1442   0.706   0.532   0.645
    2MOL1    Cl 1443   3.644   5.054   4.979
    2MOL1     C 1444   3.530   4.930   4.924
    2MOL1    Cl 1445   3.497   4.949   4.751
    2MOL1    Cl 1446   3.592   4.768   4.959
    2MOL1     H 1447   3.436   4.944   4.978
    2MOL1    Cl 1448   3.117   4.107   3.577
    2MOL1     C 1449   3.112   3.934   3.614
    2MOL1    Cl 1450   3.015   3.903   3.759
    2MOL1    Cl 1451   3.049   3.843   3.476
    2MOL1     H 1452   3.214   3.900   3.633
    2MOL1    Cl 1453   2.765   4.191   3.231
    2MOL1     C 1454   2.853   4.336   3.285
    2MOL1    Cl 1455   2.777   4.405   3.429
    2MOL1    Cl 1456   3.023   4.297   3.317
    2MOL1     H 1457   2.849   4.410   3.205
    2MOL1    Cl 1458   3.394   1.447   2.779
    2MOL1     C 1459   3.526   1.341   2.729
    2MOL1    Cl 1460   3.536   1.200   2.835
    2MOL1    Cl 1461   3.505   1.290   2.560
    2MOL1     H 1462   3.620   1.396   2.736
    2MOL1    Cl 1463   4.397   2.098   5.165
    2MOL1     C 1464   4.571   2.074   5.140
    2MOL1    Cl 1465   4.656   2.229   5.140
    2MOL1    Cl 1466   4.637   1.967   5.264
    2MOL1     H 1467   4.585   2.027   5.042
    2MOL1    Cl 1468   3.342   2.215   0.813
    2MOL1     C 1469   3.171   2.173   0.804
    2MOL1    Cl 1470   3.133   2.039   0.913
    2MOL1    Cl 1471   3.070   2.314   0.842
    2MOL1     H 1472   3.148   2.142   0.702
    2MOL1    Cl 1473   4.632   4.982   1.703
    2MOL1     C 1474   4.584   4.840   1.609
    2MOL1    Cl 1475   4.463   4.884   1.488
    2MOL1    Cl 1476   4.725   4.765   1.532
    2MOL1     H 1477   4.540   4.767   1.677
    2MOL1    Cl 1478   4.539   0.779   3.383
    2MOL1     C 1479   4.637   0.735   3.242
    2MOL1    Cl 1480   4.790   0.662   3.293
    2MOL1    Cl 1481   4.548   0.626   3.135
    2MOL1     H 1482   4.660   0.827   3.187
    2MOL1    Cl 1483   3.636   2.071   0.502
    2MOL1     C 1484   3.552   2.214   0.439
    2MOL1    Cl 1485   3.632   2.362   0.493
    2MOL1    Cl 1486   3.544   2.208   0.262
    2MOL1     H 1487   3.450   2.214   0.478
    2MOL1    Cl 1488   1.939   0.167   2.713
    2MOL1     C 1489   1.762   0.161   2.718
    2MOL1    Cl 1490   1.708   0.034   2.828
    2MOL1    Cl 1491   1.696   0.318   2.767
    2MOL1     H 1492   1.726   0.138   2.618
    2MOL1    Cl 1493   1.314   4.853   5.129
    2MOL1     C 1494   1.232   4.706   5.074
    2MOL1    Cl 1495   1.320   4.562   5.128
    2MOL1    Cl 1496   1.065   4.703   5.134
    2MOL1     H 1497   1.229   4.706   4.965
    2MOL1    Cl 1498   5.116   0.125   4.462
    2MOL1     C 1499   5.108   0.296   4.508
    2MOL1    Cl 1500   5.118   0.314   4.684
    2MOL1    Cl 1501   5.237   0.388   4.428
    2MOL1     H 1502   5.012   0.336   4.474
    2MOL1    Cl 1503   4.383   4.734   0.217
    2MOL1     C 1504   4.349   4.903   0.256
    2MOL1    Cl 1505   4.221   4.914   0.378
    2MOL1    Cl 1506   4.496   4.985   0.313
    2MOL1     H 1507   4.315   4.954   0.166
    2MOL1    Cl 1508   0.435   2.625   3.898
    2MOL1     C 1509   0.606   2.595   3.932
    2MOL1    Cl 1510   0.697   2.747   3.929
    2MOL1    Cl 1511   0.625   2.514   4.088
    2MOL1     H 1512   0.646   2.530   3.854
    2MOL1    Cl 1513   4.007   1.506   1.636
    2MOL1     C 1514   4.045   1.336   1.664
    2MOL1    Cl 1515   4.184   1.319   1.772
    2MOL1    Cl 1516   3.904   1.251   1.730
    2MOL1     H 1517   4.070   1.290   1.568
    2MOL1    Cl 1518   1.620   4.837   0.490
    2MOL1     C 1519   1.534   4.916   0.357
    2MOL1    Cl 1520   1.609   4.876   0.201
    2MOL1    Cl 1521   1.363   4.869   0.357
    2MOL1     H 1522   1.540   5.024   0.371
    2MOL1    Cl 1523   3.362   1.063   4.135
    2MOL1     C 1524   3.290   1.121   3.984
    2MOL1    Cl 1525   3.176   1.002   3.919
    2MOL1    Cl 1526   3.208   1.277   4.009
    2MOL1     H 1527   3.370   1.136   3.911
    2MOL1    Cl 1528   4.496   3.414   3.696
    2MOL1     C 1529   4.629   3.529   3.717
    2MOL1    Cl 1530   4.712   3.501   3.871
    2MOL1    Cl 1531   4.743   3.517   3.582
    2MOL1     H 1532   4.587   3.630   3.718
    2MOL1    Cl 1533   1.481   0.988   0.810
    2MOL1     C 1534   1.548   0.834   0.753
    2MOL1    Cl 1535   1.419   0.719   0.717
    2MOL1    Cl 1536   1.651   0.860   0.611
    2MOL1     H 1537   1.610   0.792   0.833
    2MOL1    Cl 1538   1.121   2.106   0.981
    2MOL1     C 1539   1.232   2.039   1.102
    2MOL1    Cl 1540   1.307   2.169   1.196
    2MOL1    Cl 1541   1.147   1.926   1.208
    2MOL1     H 1542   1.311   1.984   1.050
    2MOL1    Cl 1543   3.556   3.062   2.258
    2MOL1     C 1544   3.517   3.101   2.426
    2MOL1    Cl 1545   3.380   3.004   2.482
    2MOL1    Cl 1546   3.658   3.075   2.530
    2MOL1     H 1547   3.489   3.207   2.431
    2MOL1    Cl 1548   3.156   3.662   2.956
    2MOL1     C 1549   3.250   3.556   2.850
    2MOL1    Cl 1550   3.147   3.430   2.781
    2MOL1    Cl 1551   3.329   3.650   2.721
    2MOL1     H 1552   3.328   3.508   2.910
    2MOL1    Cl 1553   1.299   1.394   0.224
    2MOL1     C 1554   1.305   1.291   0.368
    2MOL1    Cl 1555   1.165   1.321   0.472
    2MOL1    Cl 1556   1.314   1.120   0.322
    2MOL1     H 1557   1.396   1.316   0.424
    2MOL1    Cl 1558   2.944   0.110   0.874
    2MOL1     C 1559   3.053   0.250   0.867
    2MOL1    Cl 1560   3.043   0.345   1.016
    2MOL1    Cl 1561   3.220   0.198   0.837
    2MOL1     H 1562   3.021   0.313   0.784
    2MOL1    Cl 1563   1.837   3.522   0.985
    2MOL1     C 1564   1.923   3.368   1.003
    2MOL1    Cl 1565   1.968   3.341   1.172
    2MOL1    Cl 1566   1.824   3.234   0.942
    2MOL1     H 1567   2.015   3.373   0.943
    2MOL1    Cl 1568   2.983   3.742   1.832
    2MOL1     C 1569   2.955   3.792   2.000
    2MOL1    Cl 1570   3.079   3.723   2.106
    2MOL1    Cl 1571   2.953   3.968   2.013
    2MOL1     H 1572   2.858   3.753   2.031
    2MOL1    Cl 1573   4.677   0.678   4.135
    2MOL1     C 1574   4.708   0.506   4.107
    2MOL1    Cl 1575   4.818   0.442   4.230
    2MOL1    Cl 1576   4.555   0.415   4.106
    2MOL1     H 1577   4.755   0.494   4.009
    2MOL1    Cl 1578   4.559   3.011   4.927
    2MOL1     C 1579   4.654   3.029   4.779
    2MOL1    Cl 1580   4.742   3.183   4.780
    2MOL1    Cl 1581   4.767   2.894   4.760
    2MOL1     H 1582   4.586   3.029   4.694
    2MOL1    Cl 1583   1.098   4.823   2.455
    2MOL1     C 1584   1.085   4.663   2.381
    2MOL1    Cl 1585   1.058   4.677   2.206
    2MOL1    Cl 1586   1.231   4.567   2.413
    2MOL1     H 1587   0.999   4.611   2.425
    2MOL1    Cl 1588   4.964   0.286   0.373
    2MOL1     C 1589   5.129   0.225   0.352
    2MOL1    Cl 1590   5.211   0.311   0.221
    2MOL1    Cl 1591   5.220   0.240   0.504
    2MOL1     H 1592   5.123   0.119   0.326
    2MOL1    Cl 1593   4.397   0.037   3.165
    2MOL1     C 1594   4.444   0.147   3.034
    2MOL1    Cl 1595   4.605   0.214   3.064
    2MOL1    Cl 1596   4.439   0.063   2.878
    2MOL1     H 1597   4.372   0.229   3.031
    2MOL1    Cl 1598   4.493   0.355   3.698
    2MOL1     C 1599   4.623   0.464   3.647
    2MOL1    Cl 1600   4.617   0.493   3.473
    2MOL1    Cl 1601   4.614   0.617   3.736
    2MOL1     H 1602   4.719   0.416   3.671
    2MOL1    Cl 1603   3.665   5.274   4.480
    2MOL1     C 1604   3.606   5.108   4.461
    2MOL1    Cl 1605   3.509   5.094   4.313
    2MOL1    Cl 1606   3.741   4.994   4.457
    2MOL1     H 1607   3.543   5.084   4.546
    2MOL1    Cl 1608   1.290   1.789   1.553
    2MOL1     C 1609   1.420   1.905   1.522
    2MOL1    Cl 1610   1.374   2.067   1.579
    2MOL1    Cl 1611   1.570   1.853   1.599
    2MOL1     H 1612   1.436   1.910   1.414
    2MOL1    Cl 1613   5.340   0.209   1.614
    2MOL1     C 1614   5.261   0.235   1.457
    2MOL1    Cl 1615   5.340   0.138   1.331
    2MOL1    Cl 1616   5.089   0.196   1.467
    2MOL1     H 1617   5.271   0.341   1.431
    2MOL1    Cl 1618   3.381   1.756   2.629
    2MOL1     C 1619   3.317   1.807   2.787
    2MOL1    Cl 1620   3.142   1.785   2.793
    2MOL1    Cl 1621   3.396   1.716   2.917
    2MOL1     H 1622   3.340   1.913   2.800
    2MOL1    Cl 1623   3.746   0.323   0.577
    2MOL1     C 1624   3.616   0.425   0.514
    2MOL1    Cl 1625   3.461   0.341   0.523
    2MOL1    Cl 1626   3.609   0.578   0.603
    2MOL1     H 1627   3.638   0.448   0.409
    2MOL1    Cl 1628   0.559   1.315   2.011
    2MOL1     C 1629   0.679   1.445   2.023
    2MOL1    Cl 1630   0.643   1.552   2.159
    2MOL1    Cl 1631   0.842   1.377   2.039
    2MOL1     H 1632   0.675   1.503   1.931
    2MOL1    Cl 1633   2.876   3.732   1.277
    2MOL1     C 1634   2.758   3.824   1.372
    2MOL1    Cl 1635   2.615   3.860   1.275
    2MOL1    Cl 1636   2.713   3.735   1.519
    2MOL1     H 1637   2.804   3.918   1.402
    2MOL1    Cl 1638   2.555   2.535   4.566
    2MOL1     C 1639   2.459   2.581   4.425
    2MOL1    Cl 1640   2.317   2.475   4.410
    2MOL1    Cl 1641   2.409   2.750   4.435
    2MOL1     H 1642   2.521   2.568   4.336
    2MOL1    Cl 1643   0.780   2.419   0.834
    2MOL1     C 1644   0.617   2.357   0.863
    2MOL1    Cl 1645   0.622   2.220   0.975
    2MOL1    Cl 1646   0.512   2.485   0.926
    2MOL1     H 1647   0.576   2.322   0.768
    2MOL1    Cl 1648   2.480   0.671   1.711
    2MOL1     C 1649   2.560   0.535   1.632
    2MOL1    Cl 1650   2.550   0.550   1.455
    2MOL1    Cl 1651   2.729   0.523   1.683
    2MOL1     H 1652   2.509   0.443   1.661
    2MOL1    Cl 1653   2.546   3.466   0.215
    2MOL1     C 1654   2.447   3.586   0.130
    2MOL1    Cl 1655   2.318   3.646   0.236
    2MOL1    Cl 1656   2.547   3.719   0.071
    2MOL1     H 1657   2.400   3.537   0.044
    2MOL1    Cl 1658   0.315   3.522   4.999
    2MOL1     C 1659   0.155   3.453   4.972
    2MOL1    Cl 1660   0.112   3.459   4.800
    2MOL1    Cl 1661   0.148   3.286   5.032
    2MOL1     H 1662   0.082   3.512   5.028
    2MOL1    Cl 1663   3.937   2.050   1.619
    2MOL1     C 1664   3.900   1.927   1.741
    2MOL1    Cl 1665   3.972   1.970   1.897
    2MOL1    Cl 1666   3.725   1.906   1.757
    2MOL1     H 1667   3.943   1.832   1.708
    2MOL1    Cl 1668   2.124   2.893   2.785
    2MOL1     C 1669   2.268   2.807   2.731
    2MOL1    Cl 1670   2.267   2.788   2.554
    2MOL1    Cl 1671   2.415   2.892   2.783
    2MOL1     H 1672   2.269   2.707   2.776
    2MOL1    Cl 1673   4.502   2.889   0.570
    2MOL1     C 1674   4.525   2.895   0.745
    2MOL1    Cl 1675   4.614   2.752   0.801
    2MOL1    Cl 1676   4.610   3.044   0.792
    2MOL1     H 1677   4.427   2.895   0.793
    2MOL1    Cl 1678   5.181   4.449   1.798
    2MOL1     C 1679   5.112   4.291   1.758
    2MOL1    Cl 1680   5.219   4.160   1.813
    2MOL1    Cl 1681   4.951   4.273   1.830
    2MOL1     H 1682   5.102   4.284   1.650
    2MOL1    Cl 1683   3.222   1.909   3.813
    2MOL1     C 1684   3.259   1.742   3.858
    2MOL1    Cl 1685   3.378   1.737   3.989
    2MOL1    Cl 1686   3.111   1.657   3.906
    2MOL1     H 1687   3.301   1.691   3.771
    2MOL1    Cl 1688   0.899   3.847   2.276
    2MOL1     C 1689   0.963   3.779   2.426
    2MOL1    Cl 1690   0.863   3.826   2.564
    2MOL1    Cl 1691   0.974   3.602   2.414
    2MOL1     H 1692   1.064   3.818   2.441
    2MOL1    Cl 1693   2.862   4.142   2.242
    2MOL1     C 1694   3.031   4.109   2.284
    2MOL1    Cl 1695   3.094   4.233   2.393
    2MOL1    Cl 1696   3.046   3.948   2.357
    2MOL1     H 1697   3.090   4.110   2.192
    2MOL1    Cl 1698   1.377   3.136   2.536
    2MOL1     C 1699   1.345   3.028   2.399
    2MOL1    Cl 1700   1.336   3.120   2.248
    2MOL1    Cl 1701   1.470   2.903   2.388
    2MOL1     H 1702   1.249   2.979   2.415
    2MOL1    Cl 1703   4.529   0.023   5.229
    2MOL1     C 1704   4.597   0.175   5.169
    2MOL1    Cl 1705   4.716   0.239   5.283
    2MOL1    Cl 1706   4.669   0.152   5.009
    2MOL1     H 1707   4.515   0.247   5.160
    2MOL1    Cl 1708   4.067   4.796   2.374
    2MOL1     C 1709   4.078   4.968   2.413
    2MOL1    Cl 1710   3.987   5.005   2.560
    2MOL1    Cl 1711   4.247   5.018   2.430
    2MOL1     H 1712   4.034   5.025   2.330
    2MOL1    Cl 1713   1.347   5.077   2.972
    2MOL1     C 1714   1.440   5.055   3.121
    2MOL1    Cl 1715   1.408   5.187   3.235
    2MOL1    Cl 1716   1.403   4.899   3.195
    2MOL1     H 1717   1.547   5.057   3.095
    2MOL1    Cl 1718   3.571   4.913   3.684
    2MOL1     C 1719   3.437   4.995   3.766
    2MOL1    Cl 1720   3.282   4.920   3.723
    2MOL1    Cl 1721   3.460   4.993   3.941
    2MOL1     H 1722   3.435   5.099   3.732
    2MOL1    Cl 1723   3.661   2.363   4.816
    2MOL1     C 1724   3.640   2.193   4.861
    2MOL1    Cl 1725   3.754   2.148   4.989
    2MOL1    Cl 1726   3.473   2.163   4.913
    2MOL1     H 1727   3.660   2.131   4.774
    2MOL1    Cl 1728   4.676   4.110   2.615
    2MOL1     C 1729   4.839   4.164   2.571
    2MOL1    Cl 1730   4.896   4.081   2.426
    2MOL1    Cl 1731   4.842   4.340   2.548
    2MOL1     H 1732   4.906   4.140   2.654
    2MOL1    Cl 1733   4.933   3.118   2.354
    2MOL1     C 1734   5.066   3.162   2.462
    2MOL1    Cl 1735   5.191   3.251   2.374
    2MOL1    Cl 1736   5.006   3.258   2.598
    2MOL1     H 1737   5.110   3.070   2.501
    2MOL1    Cl 1738   1.457   2.231   0.739
    2MOL1     C 1739   1.425   2.315   0.892
    2MOL1    Cl 1740   1.256   2.367   0.900
    2MOL1    Cl 1741   1.465   2.211   1.030
    2MOL1     H 1742   1.489   2.404   0.896
    2MOL1    Cl 1743   1.164   2.126   4.011
    2MOL1     C 1744   1.126   1.962   4.065
    2MOL1    Cl 1745   1.236   1.912   4.195
    2MOL1    Cl 1746   0.957   1.951   4.118
    2MOL1     H 1747   1.140   1.894   3.981
    2MOL1    Cl 1748   4.110   3.756   1.237
    2MOL1     C 1749   4.100   3.582   1.268
    2MOL1    Cl 1750   4.227   3.531   1.381
    2MOL1    Cl 1751   3.940   3.539   1.331
    2MOL1     H 1752   4.114   3.529   1.173
    2MOL1    Cl 1753   0.242   5.188   2.307
    2MOL1     C 1754   0.257   5.174   2.131
    2MOL1    Cl 1755   0.402   5.083   2.087
    2MOL1    Cl 1756   0.112   5.099   2.062
    2MOL1     H 1757   0.266   5.275   2.090
    2MOL1    Cl 1758   1.342   2.368   1.734
    2MOL1     C 1759   1.326   2.544   1.744
    2MOL1    Cl 1760   1.250   2.591   1.898
    2MOL1    Cl 1761   1.483   2.623   1.726
    2MOL1     H 1762   1.261   2.577   1.663
    2MOL1    Cl 1763   1.007   2.299   4.182
    2MOL1     C 1764   0.848   2.353   4.126
    2MOL1    Cl 1765   0.849   2.527   4.095
    2MOL1    Cl 1766   0.799   2.264   3.981
    2MOL1     H 1767   0.775   2.333   4.206
    2MOL1    Cl 1768   1.254   0.924   5.265
    2MOL1     C 1769   1.095   0.912   5.188
    2MOL1    Cl 1770   1.092   1.004   5.037
    2MOL1    Cl 1771   1.053   0.742   5.158
    2MOL1     H 1772   1.021   0.954   5.256
    2MOL1    Cl 1773   3.500   2.986   0.921
    2MOL1     C 1774   3.655   2.941   0.994
    2MOL1    Cl 1775   3.684   3.036   1.140
    2MOL1    Cl 1776   3.658   2.768   1.031
    2MOL1     H 1777   3.734   2.963   0.922
    2MOL1    Cl 1778   3.751   4.844   2.976
    2MOL1     C 1779   3.677   5.002   3.006
    2MOL1    Cl 1780   3.507   4.983   3.051
    2MOL1    Cl 1781   3.766   5.089   3.132
    2MOL1     H 1782   3.682   5.060   2.914
    2MOL1    Cl 1783   4.451   3.215   5.172
    2MOL1     C 1784   4.626   3.197   5.158
    2MOL1    Cl 1785   4.708   3.283   5.290
    2MOL1    Cl 1786   4.672   3.026   5.159
    2MOL1     H 1787   4.658   3.241   5.063
    2MOL1    Cl 1788   4.611   2.767   2.940
    2MOL1     C 1789   4.452   2.832   2.981
    2MOL1    Cl 1790   4.442   3.004   2.941
    2MOL1    Cl 1791   4.324   2.742   2.899
    2MOL1     H 1792   4.437   2.821   3.089
    2MOL1    Cl 1793   2.519   4.380   3.633
    2MOL1     C 1794   2.367   4.446   3.572
    2MOL1    Cl 1795   2.398   4.575   3.455
    2MOL1    Cl 1796   2.268   4.318   3.499
    2MOL1     H 1797   2.311   4.489   3.656
    2MOL1    Cl 1798   3.600   2.233   0.792
    2MOL1     C 1799   3.577   2.288   0.959
    2MOL1    Cl 1800   3.454   2.416   0.966
    2MOL1    Cl 1801   3.531   2.152   1.063
    2MOL1     H 1802   3.671   2.329   0.995
    2MOL1    Cl 1803   2.139   2.001   2.601
    2MOL1     C 1804   2.274   2.116   2.598
    2MOL1    Cl 1805   2.238   2.258   2.697
    2MOL1    Cl 1806   2.423   2.037   2.653
    2MOL1     H 1807   2.289   2.148   2.495
    2MOL1    Cl 1808   2.982   2.843   3.336
    2MOL1     C 1809   2.939   2.932   3.483
    2MOL1    Cl 1810   3.045   2.887   3.617
    2MOL1    Cl 1811   2.946   3.107   3.454
    2MOL1     H 1812   2.836   2.906   3.510
    2MOL1    Cl 1813   5.150   2.005   1.685
    2MOL1     C 1814   5.006   1.903   1.694
    2MOL1    Cl 1815   4.871   1.993   1.767
    2MOL1    Cl 1816   4.961   1.844   1.534
    2MOL1     H 1817   5.028   1.817   1.758
    2MOL1    Cl 1818   1.523   1.373   3.480
    2MOL1     C 1819   1.660   1.368   3.591
    2MOL1    Cl 1820   1.732   1.530   3.609
    2MOL1    Cl 1821   1.610   1.305   3.749
    2MOL1     H 1822   1.736   1.302   3.550
    2MOL1    Cl 1823   3.490   4.024   2.246
    2MOL1     C 1824   3.441   4.194   2.236
    2MOL1    Cl 1825   3.354   4.225   2.085
    2MOL1    Cl 1826   3.343   4.239   2.376
    2MOL1     H 1827   3.532   4.256   2.236
    2MOL1    Cl 1828   1.915   3.513   0.509
    2MOL1     C 1829   2.075   3.584   0.485
    2MOL1    Cl 1830   2.196   3.458   0.456
    2MOL1    Cl 1831   2.073   3.699   0.350
    2MOL1     H 1832   2.103   3.638   0.575
    2MOL1    Cl 1833   4.551   2.260   3.129
    2MOL1     C 1834   4.618   2.158   3.258
    2MOL1    Cl 1835   4.594   2.233   3.416
    2MOL1    Cl 1836   4.545   1.996   3.254
    2MOL1     H 1837   4.725   2.147   3.241
    2MOL1    Cl 1838   2.598   3.995   1.454
    2MOL1     C 1839   2.450   3.910   1.499
    2MOL1    Cl 1840   2.319   3.949   1.386
    2MOL1    Cl 1841   2.477   3.735   1.504
    2MOL1     H 1842   2.420   3.943   1.599
    2MOL1    Cl 1843   0.920   5.009   4.705
    2MOL1     C 1844   1.077   4.937   4.741
    2MOL1    Cl 1845   1.145   5.006   4.889
    2MOL1    Cl 1846   1.064   4.760   4.754
    2MOL1     H 1847   1.145   4.960   4.658
    2MOL1    Cl 1848   3.921   3.256   3.698
    2MOL1     C 1849   3.748   3.223   3.715
    2MOL1    Cl 1850   3.655   3.373   3.716
    2MOL1    Cl 1851   3.692   3.116   3.585
    2MOL1     H 1852   3.732   3.172   3.810
    2MOL1    Cl 1853   3.883   3.740   1.146
    2MOL1     C 1854   3.751   3.802   1.247
    2MOL1    Cl 1855   3.736   3.706   1.395
    2MOL1    Cl 1856   3.778   3.973   1.286
    2MOL1     H 1857   3.658   3.794   1.191
    2MOL1    Cl 1858   2.460   1.130   3.849
    2MOL1     C 1859   2.510   1.274   3.940
    2MOL1    Cl 1860   2.368   1.357   4.008
    2MOL1    Cl 1861   2.624   1.230   4.068
    2MOL1     H 1862   2.560   1.343   3.871
    2MOL1    Cl 1863   2.046   3.498   4.860
    2MOL1     C 1864   2.133   3.652   4.878
    2MOL1    Cl 1865   2.180   3.715   4.719
    2MOL1    Cl 1866   2.034   3.770   4.966
    2MOL1     H 1867   2.224   3.633   4.935
    2MOL1    Cl 1868   4.411   3.736   3.236
    2MOL1     C 1869   4.310   3.858   3.155
    2MOL1    Cl 1870   4.145   3.856   3.222
    2MOL1    Cl 1871   4.382   4.019   3.171
    2MOL1     H 1872   4.304   3.832   3.049
    2MOL1    Cl 1873   3.010   1.744   4.994
    2MOL1     C 1874   3.081   1.582   5.008
    2MOL1    Cl 1875   2.982   1.463   4.922
    2MOL1    Cl 1876   3.247   1.582   4.945
    2MOL1     H 1877   3.084   1.555   5.113
    2MOL1    Cl 1878   2.386   4.066   5.201
    2MOL1     C 1879   2.546   3.996   5.225
    2MOL1    Cl 1880   2.642   4.095   5.336
    2MOL1    Cl 1881   2.533   3.830   5.286
    2MOL1     H 1882   2.597   3.992   5.128
    2MOL1    Cl 1883   0.652   0.454   4.179
    2MOL1     C 1884   0.672   0.619   4.118
    2MOL1    Cl 1885   0.758   0.618   3.963
    2MOL1    Cl 1886   0.514   0.698   4.102
    2MOL1     H 1887   0.731   0.676   4.190
    2MOL1    Cl 1888   3.684   0.823   2.046
    2MOL1     C 1889   3.536   0.920   2.055
    2MOL1    Cl 1890   3.543   1.056   1.943
    2MOL1    Cl 1891   3.394   0.818   2.021
    2MOL1     H 1892   3.526   0.959   2.157
    2MOL1    Cl 1893   2.704   4.414   2.595
    2MOL1     C 1894   2.721   4.542   2.474
    2MOL1    Cl 1895   2.731   4.473   2.311
    2MOL1    Cl 1896   2.587   4.657   2.485
    2MOL1     H 1897   2.814   4.596   2.494
    2MOL1    Cl 1898   0.832   1.164   2.093
    2MOL1     C 1899   0.887   0.997   2.116
    2MOL1    Cl 1900   0.759   0.882   2.072
    2MOL1    Cl 1901   1.033   0.966   2.020
    2MOL1     H 1902   0.912   0.982   2.221
    2MOL1    Cl 1903   2.264   4.274   3.255
    2MOL1     C 1904   2.363   4.409   3.198
    2MOL1    Cl 1905   2.466   4.358   3.063
    2MOL1    Cl 1906   2.260   4.545   3.150
    2MOL1     H 1907   2.427   4.442   3.280
    2MOL1    Cl 1908   4.164   1.748   4.901
    2MOL1     C 1909   4.245   1.859   4.789
    2MOL1    Cl 1910   4.394   1.922   4.861
    2MOL1    Cl 1911   4.279   1.778   4.635
    2MOL1     H 1912   4.178   1.943   4.770
    2MOL1    Cl 1913   0.480   0.524   0.183
    2MOL1     C 1914   0.313   0.471   0.159
    2MOL1    Cl 1915   0.289   0.309   0.227
    2MOL1    Cl 1916   0.200   0.587   0.231
    2MOL1     H 1917   0.294   0.466   0.052
    2MOL1    Cl 1918   3.766   3.950   5.107
    2MOL1     C 1919   3.930   3.910   5.163
    2MOL1    Cl 1920   4.047   4.028   5.103
    2MOL1    Cl 1921   3.934   3.901   5.340
    2MOL1     H 1922   3.956   3.812   5.123
    2MOL1    Cl 1923   1.820   2.490   2.797
    2MOL1     C 1924   1.948   2.385   2.734
    2MOL1    Cl 1925   2.097   2.477   2.707
    2MOL1    Cl 1926   1.977   2.250   2.845
    2MOL1     H 1927   1.915   2.344   2.638
    2MOL1    Cl 1928   1.998   4.235   1.502
    2MOL1     C 1929   2.138   4.163   1.583
    2MOL1    Cl 1930   2.205   4.276   1.702
    2MOL1    Cl 1931   2.093   4.010   1.661
    2MOL1     H 1932   2.214   4.143   1.508
    2MOL1    Cl 1933   4.277   3.606   1.748
    2MOL1     C 1934   4.132   3.624   1.847
    2MOL1    Cl 1935   4.143   3.525   1.993
    2MOL1    Cl 1936   4.105   3.794   1.889
    2MOL1     H 1937   4.046   3.590   1.789
    2MOL1    Cl 1938   2.502   4.659   0.707
    2MOL1     C 1939   2.630   4.656   0.584
    2MOL1    Cl 1940   2.561   4.683   0.423
    2MOL1    Cl 1941   2.754   4.778   0.620
    2MOL1     H 1942   2.676   4.558   0.586
    2MOL1    Cl 1943   2.993   2.446   4.652
    2MOL1     C 1944   2.832   2.390   4.699
    2MOL1    Cl 1945   2.843   2.265   4.824
    2MOL1    Cl 1946   2.732   2.525   4.756
    2MOL1     H 1947   2.783   2.347   4.611
    2MOL1    Cl 1948   1.381   3.306   2.703
    2MOL1     C 1949   1.550   3.356   2.691
    2MOL1    Cl 1950   1.658   3.215   2.691
    2MOL1    Cl 1951   1.576   3.454   2.546
    2MOL1     H 1952   1.574   3.417   2.778
    2MOL1    Cl 1953   0.873   4.203   4.987
    2MOL1     C 1954   0.704   4.231   4.943
    2MOL1    Cl 1955   0.686   4.388   4.862
    2MOL1    Cl 1956   0.643   4.100   4.840
    2MOL1     H 1957   0.644   4.233   5.035
    2MOL1    Cl 1958   0.156   2.598   1.742
    2MOL1     C 1959   0.255   2.453   1.768
    2MOL1    Cl 1960   0.390   2.489   1.877
    2MOL1    Cl 1961   0.156   2.321   1.834
    2MOL1     H 1962   0.295   2.421   1.672
    2MOL1    Cl 1963   4.366   0.756   4.071
    2MOL1     C 1964   4.400   0.920   4.129
    2MOL1    Cl 1965   4.278   0.971   4.246
    2MOL1    Cl 1966   4.562   0.929   4.200
    2MOL1     H 1967   4.396   0.988   4.043
    2MOL1    Cl 1968   4.110   0.993   0.403
    2MOL1     C 1969   4.009   1.132   0.447
    2MOL1    Cl 1970   4.040   1.268   0.339
    2MOL1    Cl 1971   3.838   1.088   0.444
    2MOL1     H 1972   4.035   1.162   0.549
    2MOL1    Cl 1973   1.809   1.982   3.826
    2MOL1     C 1974   1.858   1.816   3.862
    2MOL1    Cl 1975   1.928   1.805   4.025
    2MOL1    Cl 1976   1.721   1.705   3.846
    2MOL1     H 1977   1.935   1.786   3.790
    2MOL1    Cl 1978   0.114   1.780   1.997
    2MOL1     C 1979   0.245   1.891   2.043
    2MOL1    Cl 1980   0.179   2.038   2.116
    2MOL1    Cl 1981   0.358   1.812   2.154
    2MOL1     H 1982   0.299   1.919   1.952
    2MOL1    Cl 1983   1.697   0.499   3.525
    2MOL1     C 1984   1.643   0.603   3.392
    2MOL1    Cl 1985   1.645   0.514   3.239
    2MOL1    Cl 1986   1.481   0.666   3.425
    2MOL1     H 1987   1.712   0.687   3.384
    2MOL1    Cl 1988   2.399   4.148   1.307
    2MOL1     C 1989   2.258   4.213   1.221
    2MOL1    Cl 1990   2.293   4.375   1.159
    2MOL1    Cl 1991   2.210   4.105   1.090
    2MOL1     H 1992   2.175   4.221   1.292
    2MOL1    Cl 1993   3.518   1.853   4.193
    2MOL1     C 1994   3.485   1.764   4.342
    2MOL1    Cl 1995   3.591   1.820   4.473
    2MOL1    Cl 1996   3.315   1.779   4.388
    2MOL1     H 1997   3.507   1.658   4.324
    2MOL1    Cl 1998   2.289   3.896   4.241
    2MOL1     C 1999   2.220   3.742   4.188
    2MOL1    Cl 2000   2.272   3.611   4.295
    2MOL1    Cl 2001   2.043   3.752   4.183
    2MOL1     H 2002   2.256   3.721   4.087
    2MOL1    Cl 2003   3.315   0.901   4.947
    2MOL1     C 2004   3.164   0.991   4.962
    2MOL1    Cl 2005   3.170   1.140   4.865
    2MOL1    Cl 2006   3.026   0.891   4.913
    2MOL1     H 2007   3.151   1.019   5.067
    2MOL1    Cl 2008   2.915   2.809   2.364
    2MOL1     C 2009   3.089   2.780   2.367
    2MOL1    Cl 2010   3.159   2.802   2.206
    2MOL1    Cl 2011   3.168   2.888   2.483
    2MOL1     H 2012   3.106   2.677   2.399
    2MOL1    Cl 2013   4.765   4.403   0.861
    2MOL1     C 2014   4.736   4.228   0.866
    2MOL1    Cl 2015   4.871   4.145   0.944
    2MOL1    Cl 2016   4.584   4.192   0.950
    2MOL1     H 2017   4.728   4.192   0.763
    2MOL1    Cl 2018   2.063   3.021   4.475
    2MOL1     C 2019   2.053   2.848   4.438
    2MOL1    Cl 2020   2.175   2.757   4.528
    2MOL1    Cl 2021   1.891   2.786   4.474
    2MOL1     H 2022   2.072   2.834   4.331
    2MOL1    Cl 2023   2.631   4.021   4.328
    2MOL1     C 2024   2.724   4.120   4.442
    2MOL1    Cl 2025   2.615   4.217   4.542
    2MOL1    Cl 2026   2.828   4.018   4.542
    2MOL1     H 2027   2.787   4.188   4.384
    2MOL1    Cl 2028   4.345   5.229   2.616
    2MOL1     C 2029   4.498   5.138   2.620
    2MOL1    Cl 2030   4.624   5.232   2.700
    2MOL1    Cl 2031   4.475   4.982   2.700
    2MOL1     H 2032   4.529   5.120   2.516
    2MOL1    Cl 2033   1.734   3.730   2.363
    2MOL1     C 2034   1.766   3.703   2.191
    2MOL1    Cl 2035   1.939   3.677   2.163
    2MOL1    Cl 2036   1.672   3.565   2.131
    2MOL1     H 2037   1.735   3.792   2.136
    2MOL1    Cl 2038   3.504   0.790   0.915
    2MOL1     C 2039   3.460   0.761   1.084
    2MOL1    Cl 2040   3.403   0.594   1.105
    2MOL1    Cl 2041   3.597   0.794   1.191
    2MOL1     H 2042   3.378   0.828   1.110
    2MOL1    Cl 2043   0.338   3.904   3.172
    2MOL1     C 2044   0.361   3.765   3.064
    2MOL1    Cl 2045   0.235   3.644   3.090
    2MOL1    Cl 2046   0.363   3.818   2.894
    2MOL1     H 2047   0.458   3.720   3.086
    2MOL1    Cl 2048   2.953   2.925   4.837
    2MOL1     C 2049   2.913   2.755   4.810
    2MOL1    Cl 2050   2.781   2.740   4.692
    2MOL1    Cl 2051   3.056   2.665   4.754
    2MOL1     H 2052   2.880   2.711   4.904
    2MOL1    Cl 2053   2.282   0.668   0.741
    2MOL1     C 2054   2.277   0.729   0.575
    2MOL1    Cl 2055   2.204   0.610   0.467
    2MOL1    Cl 2056   2.187   0.882   0.569
    2MOL1     H 2057   2.379   0.748   0.543
    2MOL1    Cl 2058   2.945   0.137   2.260
    2MOL1     C 2059   2.919   0.312   2.274
    2MOL1    Cl 2060   2.747   0.348   2.300
    2MOL1    Cl 2061   3.017   0.380   2.404
    2MOL1     H 2062   2.949   0.358   2.180
    2MOL1    Cl 2063   1.936   3.654   4.640
    2MOL1     C 2064   1.820   3.526   4.679
    2MOL1    Cl 2065   1.655   3.577   4.637
    2MOL1    Cl 2066   1.862   3.376   4.595
    2MOL1     H 2067   1.824   3.507   4.786
    2MOL1    Cl 2068   0.627   2.782   0.833
    2MOL1     C 2069   0.768   2.778   0.726
    2MOL1    Cl 2070   0.918   2.771   0.821
    2MOL1    Cl 2071   0.758   2.640   0.615
    2MOL1     H 2072   0.770   2.870   0.667
    2MOL1    Cl 2073   2.968   0.266   3.215
    2MOL1     C 2074   2.988   0.196   3.377
    2MOL1    Cl 2075   3.055   0.316   3.489
    2MOL1    Cl 2076   2.834   0.133   3.437
    2MOL1     H 2077   3.059   0.113   3.370
    2MOL1    Cl 2078   1.937   3.034   1.101
    2MOL1     C 2079   2.113   3.021   1.117
    2MOL1    Cl 2080   2.155   2.902   1.242
    2MOL1    Cl 2081   2.187   2.978   0.962
    2MOL1     H 2082   2.152   3.118   1.148
    2MOL1    Cl 2083   2.987   5.340   4.026
    2MOL1     C 2084   3.092   5.203   4.065
    2MOL1    Cl 2085   3.084   5.166   4.238
    2MOL1    Cl 2086   3.049   5.061   3.968
    2MOL1     H 2087   3.195   5.231   4.041
    2MOL1    Cl 2088   2.878   3.211   0.209
    2MOL1     C 2089   2.991   3.309   0.115
    2MOL1    Cl 2090   3.082   3.208   0.001
    2MOL1    Cl 2091   2.905   3.438   0.028
    2MOL1     H 2092   3.062   3.356   0.184
    2MOL1    Cl 2093   0.261   0.527   4.353
    2MOL1     C 2094   0.236   0.465   4.189
    2MOL1    Cl 2095   0.340   0.551   4.074
    2MOL1    Cl 2096   0.267   0.291   4.182
    2MOL1     H 2097   0.132   0.483   4.161
    2MOL1    Cl 2098   2.528   2.728   3.874
    2MOL1     C 2099   2.494   2.590   3.979
    2MOL1    Cl 2100   2.591   2.599   4.127
    2MOL1    Cl 2101   2.321   2.583   4.018
    2MOL1     H 2102   2.521   2.499   3.926
    2MOL1    Cl 2103   0.848   1.357   0.212
    2MOL1     C 2104   0.723   1.483   0.216
    2MOL1    Cl 2105   0.619   1.464   0.358
    2MOL1    Cl 2106   0.797   1.644   0.215
    2MOL1     H 2107   0.661   1.473   0.127
    2MOL1    Cl 2108   4.743   3.144   1.902
    2MOL1     C 2109   4.657   2.995   1.948
    2MOL1    Cl 2110   4.531   2.957   1.830
    2MOL1    Cl 2111   4.771   2.860   1.963
    2MOL1     H 2112   4.610   3.012   2.045
    2MOL1    Cl 2113   3.233   3.178   0.702
    2MOL1     C 2114   3.125   3.259   0.587
    2MOL1    Cl 2115   3.059   3.143   0.471
    2MOL1    Cl 2116   2.993   3.342   0.673
    2MOL1     H 2117   3.182   3.334   0.532
    2MOL1    Cl 2118   2.473   4.776   1.674
    2MOL1     C 2119   2.531   4.905   1.567
    2MOL1    Cl 2120   2.701   4.941   1.599
    2MOL1    Cl 2121   2.508   4.860   1.397
    2MOL1     H 2122   2.472   4.995   1.587
    2MOL1    Cl 2123   2.576   4.057   4.696
    2MOL1     C 2124   2.598   4.068   4.871
    2MOL1    Cl 2125   2.717   4.192   4.912
    2MOL1    Cl 2126   2.443   4.102   4.951
    2MOL1     H 2127   2.634   3.971   4.907
    2MOL1    Cl 2128   4.048   3.943   2.920
    2MOL1     C 2129   3.953   4.014   2.790
    2MOL1    Cl 2130   3.779   3.991   2.820
    2MOL1    Cl 2131   3.991   4.186   2.771
    2MOL1     H 2132   3.978   3.962   2.696
    2MOL1    Cl 2133   2.501   1.584   2.516
    2MOL1     C 2134   2.329   1.542   2.508
    2MOL1    Cl 2135   2.234   1.678   2.447
    2MOL1    Cl 2136   2.305   1.399   2.406
    2MOL1     H 2137   2.295   1.518   2.609
    2MOL1    Cl 2138   4.818   2.464   0.772
    2MOL1     C 2139   4.898   2.378   0.640
    2MOL1    Cl 2140   4.781   2.285   0.545
    2MOL1    Cl 2141   4.986   2.491   0.536
    2MOL1     H 2142   4.971   2.308   0.683
    2MOL1    Cl 2143   4.264   0.678   3.331
    2MOL1     C 2144   4.229   0.599   3.176
    2MOL1    Cl 2145   4.233   0.717   3.044
    2MOL1    Cl 2146   4.344   0.468   3.146
    2MOL1     H 2147   4.129   0.556   3.181
    2MOL1    Cl 2148   4.956   2.178   0.121
    2MOL1     C 2149   4.866   2.325   0.162
    2MOL1    Cl 2150   4.733   2.287   0.274
    2MOL1    Cl 2151   4.974   2.446   0.233
    2MOL1     H 2152   4.823   2.366   0.071
    2MOL1    Cl 2153   0.614   3.668   5.293
    2MOL1     C 2154   0.735   3.545   5.250
    2MOL1    Cl 2155   0.706   3.395   5.340
    2MOL1    Cl 2156   0.733   3.514   5.076
    2MOL1     H 2157   0.833   3.583   5.277
    2MOL1    Cl 2158   3.246   1.237   1.050
    2MOL1     C 2159   3.411   1.293   1.018
    2MOL1    Cl 2160   3.526   1.160   1.039
    2MOL1    Cl 2161   3.423   1.360   0.854
    2MOL1     H 2162   3.435   1.372   1.089
    2MOL1    Cl 2163   2.690   4.669   4.691
    2MOL1     C 2164   2.755   4.518   4.758
    2MOL1    Cl 2165   2.630   4.393   4.763
    2MOL1    Cl 2166   2.895   4.463   4.664
    2MOL1     H 2167   2.788   4.538   4.860
    2MOL1    Cl 2168   1.599   5.340   0.624
    2MOL1     C 2169   1.440   5.263   0.639
    2MOL1    Cl 2170   1.419   5.139   0.514
    2MOL1    Cl 2171   1.420   5.193   0.800
    2MOL1     H 2172   1.364   5.340   0.625
    2MOL1    Cl 2173   1.476   3.157   4.463
    2MOL1     C 2174   1.425   3.321   4.509
    2MOL1    Cl 2175   1.543   3.441   4.453
    2MOL1    Cl 2176   1.264   3.356   4.444
    2MOL1     H 2177   1.420   3.326   4.618
    2MOL1    Cl 2178   1.067   2.198   2.435
    2MOL1     C 2179   1.197   2.312   2.397
    2MOL1    Cl 2180   1.317   2.237   2.290
    2MOL1    Cl 2181   1.131   2.459   2.323
    2MOL1     H 2182   1.246   2.340   2.490
    2MOL1    Cl 2183   1.284   1.361   0.655
    2MOL1     C 2184   1.398   1.488   0.607
    2MOL1    Cl 2185   1.563   1.424   0.605
    2MOL1    Cl 2186   1.355   1.553   0.448
    2MOL1     H 2187   1.392   1.568   0.680
    2MOL1    Cl 2188   2.754   4.125   0.315
    2MOL1     C 2189   2.806   3.955   0.319
    2MOL1    Cl 2190   2.932   3.926   0.198
    2MOL1    Cl 2191   2.863   3.911   0.481
    2MOL1     H 2192   2.719   3.893   0.295
    2MOL1    Cl 2193   5.064   1.877   0.964
    2MOL1     C 2194   5.133   1.851   0.803
    2MOL1    Cl 2195   5.099   1.989   0.697
    2MOL1    Cl 2196   5.308   1.822   0.813
    2MOL1     H 2197   5.086   1.762   0.759
    2MOL1    Cl 2198   3.081   4.776   4.136
    2MOL1     C 2199   3.250   4.749   4.090
    2MOL1    Cl 2200   3.316   4.609   4.177
    2MOL1    Cl 2201   3.264   4.726   3.915
    2MOL1     H 2202   3.308   4.837   4.118
    2MOL1    Cl 2203   0.409   3.102   3.373
    2MOL1     C 2204   0.404   3.258   3.459
    2MOL1    Cl 2205   0.242   3.329   3.450
    2MOL1    Cl 2206   0.455   3.238   3.627
    2MOL1     H 2207   0.474   3.326   3.410
    2MOL1    Cl 2208   2.744   0.524   1.967
    2MOL1     C 2209   2.889   0.493   1.870
    2MOL1    Cl 2210   2.871   0.343   1.778
    2MOL1    Cl 2211   2.921   0.630   1.761
    2MOL1     H 2212   2.974   0.482   1.938
    2MOL1    Cl 2213   4.709   5.050   4.232
    2MOL1     C 2214   4.842   5.018   4.345
    2MOL1    Cl 2215   4.778   4.957   4.499
    2MOL1    Cl 2216   4.958   4.904   4.276
    2MOL1     H 2217   4.894   5.112   4.364
    2MOL1    Cl 2218   4.109   1.045   1.851
    2MOL1     C 2219   4.059   1.000   2.015
    2MOL1    Cl 2220   3.884   0.973   2.021
    2MOL1    Cl 2221   4.146   0.857   2.071
    2MOL1     H 2222   4.083   1.083   2.082
    2MOL1    Cl 2223   2.486   4.840   2.375
    2MOL1     C 2224   2.327   4.767   2.403
    2MOL1    Cl 2225   2.253   4.834   2.549
    2MOL1    Cl 2226   2.222   4.790   2.263
    2MOL1     H 2227   2.341   4.659   2.418
    2MOL1    Cl 2228   2.419   2.690   0.908
    2MOL1     C 2229   2.262   2.617   0.874
    2MOL1    Cl 2230   2.227   2.488   0.990
    2MOL1    Cl 2231   2.134   2.740   0.878
    2MOL1     H 2232   2.264   2.574   0.774
    2MOL1    Cl 2233   2.350   4.797   0.542
    2MOL1     C 2234   2.211   4.732   0.452
    2MOL1    Cl 2235   2.108   4.635   0.558
    2MOL1    Cl 2236   2.119   4.863   0.378
    2MOL1     H 2237   2.249   4.668   0.373
    2MOL1    Cl 2238   3.507   1.051   2.388
    2MOL1     C 2239   3.671   1.111   2.355
    2MOL1    Cl 2240   3.744   1.022   2.221
    2MOL1    Cl 2241   3.667   1.285   2.320
    2MOL1     H 2242   3.732   1.095   2.444
    2MOL1    Cl 2243   3.642   3.998   0.989
    2MOL1     C 2244   3.732   4.020   0.838
    2MOL1    Cl 2245   3.718   3.876   0.735
    2MOL1    Cl 2246   3.674   4.164   0.752
    2MOL1     H 2247   3.837   4.035   0.862
    2MOL1    Cl 2248   1.809   4.088   2.217
    2MOL1     C 2249   1.721   4.238   2.186
    2MOL1    Cl 2250   1.736   4.284   2.016
    2MOL1    Cl 2251   1.551   4.221   2.231
    2MOL1     H 2252   1.765   4.317   2.247
    2MOL1    Cl 2253   4.899   2.862   2.910
    2MOL1     C 2254   4.982   2.751   3.019
    2MOL1    Cl 2255   5.080   2.840   3.137
    2MOL1    Cl 2256   4.866   2.645   3.101
    2MOL1     H 2257   5.049   2.688   2.959
    2MOL1    Cl 2258   1.722   1.324   2.162
    2MOL1     C 2259   1.574   1.246   2.220
    2MOL1    Cl 2260   1.611   1.090   2.295
    2MOL1    Cl 2261   1.488   1.351   2.334
    2MOL1     H 2262   1.508   1.228   2.134
    2MOL1    Cl 2263   0.236   0.462   1.361
    2MOL1     C 2264   0.139   0.530   1.494
    2MOL1    Cl 2265   0.077   0.690   1.450
    2MOL1    Cl 2266   0.007   0.421   1.536
    2MOL1     H 2267   0.204   0.541   1.581
    2MOL1    Cl 2268   1.151   4.407   0.345
    2MOL1     C 2269   1.191   4.297   0.212
    2MOL1    Cl 2270   1.366   4.288   0.189
    2MOL1    Cl 2271   1.124   4.136   0.243
    2MOL1     H 2272   1.146   4.336   0.120
    2MOL1    Cl 2273   3.016   2.829   0.816
    2MOL1     C 2274   3.125   2.714   0.896
    2MOL1    Cl 2275   3.125   2.741   1.071
    2MOL1    Cl 2276   3.078   2.548   0.858
    2MOL1     H 2277   3.226   2.731   0.858
    2MOL1    Cl 2278   0.640   1.846   2.436
    2MOL1     C 2279   0.594   1.992   2.525
    2MOL1    Cl 2280   0.615   1.968   2.699
    2MOL1    Cl 2281   0.690   2.131   2.470
    2MOL1     H 2282   0.489   2.013   2.505
    2MOL1    Cl 2283   2.485   0.866   5.060
    2MOL1     C 2284   2.618   0.780   4.982
    2MOL1    Cl 2285   2.761   0.884   4.969
    2MOL1    Cl 2286   2.657   0.632   5.071
    2MOL1     H 2287   2.587   0.752   4.881
    2MOL1    Cl 2288   0.403   4.222   4.090
    2MOL1     C 2289   0.432   4.333   4.225
    2MOL1    Cl 2290   0.321   4.471   4.218
    2MOL1    Cl 2291   0.416   4.248   4.380
    2MOL1     H 2292   0.534   4.371   4.217
    2MOL1    Cl 2293   5.062   3.855   1.531
    2MOL1     C 2294   5.138   4.013   1.555
    2MOL1    Cl 2295   5.308   3.994   1.602
    2MOL1    Cl 2296   5.124   4.113   1.409
    2MOL1     H 2297   5.086   4.065   1.636
    2MOL1    Cl 2298   2.459   2.333   0.500
    2MOL1     C 2299   2.613   2.377   0.424
    2MOL1    Cl 2300   2.712   2.233   0.398
    2MOL1    Cl 2301   2.584   2.462   0.271
    2MOL1     H 2302   2.666   2.444   0.491
    2MOL1    Cl 2303   5.040   4.964   3.630
    2MOL1     C 2304   5.190   5.047   3.588
    2MOL1    Cl 2305   5.207   5.198   3.679
    2MOL1    Cl 2306   5.329   4.941   3.618
    2MOL1     H 2307   5.188   5.071   3.481
    2MOL1    Cl 2308   3.413   2.472   2.013
    2MOL1     C 2309   3.394   2.477   2.189
    2MOL1    Cl 2310   3.290   2.611   2.237
    2MOL1    Cl 2311   3.330   2.323   2.248
    2MOL1     H 2312   3.493   2.492   2.233
    2MOL1    Cl 2313   4.029   1.452   5.153
    2MOL1     C 2314   4.101   1.293   5.184
    2MOL1    Cl 2315   4.267   1.310   5.244
    2MOL1    Cl 2316   4.002   1.202   5.300
    2MOL1     H 2317   4.103   1.237   5.090
    2MOL1    Cl 2318   1.094   2.018   4.641
    2MOL1     C 2319   1.163   2.014   4.478
    2MOL1    Cl 2320   1.302   1.905   4.471
    2MOL1    Cl 2321   1.040   1.966   4.359
    2MOL1     H 2322   1.197   2.115   4.453
    2MOL1    Cl 2323   0.562   0.361   2.220
    2MOL1     C 2324   0.390   0.389   2.189
    2MOL1    Cl 2325   0.364   0.441   2.022
    2MOL1    Cl 2326   0.296   0.243   2.224
    2MOL1     H 2327   0.355   0.468   2.255
    2MOL1    Cl 2328   3.712   0.558   1.175
    2MOL1     C 2329   3.811   0.432   1.100
    2MOL1    Cl 2330   3.776   0.422   0.926
    2MOL1    Cl 2331   3.983   0.464   1.127
    2MOL1     H 2332   3.786   0.336   1.145
    2MOL1    Cl 2333   3.091   2.275   3.770
    2MOL1     C 2334   3.212   2.296   3.644
    2MOL1    Cl 2335   3.326   2.160   3.643
    2MOL1    Cl 2336   3.135   2.313   3.485
    2MOL1     H 2337   3.268   2.387   3.664
    2MOL1    Cl 2338   3.577   2.904   3.537
    2MOL1     C 2339   3.748   2.884   3.577
    2MOL1    Cl 2340   3.848   2.995   3.482
    2MOL1    Cl 2341   3.774   2.909   3.751
    2MOL1     H 2342   3.777   2.782   3.553
    2MOL1    Cl 2343   3.085   4.354   1.782
    2MOL1     C 2344   3.209   4.480   1.786
    2MOL1    Cl 2345   3.361   4.420   1.716
    2MOL1    Cl 2346   3.154   4.625   1.699
    2MOL1     H 2347   3.227   4.507   1.890
    2MOL1    Cl 2348   0.557   1.276   4.050
    2MOL1     C 2349   0.523   1.340   4.211
    2MOL1    Cl 2350   0.510   1.208   4.329
    2MOL1    Cl 2351   0.648   1.455   4.260
    2MOL1     H 2352   0.427   1.393   4.208
    2MOL1    Cl 2353   0.331   1.682   1.561
    2MOL1     C 2354   0.366   1.820   1.667
    2MOL1    Cl 2355   0.509   1.787   1.767
    2MOL1    Cl 2356   0.390   1.967   1.571
    2MOL1     H 2357   0.281   1.835   1.733
    2MOL1    Cl 2358   0.190   2.956   1.521
    2MOL1     C 2359   0.099   2.945   1.370
    2MOL1    Cl 2360   0.079   3.106   1.297
    2MOL1    Cl 2361   0.179   2.835   1.256
    2MOL1     H 2362   0.000   2.905   1.392
    2MOL1    Cl 2363   0.762   3.847   0.081
    2MOL1     C 2364   0.898   3.734   0.069
    2MOL1    Cl 2365   0.975   3.712   0.227
    2MOL1    Cl 2366   0.844   3.578   0.005
    2MOL1     H 2367   0.972   3.776   0.000
    2MOL1    Cl 2368   3.614   1.420   1.374
    2MOL1     C 2369   3.686   1.282   1.458
    2MOL1    Cl 2370   3.709   1.146   1.346
    2MOL1    Cl 2371   3.841   1.328   1.532
    2MOL1     H 2372   3.618   1.250   1.537
    2MOL1    Cl 2373   3.524   1.593   4.685
    2MOL1     C 2374   3.464   1.732   4.777
    2MOL1    Cl 2375   3.541   1.739   4.936
    2MOL1    Cl 2376   3.493   1.882   4.688
    2MOL1     H 2377   3.357   1.720   4.791
    2MOL1    Cl 2378   0.722   3.870   4.191
    2MOL1     C 2379   0.687   4.012   4.291
    2MOL1    Cl 2380   0.593   3.965   4.434
    2MOL1    Cl 2381   0.837   4.093   4.340
    2MOL1     H 2382   0.628   4.082   4.232
    2MOL1    Cl 2383   3.459   3.294   5.229
    2MOL1     C 2384   3.608   3.218   5.169
    2MOL1    Cl 2385   3.735   3.339   5.148
    2MOL1    Cl 2386   3.661   3.089   5.278
    2MOL1     H 2387   3.586   3.174   5.071
    2MOL1    Cl 2388   1.137   2.762   1.529
    2MOL1     C 2389   0.983   2.685   1.569
    2MOL1    Cl 2390   0.899   2.633   1.421
    2MOL1    Cl 2391   1.008   2.547   1.677
    2MOL1     H 2392   0.920   2.758   1.621
    2MOL1    Cl 2393   4.363   5.177   5.334
    2MOL1     C 2394   4.399   5.075   5.193
    2MOL1    Cl 2395   4.269   5.086   5.073
    2MOL1    Cl 2396   4.554   5.120   5.121
    2MOL1     H 2397   4.406   4.971   5.227
    2MOL1    Cl 2398   4.501   1.181   0.219
    2MOL1     C 2399   4.358   1.143   0.316
    2MOL1    Cl 2400   4.312   0.973   0.297
    2MOL1    Cl 2401   4.387   1.181   0.487
    2MOL1     H 2402   4.275   1.205   0.281
    2MOL1    Cl 2403   3.176   0.993   3.518
    2MOL1     C 2404   3.089   0.840   3.503
    2MOL1    Cl 2405   3.123   0.763   3.347
    2MOL1    Cl 2406   3.131   0.731   3.637
    2MOL1     H 2407   2.982   0.861   3.509
    2MOL1    Cl 2408   4.272   1.515   4.910
    2MOL1     C 2409   4.392   1.388   4.935
    2MOL1    Cl 2410   4.474   1.409   5.090
    2MOL1    Cl 2411   4.316   1.228   4.927
    2MOL1     H 2412   4.466   1.394   4.855
    2MOL1    Cl 2413   4.682   2.230   3.943
    2MOL1     C 2414   4.775   2.152   3.815
    2MOL1    Cl 2415   4.698   2.000   3.767
    2MOL1    Cl 2416   4.793   2.260   3.676
    2MOL1     H 2417   4.875   2.129   3.854
    2MOL1    Cl 2418   3.243   0.655   3.845
    2MOL1     C 2419   3.370   0.775   3.816
    2MOL1    Cl 2420   3.504   0.703   3.725
    2MOL1    Cl 2421   3.305   0.915   3.729
    2MOL1     H 2422   3.408   0.809   3.912
    2MOL1    Cl 2423   3.913   3.654   1.595
    2MOL1     C 2424   3.857   3.811   1.654
    2MOL1    Cl 2425   3.995   3.913   1.697
    2MOL1    Cl 2426   3.756   3.891   1.532
    2MOL1     H 2427   3.797   3.795   1.743
    2MOL1    Cl 2428   0.532   0.109   1.206
    2MOL1     C 2429   0.536   0.184   1.367
    2MOL1    Cl 2430   0.472   0.072   1.489
    2MOL1    Cl 2431   0.700   0.234   1.408
    2MOL1     H 2432   0.472   0.273   1.365
    2MOL1    Cl 2433   2.300   4.079   3.631
    2MOL1     C 2434   2.168   3.980   3.694
    2MOL1    Cl 2435   2.047   3.948   3.569
    2MOL1    Cl 2436   2.230   3.827   3.760
    2MOL1     H 2437   2.119   4.034   3.776
    2MOL1    Cl 2438   4.363   3.836   1.317
    2MOL1     C 2439   4.498   3.941   1.364
    2MOL1    Cl 2440   4.526   3.931   1.539
    2MOL1    Cl 2441   4.644   3.899   1.274
    2MOL1     H 2442   4.471   4.044   1.340
    2MOL1    Cl 2443   3.277   4.227   4.646
    2MOL1     C 2444   3.160   4.358   4.628
    2MOL1    Cl 2445   3.228   4.490   4.531
    2MOL1    Cl 2446   3.010   4.297   4.556
    2MOL1     H 2447   3.136   4.397   4.728
    2MOL1    Cl 2448   2.115   1.802   4.641
    2MOL1     C 2449   2.053   1.872   4.790
    2MOL1    Cl 2450   2.024   1.746   4.912
    2MOL1    Cl 2451   2.164   1.995   4.853
    2MOL1     H 2452   1.957   1.921   4.768
    2MOL1    Cl 2453   1.578   3.658   1.930
    2MOL1     C 2454   1.519   3.492   1.909
    2MOL1    Cl 2455   1.625   3.378   1.994
    2MOL1    Cl 2456   1.352   3.478   1.967
    2MOL1     H 2457   1.521   3.468   1.803
    2MOL1    Cl 2458   1.862   0.081   1.335
    2MOL1     C 2459   1.859   0.136   1.503
    2MOL1    Cl 2460   1.709   0.223   1.538
    2MOL1    Cl 2461   1.880   0.000   1.614
    2MOL1     H 2462   1.943   0.205   1.517
    2MOL1    Cl 2463   4.109   4.454   3.747
    2MOL1     C 2464   4.246   4.411   3.849
    2MOL1    Cl 2465   4.316   4.256   3.798
    2MOL1    Cl 2466   4.369   4.539   3.846
    2MOL1     H 2467   4.211   4.400   3.952
    2MOL1    Cl 2468   0.727   1.136   3.889
    2MOL1     C 2469   0.719   1.003   3.771
    2MOL1    Cl 2470   0.795   1.051   3.618
    2MOL1    Cl 2471   0.795   0.857   3.836
    2MOL1     H 2472   0.613   0.981   3.752
    2MOL1    Cl 2473   1.720   4.593   0.603
    2MOL1     C 2474   1.693   4.450   0.703
    2MOL1    Cl 2475   1.826   4.428   0.818
    2MOL1    Cl 2476   1.538   4.463   0.790
    2MOL1     H 2477   1.688   4.363   0.638
    2MOL1    Cl 2478   3.394   0.510   0.060
    2MOL1     C 2479   3.243   0.430   0.104
    2MOL1    Cl 2480   3.110   0.485   0.000
    2MOL1    Cl 2481   3.261   0.254   0.094
    2MOL1     H 2482   3.219   0.455   0.207
    2MOL1    Cl 2483   3.877   0.772   3.241
    2MOL1     C 2484   3.821   0.938   3.266
    2MOL1    Cl 2485   3.651   0.954   3.219
    2MOL1    Cl 2486   3.844   0.987   3.435
    2MOL1     H 2487   3.881   1.004   3.203
    2MOL1    Cl 2488   0.251   4.700   4.120
    2MOL1     C 2489   0.161   4.620   3.990
    2MOL1    Cl 2490   0.150   4.727   3.848
    2MOL1    Cl 2491   0.237   4.467   3.946
    2MOL1     H 2492   0.060   4.600   4.025
    2MOL1    Cl 2493   4.409   1.834   5.289
    2MOL1     C 2494   4.346   1.718   5.171
    2MOL1    Cl 2495   4.443   1.720   5.023
    2MOL1    Cl 2496   4.341   1.555   5.240
    2MOL1     H 2497   4.244   1.748   5.145
    2MOL1    Cl 2498   0.400   0.637   2.632
    2MOL1     C 2499   0.488   0.681   2.779
    2MOL1    Cl 2500   0.394   0.797   2.875
    2MOL1    Cl 2501   0.524   0.536   2.875
    2MOL1     H 2502   0.582   0.728   2.751
    2MOL1    Cl 2503   0.332   2.165   1.874
    2MOL1     C 2504   0.480   2.184   1.970
    2MOL1    Cl 2505   0.481   2.069   2.105
    2MOL1    Cl 2506   0.623   2.162   1.868
    2MOL1     H 2507   0.481   2.285   2.010
    2MOL1    Cl 2508   3.615   2.247   1.851
    2MOL1     C 2509   3.690   2.227   1.692
    2MOL1    Cl 2510   3.593   2.306   1.567
    2MOL1    Cl 2511   3.855   2.292   1.693
    2MOL1     H 2512   3.695   2.120   1.670
    2MOL1    Cl 2513   2.600   0.904   4.529
    2MOL1     C 2514   2.685   0.911   4.374
    2MOL1    Cl 2515   2.622   1.041   4.273
    2MOL1    Cl 2516   2.859   0.932   4.401
    2MOL1     H 2517   2.670   0.816   4.322
    2MOL1    Cl 2518   4.538   2.654   4.878
    2MOL1     C 2519   4.662   2.538   4.929
    2MOL1    Cl 2520   4.770   2.611   5.048
    2MOL1    Cl 2521   4.586   2.392   4.994
    2MOL1     H 2522   4.721   2.510   4.841
    2MOL1    Cl 2523   3.944   0.892   2.784
    2MOL1     C 2524   3.819   0.791   2.859
    2MOL1    Cl 2525   3.699   0.740   2.739
    2MOL1    Cl 2526   3.893   0.650   2.937
    2MOL1     H 2527   3.769   0.850   2.936
    2MOL1    Cl 2528   3.372   2.175   3.395
    2MOL1     C 2529   3.294   2.145   3.239
    2MOL1    Cl 2530   3.118   2.137   3.258
    2MOL1    Cl 2531   3.338   2.272   3.123
    2MOL1     H 2532   3.329   2.050   3.201
    2MOL1    Cl 2533   3.572   1.624   1.580
    2MOL1     C 2534   3.738   1.670   1.538
    2MOL1    Cl 2535   3.805   1.558   1.418
    2MOL1    Cl 2536   3.743   1.837   1.478
    2MOL1     H 2537   3.799   1.664   1.629
    2MOL1    Cl 2538   0.596   3.505   1.497
    2MOL1     C 2539   0.454   3.431   1.572
    2MOL1    Cl 2540   0.502   3.314   1.695
    2MOL1    Cl 2541   0.349   3.556   1.642
    2MOL1     H 2542   0.397   3.379   1.495
    2MOL1    Cl 2543   2.552   3.890   4.529
    2MOL1     C 2544   2.452   3.783   4.629
    2MOL1    Cl 2545   2.382   3.654   4.531
    2MOL1    Cl 2546   2.548   3.715   4.762
    2MOL1     H 2547   2.371   3.842   4.672
    2MOL1    Cl 2548   2.071   1.698   2.021
    2MOL1     C 2549   1.927   1.610   1.967
    2MOL1    Cl 2550   1.818   1.716   1.877
    2MOL1    Cl 2551   1.973   1.470   1.868
    2MOL1     H 2552   1.874   1.573   2.055
    2MOL1    Cl 2553   4.735   2.514   0.282
    2MOL1     C 2554   4.563   2.543   0.257
    2MOL1    Cl 2555   4.538   2.688   0.157
    2MOL1    Cl 2556   4.485   2.402   0.182
    2MOL1     H 2557   4.516   2.561   0.354
    2MOL1    Cl 2558   3.247   4.546   3.564
    2MOL1     C 2559   3.071   4.549   3.585
    2MOL1    Cl 2560   2.998   4.402   3.518
    2MOL1    Cl 2561   3.029   4.567   3.756
    2MOL1     H 2562   3.031   4.635   3.531
    2MOL1    Cl 2563   5.104   3.745   5.311
    2MOL1     C 2564   5.060   3.857   5.181
    2MOL1    Cl 2565   4.997   3.768   5.041
    2MOL1    Cl 2566   4.942   3.976   5.238
    2MOL1     H 2567   5.150   3.910   5.150
    2MOL1    Cl 2568   1.152   2.840   3.293
    2MOL1     C 2569   1.209   2.677   3.331
    2MOL1    Cl 2570   1.203   2.648   3.506
    2MOL1    Cl 2571   1.114   2.556   3.244
    2MOL1     H 2572   1.313   2.669   3.298
    2MOL1    Cl 2573   2.653   2.883   1.271
    2MOL1     C 2574   2.553   2.804   1.393
    2MOL1    Cl 2575   2.502   2.921   1.516
    2MOL1    Cl 2576   2.412   2.727   1.318
    2MOL1     H 2577   2.613   2.727   1.442
    2MOL1    Cl 2578   2.512   5.008   3.366
    2MOL1     C 2579   2.489   4.839   3.320
    2MOL1    Cl 2580   2.373   4.826   3.186
    2MOL1    Cl 2581   2.643   4.764   3.276
    2MOL1     H 2582   2.447   4.786   3.406
    2MOL1    Cl 2583   5.107   2.713   4.061
    2MOL1     C 2584   5.011   2.726   4.210
    2MOL1    Cl 2585   5.095   2.827   4.329
    2MOL1    Cl 2586   4.850   2.791   4.175
    2MOL1     H 2587   5.000   2.625   4.252
    2MOL1    Cl 2588   2.686   2.121   3.602
    2MOL1     C 2589   2.588   2.260   3.554
    2MOL1    Cl 2590   2.638   2.320   3.395
    2MOL1    Cl 2591   2.416   2.217   3.553
    2MOL1     H 2592   2.603   2.340   3.627
    2MOL1    Cl 2593   1.978   0.789   3.990
    2MOL1     C 2594   1.950   0.962   4.016
    2MOL1    Cl 2595   1.813   0.987   4.125
    2MOL1    Cl 2596   2.096   1.039   4.081
    2MOL1     H 2597   1.927   1.009   3.920
    2MOL1    Cl 2598   0.959   0.528   0.882
    2MOL1     C 2599   0.912   0.367   0.826
    2MOL1    Cl 2600   0.769   0.310   0.913
    2MOL1    Cl 2601   0.883   0.367   0.652
    2MOL1     H 2602   0.995   0.298   0.847
    2MOL1    Cl 2603   4.182   1.358   3.817
    2MOL1     C 2604   4.161   1.436   3.659
    2MOL1    Cl 2605   3.999   1.507   3.646
    2MOL1    Cl 2606   4.285   1.560   3.634
    2MOL1     H 2607   4.171   1.360   3.581
    2MOL1    Cl 2608   3.237   4.862   3.201
    2MOL1     C 2609   3.236   4.951   3.354
    2MOL1    Cl 2610   3.139   5.099   3.339
    2MOL1    Cl 2611   3.175   4.849   3.485
    2MOL1     H 2612   3.339   4.980   3.377
    2MOL1    Cl 2613   2.044   2.516   3.054
    2MOL1     C 2614   2.217   2.547   3.078
    2MOL1    Cl 2615   2.241   2.687   3.184
    2MOL1    Cl 2616   2.297   2.404   3.146
    2MOL1     H 2617   2.262   2.569   2.981
    2MOL1    Cl 2618   1.599   0.552   5.272
    2MOL1     C 2619   1.473   0.659   5.207
    2MOL1    Cl 2620   1.346   0.564   5.129
    2MOL1    Cl 2621   1.406   0.760   5.336
    2MOL1     H 2622   1.519   0.724   5.132
    2MOL1    Cl 2623   2.090   4.329   4.305
    2MOL1     C 2624   2.222   4.403   4.397
    2MOL1    Cl 2625   2.161   4.536   4.498
    2MOL1    Cl 2626   2.304   4.282   4.497
    2MOL1     H 2627   2.295   4.444   4.327
    2MOL1    Cl 2628   0.856   3.697   5.068
    2MOL1     C 2629   0.779   3.853   5.032
    2MOL1    Cl 2630   0.810   3.900   4.864
    2MOL1    Cl 2631   0.605   3.845   5.065
    2MOL1     H 2632   0.823   3.928   5.098
    2MOL1    Cl 2633   5.107   3.238   1.861
    2MOL1     C 2634   5.109   3.061   1.868
    2MOL1    Cl 2635   5.100   3.005   2.036
    2MOL1    Cl 2636   4.976   2.993   1.772
    2MOL1     H 2637   5.203   3.026   1.825
    2MOL1    Cl 2638   3.210   1.338   3.560
    2MOL1     C 2639   3.325   1.220   3.625
    2MOL1    Cl 2640   3.400   1.128   3.493
    2MOL1    Cl 2641   3.449   1.301   3.722
    2MOL1     H 2642   3.271   1.150   3.689
    2MOL1    Cl 2643   0.015   1.235   1.694
    2MOL1     C 2644   0.078   1.310   1.842
    2MOL1    Cl 2645   0.254   1.328   1.833
    2MOL1    Cl 2646   0.001   1.467   1.869
    2MOL1     H 2647   0.054   1.245   1.926
    2MOL1    Cl 2648   1.499   0.273   1.350
    2MOL1     C 2649   1.480   0.131   1.246
    2MOL1    Cl 2650   1.630   0.036   1.240
    2MOL1    Cl 2651   1.345   0.031   1.301
    2MOL1     H 2652   1.457   0.165   1.144
    2MOL1    Cl 2653   2.703   3.069   3.794
    2MOL1     C 2654   2.753   2.939   3.902
    2MOL1    Cl 2655   2.807   2.798   3.809
    2MOL1    Cl 2656   2.882   2.994   4.011
    2MOL1     H 2657   2.668   2.909   3.963
    2MOL1    Cl 2658   5.128   3.457   1.113
    2MOL1     C 2659   5.106   3.348   1.250
    2MOL1    Cl 2660   5.262   3.284   1.305
    2MOL1    Cl 2661   5.023   3.431   1.383
    2MOL1     H 2662   5.044   3.264   1.218
    2MOL1    Cl 2663   1.731   0.269   0.205
    2MOL1     C 2664   1.891   0.200   0.240
    2MOL1    Cl 2665   1.984   0.309   0.345
    2MOL1    Cl 2666   1.875   0.040   0.314
    2MOL1     H 2667   1.945   0.189   0.146
    2MOL1    Cl 2668   0.959   1.879   2.988
    2MOL1     C 2669   1.130   1.926   2.981
    2MOL1    Cl 2670   1.181   1.995   3.136
    2MOL1    Cl 2671   1.231   1.788   2.938
    2MOL1     H 2672   1.141   2.003   2.904
    2MOL1    Cl 2673   2.874   3.826   2.456
    2MOL1     C 2674   2.712   3.896   2.460
    2MOL1    Cl 2675   2.590   3.775   2.417
    2MOL1    Cl 2676   2.678   3.965   2.620
    2MOL1     H 2677   2.708   3.977   2.386
    2MOL1    Cl 2678   1.532   0.766   2.770
    2MOL1     C 2679   1.513   0.625   2.875
    2MOL1    Cl 2680   1.380   0.523   2.819
    2MOL1    Cl 2681   1.664   0.532   2.882
    2MOL1     H 2682   1.490   0.660   2.976
    2MOL1    Cl 2683   5.206   4.926   2.789
    2MOL1     C 2684   5.060   5.022   2.760
    2MOL1    Cl 2685   5.080   5.122   2.615
    2MOL1    Cl 2686   4.918   4.917   2.745
    2MOL1     H 2687   5.045   5.088   2.846
    2MOL1    Cl 2688   2.721   3.843   3.049
    2MOL1     C 2689   2.644   3.881   3.204
    2MOL1    Cl 2690   2.550   3.743   3.262
    2MOL1    Cl 2691   2.765   3.930   3.324
    2MOL1     H 2692   2.576   3.965   3.188
    2MOL1    Cl 2693   5.177   5.102   0.268
    2MOL1     C 2694   5.007   5.079   0.223
    2MOL1    Cl 2695   4.983   4.918   0.152
    2MOL1    Cl 2696   4.902   5.101   0.365
    2MOL1     H 2697   4.981   5.154   0.149
    2MOL1    Cl 2698   1.704   4.077   5.185
    2MOL1     C 2699   1.529   4.054   5.191
    2MOL1    Cl 2700   1.445   4.204   5.146
    2MOL1    Cl 2701   1.480   3.921   5.084
    2MOL1     H 2702   1.501   4.028   5.293
    2MOL1    Cl 2703   0.501   1.818   3.388
    2MOL1     C 2704   0.469   1.943   3.510
    2MOL1    Cl 2705   0.572   1.919   3.652
    2MOL1    Cl 2706   0.493   2.104   3.441
    2MOL1     H 2707   0.364   1.934   3.541
    2MOL1    Cl 2708   4.487   0.615   4.818
    2MOL1     C 2709   4.564   0.457   4.843
    2MOL1    Cl 2710   4.733   0.461   4.790
    2MOL1    Cl 2711   4.554   0.409   5.013
    2MOL1     H 2712   4.511   0.383   4.783
    2MOL1    Cl 2713   4.350   2.385   2.370
    2MOL1     C 2714   4.295   2.452   2.524
    2MOL1    Cl 2715   4.142   2.537   2.504
    2MOL1    Cl 2716   4.279   2.323   2.646
    2MOL1     H 2717   4.370   2.523   2.560
    2MOL1    Cl 2718   3.586   4.536   1.637
    2MOL1     C 2719   3.497   4.670   1.711
    2MOL1    Cl 2720   3.600   4.757   1.827
    2MOL1    Cl 2721   3.436   4.781   1.587
    2MOL1     H 2722   3.411   4.630   1.766
    2MOL1    Cl 2723   5.323   5.340   0.765
    2MOL1     C 2724   5.192   5.223   0.745
    2MOL1    Cl 2725   5.067   5.286   0.636
    2MOL1    Cl 2726   5.254   5.068   0.684
    2MOL1     H 2727   5.146   5.205   0.842
    2MOL1    Cl 2728   4.122   5.232   0.318
    2MOL1     C 2729   3.971   5.164   0.254
    2MOL1    Cl 2730   4.003   5.065   0.111
    2MOL1    Cl 2731   3.889   5.068   0.379
    2MOL1     H 2732   3.905   5.246   0.225
    2MOL1    Cl 2733   0.771   4.945   2.413
    2MOL1     C 2734   0.674   5.080   2.352
    2MOL1    Cl 2735   0.529   5.102   2.452
    2MOL1    Cl 2736   0.770   5.229   2.348
    2MOL1     H 2737   0.642   5.056   2.250
    2MOL1    Cl 2738   2.696   5.134   4.434
    2MOL1     C 2739   2.870   5.134   4.401
    2MOL1    Cl 2740   2.912   5.006   4.286
    2MOL1    Cl 2741   2.922   5.292   4.340
    2MOL1     H 2742   2.923   5.115   4.495
    2MOL1    Cl 2743   4.254   4.110   1.832
    2MOL1     C 2744   4.410   4.191   1.858
    2MOL1    Cl 2745   4.542   4.073   1.853
    2MOL1    Cl 2746   4.435   4.317   1.736
    2MOL1     H 2747   4.408   4.237   1.956
    2MOL1    Cl 2748   3.138   3.722   4.812
    2MOL1     C 2749   3.295   3.689   4.887
    2MOL1    Cl 2750   3.308   3.772   5.043
    2MOL1    Cl 2751   3.320   3.515   4.907
    2MOL1     H 2752   3.373   3.728   4.821
    2MOL1    Cl 2753   2.835   0.668   4.294
    2MOL1     C 2754   2.753   0.519   4.344
    2MOL1    Cl 2755   2.817   0.463   4.499
    2MOL1    Cl 2756   2.578   0.546   4.356
    2MOL1     H 2757   2.771   0.442   4.269
    2MOL1    Cl 2758   3.406   3.205   1.702
    2MOL1     C 2759   3.367   3.314   1.836
    2MOL1    Cl 2760   3.481   3.449   1.841
    2MOL1    Cl 2761   3.201   3.373   1.822
    2MOL1     H 2762   3.376   3.258   1.929
    2MOL1    Cl 2763   0.259   2.998   3.552
    2MOL1     C 2764   0.098   3.011   3.625
    2MOL1    Cl 2765   0.098   2.943   3.788
    2MOL1    Cl 2766   0.044   3.180   3.628
    2MOL1     H 2767   0.028   2.954   3.564
    2MOL1    Cl 2768   1.530   4.038   3.060
    2MOL1     C 2769   1.474   3.871   3.082
    2MOL1    Cl 2770   1.607   3.757   3.056
    2MOL1    Cl 2771   1.404   3.849   3.243
    2MOL1     H 2772   1.396   3.851   3.007
    2MOL1    Cl 2773   2.940   4.227   1.910
    2MOL1     C 2774   2.843   4.234   1.762
    2MOL1    Cl 2775   2.686   4.157   1.787
    2MOL1    Cl 2776   2.823   4.402   1.710
    2MOL1     H 2777   2.896   4.180   1.684
    2MOL1    Cl 2778   5.111   1.826   2.888
    2MOL1     C 2779   5.144   1.663   2.948
    2MOL1    Cl 2780   5.266   1.666   3.076
    2MOL1    Cl 2781   4.995   1.586   3.005
    2MOL1     H 2782   5.183   1.603   2.865
    2MOL1    Cl 2783   4.313   3.601   2.990
    2MOL1     C 2784   4.416   3.464   3.035
    2MOL1    Cl 2785   4.504   3.404   2.893
    2MOL1    Cl 2786   4.529   3.511   3.163
    2MOL1     H 2787   4.353   3.384   3.072
    2MOL1    Cl 2788   2.598   4.894   2.751
    2MOL1     C 2789   2.759   4.927   2.686
    2MOL1    Cl 2790   2.834   5.063   2.771
    2MOL1    Cl 2791   2.862   4.783   2.696
    2MOL1     H 2792   2.748   4.954   2.580
    2MOL1    Cl 2793   2.992   3.301   2.681
    2MOL1     C 2794   3.028   3.245   2.517
    2MOL1    Cl 2795   3.000   3.070   2.503
    2MOL1    Cl 2796   2.932   3.333   2.398
    2MOL1     H 2797   3.134   3.264   2.497
    2MOL1    Cl 2798   1.932   3.292   4.204
    2MOL1     C 2799   1.938   3.465   4.166
    2MOL1    Cl 2800   2.076   3.501   4.061
    2MOL1    Cl 2801   1.786   3.517   4.090
    2MOL1     H 2802   1.950   3.521   4.259
    2MOL1    Cl 2803   4.829   1.975   0.762
    2MOL1     C 2804   4.832   1.860   0.627
    2MOL1    Cl 2805   4.992   1.856   0.552
    2MOL1    Cl 2806   4.786   1.698   0.683
    2MOL1     H 2807   4.760   1.892   0.552
    2MOL1    Cl 2808   2.180   2.956   2.158
    2MOL1     C 2809   2.066   3.073   2.090
    2MOL1    Cl 2810   2.148   3.178   1.972
    2MOL1    Cl 2811   1.929   2.990   2.014
    2MOL1     H 2812   2.028   3.136   2.171
    2MOL1    Cl 2813   1.923   1.019   5.104
    2MOL1     C 2814   1.985   0.962   4.948
    2MOL1    Cl 2815   2.151   1.017   4.923
    2MOL1    Cl 2816   1.975   0.786   4.937
    2MOL1     H 2817   1.922   1.005   4.868
    2MOL1    Cl 2818   0.226   5.250   4.000
    2MOL1     C 2819   0.300   5.091   3.977
    2MOL1    Cl 2820   0.199   4.990   3.873
    2MOL1    Cl 2821   0.463   5.107   3.909
    2MOL1     H 2822   0.308   5.042   4.075
    2MOL1    Cl 2823   1.505   4.477   1.670
    2MOL1     C 2824   1.679   4.489   1.706
    2MOL1    Cl 2825   1.715   4.643   1.785
    2MOL1    Cl 2826   1.731   4.353   1.806
    2MOL1     H 2827   1.733   4.485   1.611
    2MOL1    Cl 2828   4.865   1.025   4.406
    2MOL1     C 2829   4.884   1.112   4.253
    2MOL1    Cl 2830   4.744   1.084   4.148
    2MOL1    Cl 2831   4.905   1.286   4.283
    2MOL1     H 2832   4.973   1.075   4.203
    2MOL1    Cl 2833   2.170   3.277   0.300
    2MOL1     C 2834   2.345   3.257   0.283
    2MOL1    Cl 2835   2.393   3.277   0.113
    2MOL1    Cl 2836   2.431   3.372   0.386
    2MOL1     H 2837   2.372   3.156   0.314
    2MOL1    Cl 2838   2.619   4.215   1.551
    2MOL1     C 2839   2.678   4.258   1.390
    2MOL1    Cl 2840   2.732   4.114   1.302
    2MOL1    Cl 2841   2.553   4.344   1.298
    2MOL1     H 2842   2.764   4.326   1.402
    2MOL1    Cl 2843   1.400   0.943   3.980
    2MOL1     C 2844   1.565   0.910   3.923
    2MOL1    Cl 2845   1.662   1.058   3.922
    2MOL1    Cl 2846   1.641   0.786   4.024
    2MOL1     H 2847   1.559   0.872   3.821
    2MOL1    Cl 2848   1.796   1.071   2.924
    2MOL1     C 2849   1.631   1.125   2.893
    2MOL1    Cl 2850   1.622   1.216   2.741
    2MOL1    Cl 2851   1.519   0.987   2.890
    2MOL1     H 2852   1.601   1.192   2.974
    2MOL1    Cl 2853   1.931   3.249   3.319
    2MOL1     C 2854   2.008   3.190   3.468
    2MOL1    Cl 2855   2.097   3.321   3.548
    2MOL1    Cl 2856   1.887   3.122   3.578
    2MOL1     H 2857   2.078   3.112   3.441
    2MOL1    Cl 2858   3.680   4.317   3.117
    2MOL1     C 2859   3.837   4.295   3.038
    2MOL1    Cl 2860   3.969   4.332   3.150
    2MOL1    Cl 2861   3.853   4.130   2.976
    2MOL1     H 2862   3.843   4.364   2.954
    2MOL1    Cl 2863   2.601   5.173   0.334
    2MOL1     C 2864   2.688   5.129   0.481
    2MOL1    Cl 2865   2.716   5.272   0.582
    2MOL1    Cl 2866   2.600   5.005   0.572
    2MOL1     H 2867   2.786   5.088   0.453
    2MOL1    Cl 2868   1.739   3.870   3.966
    2MOL1     C 2869   1.643   3.820   4.105
    2MOL1    Cl 2870   1.570   3.960   4.185
    2MOL1    Cl 2871   1.518   3.704   4.056
    2MOL1     H 2872   1.709   3.770   4.177
    2MOL1    Cl 2873   2.244   2.164   1.241
    2MOL1     C 2874   2.372   2.253   1.326
    2MOL1    Cl 2875   2.308   2.404   1.393
    2MOL1    Cl 2876   2.443   2.153   1.454
    2MOL1     H 2877   2.450   2.278   1.253
    2MOL1    Cl 2878   3.200   0.151   3.640
    2MOL1     C 2879   3.084   0.173   3.773
    2MOL1    Cl 2880   2.963   0.295   3.731
    2MOL1    Cl 2881   3.006   0.019   3.813
    2MOL1     H 2882   3.139   0.207   3.861
    2MOL1    Cl 2883   2.019   1.335   2.276
    2MOL1     C 2884   2.068   1.266   2.121
    2MOL1    Cl 2885   2.228   1.192   2.133
    2MOL1    Cl 2886   1.949   1.148   2.064
    2MOL1     H 2887   2.074   1.347   2.047
    2MOL1    Cl 2888   2.198   2.713   0.236
    2MOL1     C 2889   2.286   2.858   0.287
    2MOL1    Cl 2890   2.191   2.950   0.404
    2MOL1    Cl 2891   2.444   2.815   0.354
    2MOL1     H 2892   2.302   2.921   0.199
    2MOL1    Cl 2893   3.446   2.636   4.265
    2MOL1     C 2894   3.573   2.561   4.363
    2MOL1    Cl 2895   3.517   2.534   4.529
    2MOL1    Cl 2896   3.627   2.409   4.289
    2MOL1     H 2897   3.658   2.629   4.366
    2MOL1    Cl 2898   0.960   0.404   1.920
    2MOL1     C 2899   0.788   0.384   1.958
    2MOL1    Cl 2900   0.724   0.530   2.034
    2MOL1    Cl 2901   0.696   0.344   1.812
    2MOL1     H 2902   0.779   0.301   2.029
    2MOL1    Cl 2903   4.363   4.967   0.914
    2MOL1     C 2904   4.279   4.859   0.802
    2MOL1    Cl 2905   4.146   4.944   0.721
    2MOL1    Cl 2906   4.391   4.792   0.682
    2MOL1     H 2907   4.237   4.776   0.860
    2MOL1    Cl 2908   0.128   4.480   1.128
    2MOL1     C 2909   0.247   4.356   1.084
    2MOL1    Cl 2910   0.411   4.412   1.121
    2MOL1    Cl 2911   0.212   4.204   1.168
    2MOL1     H 2912   0.240   4.338   0.977
    2MOL1    Cl 2913   2.289   2.523   3.779
    2MOL1     C 2914   2.193   2.376   3.761
    2MOL1    Cl 2915   2.179   2.291   3.916
    2MOL1    Cl 2916   2.033   2.413   3.695
    2MOL1     H 2917   2.245   2.310   3.690
    2MOL1    Cl 2918   0.727   4.054   1.137
    2MOL1     C 2919   0.615   4.044   1.274
    2MOL1    Cl 2920   0.691   3.960   1.410
    2MOL1    Cl 2921   0.562   4.206   1.322
    2MOL1     H 2922   0.528   3.987   1.243
    2MOL1    Cl 2923   1.240   3.904   0.498
    2MOL1     C 2924   1.372   3.861   0.389
    2MOL1    Cl 2925   1.338   3.919   0.225
    2MOL1    Cl 2926   1.525   3.927   0.448
    2MOL1     H 2927   1.380   3.752   0.385
    2MOL1    Cl 2928   3.154   2.282   2.546
    2MOL1     C 2929   3.196   2.110   2.550
    2MOL1    Cl 2930   3.155   2.039   2.708
    2MOL1    Cl 2931   3.114   2.023   2.420
    2MOL1     H 2932   3.304   2.100   2.535
    2MOL1    Cl 2933   2.053   2.687   2.579
    2MOL1     C 2934   1.896   2.758   2.541
    2MOL1    Cl 2935   1.808   2.658   2.424
    2MOL1    Cl 2936   1.800   2.780   2.689
    2MOL1     H 2937   1.912   2.857   2.496
    2MOL1    Cl 2938   3.323   4.982   2.124
    2MOL1     C 2939   3.408   5.137   2.110
    2MOL1    Cl 2940   3.544   5.124   1.997
    2MOL1    Cl 2941   3.296   5.264   2.059
    2MOL1     H 2942   3.447   5.163   2.208
    2MOL1    Cl 2943   0.837   2.634   4.376
    2MOL1     C 2944   0.992   2.566   4.426
    2MOL1    Cl 2945   1.085   2.512   4.285
    2MOL1    Cl 2946   1.085   2.684   4.520
    2MOL1     H 2947   0.972   2.479   4.490
    2MOL1    Cl 2948   4.533   3.781   5.005
    2MOL1     C 2949   4.644   3.904   4.942
    2MOL1    Cl 2950   4.702   3.858   4.781
    2MOL1    Cl 2951   4.566   4.063   4.937
    2MOL1     H 2952   4.731   3.910   5.009
    2MOL1    Cl 2953   5.012   2.037   4.116
    2MOL1     C 2954   4.918   1.895   4.164
    2MOL1    Cl 2955   4.806   1.848   4.035
    2MOL1    Cl 2956   5.026   1.760   4.205
    2MOL1     H 2957   4.860   1.920   4.253
    2MOL1    Cl 2958   4.057   2.328   2.665
    2MOL1     C 2959   4.114   2.299   2.830
    2MOL1    Cl 2960   3.977   2.275   2.940
    2MOL1    Cl 2961   4.222   2.159   2.835
    2MOL1     H 2962   4.170   2.387   2.863
    2MOL1    Cl 2963   1.420   2.666   5.207
    2MOL1     C 2964   1.455   2.836   5.174
    2MOL1    Cl 2965   1.428   2.935   5.318
    2MOL1    Cl 2966   1.621   2.855   5.115
    2MOL1     H 2967   1.387   2.870   5.095
    2MOL1    Cl 2968   3.822   2.092   3.042
    2MOL1     C 2969   3.684   2.166   3.124
    2MOL1    Cl 2970   3.536   2.146   3.028
    2MOL1    Cl 2971   3.663   2.098   3.286
    2MOL1     H 2972   3.704   2.273   3.134
    2MOL1    Cl 2973   2.687   4.812   1.122
    2MOL1     C 2974   2.776   4.867   0.979
    2MOL1    Cl 2975   2.756   4.753   0.845
    2MOL1    Cl 2976   2.724   5.029   0.931
    2MOL1     H 2977   2.883   4.872   1.005
    2MOL1    Cl 2978   1.646   3.916   0.717
    2MOL1     C 2979   1.669   3.860   0.883
    2MOL1    Cl 2980   1.518   3.792   0.947
    2MOL1    Cl 2981   1.800   3.741   0.892
    2MOL1     H 2982   1.696   3.946   0.945
    2MOL1    Cl 2983   5.127   3.057   5.165
    2MOL1     C 2984   5.073   3.224   5.143
    2MOL1    Cl 2985   5.084   3.271   4.972
    2MOL1    Cl 2986   4.907   3.244   5.202
    2MOL1     H 2987   5.138   3.290   5.201
    2MOL1    Cl 2988   2.991   5.188   3.069
    2MOL1     C 2989   2.930   5.023   3.091
    2MOL1    Cl 2990   2.754   5.018   3.067
    2MOL1    Cl 2991   3.011   4.912   2.981
    2MOL1     H 2992   2.952   4.992   3.194
    2MOL1    Cl 2993   4.763   3.818   3.484
    2MOL1     C 2994   4.819   3.875   3.642
    2MOL1    Cl 2995   4.726   4.016   3.694
    2MOL1    Cl 2996   4.808   3.746   3.763
    2MOL1     H 2997   4.924   3.904   3.633
    2MOL1    Cl 2998   1.451   0.956   3.178
    2MOL1     C 2999   1.609   0.910   3.244
    2MOL1    Cl 3000   1.673   0.768   3.160
    2MOL1    Cl 3001   1.723   1.045   3.233
    2MOL1     H 3002   1.596   0.885   3.349
    2MOL1    Cl 3003   3.463   2.772   4.558
    2MOL1     C 3004   3.314   2.676   4.565
    2MOL1    Cl 3005   3.328   2.548   4.686
    2MOL1    Cl 3006   3.175   2.779   4.599
    2MOL1     H 3007   3.299   2.629   4.467
    2MOL1    Cl 3008   2.382   4.120   0.713
    2MOL1     C 3009   2.386   4.272   0.622
    2MOL1    Cl 3010   2.392   4.240   0.448
    2MOL1    Cl 3011   2.246   4.373   0.662
    2MOL1     H 3012   2.477   4.327   0.650
    2MOL1    Cl 3013   3.142   1.691   0.162
    2MOL1     C 3014   3.242   1.608   0.282
    2MOL1    Cl 3015   3.188   1.648   0.446
    2MOL1    Cl 3016   3.238   1.433   0.256
    2MOL1     H 3017   3.345   1.642   0.270
    2MOL1    Cl 3018   2.259   1.646   4.156
    2MOL1     C 3019   2.393   1.757   4.124
    2MOL1    Cl 3020   2.467   1.722   3.967
    2MOL1    Cl 3021   2.338   1.925   4.132
    2MOL1     H 3022   2.469   1.742   4.201
    2MOL1    Cl 3023   1.380   1.195   2.657
    2MOL1     C 3024   1.281   1.050   2.635
    2MOL1    Cl 3025   1.131   1.088   2.548
    2MOL1    Cl 3026   1.372   0.924   2.550
    2MOL1     H 3027   1.254   1.011   2.734
    2MOL1    Cl 3028   2.929   4.439   5.174
    2MOL1     C 3029   2.808   4.321   5.121
    2MOL1    Cl 3030   2.700   4.393   5.000
    2MOL1    Cl 3031   2.887   4.176   5.056
    2MOL1     H 3032   2.748   4.292   5.208
    2MOL1    Cl 3033   2.157   4.658   1.532
    2MOL1     C 3034   2.280   4.532   1.552
    2MOL1    Cl 3035   2.234   4.386   1.464
    2MOL1    Cl 3036   2.438   4.590   1.498
    2MOL1     H 3037   2.287   4.508   1.659
    2MOL1    Cl 3038   1.078   2.426   5.062
    2MOL1     C 3039   0.970   2.539   5.143
    2MOL1    Cl 3040   0.806   2.527   5.077
    2MOL1    Cl 3041   0.969   2.510   5.318
    2MOL1     H 3042   1.006   2.641   5.126
    2MOL1    Cl 3043   1.730   1.350   1.883
    2MOL1     C 3044   1.661   1.188   1.863
    2MOL1    Cl 3045   1.643   1.148   1.691
    2MOL1    Cl 3046   1.761   1.067   1.945
    2MOL1     H 3047   1.562   1.187   1.909
    2MOL1    Cl 3048   0.539   3.528   3.802
    2MOL1     C 3049   0.511   3.619   3.653
    2MOL1    Cl 3050   0.664   3.645   3.566
    2MOL1    Cl 3051   0.394   3.535   3.550
    2MOL1     H 3052   0.470   3.717   3.680
    2MOL1    Cl 3053   0.182   0.000   3.870
    2MOL1     C 3054   0.297   0.123   3.813
    2MOL1    Cl 3055   0.424   0.049   3.714
    2MOL1    Cl 3056   0.212   0.249   3.722
    2MOL1     H 3057   0.344   0.169   3.900
    2MOL1    Cl 3058   4.132   5.252   3.394
    2MOL1     C 3059   4.273   5.209   3.296
    2MOL1    Cl 3060   4.402   5.142   3.398
    2MOL1    Cl 3061   4.229   5.094   3.169
    2MOL1     H 3062   4.311   5.300   3.248
    2MOL1    Cl 3063   3.168   3.870   1.559
    2MOL1     C 3064   3.257   4.022   1.547
    2MOL1    Cl 3065   3.276   4.096   1.707
    2MOL1    Cl 3066   3.416   3.995   1.472
    2MOL1     H 3067   3.200   4.090   1.484
    2MOL1    Cl 3068   4.524   4.238   3.940
    2MOL1     C 3069   4.615   4.297   3.800
    2MOL1    Cl 3070   4.506   4.331   3.665
    2MOL1    Cl 3071   4.708   4.442   3.843
    2MOL1     H 3072   4.685   4.219   3.770
    2MOL1    Cl 3073   0.900   3.656   0.578
    2MOL1     C 3074   0.829   3.762   0.455
    2MOL1    Cl 3075   0.678   3.834   0.515
    2MOL1    Cl 3076   0.943   3.889   0.409
    2MOL1     H 3077   0.806   3.703   0.367
    2MOL1    Cl 3078   4.936   2.314   5.118
    2MOL1     C 3079   5.110   2.347   5.107
    2MOL1    Cl 3080   5.189   2.231   4.999
    2MOL1    Cl 3081   5.138   2.513   5.052
    2MOL1     H 3082   5.153   2.336   5.207
    2MOL1    Cl 3083   1.131   5.178   2.432
    2MOL1     C 3084   1.001   5.194   2.552
    2MOL1    Cl 3085   0.890   5.324   2.506
    2MOL1    Cl 3086   0.914   5.041   2.572
    2MOL1     H 3087   1.047   5.221   2.648
    2MOL1    Cl 3088   1.144   1.164   4.149
    2MOL1     C 3089   0.995   1.252   4.183
    2MOL1    Cl 3090   0.889   1.157   4.288
    2MOL1    Cl 3091   1.031   1.409   4.258
    2MOL1     H 3092   0.943   1.270   4.089
    2MOL1    Cl 3093   3.892   2.656   4.386
    2MOL1     C 3094   3.900   2.709   4.217
    2MOL1    Cl 3095   3.863   2.575   4.108
    2MOL1    Cl 3096   3.790   2.845   4.188
    2MOL1     H 3097   4.002   2.743   4.197
    2MOL1    Cl 3098   2.138   3.459   5.210
    2MOL1     C 3099   2.301   3.516   5.171
    2MOL1    Cl 3100   2.303   3.693   5.154
    2MOL1    Cl 3101   2.417   3.465   5.294
    2MOL1     H 3102   2.331   3.472   5.075
    2MOL1    Cl 3103   1.366   0.701   1.154
    2MOL1     C 3104   1.291   0.556   1.087
    2MOL1    Cl 3105   1.394   0.414   1.112
    2MOL1    Cl 3106   1.131   0.530   1.160
    2MOL1     H 3107   1.278   0.570   0.980
    2MOL1    Cl 3108   0.484   3.696   0.698
    2MOL1     C 3109   0.395   3.673   0.546
    2MOL1    Cl 3110   0.468   3.543   0.451
    2MOL1    Cl 3111   0.224   3.640   0.579
    2MOL1     H 3112   0.402   3.766   0.488
    2MOL1    Cl 3113   3.221   1.558   3.492
    2MOL1     C 3114   3.222   1.725   3.435
    2MOL1    Cl 3115   3.310   1.739   3.282
    2MOL1    Cl 3116   3.056   1.785   3.418
    2MOL1     H 3117   3.272   1.787   3.510
    2MOL1    Cl 3118   2.974   4.767   0.264
    2MOL1     C 3119   2.812   4.733   0.327
    2MOL1    Cl 3120   2.716   4.882   0.334
    2MOL1    Cl 3121   2.731   4.611   0.228
    2MOL1     H 3122   2.822   4.694   0.428
    2MOL1    Cl 3123   3.498   3.441   3.320
    2MOL1     C 3124   3.641   3.511   3.399
    2MOL1    Cl 3125   3.594   3.641   3.510
    2MOL1    Cl 3126   3.731   3.385   3.486
    2MOL1     H 3127   3.706   3.553   3.322
    2MOL1    Cl 3128   3.130   4.036   1.007
    2MOL1     C 3129   2.968   3.982   0.958
    2MOL1    Cl 3130   2.963   3.949   0.785
    2MOL1    Cl 3131   2.920   3.839   1.051
    2MOL1     H 3132   2.898   4.063   0.980
    2MOL1    Cl 3133   4.499   4.199   1.184
    2MOL1     C 3134   4.477   4.374   1.163
    2MOL1    Cl 3135   4.619   4.445   1.085
    2MOL1    Cl 3136   4.331   4.408   1.069
    2MOL1     H 3137   4.466   4.419   1.262
    2MOL1    Cl 3138   4.501   3.181   0.415
    2MOL1     C 3139   4.564   3.077   0.286
    2MOL1    Cl 3140   4.435   3.030   0.175
    2MOL1    Cl 3141   4.695   3.159   0.199
    2MOL1     H 3142   4.605   2.987   0.332
    2MOL1    Cl 3143   2.854   0.847   2.222
    2MOL1     C 3144   2.875   1.019   2.255
    2MOL1    Cl 3145   2.742   1.080   2.356
    2MOL1    Cl 3146   3.031   1.049   2.333
    2MOL1     H 3147   2.873   1.073   2.160
    2MOL1    Cl 3148   3.279   4.609   3.050
    2MOL1     C 3149   3.450   4.623   3.006
    2MOL1    Cl 3150   3.533   4.469   3.032
    2MOL1    Cl 3151   3.467   4.674   2.837
    2MOL1     H 3152   3.496   4.698   3.070
    2MOL1    Cl 3153   3.698   3.345   3.973
    2MOL1     C 3154   3.757   3.509   3.942
    2MOL1    Cl 3155   3.896   3.505   3.832
    2MOL1    Cl 3156   3.628   3.610   3.875
    2MOL1     H 3157   3.789   3.553   4.037
    2MOL1    Cl 3158   4.232   0.165   0.198
    2MOL1     C 3159   4.175   0.331   0.215
    2MOL1    Cl 3160   4.293   0.444   0.145
    2MOL1    Cl 3161   4.017   0.351   0.138
    2MOL1     H 3162   4.165   0.354   0.321
    2MOL1    Cl 3163   3.377   3.133   3.500
    2MOL1     C 3164   3.201   3.121   3.482
    2MOL1    Cl 3165   3.136   3.269   3.411
    2MOL1    Cl 3166   3.158   2.980   3.384
    2MOL1     H 3167   3.158   3.108   3.582
    2MOL1    Cl 3168   0.641   2.456   2.046
    2MOL1     C 3169   0.641   2.597   1.938
    2MOL1    Cl 3170   0.754   2.720   1.997
    2MOL1    Cl 3171   0.683   2.548   1.773
    2MOL1     H 3172   0.541   2.640   1.937
    2MOL1    Cl 3173   5.114   4.459   3.004
    2MOL1     C 3174   5.188   4.298   2.998
    2MOL1    Cl 3175   5.340   4.295   3.088
    2MOL1    Cl 3176   5.076   4.176   3.060
    2MOL1     H 3177   5.209   4.274   2.893
    2MOL1    Cl 3178   2.266   3.524   1.673
    2MOL1     C 3179   2.294   3.494   1.501
    2MOL1    Cl 3180   2.466   3.506   1.462
    2MOL1    Cl 3181   2.230   3.335   1.455
    2MOL1     H 3182   2.240   3.570   1.444
    2MOL1    Cl 3183   5.059   1.355   2.278
    2MOL1     C 3184   5.064   1.404   2.448
    2MOL1    Cl 3185   5.094   1.264   2.552
    2MOL1    Cl 3186   5.187   1.529   2.473
    2MOL1     H 3187   4.966   1.446   2.474
    2MOL1    Cl 3188   4.304   3.153   4.137
    2MOL1     C 3189   4.186   3.130   4.008
    2MOL1    Cl 3190   4.261   3.051   3.868
    2MOL1    Cl 3191   4.048   3.036   4.066
    2MOL1     H 3192   4.150   3.228   3.976
    2MOL1    Cl 3193   1.607   3.356   3.416
    2MOL1     C 3194   1.609   3.525   3.470
    2MOL1    Cl 3195   1.674   3.537   3.634
    2MOL1    Cl 3196   1.704   3.625   3.358
    2MOL1     H 3197   1.506   3.562   3.470
    2MOL1    Cl 3198   2.469   3.436   2.612
    2MOL1     C 3199   2.537   3.272   2.618
    2MOL1    Cl 3200   2.454   3.166   2.503
    2MOL1    Cl 3201   2.711   3.276   2.586
    2MOL1     H 3202   2.521   3.233   2.719
    2MOL1    Cl 3203   1.857   2.981   0.265
    2MOL1     C 3204   1.932   2.867   0.153
    2MOL1    Cl 3205   1.815   2.812   0.032
    2MOL1    Cl 3206   2.073   2.942   0.074
    2MOL1     H 3207   1.967   2.781   0.209
    2MOL1    Cl 3208   4.809   0.697   3.002
    2MOL1     C 3209   4.837   0.809   2.867
    2MOL1    Cl 3210   4.727   0.948   2.878
    2MOL1    Cl 3211   5.006   0.863   2.866
    2MOL1     H 3212   4.817   0.757   2.774
    2MOL1    Cl 3213   4.722   2.144   1.265
    2MOL1     C 3214   4.877   2.058   1.278
    2MOL1    Cl 3215   4.929   2.000   1.119
    2MOL1    Cl 3216   5.000   2.163   1.349
    2MOL1     H 3217   4.862   1.972   1.343
    2MOL1    Cl 3218   3.132   3.873   0.361
    2MOL1     C 3219   3.224   4.020   0.329
    2MOL1    Cl 3220   3.348   3.991   0.206
    2MOL1    Cl 3221   3.116   4.152   0.278
    2MOL1     H 3222   3.274   4.050   0.421
    2MOL1    Cl 3223   2.889   4.093   3.558
    2MOL1     C 3224   2.722   4.071   3.610
    2MOL1    Cl 3225   2.703   3.917   3.696
    2MOL1    Cl 3226   2.670   4.207   3.712
    2MOL1     H 3227   2.658   4.069   3.521
    2MOL1    Cl 3228   2.130   4.552   2.340
    2MOL1     C 3229   2.034   4.595   2.197
    2MOL1    Cl 3230   1.909   4.713   2.239
    2MOL1    Cl 3231   2.139   4.659   2.069
    2MOL1     H 3232   1.985   4.505   2.160
    2MOL1    Cl 3233   1.672   1.775   0.860
    2MOL1     C 3234   1.593   1.797   0.703
    2MOL1    Cl 3235   1.649   1.674   0.588
    2MOL1    Cl 3236   1.417   1.790   0.721
    2MOL1     H 3237   1.621   1.895   0.665
    2MOL1    Cl 3238   0.097   2.884   4.398
    2MOL1     C 3239   0.244   2.804   4.340
    2MOL1    Cl 3240   0.336   2.736   4.475
    2MOL1    Cl 3241   0.203   2.677   4.222
    2MOL1     H 3242   0.306   2.878   4.290
    2MOL1    Cl 3243   0.365   1.589   4.706
    2MOL1     C 3244   0.534   1.641   4.722
    2MOL1    Cl 3245   0.620   1.537   4.837
    2MOL1    Cl 3246   0.614   1.639   4.564
    2MOL1     H 3247   0.535   1.743   4.760
    2MOL1    Cl 3248   5.010   3.009   0.585
    2MOL1     C 3249   4.923   2.927   0.715
    2MOL1    Cl 3250   4.942   3.015   0.868
    2MOL1    Cl 3251   4.752   2.910   0.674
    2MOL1     H 3252   4.966   2.827   0.727
    2MOL1    Cl 3253   2.247   4.273   4.969
    2MOL1     C 3254   2.189   4.222   4.810
    2MOL1    Cl 3255   2.101   4.353   4.729
    2MOL1    Cl 3256   2.325   4.167   4.709
    2MOL1     H 3257   2.121   4.138   4.823
    2MOL1    Cl 3258   3.016   3.679   3.206
    2MOL1     C 3259   3.095   3.521   3.214
    2MOL1    Cl 3260   3.033   3.415   3.086
    2MOL1    Cl 3261   3.271   3.538   3.201
    2MOL1     H 3262   3.072   3.475   3.310
    2MOL1    Cl 3263   3.117   4.381   0.349
    2MOL1     C 3264   2.955   4.343   0.411
    2MOL1    Cl 3265   2.945   4.375   0.584
    2MOL1    Cl 3266   2.833   4.436   0.323
    2MOL1     H 3267   2.936   4.237   0.394
    2MOL1    Cl 3268   3.272   4.526   0.444
    2MOL1     C 3269   3.444   4.494   0.469
    2MOL1    Cl 3270   3.490   4.527   0.637
    2MOL1    Cl 3271   3.483   4.326   0.426
    2MOL1     H 3272   3.501   4.560   0.404
    2MOL1    Cl 3273   2.369   3.927   0.989
    2MOL1     C 3274   2.375   3.752   1.020
    2MOL1    Cl 3275   2.541   3.693   1.011
    2MOL1    Cl 3276   2.304   3.715   1.178
    2MOL1     H 3277   2.316   3.702   0.944
    2MOL1    Cl 3278   4.123   3.754   3.801
    2MOL1     C 3279   4.081   3.912   3.733
    2MOL1    Cl 3280   3.959   3.992   3.834
    2MOL1    Cl 3281   4.225   4.013   3.717
    2MOL1     H 3282   4.038   3.897   3.633
    2MOL1    Cl 3283   4.271   0.422   3.682
    2MOL1     C 3284   4.197   0.315   3.562
    2MOL1    Cl 3285   4.033   0.271   3.612
    2MOL1    Cl 3286   4.196   0.391   3.402
    2MOL1     H 3287   4.257   0.223   3.557
    2MOL1    Cl 3288   2.339   2.547   3.417
    2MOL1     C 3289   2.448   2.684   3.443
    2MOL1    Cl 3290   2.373   2.803   3.552
    2MOL1    Cl 3291   2.603   2.629   3.508
    2MOL1     H 3292   2.466   2.733   3.347
    2MOL1    Cl 3293   4.912   4.715   2.564
    2MOL1     C 3294   5.040   4.651   2.668
    2MOL1    Cl 3295   4.980   4.629   2.834
    2MOL1    Cl 3296   5.102   4.498   2.604
    2MOL1     H 3297   5.122   4.723   2.670
    2MOL1    Cl 3298   2.538   0.796   2.030
    2MOL1     C 3299   2.368   0.840   2.057
    2MOL1    Cl 3300   2.291   0.725   2.167
    2MOL1    Cl 3301   2.356   1.005   2.121
    2MOL1     H 3302   2.316   0.836   1.961
    2MOL1    Cl 3303   0.417   2.393   2.980
    2MOL1     C 3304   0.266   2.384   3.072
    2MOL1    Cl 3305   0.173   2.242   3.023
    2MOL1    Cl 3306   0.300   2.380   3.246
    2MOL1     H 3307   0.207   2.473   3.050
    2MOL1    Cl 3308   1.162   4.199   1.154
    2MOL1     C 3309   1.090   4.048   1.096
    2MOL1    Cl 3310   1.215   3.932   1.048
    2MOL1    Cl 3311   0.985   3.978   1.221
    2MOL1     H 3312   1.028   4.070   1.008
    2MOL1    Cl 3313   2.526   2.959   0.728
    2MOL1     C 3314   2.679   3.044   0.707
    2MOL1    Cl 3315   2.654   3.201   0.629
    2MOL1    Cl 3316   2.760   3.066   0.864
    2MOL1     H 3317   2.744   2.984   0.643
    2MOL1    Cl 3318   0.619   0.755   1.078
    2MOL1     C 3319   0.712   0.615   1.021
    2MOL1    Cl 3320   0.727   0.493   1.148
    2MOL1    Cl 3321   0.637   0.546   0.876
    2MOL1     H 3322   0.812   0.650   0.994
    2MOL1    Cl 3323   5.182   2.064   3.272
    2MOL1     C 3324   5.034   2.147   3.224
    2MOL1    Cl 3325   5.069   2.275   3.106
    2MOL1    Cl 3326   4.916   2.032   3.158
    2MOL1     H 3327   4.990   2.194   3.313
    2MOL1    Cl 3328   2.527   1.181   3.468
    2MOL1     C 3329   2.534   1.009   3.508
    2MOL1    Cl 3330   2.689   0.970   3.585
    2MOL1    Cl 3331   2.399   0.964   3.613
    2MOL1     H 3332   2.527   0.952   3.415
    2MOL1    Cl 3333   5.144   0.973   2.395
    2MOL1     C 3334   5.082   1.004   2.232
    2MOL1    Cl 3335   5.109   0.864   2.127
    2MOL1    Cl 3336   4.909   1.045   2.238
    2MOL1     H 3337   5.135   1.090   2.190
    2MOL1    Cl 3338   4.094   0.461   4.592
    2MOL1     C 3339   3.935   0.521   4.544
    2MOL1    Cl 3340   3.834   0.550   4.687
    2MOL1    Cl 3341   3.950   0.669   4.448
    2MOL1     H 3342   3.886   0.445   4.483
    2MOL1    Cl 3343   5.142   1.047   5.052
    2MOL1     C 3344   5.105   0.874   5.058
    2MOL1    Cl 3345   5.232   0.785   5.143
    2MOL1    Cl 3346   4.948   0.847   5.136
    2MOL1     H 3347   5.099   0.837   4.956
    2MOL1    Cl 3348   2.774   0.675   1.468
    2MOL1     C 3349   2.909   0.562   1.461
    2MOL1    Cl 3350   3.053   0.632   1.536
    2MOL1    Cl 3351   2.866   0.409   1.539
    2MOL1     H 3352   2.931   0.541   1.356
    2MOL1    Cl 3353   2.095   1.481   3.734
    2MOL1     C 3354   2.127   1.355   3.855
    2MOL1    Cl 3355   1.987   1.247   3.870
    2MOL1    Cl 3356   2.272   1.264   3.812
    2MOL1     H 3357   2.143   1.404   3.951
    2MOL1    Cl 3358   3.370   1.535   2.185
    2MOL1     C 3359   3.499   1.424   2.135
    2MOL1    Cl 3360   3.654   1.474   2.204
    2MOL1    Cl 3361   3.460   1.258   2.183
    2MOL1     H 3362   3.506   1.428   2.026
    2MOL1    Cl 3363   3.835   2.309   4.286
    2MOL1     C 3364   3.891   2.147   4.333
    2MOL1    Cl 3365   4.007   2.158   4.466
    2MOL1    Cl 3366   3.754   2.044   4.377
    2MOL1     H 3367   3.941   2.102   4.247
  5.5400000  5.5400000  5.5400000
