;
;   File mop_tetramer_system_hmr.top  was generated
;   By user: tfobe (1000)
;   On host:GLaDOS 
;   At date:Thu. September  4 17:18:50 2024 
;
;   This is a standalone topology file
;
;   Created by:
;   ParmEd:       hmr_topology, VERSION4.2.2 
;   Executable:   hmr_topology
;   Library dir:  /home/tfobe/miniforge3/envs/terphenyl/share/gromacs/top
;   Command line:
;     hmr_topology -t mop_tetramer_system.top -o mop_tetramer_system_hmr.top --hmr_ratio 3
;

[ defaults ]
; nbfunc        comb-rule       gen-pairs       fudgeLJ fudgeQQ
1               2               yes             0.5          0.833333    

[ atomtypes ]
; name    at.num    mass    charge ptype  sigma      epsilon
mop_tetramer.pdb_0        6  12.010780  0.00000000  A     0.34806469     0.36350306
mop_tetramer.pdb_1        8  15.999430  0.00000000  A     0.30398122     0.87950233
mop_tetramer.pdb_2        6  12.010780  0.00000000  A     0.34806469     0.36350306
mop_tetramer.pdb_3        6  12.010780  0.00000000  A     0.34806469     0.36350306
mop_tetramer.pdb_4        6  12.010780  0.00000000  A     0.34806469     0.36350306
mop_tetramer.pdb_5        6  12.010780  0.00000000  A     0.34806469     0.36350306
mop_tetramer.pdb_6        6  12.010780  0.00000000  A     0.34806469     0.36350306
mop_tetramer.pdb_7        6  12.010780  0.00000000  A     0.34806469     0.36350306
mop_tetramer.pdb_8        6  12.010780  0.00000000  A     0.34806469     0.36350306
mop_tetramer.pdb_9        6  12.010780  0.00000000  A     0.34806469     0.36350306
mop_tetramer.pdb_10        8  15.999430  0.00000000  A     0.30251065     0.70485815
mop_tetramer.pdb_11        6  12.010780  0.00000000  A     0.33795318     0.45538912
mop_tetramer.pdb_12        6  12.010780  0.00000000  A     0.34806469     0.36350306
mop_tetramer.pdb_13        6  12.010780  0.00000000  A     0.34806469     0.36350306
mop_tetramer.pdb_14        6  12.010780  0.00000000  A     0.34806469     0.36350306
mop_tetramer.pdb_15        6  12.010780  0.00000000  A     0.34806469     0.36350306
mop_tetramer.pdb_16        6  12.010780  0.00000000  A     0.34806469     0.36350306
mop_tetramer.pdb_17        6  12.010780  0.00000000  A     0.34806469     0.36350306
mop_tetramer.pdb_18        6  12.010780  0.00000000  A     0.34806469     0.36350306
mop_tetramer.pdb_19        6  12.010780  0.00000000  A     0.34806469     0.36350306
mop_tetramer.pdb_20        6  12.010780  0.00000000  A     0.33795318     0.45538912
mop_tetramer.pdb_21        7  14.006720  0.00000000  A      0.3206876      0.7016213
mop_tetramer.pdb_22        6  12.010780  0.00000000  A     0.33795318     0.45538912
mop_tetramer.pdb_23        6  12.010780  0.00000000  A     0.34806469     0.36350306
mop_tetramer.pdb_24        6  12.010780  0.00000000  A     0.34806469     0.36350306
mop_tetramer.pdb_25        1   1.007947  0.00000000  A     0.25725815     0.06531786
mop_tetramer.pdb_26        1   1.007947  0.00000000  A     0.25725815     0.06531786
mop_tetramer.pdb_27        1   1.007947  0.00000000  A     0.25725815     0.06531786
mop_tetramer.pdb_28        1   1.007947  0.00000000  A     0.25832257    0.068656285
mop_tetramer.pdb_29        1   1.007947  0.00000000  A     0.25832257    0.068656285
mop_tetramer.pdb_30        1   1.007947  0.00000000  A     0.25832257    0.068656285
mop_tetramer.pdb_31        1   1.007947  0.00000000  A     0.25725815     0.06531786
mop_tetramer.pdb_32        1   1.007947  0.00000000  A     0.25725815     0.06531786
mop_tetramer.pdb_33        1   1.007947  0.00000000  A     0.25725815     0.06531786
mop_tetramer.pdb_34        1   1.007947  0.00000000  A     0.25725815     0.06531786
mop_tetramer.pdb_35        1   1.007947  0.00000000  A     0.25725815     0.06531786
mop_tetramer.pdb_36        1   1.007947  0.00000000  A     0.25725815     0.06531786
mop_tetramer.pdb_37        1   1.007947  0.00000000  A     0.25832257    0.068656285
mop_tetramer.pdb_38        1   1.007947  0.00000000  A     0.11034277    0.058955969
mop_tetramer.pdb_39        1   1.007947  0.00000000  A     0.26445434    0.066021356
mop_tetramer.pdb_40        1   1.007947  0.00000000  A     0.26445434    0.066021356
mop_tetramer.pdb_41        1   1.007947  0.00000000  A     0.26445434    0.066021356
mop_tetramer.pdb_42        1   1.007947  0.00000000  A     0.25725815     0.06531786
mop_tetramer.pdb_43        1   1.007947  0.00000000  A     0.25725815     0.06531786
mop_tetramer.pdb_44        6  12.010780  0.00000000  A     0.34806469     0.36350306
mop_tetramer.pdb_45        8  15.999430  0.00000000  A     0.30398122     0.87950233
mop_tetramer.pdb_46        6  12.010780  0.00000000  A     0.34806469     0.36350306
mop_tetramer.pdb_47        6  12.010780  0.00000000  A     0.34806469     0.36350306
mop_tetramer.pdb_48        6  12.010780  0.00000000  A     0.34806469     0.36350306
mop_tetramer.pdb_49        6  12.010780  0.00000000  A     0.34806469     0.36350306
mop_tetramer.pdb_50        6  12.010780  0.00000000  A     0.34806469     0.36350306
mop_tetramer.pdb_51        6  12.010780  0.00000000  A     0.34806469     0.36350306
mop_tetramer.pdb_52        6  12.010780  0.00000000  A     0.34806469     0.36350306
mop_tetramer.pdb_53        6  12.010780  0.00000000  A     0.34806469     0.36350306
mop_tetramer.pdb_54        8  15.999430  0.00000000  A     0.30251065     0.70485815
mop_tetramer.pdb_55        6  12.010780  0.00000000  A     0.33795318     0.45538912
mop_tetramer.pdb_56        6  12.010780  0.00000000  A     0.34806469     0.36350306
mop_tetramer.pdb_57        6  12.010780  0.00000000  A     0.34806469     0.36350306
mop_tetramer.pdb_58        6  12.010780  0.00000000  A     0.34806469     0.36350306
mop_tetramer.pdb_59        6  12.010780  0.00000000  A     0.34806469     0.36350306
mop_tetramer.pdb_60        6  12.010780  0.00000000  A     0.34806469     0.36350306
mop_tetramer.pdb_61        6  12.010780  0.00000000  A     0.34806469     0.36350306
mop_tetramer.pdb_62        6  12.010780  0.00000000  A     0.34806469     0.36350306
mop_tetramer.pdb_63        6  12.010780  0.00000000  A     0.34806469     0.36350306
mop_tetramer.pdb_64        6  12.010780  0.00000000  A     0.33795318     0.45538912
mop_tetramer.pdb_65        7  14.006720  0.00000000  A      0.3206876      0.7016213
mop_tetramer.pdb_66        6  12.010780  0.00000000  A     0.33795318     0.45538912
mop_tetramer.pdb_67        6  12.010780  0.00000000  A     0.34806469     0.36350306
mop_tetramer.pdb_68        6  12.010780  0.00000000  A     0.34806469     0.36350306
mop_tetramer.pdb_69        1   1.007947  0.00000000  A     0.25725815     0.06531786
mop_tetramer.pdb_70        1   1.007947  0.00000000  A     0.25725815     0.06531786
mop_tetramer.pdb_71        1   1.007947  0.00000000  A     0.25725815     0.06531786
mop_tetramer.pdb_72        1   1.007947  0.00000000  A     0.25832257    0.068656285
mop_tetramer.pdb_73        1   1.007947  0.00000000  A     0.25832257    0.068656285
mop_tetramer.pdb_74        1   1.007947  0.00000000  A     0.25832257    0.068656285
mop_tetramer.pdb_75        1   1.007947  0.00000000  A     0.25725815     0.06531786
mop_tetramer.pdb_76        1   1.007947  0.00000000  A     0.25725815     0.06531786
mop_tetramer.pdb_77        1   1.007947  0.00000000  A     0.25725815     0.06531786
mop_tetramer.pdb_78        1   1.007947  0.00000000  A     0.25725815     0.06531786
mop_tetramer.pdb_79        1   1.007947  0.00000000  A     0.25725815     0.06531786
mop_tetramer.pdb_80        1   1.007947  0.00000000  A     0.25725815     0.06531786
mop_tetramer.pdb_81        1   1.007947  0.00000000  A     0.25832257    0.068656285
mop_tetramer.pdb_82        1   1.007947  0.00000000  A     0.11034277    0.058955969
mop_tetramer.pdb_83        1   1.007947  0.00000000  A     0.26445434    0.066021356
mop_tetramer.pdb_84        1   1.007947  0.00000000  A     0.26445434    0.066021356
mop_tetramer.pdb_85        1   1.007947  0.00000000  A     0.26445434    0.066021356
mop_tetramer.pdb_86        1   1.007947  0.00000000  A     0.25725815     0.06531786
mop_tetramer.pdb_87        1   1.007947  0.00000000  A     0.25725815     0.06531786
mop_tetramer.pdb_88        6  12.010780  0.00000000  A     0.34806469     0.36350306
mop_tetramer.pdb_89        8  15.999430  0.00000000  A     0.30398122     0.87950233
mop_tetramer.pdb_90        6  12.010780  0.00000000  A     0.34806469     0.36350306
mop_tetramer.pdb_91        6  12.010780  0.00000000  A     0.34806469     0.36350306
mop_tetramer.pdb_92        6  12.010780  0.00000000  A     0.34806469     0.36350306
mop_tetramer.pdb_93        6  12.010780  0.00000000  A     0.34806469     0.36350306
mop_tetramer.pdb_94        6  12.010780  0.00000000  A     0.34806469     0.36350306
mop_tetramer.pdb_95        6  12.010780  0.00000000  A     0.34806469     0.36350306
mop_tetramer.pdb_96        6  12.010780  0.00000000  A     0.34806469     0.36350306
mop_tetramer.pdb_97        6  12.010780  0.00000000  A     0.34806469     0.36350306
mop_tetramer.pdb_98        8  15.999430  0.00000000  A     0.30251065     0.70485815
mop_tetramer.pdb_99        6  12.010780  0.00000000  A     0.33795318     0.45538912
mop_tetramer.pdb_100        6  12.010780  0.00000000  A     0.34806469     0.36350306
mop_tetramer.pdb_101        6  12.010780  0.00000000  A     0.34806469     0.36350306
mop_tetramer.pdb_102        6  12.010780  0.00000000  A     0.34806469     0.36350306
mop_tetramer.pdb_103        6  12.010780  0.00000000  A     0.34806469     0.36350306
mop_tetramer.pdb_104        6  12.010780  0.00000000  A     0.34806469     0.36350306
mop_tetramer.pdb_105        6  12.010780  0.00000000  A     0.34806469     0.36350306
mop_tetramer.pdb_106        6  12.010780  0.00000000  A     0.34806469     0.36350306
mop_tetramer.pdb_107        6  12.010780  0.00000000  A     0.34806469     0.36350306
mop_tetramer.pdb_108        6  12.010780  0.00000000  A     0.33795318     0.45538912
mop_tetramer.pdb_109        7  14.006720  0.00000000  A      0.3206876      0.7016213
mop_tetramer.pdb_110        6  12.010780  0.00000000  A     0.33795318     0.45538912
mop_tetramer.pdb_111        6  12.010780  0.00000000  A     0.34806469     0.36350306
mop_tetramer.pdb_112        6  12.010780  0.00000000  A     0.34806469     0.36350306
mop_tetramer.pdb_113        1   1.007947  0.00000000  A     0.25725815     0.06531786
mop_tetramer.pdb_114        1   1.007947  0.00000000  A     0.25725815     0.06531786
mop_tetramer.pdb_115        1   1.007947  0.00000000  A     0.25725815     0.06531786
mop_tetramer.pdb_116        1   1.007947  0.00000000  A     0.25832257    0.068656285
mop_tetramer.pdb_117        1   1.007947  0.00000000  A     0.25832257    0.068656285
mop_tetramer.pdb_118        1   1.007947  0.00000000  A     0.25832257    0.068656285
mop_tetramer.pdb_119        1   1.007947  0.00000000  A     0.25725815     0.06531786
mop_tetramer.pdb_120        1   1.007947  0.00000000  A     0.25725815     0.06531786
mop_tetramer.pdb_121        1   1.007947  0.00000000  A     0.25725815     0.06531786
mop_tetramer.pdb_122        1   1.007947  0.00000000  A     0.25725815     0.06531786
mop_tetramer.pdb_123        1   1.007947  0.00000000  A     0.25725815     0.06531786
mop_tetramer.pdb_124        1   1.007947  0.00000000  A     0.25725815     0.06531786
mop_tetramer.pdb_125        1   1.007947  0.00000000  A     0.25832257    0.068656285
mop_tetramer.pdb_126        1   1.007947  0.00000000  A     0.11034277    0.058955969
mop_tetramer.pdb_127        1   1.007947  0.00000000  A     0.26445434    0.066021356
mop_tetramer.pdb_128        1   1.007947  0.00000000  A     0.26445434    0.066021356
mop_tetramer.pdb_129        1   1.007947  0.00000000  A     0.26445434    0.066021356
mop_tetramer.pdb_130        1   1.007947  0.00000000  A     0.25725815     0.06531786
mop_tetramer.pdb_131        1   1.007947  0.00000000  A     0.25725815     0.06531786
mop_tetramer.pdb_132        6  12.010780  0.00000000  A     0.34806469     0.36350306
mop_tetramer.pdb_133        8  15.999430  0.00000000  A     0.30398122     0.87950233
mop_tetramer.pdb_134        6  12.010780  0.00000000  A     0.34806469     0.36350306
mop_tetramer.pdb_135        6  12.010780  0.00000000  A     0.34806469     0.36350306
mop_tetramer.pdb_136        6  12.010780  0.00000000  A     0.34806469     0.36350306
mop_tetramer.pdb_137        6  12.010780  0.00000000  A     0.34806469     0.36350306
mop_tetramer.pdb_138        6  12.010780  0.00000000  A     0.34806469     0.36350306
mop_tetramer.pdb_139        6  12.010780  0.00000000  A     0.34806469     0.36350306
mop_tetramer.pdb_140        6  12.010780  0.00000000  A     0.34806469     0.36350306
mop_tetramer.pdb_141        6  12.010780  0.00000000  A     0.34806469     0.36350306
mop_tetramer.pdb_142        8  15.999430  0.00000000  A     0.30251065     0.70485815
mop_tetramer.pdb_143        6  12.010780  0.00000000  A     0.33795318     0.45538912
mop_tetramer.pdb_144        6  12.010780  0.00000000  A     0.34806469     0.36350306
mop_tetramer.pdb_145        6  12.010780  0.00000000  A     0.34806469     0.36350306
mop_tetramer.pdb_146        6  12.010780  0.00000000  A     0.34806469     0.36350306
mop_tetramer.pdb_147        6  12.010780  0.00000000  A     0.34806469     0.36350306
mop_tetramer.pdb_148        6  12.010780  0.00000000  A     0.34806469     0.36350306
mop_tetramer.pdb_149        6  12.010780  0.00000000  A     0.34806469     0.36350306
mop_tetramer.pdb_150        6  12.010780  0.00000000  A     0.34806469     0.36350306
mop_tetramer.pdb_151        6  12.010780  0.00000000  A     0.34806469     0.36350306
mop_tetramer.pdb_152        6  12.010780  0.00000000  A     0.33795318     0.45538912
mop_tetramer.pdb_153        7  14.006720  0.00000000  A      0.3206876      0.7016213
mop_tetramer.pdb_154        6  12.010780  0.00000000  A     0.33795318     0.45538912
mop_tetramer.pdb_155        6  12.010780  0.00000000  A     0.34806469     0.36350306
mop_tetramer.pdb_156        6  12.010780  0.00000000  A     0.34806469     0.36350306
mop_tetramer.pdb_157        1   1.007947  0.00000000  A     0.25725815     0.06531786
mop_tetramer.pdb_158        1   1.007947  0.00000000  A     0.25725815     0.06531786
mop_tetramer.pdb_159        1   1.007947  0.00000000  A     0.25725815     0.06531786
mop_tetramer.pdb_160        1   1.007947  0.00000000  A     0.25832257    0.068656285
mop_tetramer.pdb_161        1   1.007947  0.00000000  A     0.25832257    0.068656285
mop_tetramer.pdb_162        1   1.007947  0.00000000  A     0.25832257    0.068656285
mop_tetramer.pdb_163        1   1.007947  0.00000000  A     0.25725815     0.06531786
mop_tetramer.pdb_164        1   1.007947  0.00000000  A     0.25725815     0.06531786
mop_tetramer.pdb_165        1   1.007947  0.00000000  A     0.25725815     0.06531786
mop_tetramer.pdb_166        1   1.007947  0.00000000  A     0.25725815     0.06531786
mop_tetramer.pdb_167        1   1.007947  0.00000000  A     0.25725815     0.06531786
mop_tetramer.pdb_168        1   1.007947  0.00000000  A     0.25725815     0.06531786
mop_tetramer.pdb_169        1   1.007947  0.00000000  A     0.25832257    0.068656285
mop_tetramer.pdb_170        1   1.007947  0.00000000  A     0.11034277    0.058955969
mop_tetramer.pdb_171        1   1.007947  0.00000000  A     0.26445434    0.066021356
mop_tetramer.pdb_172        1   1.007947  0.00000000  A     0.26445434    0.066021356
mop_tetramer.pdb_173        1   1.007947  0.00000000  A     0.26445434    0.066021356
mop_tetramer.pdb_174        1   1.007947  0.00000000  A     0.25725815     0.06531786
mop_tetramer.pdb_175        1   1.007947  0.00000000  A     0.25725815     0.06531786
mop_tetramer.pdb_176        6  12.010780  0.00000000  A     0.33795318     0.45538912
mop_tetramer.pdb_177        8  15.999430  0.00000000  A     0.30251065     0.70485815
mop_tetramer.pdb_178        1   1.007947  0.00000000  A     0.25832257    0.068656285
mop_tetramer.pdb_179        1   1.007947  0.00000000  A     0.25832257    0.068656285
mop_tetramer.pdb_180        1   1.007947  0.00000000  A     0.25832257    0.068656285
mop_tetramer.pdb_181        6  12.010780  0.00000000  A     0.33795318     0.45538912
mop_tetramer.pdb_182        6  12.010780  0.00000000  A     0.33795318     0.45538912
mop_tetramer.pdb_183        6  12.010780  0.00000000  A     0.33795318     0.45538912
mop_tetramer.pdb_184        6  12.010780  0.00000000  A     0.33795318     0.45538912
mop_tetramer.pdb_185        8  15.999430  0.00000000  A     0.30251065     0.70485815
mop_tetramer.pdb_186        6  12.010780  0.00000000  A     0.34806469     0.36350306
mop_tetramer.pdb_187        8  15.999430  0.00000000  A     0.30398122     0.87950233
mop_tetramer.pdb_188        1   1.007947  0.00000000  A     0.26445434    0.066021356
mop_tetramer.pdb_189        1   1.007947  0.00000000  A     0.26445434    0.066021356
mop_tetramer.pdb_190        1   1.007947  0.00000000  A     0.26445434    0.066021356
mop_tetramer.pdb_191        1   1.007947  0.00000000  A     0.26445434    0.066021356
mop_tetramer.pdb_192        1   1.007947  0.00000000  A     0.26445434    0.066021356
mop_tetramer.pdb_193        1   1.007947  0.00000000  A     0.26445434    0.066021356
mop_tetramer.pdb_194        1   1.007947  0.00000000  A     0.26445434    0.066021356
mop_tetramer.pdb_195        1   1.007947  0.00000000  A     0.26445434    0.066021356
mop_tetramer.pdb_196        1   1.007947  0.00000000  A     0.26445434    0.066021356
MOL1_0        17  35.453200  0.00000000  A     0.33075278      1.1112708
MOL1_1         6  12.010780  0.00000000  A     0.33795318     0.45538912
MOL1_2        17  35.453200  0.00000000  A     0.33075278      1.1112708
MOL1_3        17  35.453200  0.00000000  A     0.33075278      1.1112708
MOL1_4         1   1.007947  0.00000000  A     0.21149936      0.0656888


[ moleculetype ]
; Name            nrexcl
mop_tetramer.pdb          3

[ atoms ]
;   nr       type  resnr residue  atom   cgnr    charge       mass  typeB    chargeB      massB
; residue    1 mop_tetramer.pdb rtp mop_tetramer.pdb q 0.0
    1 mop_tetramer.pdb_0      1 mop_tetramer.pdb      C      1 0.64472997  12.010780   ; qtot 0.644730
    2 mop_tetramer.pdb_1      1 mop_tetramer.pdb      O      2 -0.54461998  15.999430   ; qtot 0.100110
    3 mop_tetramer.pdb_2      1 mop_tetramer.pdb      C      3 -0.13655999  12.010780   ; qtot -0.036450
    4 mop_tetramer.pdb_3      1 mop_tetramer.pdb      C      4 -0.07654000   9.994886   ; qtot -0.112990
    5 mop_tetramer.pdb_4      1 mop_tetramer.pdb      C      5 -0.13053000   9.994886   ; qtot -0.243520
    6 mop_tetramer.pdb_5      1 mop_tetramer.pdb      C      6 0.00093000  12.010780   ; qtot -0.242590
    7 mop_tetramer.pdb_6      1 mop_tetramer.pdb      C      7 -0.07495000  12.010780   ; qtot -0.317540
    8 mop_tetramer.pdb_7      1 mop_tetramer.pdb      C      8 0.01006000  12.010780   ; qtot -0.307480
    9 mop_tetramer.pdb_8      1 mop_tetramer.pdb      C      9 -0.20004000   9.994886   ; qtot -0.507520
   10 mop_tetramer.pdb_9      1 mop_tetramer.pdb      C     10 0.12710001  12.010780   ; qtot -0.380420
   11 mop_tetramer.pdb_10      1 mop_tetramer.pdb      O     11 -0.32470000  15.999430   ; qtot -0.705120
   12 mop_tetramer.pdb_11      1 mop_tetramer.pdb      C     12 0.11105000   5.963098   ; qtot -0.594070
   13 mop_tetramer.pdb_12      1 mop_tetramer.pdb      C     13 -0.15203001   9.994886   ; qtot -0.746100
   14 mop_tetramer.pdb_13      1 mop_tetramer.pdb      C     14 -0.08216000   9.994886   ; qtot -0.828260
   15 mop_tetramer.pdb_14      1 mop_tetramer.pdb      C     15 -0.04539000  12.010780   ; qtot -0.873650
   16 mop_tetramer.pdb_15      1 mop_tetramer.pdb      C     16 -0.10870000   9.994886   ; qtot -0.982350
   17 mop_tetramer.pdb_16      1 mop_tetramer.pdb      C     17 -0.13226999   9.994886   ; qtot -1.114620
   18 mop_tetramer.pdb_17      1 mop_tetramer.pdb      C     18 -0.10233000   9.994886   ; qtot -1.216950
   19 mop_tetramer.pdb_18      1 mop_tetramer.pdb      C     19 -0.11176000  12.010780   ; qtot -1.328710
   20 mop_tetramer.pdb_19      1 mop_tetramer.pdb      C     20 -0.10647000   9.994886   ; qtot -1.435180
   21 mop_tetramer.pdb_20      1 mop_tetramer.pdb      C     21 0.14320000   9.994886   ; qtot -1.291980
   22 mop_tetramer.pdb_21      1 mop_tetramer.pdb      N     22 -0.56322998  11.990826   ; qtot -1.855210
   23 mop_tetramer.pdb_22      1 mop_tetramer.pdb      C     23 -0.10186000   5.963098   ; qtot -1.957070
   24 mop_tetramer.pdb_23      1 mop_tetramer.pdb      C     24 -0.13053000   9.994886   ; qtot -2.087600
   25 mop_tetramer.pdb_24      1 mop_tetramer.pdb      C     25 -0.07654000   9.994886   ; qtot -2.164140
   26 mop_tetramer.pdb_25      1 mop_tetramer.pdb      H     26 0.15558000   3.023841   ; qtot -2.008560
   27 mop_tetramer.pdb_26      1 mop_tetramer.pdb      H     27 0.14279000   3.023841   ; qtot -1.865770
   28 mop_tetramer.pdb_27      1 mop_tetramer.pdb      H     28 0.14445999   3.023841   ; qtot -1.721310
   29 mop_tetramer.pdb_28      1 mop_tetramer.pdb      H     29 0.04598000   3.023841   ; qtot -1.675330
   30 mop_tetramer.pdb_29      1 mop_tetramer.pdb      H     30 0.04598000   3.023841   ; qtot -1.629350
   31 mop_tetramer.pdb_30      1 mop_tetramer.pdb      H     31 0.04598000   3.023841   ; qtot -1.583370
   32 mop_tetramer.pdb_31      1 mop_tetramer.pdb      H     32 0.15497001   3.023841   ; qtot -1.428400
   33 mop_tetramer.pdb_32      1 mop_tetramer.pdb      H     33 0.14332999   3.023841   ; qtot -1.285070
   34 mop_tetramer.pdb_33      1 mop_tetramer.pdb      H     34 0.13642000   3.023841   ; qtot -1.148650
   35 mop_tetramer.pdb_34      1 mop_tetramer.pdb      H     35 0.13493000   3.023841   ; qtot -1.013720
   36 mop_tetramer.pdb_35      1 mop_tetramer.pdb      H     36 0.14135000   3.023841   ; qtot -0.872370
   37 mop_tetramer.pdb_36      1 mop_tetramer.pdb      H     37 0.13213000   3.023841   ; qtot -0.740240
   38 mop_tetramer.pdb_37      1 mop_tetramer.pdb      H     38 0.08875000   3.023841   ; qtot -0.651490
   39 mop_tetramer.pdb_38      1 mop_tetramer.pdb      H     39 0.30485001   3.023841   ; qtot -0.346640
   40 mop_tetramer.pdb_39      1 mop_tetramer.pdb      H     40 0.04441000   3.023841   ; qtot -0.302230
   41 mop_tetramer.pdb_40      1 mop_tetramer.pdb      H     41 0.04441000   3.023841   ; qtot -0.257820
   42 mop_tetramer.pdb_41      1 mop_tetramer.pdb      H     42 0.04441000   3.023841   ; qtot -0.213410
   43 mop_tetramer.pdb_42      1 mop_tetramer.pdb      H     43 0.14279000   3.023841   ; qtot -0.070620
   44 mop_tetramer.pdb_43      1 mop_tetramer.pdb      H     44 0.15558000   3.023841   ; qtot 0.084960
   45 mop_tetramer.pdb_44      1 mop_tetramer.pdb      C     45 0.67558002  12.010780   ; qtot 0.760540
   46 mop_tetramer.pdb_45      1 mop_tetramer.pdb      O     46 -0.59913999  15.999430   ; qtot 0.161400
   47 mop_tetramer.pdb_46      1 mop_tetramer.pdb      C     47 -0.14227000  12.010780   ; qtot 0.019130
   48 mop_tetramer.pdb_47      1 mop_tetramer.pdb      C     48 -0.09007000   9.994886   ; qtot -0.070940
   49 mop_tetramer.pdb_48      1 mop_tetramer.pdb      C     49 -0.12784000   9.994886   ; qtot -0.198780
   50 mop_tetramer.pdb_49      1 mop_tetramer.pdb      C     50 -0.00911000  12.010780   ; qtot -0.207890
   51 mop_tetramer.pdb_50      1 mop_tetramer.pdb      C     51 -0.07687000  12.010780   ; qtot -0.284760
   52 mop_tetramer.pdb_51      1 mop_tetramer.pdb      C     52 0.00618000  12.010780   ; qtot -0.278580
   53 mop_tetramer.pdb_52      1 mop_tetramer.pdb      C     53 -0.14382000   9.994886   ; qtot -0.422400
   54 mop_tetramer.pdb_53      1 mop_tetramer.pdb      C     54 0.12996000  12.010780   ; qtot -0.292440
   55 mop_tetramer.pdb_54      1 mop_tetramer.pdb      O     55 -0.32583001  15.999430   ; qtot -0.618270
   56 mop_tetramer.pdb_55      1 mop_tetramer.pdb      C     56 0.11367000   5.963098   ; qtot -0.504600
   57 mop_tetramer.pdb_56      1 mop_tetramer.pdb      C     57 -0.20403001   9.994886   ; qtot -0.708630
   58 mop_tetramer.pdb_57      1 mop_tetramer.pdb      C     58 -0.08176000   9.994886   ; qtot -0.790390
   59 mop_tetramer.pdb_58      1 mop_tetramer.pdb      C     59 -0.04178000  12.010780   ; qtot -0.832170
   60 mop_tetramer.pdb_59      1 mop_tetramer.pdb      C     60 -0.10453000   9.994886   ; qtot -0.936700
   61 mop_tetramer.pdb_60      1 mop_tetramer.pdb      C     61 -0.13093001   9.994886   ; qtot -1.067630
   62 mop_tetramer.pdb_61      1 mop_tetramer.pdb      C     62 -0.11210000   9.994886   ; qtot -1.179730
   63 mop_tetramer.pdb_62      1 mop_tetramer.pdb      C     63 -0.10447000  12.010780   ; qtot -1.284200
   64 mop_tetramer.pdb_63      1 mop_tetramer.pdb      C     64 -0.10788000   9.994886   ; qtot -1.392080
   65 mop_tetramer.pdb_64      1 mop_tetramer.pdb      C     65 0.15279999   9.994886   ; qtot -1.239280
   66 mop_tetramer.pdb_65      1 mop_tetramer.pdb      N     66 -0.56630999  11.990826   ; qtot -1.805590
   67 mop_tetramer.pdb_66      1 mop_tetramer.pdb      C     67 -0.11241000   5.963098   ; qtot -1.918000
   68 mop_tetramer.pdb_67      1 mop_tetramer.pdb      C     68 -0.12784000   9.994886   ; qtot -2.045840
   69 mop_tetramer.pdb_68      1 mop_tetramer.pdb      C     69 -0.09007000   9.994886   ; qtot -2.135910
   70 mop_tetramer.pdb_69      1 mop_tetramer.pdb      H     70 0.14753000   3.023841   ; qtot -1.988380
   71 mop_tetramer.pdb_70      1 mop_tetramer.pdb      H     71 0.13923000   3.023841   ; qtot -1.849150
   72 mop_tetramer.pdb_71      1 mop_tetramer.pdb      H     72 0.15606000   3.023841   ; qtot -1.693090
   73 mop_tetramer.pdb_72      1 mop_tetramer.pdb      H     73 0.04572000   3.023841   ; qtot -1.647370
   74 mop_tetramer.pdb_73      1 mop_tetramer.pdb      H     74 0.04572000   3.023841   ; qtot -1.601650
   75 mop_tetramer.pdb_74      1 mop_tetramer.pdb      H     75 0.04572000   3.023841   ; qtot -1.555930
   76 mop_tetramer.pdb_75      1 mop_tetramer.pdb      H     76 0.14136000   3.023841   ; qtot -1.414570
   77 mop_tetramer.pdb_76      1 mop_tetramer.pdb      H     77 0.14129999   3.023841   ; qtot -1.273270
   78 mop_tetramer.pdb_77      1 mop_tetramer.pdb      H     78 0.13713001   3.023841   ; qtot -1.136140
   79 mop_tetramer.pdb_78      1 mop_tetramer.pdb      H     79 0.14022000   3.023841   ; qtot -0.995920
   80 mop_tetramer.pdb_79      1 mop_tetramer.pdb      H     80 0.14090000   3.023841   ; qtot -0.855020
   81 mop_tetramer.pdb_80      1 mop_tetramer.pdb      H     81 0.13635001   3.023841   ; qtot -0.718670
   82 mop_tetramer.pdb_81      1 mop_tetramer.pdb      H     82 0.08519000   3.023841   ; qtot -0.633480
   83 mop_tetramer.pdb_82      1 mop_tetramer.pdb      H     83 0.31103000   3.023841   ; qtot -0.322450
   84 mop_tetramer.pdb_83      1 mop_tetramer.pdb      H     84 0.04621000   3.023841   ; qtot -0.276240
   85 mop_tetramer.pdb_84      1 mop_tetramer.pdb      H     85 0.04621000   3.023841   ; qtot -0.230030
   86 mop_tetramer.pdb_85      1 mop_tetramer.pdb      H     86 0.04621000   3.023841   ; qtot -0.183820
   87 mop_tetramer.pdb_86      1 mop_tetramer.pdb      H     87 0.13923000   3.023841   ; qtot -0.044590
   88 mop_tetramer.pdb_87      1 mop_tetramer.pdb      H     88 0.14753000   3.023841   ; qtot 0.102940
   89 mop_tetramer.pdb_88      1 mop_tetramer.pdb      C     89 0.67383999  12.010780   ; qtot 0.776780
   90 mop_tetramer.pdb_89      1 mop_tetramer.pdb      O     90 -0.62090999  15.999430   ; qtot 0.155870
   91 mop_tetramer.pdb_90      1 mop_tetramer.pdb      C     91 -0.13902999  12.010780   ; qtot 0.016840
   92 mop_tetramer.pdb_91      1 mop_tetramer.pdb      C     92 -0.09710000   9.994886   ; qtot -0.080260
   93 mop_tetramer.pdb_92      1 mop_tetramer.pdb      C     93 -0.12771000   9.994886   ; qtot -0.207970
   94 mop_tetramer.pdb_93      1 mop_tetramer.pdb      C     94 -0.00469000  12.010780   ; qtot -0.212660
   95 mop_tetramer.pdb_94      1 mop_tetramer.pdb      C     95 -0.07852000  12.010780   ; qtot -0.291180
   96 mop_tetramer.pdb_95      1 mop_tetramer.pdb      C     96 0.01013000  12.010780   ; qtot -0.281050
   97 mop_tetramer.pdb_96      1 mop_tetramer.pdb      C     97 -0.14906000   9.994886   ; qtot -0.430110
   98 mop_tetramer.pdb_97      1 mop_tetramer.pdb      C     98 0.12918000  12.010780   ; qtot -0.300930
   99 mop_tetramer.pdb_98      1 mop_tetramer.pdb      O     99 -0.32824999  15.999430   ; qtot -0.629180
  100 mop_tetramer.pdb_99      1 mop_tetramer.pdb      C    100 0.11331000   5.963098   ; qtot -0.515870
  101 mop_tetramer.pdb_100      1 mop_tetramer.pdb      C    101 -0.20027000   9.994886   ; qtot -0.716140
  102 mop_tetramer.pdb_101      1 mop_tetramer.pdb      C    102 -0.08081000   9.994886   ; qtot -0.796950
  103 mop_tetramer.pdb_102      1 mop_tetramer.pdb      C    103 -0.04538000  12.010780   ; qtot -0.842330
  104 mop_tetramer.pdb_103      1 mop_tetramer.pdb      C    104 -0.11035000   9.994886   ; qtot -0.952680
  105 mop_tetramer.pdb_104      1 mop_tetramer.pdb      C    105 -0.13344000   9.994886   ; qtot -1.086120
  106 mop_tetramer.pdb_105      1 mop_tetramer.pdb      C    106 -0.10299000   9.994886   ; qtot -1.189110
  107 mop_tetramer.pdb_106      1 mop_tetramer.pdb      C    107 -0.10946000  12.010780   ; qtot -1.298570
  108 mop_tetramer.pdb_107      1 mop_tetramer.pdb      C    108 -0.10421000   9.994886   ; qtot -1.402780
  109 mop_tetramer.pdb_108      1 mop_tetramer.pdb      C    109 0.15011001   9.994886   ; qtot -1.252670
  110 mop_tetramer.pdb_109      1 mop_tetramer.pdb      N    110 -0.56923997  11.990826   ; qtot -1.821910
  111 mop_tetramer.pdb_110      1 mop_tetramer.pdb      C    111 -0.10299000   5.963098   ; qtot -1.924900
  112 mop_tetramer.pdb_111      1 mop_tetramer.pdb      C    112 -0.12771000   9.994886   ; qtot -2.052610
  113 mop_tetramer.pdb_112      1 mop_tetramer.pdb      C    113 -0.09710000   9.994886   ; qtot -2.149710
  114 mop_tetramer.pdb_113      1 mop_tetramer.pdb      H    114 0.14962000   3.023841   ; qtot -2.000090
  115 mop_tetramer.pdb_114      1 mop_tetramer.pdb      H    115 0.14295000   3.023841   ; qtot -1.857140
  116 mop_tetramer.pdb_115      1 mop_tetramer.pdb      H    116 0.15548000   3.023841   ; qtot -1.701660
  117 mop_tetramer.pdb_116      1 mop_tetramer.pdb      H    117 0.04666000   3.023841   ; qtot -1.655000
  118 mop_tetramer.pdb_117      1 mop_tetramer.pdb      H    118 0.04666000   3.023841   ; qtot -1.608340
  119 mop_tetramer.pdb_118      1 mop_tetramer.pdb      H    119 0.04666000   3.023841   ; qtot -1.561680
  120 mop_tetramer.pdb_119      1 mop_tetramer.pdb      H    120 0.14279000   3.023841   ; qtot -1.418890
  121 mop_tetramer.pdb_120      1 mop_tetramer.pdb      H    121 0.13926999   3.023841   ; qtot -1.279620
  122 mop_tetramer.pdb_121      1 mop_tetramer.pdb      H    122 0.13393000   3.023841   ; qtot -1.145690
  123 mop_tetramer.pdb_122      1 mop_tetramer.pdb      H    123 0.13429999   3.023841   ; qtot -1.011390
  124 mop_tetramer.pdb_123      1 mop_tetramer.pdb      H    124 0.14181000   3.023841   ; qtot -0.869580
  125 mop_tetramer.pdb_124      1 mop_tetramer.pdb      H    125 0.13225999   3.023841   ; qtot -0.737320
  126 mop_tetramer.pdb_125      1 mop_tetramer.pdb      H    126 0.08748000   3.023841   ; qtot -0.649840
  127 mop_tetramer.pdb_126      1 mop_tetramer.pdb      H    127 0.30845001   3.023841   ; qtot -0.341390
  128 mop_tetramer.pdb_127      1 mop_tetramer.pdb      H    128 0.04415000   3.023841   ; qtot -0.297240
  129 mop_tetramer.pdb_128      1 mop_tetramer.pdb      H    129 0.04415000   3.023841   ; qtot -0.253090
  130 mop_tetramer.pdb_129      1 mop_tetramer.pdb      H    130 0.04415000   3.023841   ; qtot -0.208940
  131 mop_tetramer.pdb_130      1 mop_tetramer.pdb      H    131 0.14295000   3.023841   ; qtot -0.065990
  132 mop_tetramer.pdb_131      1 mop_tetramer.pdb      H    132 0.14962000   3.023841   ; qtot 0.083630
  133 mop_tetramer.pdb_132      1 mop_tetramer.pdb      C    133 0.67761999  12.010780   ; qtot 0.761250
  134 mop_tetramer.pdb_133      1 mop_tetramer.pdb      O    134 -0.60363001  15.999430   ; qtot 0.157620
  135 mop_tetramer.pdb_134      1 mop_tetramer.pdb      C    135 -0.14371000  12.010780   ; qtot 0.013910
  136 mop_tetramer.pdb_135      1 mop_tetramer.pdb      C    136 -0.09234000   9.994886   ; qtot -0.078430
  137 mop_tetramer.pdb_136      1 mop_tetramer.pdb      C    137 -0.12521000   9.994886   ; qtot -0.203640
  138 mop_tetramer.pdb_137      1 mop_tetramer.pdb      C    138 -0.00710000  12.010780   ; qtot -0.210740
  139 mop_tetramer.pdb_138      1 mop_tetramer.pdb      C    139 -0.07687000  12.010780   ; qtot -0.287610
  140 mop_tetramer.pdb_139      1 mop_tetramer.pdb      C    140 0.01077000  12.010780   ; qtot -0.276840
  141 mop_tetramer.pdb_140      1 mop_tetramer.pdb      C    141 -0.14527000   9.994886   ; qtot -0.422110
  142 mop_tetramer.pdb_141      1 mop_tetramer.pdb      C    142 0.12676001  12.010780   ; qtot -0.295350
  143 mop_tetramer.pdb_142      1 mop_tetramer.pdb      O    143 -0.32563001  15.999430   ; qtot -0.620980
  144 mop_tetramer.pdb_143      1 mop_tetramer.pdb      C    144 0.11316000   5.963098   ; qtot -0.507820
  145 mop_tetramer.pdb_144      1 mop_tetramer.pdb      C    145 -0.20400999   9.994886   ; qtot -0.711830
  146 mop_tetramer.pdb_145      1 mop_tetramer.pdb      C    146 -0.08251000   9.994886   ; qtot -0.794340
  147 mop_tetramer.pdb_146      1 mop_tetramer.pdb      C    147 -0.04994000  12.010780   ; qtot -0.844280
  148 mop_tetramer.pdb_147      1 mop_tetramer.pdb      C    148 -0.09722000   9.994886   ; qtot -0.941500
  149 mop_tetramer.pdb_148      1 mop_tetramer.pdb      C    149 -0.12068000   9.994886   ; qtot -1.062180
  150 mop_tetramer.pdb_149      1 mop_tetramer.pdb      C    150 -0.11203000   9.994886   ; qtot -1.174210
  151 mop_tetramer.pdb_150      1 mop_tetramer.pdb      C    151 -0.11192000  12.010780   ; qtot -1.286130
  152 mop_tetramer.pdb_151      1 mop_tetramer.pdb      C    152 -0.11062000   9.994886   ; qtot -1.396750
  153 mop_tetramer.pdb_152      1 mop_tetramer.pdb      C    153 0.16686000   9.994886   ; qtot -1.229890
  154 mop_tetramer.pdb_153      1 mop_tetramer.pdb      N    154 -0.55741000  11.990826   ; qtot -1.787300
  155 mop_tetramer.pdb_154      1 mop_tetramer.pdb      C    155 -0.11486000   5.963098   ; qtot -1.902160
  156 mop_tetramer.pdb_155      1 mop_tetramer.pdb      C    156 -0.12521000   9.994886   ; qtot -2.027370
  157 mop_tetramer.pdb_156      1 mop_tetramer.pdb      C    157 -0.09234000   9.994886   ; qtot -2.119710
  158 mop_tetramer.pdb_157      1 mop_tetramer.pdb      H    158 0.14634000   3.023841   ; qtot -1.973370
  159 mop_tetramer.pdb_158      1 mop_tetramer.pdb      H    159 0.14224000   3.023841   ; qtot -1.831130
  160 mop_tetramer.pdb_159      1 mop_tetramer.pdb      H    160 0.15803000   3.023841   ; qtot -1.673100
  161 mop_tetramer.pdb_160      1 mop_tetramer.pdb      H    161 0.04525000   3.023841   ; qtot -1.627850
  162 mop_tetramer.pdb_161      1 mop_tetramer.pdb      H    162 0.04525000   3.023841   ; qtot -1.582600
  163 mop_tetramer.pdb_162      1 mop_tetramer.pdb      H    163 0.04525000   3.023841   ; qtot -1.537350
  164 mop_tetramer.pdb_163      1 mop_tetramer.pdb      H    164 0.14023000   3.023841   ; qtot -1.397120
  165 mop_tetramer.pdb_164      1 mop_tetramer.pdb      H    165 0.14030001   3.023841   ; qtot -1.256820
  166 mop_tetramer.pdb_165      1 mop_tetramer.pdb      H    166 0.14557999   3.023841   ; qtot -1.111240
  167 mop_tetramer.pdb_166      1 mop_tetramer.pdb      H    167 0.16332000   3.023841   ; qtot -0.947920
  168 mop_tetramer.pdb_167      1 mop_tetramer.pdb      H    168 0.13648000   3.023841   ; qtot -0.811440
  169 mop_tetramer.pdb_168      1 mop_tetramer.pdb      H    169 0.13186000   3.023841   ; qtot -0.679580
  170 mop_tetramer.pdb_169      1 mop_tetramer.pdb      H    170 0.08017000   3.023841   ; qtot -0.599410
  171 mop_tetramer.pdb_170      1 mop_tetramer.pdb      H    171 0.32916999   3.023841   ; qtot -0.270240
  172 mop_tetramer.pdb_171      1 mop_tetramer.pdb      H    172 0.04687000   3.023841   ; qtot -0.223370
  173 mop_tetramer.pdb_172      1 mop_tetramer.pdb      H    173 0.04687000   3.023841   ; qtot -0.176500
  174 mop_tetramer.pdb_173      1 mop_tetramer.pdb      H    174 0.04687000   3.023841   ; qtot -0.129630
  175 mop_tetramer.pdb_174      1 mop_tetramer.pdb      H    175 0.14224000   3.023841   ; qtot 0.012610
  176 mop_tetramer.pdb_175      1 mop_tetramer.pdb      H    176 0.14634000   3.023841   ; qtot 0.158950
  177 mop_tetramer.pdb_176      1 mop_tetramer.pdb      C    177 0.12430000   5.963098   ; qtot 0.283250
  178 mop_tetramer.pdb_177      1 mop_tetramer.pdb      O    178 -0.42804000  15.999430   ; qtot -0.144790
  179 mop_tetramer.pdb_178      1 mop_tetramer.pdb      H    179 0.05072000   3.023841   ; qtot -0.094070
  180 mop_tetramer.pdb_179      1 mop_tetramer.pdb      H    180 0.05072000   3.023841   ; qtot -0.043350
  181 mop_tetramer.pdb_180      1 mop_tetramer.pdb      H    181 0.05072000   3.023841   ; qtot 0.007370
  182 mop_tetramer.pdb_181      1 mop_tetramer.pdb      C    182 -0.11382000   5.963098   ; qtot -0.106450
  183 mop_tetramer.pdb_182      1 mop_tetramer.pdb      C    183 0.18503000  12.010780   ; qtot 0.078580
  184 mop_tetramer.pdb_183      1 mop_tetramer.pdb      C    184 -0.11382000   5.963098   ; qtot -0.035240
  185 mop_tetramer.pdb_184      1 mop_tetramer.pdb      C    185 -0.11382000   5.963098   ; qtot -0.149060
  186 mop_tetramer.pdb_185      1 mop_tetramer.pdb      O    186 -0.45350999  15.999430   ; qtot -0.602570
  187 mop_tetramer.pdb_186      1 mop_tetramer.pdb      C    187 0.74703997  12.010780   ; qtot 0.144470
  188 mop_tetramer.pdb_187      1 mop_tetramer.pdb      O    188 -0.60895997  15.999430   ; qtot -0.464490
  189 mop_tetramer.pdb_188      1 mop_tetramer.pdb      H    189 0.05161000   3.023841   ; qtot -0.412880
  190 mop_tetramer.pdb_189      1 mop_tetramer.pdb      H    190 0.05161000   3.023841   ; qtot -0.361270
  191 mop_tetramer.pdb_190      1 mop_tetramer.pdb      H    191 0.05161000   3.023841   ; qtot -0.309660
  192 mop_tetramer.pdb_191      1 mop_tetramer.pdb      H    192 0.05161000   3.023841   ; qtot -0.258050
  193 mop_tetramer.pdb_192      1 mop_tetramer.pdb      H    193 0.05161000   3.023841   ; qtot -0.206440
  194 mop_tetramer.pdb_193      1 mop_tetramer.pdb      H    194 0.05161000   3.023841   ; qtot -0.154830
  195 mop_tetramer.pdb_194      1 mop_tetramer.pdb      H    195 0.05161000   3.023841   ; qtot -0.103220
  196 mop_tetramer.pdb_195      1 mop_tetramer.pdb      H    196 0.05161000   3.023841   ; qtot -0.051610
  197 mop_tetramer.pdb_196      1 mop_tetramer.pdb      H    197 0.05161000   3.023841   ; qtot 0.000000

[ bonds ]
;    ai     aj funct         c0         c1         c2         c3
      1      3     1   0.14546 233580.248618
      1    178     1   0.13457 252005.673257
      1      2     1   0.12252 487602.327766
      3      4     1   0.13872 301905.092579
      4     26     1   0.10854 332422.631675
      4      5     1   0.13872 301905.092579
      5     27     1   0.10854 332422.631675
      5      6     1   0.13872 301905.092579
      6      7     1   0.14546 233580.248618
      7     14     1   0.13872 301905.092579
      8      9     1   0.13872 301905.092579
      7      8     1   0.13872 301905.092579
      9     10     1   0.13872 301905.092579
     10     11     1   0.13629 356218.264001
     10     13     1   0.13872 301905.092579
     11     12     1   0.14259 306888.771877
     12     29     1   0.10939 309655.084322
     12     30     1   0.10939 309655.084322
     13     32     1   0.10854 332422.631675
     13     14     1   0.13872 301905.092579
     14     33     1   0.10854 332422.631675
      8     15     1   0.14546 233580.248618
     15     20     1   0.13872 301905.092579
     15     16     1   0.13872 301905.092579
     16     17     1   0.13872 301905.092579
     17     18     1   0.13872 301905.092579
     18     19     1   0.13872 301905.092579
     19     20     1   0.13872 301905.092579
     19     21     1   0.14986 242452.869388
     20     37     1   0.10854 332422.631675
     21     22     1   0.14501 294600.927776
     21     38     1   0.10939 309655.084322
     22     45     1   0.13819 412347.817359
     23     41     1   0.10939 309655.084322
     21     23     1   0.15219 221435.259290
     24     25     1   0.13872 301905.092579
      6     24     1   0.13872 301905.092579
      3     25     1   0.13872 301905.092579
      9     28     1   0.10854 332422.631675
     12     31     1   0.10939 309655.084322
     16     34     1   0.10854 332422.631675
     17     35     1   0.10854 332422.631675
     18     36     1   0.10854 332422.631675
     22     39     1   0.10195 422704.914414
     23     40     1   0.10939 309655.084322
     23     42     1   0.10939 309655.084322
     24     43     1   0.10854 332422.631675
     25     44     1   0.10854 332422.631675
     45     46     1   0.12252 487602.327766
     45     47     1   0.14546 233580.248618
     47     69     1   0.13872 301905.092579
     47     48     1   0.13872 301905.092579
     48     49     1   0.13872 301905.092579
     49     50     1   0.13872 301905.092579
     50     68     1   0.13872 301905.092579
     50     51     1   0.14546 233580.248618
     51     52     1   0.13872 301905.092579
     52     59     1   0.14546 233580.248618
     52     53     1   0.13872 301905.092579
     53     72     1   0.10854 332422.631675
     53     54     1   0.13872 301905.092579
     54     55     1   0.13629 356218.264001
     55     56     1   0.14259 306888.771877
     56     75     1   0.10939 309655.084322
     57     58     1   0.13872 301905.092579
     54     57     1   0.13872 301905.092579
     51     58     1   0.13872 301905.092579
     59     60     1   0.13872 301905.092579
     60     61     1   0.13872 301905.092579
     60     78     1   0.10854 332422.631675
     61     79     1   0.10854 332422.631675
     62     80     1   0.10854 332422.631675
     61     62     1   0.13872 301905.092579
     62     63     1   0.13872 301905.092579
     63     64     1   0.13872 301905.092579
     59     64     1   0.13872 301905.092579
     65     82     1   0.10939 309655.084322
     65     67     1   0.15219 221435.259290
     63     65     1   0.14986 242452.869388
     65     66     1   0.14501 294600.927776
     66     83     1   0.10195 422704.914414
     67     86     1   0.10939 309655.084322
     67     84     1   0.10939 309655.084322
     68     69     1   0.13872 301905.092579
     68     87     1   0.10854 332422.631675
     69     88     1   0.10854 332422.631675
     48     70     1   0.10854 332422.631675
     49     71     1   0.10854 332422.631675
     56     73     1   0.10939 309655.084322
     56     74     1   0.10939 309655.084322
     57     76     1   0.10854 332422.631675
     58     77     1   0.10854 332422.631675
     64     81     1   0.10854 332422.631675
     67     85     1   0.10939 309655.084322
     89     91     1   0.14546 233580.248618
     66     89     1   0.13819 412347.817359
     89     90     1   0.12252 487602.327766
     91     92     1   0.13872 301905.092579
     92     93     1   0.13872 301905.092579
     92    114     1   0.10854 332422.631675
     93    115     1   0.10854 332422.631675
     94     95     1   0.14546 233580.248618
     93     94     1   0.13872 301905.092579
     95    102     1   0.13872 301905.092579
     95     96     1   0.13872 301905.092579
     96     97     1   0.13872 301905.092579
     97     98     1   0.13872 301905.092579
     98     99     1   0.13629 356218.264001
     98    101     1   0.13872 301905.092579
     99    100     1   0.14259 306888.771877
    100    117     1   0.10939 309655.084322
    100    118     1   0.10939 309655.084322
    101    120     1   0.10854 332422.631675
    101    102     1   0.13872 301905.092579
    102    121     1   0.10854 332422.631675
     96    103     1   0.14546 233580.248618
    103    108     1   0.13872 301905.092579
    103    104     1   0.13872 301905.092579
    104    105     1   0.13872 301905.092579
    105    106     1   0.13872 301905.092579
    106    107     1   0.13872 301905.092579
    107    108     1   0.13872 301905.092579
    107    109     1   0.14986 242452.869388
    108    125     1   0.10854 332422.631675
    109    110     1   0.14501 294600.927776
    109    126     1   0.10939 309655.084322
    110    133     1   0.13819 412347.817359
    109    111     1   0.15219 221435.259290
    111    129     1   0.10939 309655.084322
     94    112     1   0.13872 301905.092579
    112    113     1   0.13872 301905.092579
     91    113     1   0.13872 301905.092579
     97    116     1   0.10854 332422.631675
    100    119     1   0.10939 309655.084322
    104    122     1   0.10854 332422.631675
    105    123     1   0.10854 332422.631675
    106    124     1   0.10854 332422.631675
    110    127     1   0.10195 422704.914414
    111    128     1   0.10939 309655.084322
    111    130     1   0.10939 309655.084322
    112    131     1   0.10854 332422.631675
    113    132     1   0.10854 332422.631675
    133    134     1   0.12252 487602.327766
    133    135     1   0.14546 233580.248618
    135    157     1   0.13872 301905.092579
    135    136     1   0.13872 301905.092579
    136    137     1   0.13872 301905.092579
    137    138     1   0.13872 301905.092579
    138    156     1   0.13872 301905.092579
    139    140     1   0.13872 301905.092579
    138    139     1   0.14546 233580.248618
    140    147     1   0.14546 233580.248618
    141    160     1   0.10854 332422.631675
    140    141     1   0.13872 301905.092579
    141    142     1   0.13872 301905.092579
    142    143     1   0.13629 356218.264001
    143    144     1   0.14259 306888.771877
    144    163     1   0.10939 309655.084322
    142    145     1   0.13872 301905.092579
    145    146     1   0.13872 301905.092579
    139    146     1   0.13872 301905.092579
    147    148     1   0.13872 301905.092579
    148    149     1   0.13872 301905.092579
    148    166     1   0.10854 332422.631675
    149    167     1   0.10854 332422.631675
    150    168     1   0.10854 332422.631675
    149    150     1   0.13872 301905.092579
    150    151     1   0.13872 301905.092579
    151    152     1   0.13872 301905.092579
    147    152     1   0.13872 301905.092579
    153    170     1   0.10939 309655.084322
    153    155     1   0.15219 221435.259290
    151    153     1   0.14986 242452.869388
    153    154     1   0.14501 294600.927776
    154    171     1   0.10195 422704.914414
    155    174     1   0.10939 309655.084322
    155    172     1   0.10939 309655.084322
    156    175     1   0.10854 332422.631675
    156    157     1   0.13872 301905.092579
    157    176     1   0.10854 332422.631675
    136    158     1   0.10854 332422.631675
    137    159     1   0.10854 332422.631675
    144    161     1   0.10939 309655.084322
    144    162     1   0.10939 309655.084322
    145    164     1   0.10854 332422.631675
    146    165     1   0.10854 332422.631675
    152    169     1   0.10854 332422.631675
    155    173     1   0.10939 309655.084322
    177    179     1   0.10939 309655.084322
    177    180     1   0.10939 309655.084322
    177    178     1   0.14259 306888.771877
    177    181     1   0.10939 309655.084322
    182    183     1   0.15219 221435.259290
    182    190     1   0.10939 309655.084322
    183    186     1   0.14259 306888.771877
    183    184     1   0.15219 221435.259290
    184    192     1   0.10939 309655.084322
    183    185     1   0.15219 221435.259290
    186    187     1   0.13457 252005.673257
    154    187     1   0.13819 412347.817359
    187    188     1   0.12252 487602.327766
    182    189     1   0.10939 309655.084322
    182    191     1   0.10939 309655.084322
    184    193     1   0.10939 309655.084322
    184    194     1   0.10939 309655.084322
    185    195     1   0.10939 309655.084322
    185    196     1   0.10939 309655.084322
    185    197     1   0.10939 309655.084322

[ pairs ]
;    ai     aj funct         c0         c1         c2         c3
     54     73     1
     82     85     1
     89     93     1
     16     36     1
    141    144     1
      4      7     1
    186    196     1
    104    124     1
     67     89     1
     63     84     1
    127    135     1
    184    187     1
     98    121     1
    151    172     1
     65     80     1
      5     14     1
     62     66     1
    147    167     1
      1    181     1
    141    164     1
     98    103     1
    133    158     1
    140    166     1
     82     89     1
     25     26     1
    106    126     1
      8     33     1
      9     20     1
     20     34     1
      4     44     1
     52     77     1
      8     13     1
    186    189     1
     50     88     1
     52     57     1
    105    108     1
    185    191     1
     14     24     1
     95    120     1
    126    130     1
      1      5     1
    147    160     1
     60     81     1
     64     82     1
    109    134     1
    170    171     1
    148    151     1
     38     41     1
     45     49     1
    147    153     1
     49     87     1
     54     59     1
     19     40     1
     15     35     1
      3      6     1
    103    123     1
     66     84     1
     95    113     1
    102    112     1
    154    172     1
    175    176     1
    142    161     1
      2    177     1
    107    129     1
     97    102     1
      8     19     1
    186    195     1
    133    137     1
    140    145     1
      7     28     1
     51     76     1
     52     63     1
     15     28     1
     47     71     1
     11     14     1
     18     22     1
    103    116     1
    127    134     1
     65     90     1
    151    171     1
    182    197     1
     96    101     1
     61     65     1
    142    165     1
      1    180     1
    142    147     1
    106    125     1
     53     58     1
    140    149     1
     16     19     1
     22     40     1
     51     69     1
    185    190     1
     15     21     1
     96    121     1
    104    107     1
     94    132     1
    131    132     1
    103    109     1
     10     15     1
    148    168     1
    126    129     1
    171    188     1
     60     80     1
    137    175     1
    109    124     1
    152    155     1
    108    126     1
     38     40     1
    140    169     1
     19     39     1
    153    186     1
    185    194     1
     26     27     1
     25    178     1
     62     82     1
    126    133     1
     98    117     1
     58     68     1
    182    194     1
     69     70     1
    110    128     1
     47     50     1
    139    164     1
    150    166     1
    170    174     1
    111    133     1
     59     62     1
    139    157     1
    107    128     1
      6     33     1
    149    152     1
      6     13     1
    106    122     1
      9     16     1
     53     64     1
    186    194     1
      7     27     1
    185    187     1
     15     18     1
      2      4     1
      5     43     1
    184    196     1
     96    107     1
     49     52     1
     95    116     1
    152    168     1
      4    178     1
    182    187     1
    150    170     1
    170    187     1
    100    101     1
     64     78     1
     61     64     1
      6     26     1
     54     75     1
    141    146     1
     20     23     1
      8     11     1
      7     20     1
     18     34     1
     50     77     1
     63     86     1
    184    189     1
     50     57     1
     91    115     1
    151    174     1
     93    131     1
    114    115     1
    152    154     1
     35     36     1
     59     79     1
     21     47     1
    138    145     1
     20     36     1
     47     87     1
    186    191     1
    101    116     1
     51     72     1
     18     38     1
    185    193     1
     46     69     1
     50     70     1
     63     79     1
    151    187     1
     17     20     1
    156    159     1
     48     51     1
    151    167     1
    182    193     1
     51     54     1
    138    176     1
      3    177     1
    170    173     1
     60     63     1
     59     72     1
    102    103     1
     94     97     1
     82     84     1
    141    152     1
     49     69     1
     19     42     1
    153    169     1
     10     31     1
     63     83     1
    184    195     1
     99    120     1
     66     86     1
     13     28     1
    183    188     1
     70     71     1
     89    132     1
    154    174     1
    150    169     1
     39     47     1
     96     99     1
     89    112     1
    142    163     1
    113    114     1
     91     94     1
     94    101     1
    108    122     1
     59     65     1
    140    165     1
     97    104     1
     54     74     1
    134    157     1
     32     33     1
     24     27     1
    186    197     1
     53     56     1
     19     35     1
     20     22     1
     55     72     1
      1     44     1
      1     24     1
     62     78     1
     94    121     1
    151    173     1
     92    132     1
    139    160     1
     46     48     1
     92    112     1
     22     69     1
     34     35     1
    150    155     1
     21     37     1
    139    142     1
      9     32     1
    137    157     1
     48     88     1
      8     34     1
      7     43     1
      9     12     1
     53     60     1
    140    151     1
    144    145     1
     48     68     1
     55     76     1
    186    190     1
     22     42     1
     51     71     1
     18     37     1
      3     27     1
     63     89     1
     45     88     1
    110    157     1
    120    121     1
     45     68     1
     94    114     1
     97    108     1
     50     53     1
    170    172     1
     38     42     1
      6      9     1
     93     96     1
    135    159     1
     82     83     1
    133    156     1
     19     41     1
    106    111     1
    153    188     1
    158    159     1
    136    139     1
      7     16     1
     51     64     1
    153    168     1
     10     30     1
     91    131     1
     52     55     1
     98    119     1
    155    171     1
    182    196     1
     90    113     1
    154    173     1
    110    130     1
    143    160     1
    133    176     1
      1    179     1
     64     67     1
     95     98     1
    107    130     1
    146    147     1
      6     15     1
    138    141     1
     19     45     1
    134    136     1
     23     39     1
     22     48     1
     76     77     1
    185    189     1
     79     80     1
     18     23     1
    152    170     1
     65     91     1
      5     25     1
    126    128     1
    122    123     1
    143    164     1
     12     13     1
     57     72     1
     64     80     1
    139    159     1
    145    160     1
     38     39     1
    112    115     1
    139    152     1
    143    146     1
     93    102     1
     54     77     1
    107    123     1
    150    154     1
     21     36     1
     92     95     1
    141    148     1
      8     24     1
    136    156     1
     52     68     1
     22     41     1
      4     24     1
     11     28     1
     96    122     1
     68     71     1
     95    131     1
    135    138     1
    184    191     1
     14     15     1
     99    116     1
     50     59     1
     62     81     1
    148    169     1
    110    136     1
     93    113     1
     43     44     1
    138    165     1
    167    168     1
     95    104     1
    109    125     1
    136    176     1
    107    127     1
     90     92     1
     97    100     1
    138    147     1
     66    113     1
      8     37     1
     20     38     1
     23     45     1
     52     81     1
    137    140     1
     49     58     1
      8     17     1
    106    110     1
    186    193     1
     83     91     1
    140    143     1
     11     32     1
     52     61     1
     10     29     1
      7     10     1
     78     79     1
     95    115     1
    154    183     1
     98    118     1
    182    195     1
     97    120     1
    110    129     1
     99    102     1
     64     66     1
    138    158     1
     38     45     1
    108    111     1
     82     86     1
    149    153     1
     53     76     1
     16     37     1
    140    156     1
     51     87     1
      3     43     1
    104    125     1
     10     33     1
     63     85     1
    184    197     1
     95    108     1
     65     81     1
     62     67     1
    126    127     1
    171    186     1
     89    114     1
     94    103     1
    108    124     1
    107    133     1
    147    150     1
    111    127     1
    135    175     1
     21     46     1
    164    165     1
    137    146     1
     52     78     1
      7     32     1
    105    109     1
    185    192     1
     51     60     1
     67     83     1
     96    112     1
     66     92     1
      1     26     1
    155    187     1
    184    190     1
      2     25     1
    123    124     1
    182    192     1
     96    105     1
    109    135     1
    166    167     1
     56     57     1
     87     88     1
      9     14     1
    186    192     1
     83     90     1
      7     25     1
     96    125     1
     55     58     1
      5      8     1
    157    158     1
     66     85     1
     17     21     1
     45     70     1
    152    166     1
    139    175     1
     58     59     1
     39     46     1
    103    106     1
    142    162     1
      6     44     1
    108    110     1
    139    148     1
    146    156     1

[ angles ]
;    ai     aj     ak funct         c0         c1         c2         c3
    143    144    162     1   116.5475863 445.222087
    183    185    197     1   116.5475863 445.222087
      1      3      4     1   126.8062420 484.492885
     98    101    102     1   126.8062420 484.492885
     84     67     85     1   115.6031000 408.161690
      4      3     25     1   126.8062420 484.492885
     15     16     34     1   129.1835930 285.070775
    109    111    129     1   116.5475863 445.222087
     96     97     98     1   126.8062420 484.492885
    135    136    158     1   129.1835930 285.070775
    195    185    197     1   115.6031000 408.161690
     54     53     72     1   129.1835930 285.070775
    142    145    146     1   126.8062420 484.492885
     66     89     90     1   126.8062420 484.492885
    151    153    170     1   116.5475863 445.222087
    128    111    129     1   115.6031000 408.161690
    133    135    157     1   126.8062420 484.492885
     45     47     69     1   126.8062420 484.492885
     49     50     51     1   126.8062420 484.492885
     95     96    103     1   126.8062420 484.492885
    184    183    185     1   116.5475863 445.222087
     20     19     21     1   126.8062420 484.492885
    136    137    138     1   126.8062420 484.492885
     54     57     58     1   126.8062420 484.492885
    110    133    134     1   126.8062420 484.492885
    151    152    169     1   129.1835930 285.070775
      7     14     33     1   129.1835930 285.070775
      7     14     13     1   126.8062420 484.492885
     92     91    113     1   126.8062420 484.492885
    154    153    170     1   116.5475863 445.222087
     19     18     36     1   129.1835930 285.070775
     52     51     58     1   126.8062420 484.492885
     97     98    101     1   126.8062420 484.492885
     19     21     23     1   116.5475863 445.222087
     29     12     31     1   115.6031000 408.161690
    134    133    135     1   126.8062420 484.492885
    111    109    126     1   116.5475863 445.222087
    178    177    180     1   116.5475863 445.222087
    157    156    175     1   129.1835930 285.070775
    149    150    151     1   126.8062420 484.492885
     52     53     54     1   126.8062420 484.492885
    155    153    170     1   116.5475863 445.222087
      6     24     25     1   126.8062420 484.492885
      9      8     15     1   126.8062420 484.492885
     13     14     33     1   129.1835930 285.070775
     59     60     78     1   129.1835930 285.070775
    192    184    194     1   115.6031000 408.161690
      2      1      3     1   126.8062420 484.492885
     92     93    115     1   129.1835930 285.070775
     21     22     45     1   117.3465571 463.769802
     89     91    113     1   126.8062420 484.492885
    149    148    166     1   129.1835930 285.070775
     14     13     32     1   129.1835930 285.070775
    139    140    147     1   126.8062420 484.492885
     16     17     18     1   126.8062420 484.492885
    193    184    194     1   115.6031000 408.161690
     60     59     64     1   126.8062420 484.492885
    135    136    137     1   126.8062420 484.492885
      8      9     10     1   126.8062420 484.492885
    117    100    119     1   115.6031000 408.161690
    101    102    121     1   129.1835930 285.070775
     63     62     80     1   129.1835930 285.070775
      6      7      8     1   126.8062420 484.492885
    127    110    133     1   115.5071328 530.901283
    141    142    145     1   126.8062420 484.492885
     53     54     55     1   126.8062420 484.492885
     45     47     48     1   126.8062420 484.492885
      4      5     27     1   129.1835930 285.070775
     59     64     63     1   126.8062420 484.492885
    147    152    151     1   126.8062420 484.492885
    118    100    119     1   115.6031000 408.161690
    195    185    196     1   115.6031000 408.161690
     51     58     77     1   129.1835930 285.070775
     57     58     77     1   129.1835930 285.070775
    172    155    174     1   115.6031000 408.161690
      8      7     14     1   126.8062420 484.492885
     49     50     68     1   126.8062420 484.492885
    180    177    181     1   115.6031000 408.161690
     51     58     57     1   126.8062420 484.492885
     46     45     47     1   126.8062420 484.492885
     68     69     88     1   129.1835930 285.070775
     99    100    118     1   116.5475863 445.222087
    133    135    136     1   126.8062420 484.492885
     93     94     95     1   126.8062420 484.492885
    153    155    173     1   116.5475863 445.222087
      6      7     14     1   126.8062420 484.492885
     21     23     42     1   116.5475863 445.222087
    161    144    163     1   115.6031000 408.161690
    140    141    160     1   129.1835930 285.070775
    150    151    153     1   126.8062420 484.492885
    138    156    157     1   126.8062420 484.492885
     22     21     38     1   116.5475863 445.222087
    183    182    190     1   116.5475863 445.222087
     92     93     94     1   126.8062420 484.492885
    149    150    168     1   129.1835930 285.070775
    138    137    159     1   129.1835930 285.070775
    106    107    109     1   126.8062420 484.492885
     19     21     22     1   116.5475863 445.222087
     89     91     92     1   126.8062420 484.492885
     10     13     14     1   126.8062420 484.492885
    185    183    186     1   116.5475863 445.222087
    178    177    179     1   116.5475863 445.222087
     62     63     64     1   126.8062420 484.492885
    103    104    105     1   126.8062420 484.492885
     25     24     43     1   129.1835930 285.070775
    192    184    193     1   115.6031000 408.161690
    137    136    158     1   129.1835930 285.070775
     94    112    131     1   129.1835930 285.070775
    189    182    191     1   115.6031000 408.161690
     51     52     59     1   126.8062420 484.492885
    154    187    188     1   126.8062420 484.492885
      3      4      5     1   126.8062420 484.492885
      2      1    178     1   127.4691416 1685.413543
    154    153    155     1   116.5475863 445.222087
    117    100    118     1   115.6031000 408.161690
    162    144    163     1   115.6031000 408.161690
     50     68     87     1   129.1835930 285.070775
    148    147    152     1   126.8062420 484.492885
     30     12     31     1   115.6031000 408.161690
     15     20     37     1   129.1835930 285.070775
     91     92    114     1   129.1835930 285.070775
    179    177    180     1   115.6031000 408.161690
    182    183    186     1   116.5475863 445.222087
    107    109    111     1   116.5475863 445.222087
     59     60     61     1   126.8062420 484.492885
    109    110    127     1   115.5071328 530.901283
      6      5     27     1   129.1835930 285.070775
     58     57     76     1   129.1835930 285.070775
    147    148    149     1   126.8062420 484.492885
     96    103    104     1   126.8062420 484.492885
     11     12     31     1   116.5475863 445.222087
     83     66     89     1   115.5071328 530.901283
    137    138    156     1   126.8062420 484.492885
     19     20     37     1   129.1835930 285.070775
    183    184    192     1   116.5475863 445.222087
     93     94    112     1   126.8062420 484.492885
     93     92    114     1   129.1835930 285.070775
     99    100    117     1   116.5475863 445.222087
     50     51     52     1   126.8062420 484.492885
    135    157    156     1   126.8062420 484.492885
     66     65     82     1   116.5475863 445.222087
      4      5      6     1   126.8062420 484.492885
    153    155    172     1   116.5475863 445.222087
     63     65     66     1   116.5475863 445.222087
     24     25     44     1   129.1835930 285.070775
    161    144    162     1   115.6031000 408.161690
    150    151    152     1   126.8062420 484.492885
     96     95    102     1   126.8062420 484.492885
     99     98    101     1   126.8062420 484.492885
    103    104    122     1   129.1835930 285.070775
    183    182    189     1   116.5475863 445.222087
     65     67     84     1   116.5475863 445.222087
    135    157    176     1   129.1835930 285.070775
     55     56     75     1   116.5475863 445.222087
     94     93    115     1   129.1835930 285.070775
     96    103    108     1   126.8062420 484.492885
     63     64     81     1   129.1835930 285.070775
    109    110    133     1   117.3465571 463.769802
     54     55     56     1   110.3538806 544.678275
    143    144    161     1   116.5475863 445.222087
     91     92     93     1   126.8062420 484.492885
    148    149    167     1   129.1835930 285.070775
    196    185    197     1   115.6031000 408.161690
    183    186    187     1   110.3538806 544.678275
    183    185    196     1   116.5475863 445.222087
     50     49     71     1   129.1835930 285.070775
     95    102    101     1   126.8062420 484.492885
     23     21     38     1   116.5475863 445.222087
     47     69     88     1   129.1835930 285.070775
     10     11     12     1   110.3538806 544.678275
    143    142    145     1   126.8062420 484.492885
     47     69     68     1   126.8062420 484.492885
    147    148    166     1   129.1835930 285.070775
    103    108    125     1   129.1835930 285.070775
    109    111    128     1   116.5475863 445.222087
     10      9     28     1   129.1835930 285.070775
    107    109    110     1   116.5475863 445.222087
    150    149    167     1   129.1835930 285.070775
    153    154    171     1   115.5071328 530.901283
    104    105    106     1   126.8062420 484.492885
    140    147    152     1   126.8062420 484.492885
     11     12     30     1   116.5475863 445.222087
     19     21     38     1   116.5475863 445.222087
     98     97    116     1   129.1835930 285.070775
    190    182    191     1   115.6031000 408.161690
     47     48     70     1   129.1835930 285.070775
      9     10     11     1   126.8062420 484.492885
      8      9     28     1   129.1835930 285.070775
     65     66     83     1   115.5071328 530.901283
    108    107    109     1   126.8062420 484.492885
     60     61     62     1   126.8062420 484.492885
     84     67     86     1   115.6031000 408.161690
     52     59     64     1   126.8062420 484.492885
    142    141    160     1   129.1835930 285.070775
    152    151    153     1   126.8062420 484.492885
    104    103    108     1   126.8062420 484.492885
    151    150    168     1   129.1835930 285.070775
    140    139    146     1   126.8062420 484.492885
     66     89     91     1   126.8062420 484.492885
    137    138    139     1   126.8062420 484.492885
     29     12     30     1   115.6031000 408.161690
    140    141    142     1   126.8062420 484.492885
     73     56     75     1   115.6031000 408.161690
     11     10     13     1   126.8062420 484.492885
    151    153    155     1   116.5475863 445.222087
      5      6      7     1   126.8062420 484.492885
    145    146    165     1   129.1835930 285.070775
     48     47     69     1   126.8062420 484.492885
     55     56     74     1   116.5475863 445.222087
     53     52     59     1   126.8062420 484.492885
      3      1    178     1   126.8062420 484.492885
    139    146    145     1   126.8062420 484.492885
     91    113    132     1   129.1835930 285.070775
     64     63     65     1   126.8062420 484.492885
     91    113    112     1   126.8062420 484.492885
    183    185    195     1   116.5475863 445.222087
     65     66     89     1   117.3465571 463.769802
     60     61     79     1   129.1835930 285.070775
     55     54     57     1   126.8062420 484.492885
    148    149    150     1   126.8062420 484.492885
     47     48     49     1   126.8062420 484.492885
    104    105    123     1   129.1835930 285.070775
      5      6     24     1   126.8062420 484.492885
      8     15     16     1   126.8062420 484.492885
    139    146    165     1   129.1835930 285.070775
     63     65     82     1   116.5475863 445.222087
     94    112    113     1   126.8062420 484.492885
     11     12     29     1   116.5475863 445.222087
     17     16     34     1   129.1835930 285.070775
     98    101    120     1   129.1835930 285.070775
     95     94    112     1   126.8062420 484.492885
     94     95     96     1   126.8062420 484.492885
    172    155    173     1   115.6031000 408.161690
    110    109    126     1   116.5475863 445.222087
     67     65     82     1   116.5475863 445.222087
     17     18     19     1   126.8062420 484.492885
      5      4     26     1   129.1835930 285.070775
     96     97    116     1   129.1835930 285.070775
      8     15     20     1   126.8062420 484.492885
     54     57     76     1   129.1835930 285.070775
     50     68     69     1   126.8062420 484.492885
    102    101    120     1   129.1835930 285.070775
      1    178    177     1   110.3538806 544.678275
     15     20     19     1   126.8062420 484.492885
     48     49     71     1   129.1835930 285.070775
    142    145    164     1   129.1835930 285.070775
     21     23     41     1   116.5475863 445.222087
    112    113    132     1   129.1835930 285.070775
    139    138    156     1   126.8062420 484.492885
     21     22     39     1   115.5071328 530.901283
    105    104    122     1   129.1835930 285.070775
     97     96    103     1   126.8062420 484.492885
      3     25     44     1   129.1835930 285.070775
    139    140    141     1   126.8062420 484.492885
      3     25     24     1   126.8062420 484.492885
     97     98     99     1   126.8062420 484.492885
    106    107    108     1   126.8062420 484.492885
    183    184    194     1   116.5475863 445.222087
     73     56     74     1   115.6031000 408.161690
    151    153    154     1   116.5475863 445.222087
    186    187    188     1   127.4691416 1685.413543
      6     24     43     1   129.1835930 285.070775
     99    100    119     1   116.5475863 445.222087
     22     45     47     1   126.8062420 484.492885
      7      8      9     1   126.8062420 484.492885
     55     56     73     1   116.5475863 445.222087
    107    109    126     1   116.5475863 445.222087
    153    154    187     1   117.3465571 463.769802
    153    155    174     1   116.5475863 445.222087
    105    106    124     1   129.1835930 285.070775
     18     19     21     1   126.8062420 484.492885
     61     62     63     1   126.8062420 484.492885
    189    182    190     1   115.6031000 408.161690
      7      6     24     1   126.8062420 484.492885
     85     67     86     1   115.6031000 408.161690
    140    147    148     1   126.8062420 484.492885
     40     23     42     1   115.6031000 408.161690
     94     95    102     1   126.8062420 484.492885
    183    182    191     1   116.5475863 445.222087
     65     67     86     1   116.5475863 445.222087
     52     53     72     1   129.1835930 285.070775
     17     18     36     1   129.1835930 285.070775
    113    112    131     1   129.1835930 285.070775
     62     63     65     1   126.8062420 484.492885
    141    140    147     1   126.8062420 484.492885
     52     59     60     1   126.8062420 484.492885
    138    139    140     1   126.8062420 484.492885
    141    142    143     1   126.8062420 484.492885
     59     64     81     1   129.1835930 285.070775
      7      8     15     1   126.8062420 484.492885
    182    183    185     1   116.5475863 445.222087
     61     60     78     1   129.1835930 285.070775
      3      4     26     1   129.1835930 285.070775
     49     48     70     1   129.1835930 285.070775
    143    144    163     1   116.5475863 445.222087
     95    102    121     1   129.1835930 285.070775
     48     49     50     1   126.8062420 484.492885
     51     52     53     1   126.8062420 484.492885
     22     21     23     1   116.5475863 445.222087
    146    145    164     1   129.1835930 285.070775
     50     51     58     1   126.8062420 484.492885
     16     15     20     1   126.8062420 484.492885
    147    152    169     1   129.1835930 285.070775
     51     50     68     1   126.8062420 484.492885
     41     23     42     1   115.6031000 408.161690
    179    177    181     1   115.6031000 408.161690
    109    111    130     1   116.5475863 445.222087
     61     62     80     1   129.1835930 285.070775
    136    135    157     1   126.8062420 484.492885
    103    108    107     1   126.8062420 484.492885
     21     23     40     1   116.5475863 445.222087
     74     56     75     1   115.6031000 408.161690
     39     22     45     1   115.5071328 530.901283
     10     13     32     1   129.1835930 285.070775
      9     10     13     1   126.8062420 484.492885
    128    111    130     1   115.6031000 408.161690
    183    184    193     1   116.5475863 445.222087
      1      3     25     1   126.8062420 484.492885
     53     54     57     1   126.8062420 484.492885
     22     45     46     1   126.8062420 484.492885
    184    183    186     1   116.5475863 445.222087
    138    139    146     1   126.8062420 484.492885
    138    156    175     1   129.1835930 285.070775
    110    133    135     1   126.8062420 484.492885
     63     65     67     1   116.5475863 445.222087
     15     16     17     1   126.8062420 484.492885
     18     19     20     1   126.8062420 484.492885
    107    108    125     1   129.1835930 285.070775
    156    157    176     1   129.1835930 285.070775
    154    187    186     1   126.8062420 484.492885
    142    143    144     1   110.3538806 544.678275
     16     17     35     1   129.1835930 285.070775
     40     23     41     1   115.6031000 408.161690
     62     61     79     1   129.1835930 285.070775
     65     67     85     1   116.5475863 445.222087
    173    155    174     1   115.6031000 408.161690
    136    137    159     1   129.1835930 285.070775
    110    109    111     1   116.5475863 445.222087
    178    177    181     1   116.5475863 445.222087
    106    105    123     1   129.1835930 285.070775
    107    106    124     1   129.1835930 285.070775
    171    154    187     1   115.5071328 530.901283
     95     96     97     1   126.8062420 484.492885
     98     99    100     1   110.3538806 544.678275
     66     65     67     1   116.5475863 445.222087
     69     68     87     1   129.1835930 285.070775
     90     89     91     1   126.8062420 484.492885
    129    111    130     1   115.6031000 408.161690
    182    183    184     1   116.5475863 445.222087
     18     17     35     1   129.1835930 285.070775
    105    106    107     1   126.8062420 484.492885

[ dihedrals ]
;    ai     aj     ak     al funct         c0         c1         c2         c3         c4         c5
     14      7      8     15     1  180.0000000  15.3215155  2
     52     59     60     78     1  180.0000000  15.3215155  2
    126    109    110    133     1  0.0000000  3.3901771  1
    126    109    110    133     1  180.0000000  -1.2586480  2
    126    109    110    133     1  0.0000000  -0.3799139  3
    126    109    110    133     1  180.0000000  -0.0062073  4
     53     54     55     56     1  0.0000000  0.0965786  1
     53     54     55     56     1  180.0000000  9.0511605  2
     53     54     55     56     1  0.0000000  0.4607850  3
     53     54     55     56     1  180.0000000  0.6284526  4
     98     99    100    118     1  0.0000000  0.1982205  3
    104    103    108    125     1  180.0000000  15.3215155  2
      1    178    177    180     1  0.0000000  0.1982205  3
    146    139    140    147     1  180.0000000  15.3215155  2
    175    156    157    176     1  180.0000000  15.3215155  2
      8     15     20     37     1  180.0000000  15.3215155  2
    185    183    182    191     1  0.0000000  0.4354138  3
     64     63     62     80     1  180.0000000  15.3215155  2
    112     94     93    115     1  180.0000000  15.3215155  2
    152    151    153    170     1  0.0000000  -0.0827953  1
    152    151    153    170     1  180.0000000  -0.5436248  2
    152    151    153    170     1  0.0000000  -0.2155912  3
    152    151    153    170     1  180.0000000  0.3166740  4
     20     19     21     38     1  0.0000000  -0.1176492  1
     20     19     21     38     1  180.0000000  -0.8429016  2
     20     19     21     38     1  0.0000000  -0.2749886  3
     20     19     21     38     1  180.0000000  0.1972288  4
     94     93     92    114     1  180.0000000  15.3215155  2
      9     10     13     32     1  180.0000000  15.3215155  2
     97     96    103    108     1  180.0000000  4.8669776  2
     91    113    112     94     1  180.0000000  15.3215155  2
     18     19     21     23     1  0.0000000  -0.2112947  1
     18     19     21     23     1  180.0000000  -0.0876596  2
     18     19     21     23     1  0.0000000  -0.2445688  3
     18     19     21     23     1  180.0000000  -0.0118320  4
    135    157    156    175     1  180.0000000  15.3215155  2
    133    135    136    137     1  180.0000000  15.3215155  2
     16     17     18     19     1  180.0000000  15.3215155  2
     55     54     53     72     1  180.0000000  15.3215155  2
    107    109    111    130     1  0.0000000  0.4834079  3
    138    139    140    147     1  180.0000000  15.3215155  2
    103    108    107    109     1  180.0000000  15.3215155  2
    139    138    156    157     1  180.0000000  15.3215155  2
     59     60     61     79     1  180.0000000  15.3215155  2
    154    153    155    173     1  0.0000000  0.4834079  3
    182    183    186    187     1  0.0000000  3.4075386  1
    182    183    186    187     1  180.0000000  0.4575515  2
    182    183    186    187     1  0.0000000  -0.7233034  3
    182    183    186    187     1  180.0000000  0.8569039  4
    185    183    184    193     1  0.0000000  0.4354138  3
    182    183    185    196     1  0.0000000  0.4354138  3
    148    149    150    151     1  180.0000000  15.3215155  2
    106    105    104    122     1  180.0000000  15.3215155  2
     55     54     57     58     1  180.0000000  15.3215155  2
     54     53     52     59     1  180.0000000  15.3215155  2
    158    136    137    159     1  180.0000000  15.3215155  2
     64     63     65     67     1  0.0000000  -0.2112947  1
     64     63     65     67     1  180.0000000  -0.0876596  2
     64     63     65     67     1  0.0000000  -0.2445688  3
     64     63     65     67     1  180.0000000  -0.0118320  4
     89     91     92     93     1  180.0000000  15.3215155  2
     82     65     66     83     1  0.0000000  -3.5200873  1
     82     65     66     83     1  180.0000000  0.6389984  2
     82     65     66     83     1  0.0000000  0.7393663  3
     82     65     66     83     1  180.0000000  -0.3406885  4
     53     52     59     64     1  180.0000000  4.8669776  2
    186    183    184    194     1  0.0000000  0.4667359  3
    186    183    184    194     1  0.0000000  1.4361539  1
      3      4      5      6     1  180.0000000  15.3215155  2
     16     15     20     37     1  180.0000000  15.3215155  2
     90     89     91    113     1  0.0000000  -0.2916432  1
     90     89     91    113     1  180.0000000  0.9445435  2
     90     89     91    113     1  0.0000000  0.0341144  3
     90     89     91    113     1  180.0000000  0.5872515  4
    103    104    105    123     1  180.0000000  15.3215155  2
     99     98    101    120     1  180.0000000  15.3215155  2
     78     60     61     79     1  180.0000000  15.3215155  2
      7      8      9     10     1  180.0000000  15.3215155  2
    184    183    182    189     1  0.0000000  0.4354138  3
    122    104    105    123     1  180.0000000  15.3215155  2
     26      4      5     27     1  180.0000000  15.3215155  2
     19     18     17     35     1  180.0000000  15.3215155  2
      7     14     13     10     1  180.0000000  15.3215155  2
    126    109    111    128     1  0.0000000  0.7999501  3
    140    147    152    169     1  180.0000000  15.3215155  2
     99     98    101    102     1  180.0000000  15.3215155  2
    106    107    109    110     1  0.0000000  0.3196188  1
    106    107    109    110     1  180.0000000  1.4539372  2
    106    107    109    110     1  0.0000000  -0.2499592  3
    106    107    109    110     1  180.0000000  -0.0088931  4
     83     66     89     90     1  0.0000000  4.1852015  1
     83     66     89     90     1  180.0000000  9.7742281  2
     83     66     89     90     1  0.0000000  -0.0959699  3
     83     66     89     90     1  180.0000000  -0.3128915  4
    153    154    187    188     1  0.0000000  -0.1134746  1
    153    154    187    188     1  180.0000000  8.4032662  2
    153    154    187    188     1  0.0000000  1.9634420  3
    153    154    187    188     1  180.0000000  -0.7010417  4
     61     62     63     65     1  180.0000000  15.3215155  2
    109    110    133    135     1  0.0000000  -0.3948742  1
    109    110    133    135     1  180.0000000  7.4497006  2
    109    110    133    135     1  0.0000000  1.5511627  3
    109    110    133    135     1  180.0000000  2.5254788  4
    147    140    141    160     1  180.0000000  15.3215155  2
    150    151    153    154     1  0.0000000  0.1926753  1
    150    151    153    154     1  180.0000000  1.0186262  2
    150    151    153    154     1  0.0000000  -0.2009445  3
    150    151    153    154     1  180.0000000  0.1432207  4
     54     55     56     73     1  0.0000000  0.1982205  3
     49     50     68     69     1  180.0000000  15.3215155  2
     50     49     48     70     1  180.0000000  15.3215155  2
    151    153    154    187     1  0.0000000  -3.4876334  1
    151    153    154    187     1  180.0000000  1.7335886  2
    151    153    154    187     1  0.0000000  -1.1869285  3
    151    153    154    187     1  180.0000000  0.0583182  4
    151    153    155    174     1  0.0000000  0.4834079  3
      1      3      4     26     1  180.0000000  15.3215155  2
     20     15     16     34     1  180.0000000  15.3215155  2
    186    183    182    189     1  0.0000000  0.4667359  3
    186    183    182    189     1  0.0000000  1.4361539  1
     64     59     60     78     1  180.0000000  15.3215155  2
    154    187    186    183     1  0.0000000  -0.8785785  1
    154    187    186    183     1  180.0000000  14.2487307  2
    154    187    186    183     1  0.0000000  -0.1612694  3
    154    187    186    183     1  180.0000000  1.0179571  4
      7      6     24     43     1  180.0000000  15.3215155  2
     93     94     95     96     1  0.0000000  -0.2478298  1
     93     94     95     96     1  180.0000000  5.4235756  2
     93     94     95     96     1  0.0000000  -0.2054004  3
     93     94     95     96     1  180.0000000  0.3229005  4
     98     99    100    117     1  0.0000000  0.1982205  3
     91    113    112    131     1  180.0000000  15.3215155  2
     38     21     23     40     1  0.0000000  0.7999501  3
     18     19     20     37     1  180.0000000  15.3215155  2
    108    107    109    111     1  0.0000000  -0.2112947  1
    108    107    109    111     1  180.0000000  -0.0876596  2
    108    107    109    111     1  0.0000000  -0.2445688  3
    108    107    109    111     1  180.0000000  -0.0118320  4
     66     65     67     86     1  0.0000000  0.4834079  3
     60     61     62     63     1  180.0000000  15.3215155  2
    140    141    142    145     1  180.0000000  15.3215155  2
     63     65     66     83     1  0.0000000  5.4869190  1
     63     65     66     83     1  180.0000000  2.5479633  2
     63     65     66     83     1  0.0000000  0.3724361  3
     63     65     66     83     1  180.0000000  0.5705066  4
    153    151    150    168     1  180.0000000  15.3215155  2
     18     19     21     22     1  0.0000000  0.3196188  1
     18     19     21     22     1  180.0000000  1.4539372  2
     18     19     21     22     1  0.0000000  -0.2499592  3
     18     19     21     22     1  180.0000000  -0.0088931  4
     82     65     66     89     1  0.0000000  3.3901771  1
     82     65     66     89     1  180.0000000  -1.2586480  2
     82     65     66     89     1  0.0000000  -0.3799139  3
     82     65     66     89     1  180.0000000  -0.0062073  4
    102     95     96    103     1  180.0000000  15.3215155  2
     70     48     49     71     1  180.0000000  15.3215155  2
    148    149    150    168     1  180.0000000  15.3215155  2
    154    153    155    172     1  0.0000000  0.4834079  3
     94     95    102    121     1  180.0000000  15.3215155  2
      7     14     13     32     1  180.0000000  15.3215155  2
     93     94    112    113     1  180.0000000  15.3215155  2
     50     51     58     77     1  180.0000000  15.3215155  2
     96    103    104    122     1  180.0000000  15.3215155  2
    157    135    136    158     1  180.0000000  15.3215155  2
     21     19     18     36     1  180.0000000  15.3215155  2
     90     89     91     92     1  0.0000000  -0.2916432  1
     90     89     91     92     1  180.0000000  0.9445435  2
     90     89     91     92     1  0.0000000  0.0341144  3
     90     89     91     92     1  180.0000000  0.5872515  4
     95     96     97    116     1  180.0000000  15.3215155  2
     50     51     58     57     1  180.0000000  15.3215155  2
    106    107    108    125     1  180.0000000  15.3215155  2
     49     50     51     58     1  0.0000000  0.2615300  1
     49     50     51     58     1  180.0000000  6.1195695  2
     49     50     51     58     1  0.0000000  0.1430943  3
     49     50     51     58     1  180.0000000  1.2894771  4
      9      8     15     16     1  180.0000000  4.8669776  2
    141    142    143    144     1  0.0000000  0.0965786  1
    141    142    143    144     1  180.0000000  9.0511605  2
    141    142    143    144     1  0.0000000  0.4607850  3
    141    142    143    144     1  180.0000000  0.6284526  4
    186    183    185    195     1  0.0000000  0.4667359  3
    186    183    185    195     1  0.0000000  1.4361539  1
     89     91    113    132     1  180.0000000  15.3215155  2
     53     54     57     76     1  180.0000000  15.3215155  2
     52     53     54     55     1  180.0000000  15.3215155  2
      8      9     10     13     1  180.0000000  15.3215155  2
     62     63     65     67     1  0.0000000  -0.2112947  1
     62     63     65     67     1  180.0000000  -0.0876596  2
     62     63     65     67     1  0.0000000  -0.2445688  3
     62     63     65     67     1  180.0000000  -0.0118320  4
     89     91    113    112     1  180.0000000  15.3215155  2
    136    137    138    156     1  180.0000000  15.3215155  2
      6     24     25     44     1  180.0000000  15.3215155  2
     51     50     68     69     1  180.0000000  15.3215155  2
     11     10     13     32     1  180.0000000  15.3215155  2
    131    112    113    132     1  180.0000000  15.3215155  2
     93     94     95    102     1  0.0000000  0.2615300  1
     93     94     95    102     1  180.0000000  6.1195695  2
     93     94     95    102     1  0.0000000  0.1430943  3
     93     94     95    102     1  180.0000000  1.2894771  4
     22     21     23     42     1  0.0000000  0.4834079  3
     95    102    101     98     1  180.0000000  15.3215155  2
     35     17     18     36     1  180.0000000  15.3215155  2
     98    101    102    121     1  180.0000000  15.3215155  2
    141    142    145    164     1  180.0000000  15.3215155  2
    171    154    187    188     1  0.0000000  2.7886359  1
    171    154    187    188     1  180.0000000  1.9337904  2
    171    154    187    188     1  0.0000000  -0.0230860  3
    171    154    187    188     1  180.0000000  -0.5366849  4
     65     66     89     91     1  0.0000000  -0.3948742  1
     65     66     89     91     1  180.0000000  7.4497006  2
     65     66     89     91     1  0.0000000  1.5511627  3
     65     66     89     91     1  180.0000000  2.5254788  4
     38     21     22     39     1  0.0000000  -3.5200873  1
     38     21     22     39     1  180.0000000  0.6389984  2
     38     21     22     39     1  0.0000000  0.7393663  3
     38     21     22     39     1  180.0000000  -0.3406885  4
    103     96     97    116     1  180.0000000  15.3215155  2
      4      5      6     24     1  180.0000000  15.3215155  2
     63     65     66     89     1  0.0000000  -3.6812628  1
     63     65     66     89     1  180.0000000  1.4380326  2
     63     65     66     89     1  0.0000000  -0.4947805  3
     63     65     66     89     1  180.0000000  -0.7837117  4
    141    142    145    146     1  180.0000000  15.3215155  2
     20     19     21     23     1  0.0000000  -0.2112947  1
     20     19     21     23     1  180.0000000  -0.0876596  2
     20     19     21     23     1  0.0000000  -0.2445688  3
     20     19     21     23     1  180.0000000  -0.0118320  4
     61     62     63     64     1  180.0000000  15.3215155  2
    109    110    133    134     1  0.0000000  -1.6422075  1
    109    110    133    134     1  180.0000000  12.1431139  2
    109    110    133    134     1  0.0000000  0.8819624  3
    109    110    133    134     1  180.0000000  -0.6635337  4
    139    140    147    152     1  180.0000000  4.8669776  2
     47     48     49     71     1  180.0000000  15.3215155  2
     52     59     64     81     1  180.0000000  15.3215155  2
    139    138    137    159     1  180.0000000  15.3215155  2
    139    140    141    142     1  180.0000000  15.3215155  2
     19     21     23     41     1  0.0000000  0.4834079  3
    164    145    146    165     1  180.0000000  15.3215155  2
    133    135    157    156     1  180.0000000  15.3215155  2
      1      3      4      5     1  180.0000000  15.3215155  2
    184    183    185    195     1  0.0000000  0.4354138  3
     17     18     19     21     1  180.0000000  15.3215155  2
      6      7     14     33     1  180.0000000  15.3215155  2
      7      8     15     20     1  180.0000000  4.8669776  2
    151    150    149    167     1  180.0000000  15.3215155  2
      8     15     16     34     1  180.0000000  15.3215155  2
    108    107    109    110     1  0.0000000  0.3196188  1
    108    107    109    110     1  180.0000000  1.4539372  2
    108    107    109    110     1  0.0000000  -0.2499592  3
    108    107    109    110     1  180.0000000  -0.0088931  4
      6      7     14     13     1  180.0000000  15.3215155  2
     66     65     67     85     1  0.0000000  0.4834079  3
     23     21     22     39     1  0.0000000  -2.2020024  1
     23     21     22     39     1  180.0000000  -0.5955313  2
     23     21     22     39     1  0.0000000  1.3546857  3
     23     21     22     39     1  180.0000000  -0.6938245  4
     96     97     98     99     1  180.0000000  15.3215155  2
     48     49     50     51     1  180.0000000  15.3215155  2
     46     45     47     69     1  0.0000000  -0.2916432  1
     46     45     47     69     1  180.0000000  0.9445435  2
     46     45     47     69     1  0.0000000  0.0341144  3
     46     45     47     69     1  180.0000000  0.5872515  4
     94     95     96     97     1  180.0000000  15.3215155  2
     92     91    113    132     1  180.0000000  15.3215155  2
      5      6      7      8     1  0.0000000  -0.2478298  1
      5      6      7      8     1  180.0000000  5.4235756  2
      5      6      7      8     1  0.0000000  -0.2054004  3
      5      6      7      8     1  180.0000000  0.3229005  4
     82     65     67     86     1  0.0000000  0.7999501  3
      5      6     24     25     1  180.0000000  15.3215155  2
    105    106    107    109     1  180.0000000  15.3215155  2
     92     91    113    112     1  180.0000000  15.3215155  2
     34     16     17     35     1  180.0000000  15.3215155  2
     53     52     59     60     1  180.0000000  4.8669776  2
     96    103    108    125     1  180.0000000  15.3215155  2
      9     10     11     12     1  0.0000000  0.0965786  1
      9     10     11     12     1  180.0000000  9.0511605  2
      9     10     11     12     1  0.0000000  0.4607850  3
      9     10     11     12     1  180.0000000  0.6284526  4
      4      3     25     44     1  180.0000000  15.3215155  2
     10     11     12     29     1  0.0000000  0.1982205  3
    137    136    135    157     1  180.0000000  15.3215155  2
      4      3     25     24     1  180.0000000  15.3215155  2
      2      1      3      4     1  0.0000000  0.0968975  1
      2      1      3      4     1  180.0000000  2.2055380  2
      2      1      3      4     1  0.0000000  0.0959190  3
      2      1      3      4     1  180.0000000  0.2179458  4
     13     10      9     28     1  180.0000000  15.3215155  2
    104    103    108    107     1  180.0000000  15.3215155  2
     38     21     22     45     1  0.0000000  3.3901771  1
     38     21     22     45     1  180.0000000  -1.2586480  2
     38     21     22     45     1  0.0000000  -0.3799139  3
     38     21     22     45     1  180.0000000  -0.0062073  4
    106    107    109    126     1  0.0000000  -0.1176492  1
    106    107    109    126     1  180.0000000  -0.8429016  2
    106    107    109    126     1  0.0000000  -0.2749886  3
    106    107    109    126     1  180.0000000  0.1972288  4
      8     15     20     19     1  180.0000000  15.3215155  2
     15     20     19     18     1  180.0000000  15.3215155  2
    120    101    102    121     1  180.0000000  15.3215155  2
     15     16     17     35     1  180.0000000  15.3215155  2
     96    103    104    105     1  180.0000000  15.3215155  2
    123    105    106    124     1  180.0000000  15.3215155  2
      9     10     13     14     1  180.0000000  15.3215155  2
     68     50     49     71     1  180.0000000  15.3215155  2
    136    135    157    156     1  180.0000000  15.3215155  2
      1      3     25     44     1  180.0000000  15.3215155  2
     63     65     67     84     1  0.0000000  0.4834079  3
     17     16     15     20     1  180.0000000  15.3215155  2
      1      3     25     24     1  180.0000000  15.3215155  2
      5      6      7     14     1  0.0000000  0.2615300  1
      5      6      7     14     1  180.0000000  6.1195695  2
      5      6      7     14     1  0.0000000  0.1430943  3
      5      6      7     14     1  180.0000000  1.2894771  4
     62     63     65     66     1  0.0000000  0.3196188  1
     62     63     65     66     1  180.0000000  1.4539372  2
     62     63     65     66     1  0.0000000  -0.2499592  3
     62     63     65     66     1  180.0000000  -0.0088931  4
    141    140    147    152     1  180.0000000  4.8669776  2
     52     51     50     68     1  0.0000000  -0.2478298  1
     52     51     50     68     1  180.0000000  5.4235756  2
     52     51     50     68     1  0.0000000  -0.2054004  3
     52     51     50     68     1  180.0000000  0.3229005  4
    148    147    152    169     1  180.0000000  15.3215155  2
    141    140    139    146     1  180.0000000  15.3215155  2
     48     47     69     88     1  180.0000000  15.3215155  2
     98     97     96    103     1  180.0000000  15.3215155  2
    138    156    157    176     1  180.0000000  15.3215155  2
     95     94    112    131     1  180.0000000  15.3215155  2
     48     47     69     68     1  180.0000000  15.3215155  2
    142    143    144    161     1  0.0000000  0.1982205  3
    148    147    152    151     1  180.0000000  15.3215155  2
    101     98     97    116     1  180.0000000  15.3215155  2
     66     89     91    113     1  0.0000000  0.2769575  1
     66     89     91    113     1  180.0000000  3.0178050  2
     66     89     91    113     1  0.0000000  0.0587032  3
     66     89     91    113     1  180.0000000  -0.5045946  4
     47     48     49     50     1  180.0000000  15.3215155  2
     97     98     99    100     1  0.0000000  0.0965786  1
     97     98     99    100     1  180.0000000  9.0511605  2
     97     98     99    100     1  0.0000000  0.4607850  3
     97     98     99    100     1  180.0000000  0.6284526  4
     45     47     69     88     1  180.0000000  15.3215155  2
    170    153    155    173     1  0.0000000  0.7999501  3
     47     69     68     50     1  180.0000000  15.3215155  2
    136    135    157    176     1  180.0000000  15.3215155  2
    104    105    106    107     1  180.0000000  15.3215155  2
     45     47     69     68     1  180.0000000  15.3215155  2
     51     52     59     64     1  180.0000000  4.8669776  2
      3      1    178    177     1  0.0000000  -1.3681717  1
      3      1    178    177     1  180.0000000  13.6756276  2
      3      1    178    177     1  0.0000000  1.9383965  3
      3      1    178    177     1  180.0000000  1.5008765  4
     18     19     21     38     1  0.0000000  -0.1176492  1
     18     19     21     38     1  180.0000000  -0.8429016  2
     18     19     21     38     1  0.0000000  -0.2749886  3
     18     19     21     38     1  180.0000000  0.1972288  4
     94     95     96    103     1  180.0000000  15.3215155  2
    140    147    152    151     1  180.0000000  15.3215155  2
     25      3      1    178     1  0.0000000  -0.0928751  1
     25      3      1    178     1  180.0000000  2.1208224  2
     25      3      1    178     1  0.0000000  -0.1519568  3
     25      3      1    178     1  180.0000000  -0.0096196  4
    153    151    152    169     1  180.0000000  15.3215155  2
      7      8      9     28     1  180.0000000  15.3215155  2
     46     45     47     48     1  0.0000000  -0.2916432  1
     46     45     47     48     1  180.0000000  0.9445435  2
     46     45     47     48     1  0.0000000  0.0341144  3
     46     45     47     48     1  180.0000000  0.5872515  4
    136    137    138    139     1  180.0000000  15.3215155  2
     76     57     58     77     1  180.0000000  15.3215155  2
     16     15     20     19     1  180.0000000  15.3215155  2
     19     21     23     40     1  0.0000000  0.4834079  3
    184    183    182    191     1  0.0000000  0.4354138  3
    150    151    152    169     1  180.0000000  15.3215155  2
      1    178    177    179     1  0.0000000  0.1982205  3
      3     25     24      6     1  180.0000000  15.3215155  2
      9      8      7     14     1  180.0000000  15.3215155  2
     17     18     19     20     1  180.0000000  15.3215155  2
      8      7     14     33     1  180.0000000  15.3215155  2
     48     49     50     68     1  180.0000000  15.3215155  2
    185    183    182    190     1  0.0000000  0.4354138  3
    126    109    111    130     1  0.0000000  0.7999501  3
     96     95    102    101     1  180.0000000  15.3215155  2
    149    150    151    153     1  180.0000000  15.3215155  2
      8      7     14     13     1  180.0000000  15.3215155  2
     66     65     67     84     1  0.0000000  0.4834079  3
     64     63     65     82     1  0.0000000  -0.1176492  1
     64     63     65     82     1  180.0000000  -0.8429016  2
     64     63     65     82     1  0.0000000  -0.2749886  3
     64     63     65     82     1  180.0000000  0.1972288  4
     62     61     60     78     1  180.0000000  15.3215155  2
     58     51     50     68     1  0.0000000  0.2615300  1
     58     51     50     68     1  180.0000000  6.1195695  2
     58     51     50     68     1  0.0000000  0.1430943  3
     58     51     50     68     1  180.0000000  1.2894771  4
     60     59     64     81     1  180.0000000  15.3215155  2
     82     65     67     85     1  0.0000000  0.7999501  3
    113     91     92    114     1  180.0000000  15.3215155  2
    137    138    139    140     1  0.0000000  -0.2478298  1
    137    138    139    140     1  180.0000000  5.4235756  2
    137    138    139    140     1  0.0000000  -0.2054004  3
    137    138    139    140     1  180.0000000  0.3229005  4
    105    106    107    108     1  180.0000000  15.3215155  2
     54     55     56     75     1  0.0000000  0.1982205  3
    155    153    154    171     1  0.0000000  -1.6904383  1
    155    153    154    171     1  180.0000000  0.9909501  2
    155    153    154    171     1  0.0000000  0.2713027  3
    155    153    154    171     1  180.0000000  0.0150616  4
     62     63     64     81     1  180.0000000  15.3215155  2
    107    109    111    129     1  0.0000000  0.4834079  3
    186    183    182    191     1  0.0000000  0.4667359  3
    186    183    182    191     1  0.0000000  1.4361539  1
    185    183    184    192     1  0.0000000  0.4354138  3
    182    183    185    195     1  0.0000000  0.4354138  3
     97     98    101    120     1  180.0000000  15.3215155  2
      3     25     24     43     1  180.0000000  15.3215155  2
    143    142    145    164     1  180.0000000  15.3215155  2
     12     11     10     13     1  0.0000000  0.0965786  1
     12     11     10     13     1  180.0000000  9.0511605  2
     12     11     10     13     1  0.0000000  0.4607850  3
     12     11     10     13     1  180.0000000  0.6284526  4
     95     96    103    108     1  180.0000000  4.8669776  2
      7      6     24     25     1  180.0000000  15.3215155  2
    104    105    106    124     1  180.0000000  15.3215155  2
     38     21     23     42     1  0.0000000  0.7999501  3
     79     61     62     80     1  180.0000000  15.3215155  2
      4      5      6      7     1  180.0000000  15.3215155  2
    150    149    148    166     1  180.0000000  15.3215155  2
     45     47     48     70     1  180.0000000  15.3215155  2
      8     15     16     17     1  180.0000000  15.3215155  2
    183    186    187    188     1  0.0000000  1.5745107  1
    183    186    187    188     1  180.0000000  7.2119872  2
    183    186    187    188     1  0.0000000  0.5036352  3
    183    186    187    188     1  180.0000000  0.4686599  4
     97     98    101    102     1  180.0000000  15.3215155  2
     20     19     18     36     1  180.0000000  15.3215155  2
    147    152    151    153     1  180.0000000  15.3215155  2
     59     52     53     72     1  180.0000000  15.3215155  2
     18     17     16     34     1  180.0000000  15.3215155  2
     64     63     65     66     1  0.0000000  0.3196188  1
     64     63     65     66     1  180.0000000  1.4539372  2
     64     63     65     66     1  0.0000000  -0.2499592  3
     64     63     65     66     1  180.0000000  -0.0088931  4
     66     89     91     92     1  0.0000000  0.2769575  1
     66     89     91     92     1  180.0000000  3.0178050  2
     66     89     91     92     1  0.0000000  0.0587032  3
     66     89     91     92     1  180.0000000  -0.5045946  4
     11     10      9     28     1  180.0000000  15.3215155  2
     95     96     97     98     1  180.0000000  15.3215155  2
    152    151    153    155     1  0.0000000  -0.1159355  1
    152    151    153    155     1  180.0000000  0.1247978  2
    152    151    153    155     1  0.0000000  -0.1919614  3
    152    151    153    155     1  180.0000000  -0.0639017  4
    142    145    146    165     1  180.0000000  15.3215155  2
     14      7      6     24     1  0.0000000  0.2615300  1
     14      7      6     24     1  180.0000000  6.1195695  2
     14      7      6     24     1  0.0000000  0.1430943  3
     14      7      6     24     1  180.0000000  1.2894771  4
      4      3      1    178     1  0.0000000  -0.0928751  1
      4      3      1    178     1  180.0000000  2.1208224  2
      4      3      1    178     1  0.0000000  -0.1519568  3
      4      3      1    178     1  180.0000000  -0.0096196  4
    186    183    184    193     1  0.0000000  0.4667359  3
    186    183    184    193     1  0.0000000  1.4361539  1
    139    140    147    148     1  180.0000000  4.8669776  2
     47     69     68     87     1  180.0000000  15.3215155  2
     95     94     93    115     1  180.0000000  15.3215155  2
    146    139    138    156     1  0.0000000  0.2615300  1
    146    139    138    156     1  180.0000000  6.1195695  2
    146    139    138    156     1  0.0000000  0.1430943  3
    146    139    138    156     1  180.0000000  1.2894771  4
     93     92     91    113     1  180.0000000  15.3215155  2
     51     58     57     54     1  180.0000000  15.3215155  2
    154    153    155    174     1  0.0000000  0.4834079  3
      3      4      5     27     1  180.0000000  15.3215155  2
    139    146    145    164     1  180.0000000  15.3215155  2
    127    110    133    135     1  0.0000000  0.9182586  1
    127    110    133    135     1  180.0000000  7.6911672  2
    127    110    133    135     1  0.0000000  0.5018577  3
    127    110    133    135     1  180.0000000  0.3319792  4
     19     21     22     39     1  0.0000000  5.4869190  1
     19     21     22     39     1  180.0000000  2.5479633  2
     19     21     22     39     1  0.0000000  0.3724361  3
     19     21     22     39     1  180.0000000  0.5705066  4
    108    107    109    126     1  0.0000000  -0.1176492  1
    108    107    109    126     1  180.0000000  -0.8429016  2
    108    107    109    126     1  0.0000000  -0.2749886  3
    108    107    109    126     1  180.0000000  0.1972288  4
      7      8     15     16     1  180.0000000  4.8669776  2
     21     22     45     47     1  0.0000000  -0.3948742  1
     21     22     45     47     1  180.0000000  7.4497006  2
     21     22     45     47     1  0.0000000  1.5511627  3
     21     22     45     47     1  180.0000000  2.5254788  4
    105    104    103    108     1  180.0000000  15.3215155  2
    170    153    155    172     1  0.0000000  0.7999501  3
     15     20     19     21     1  180.0000000  15.3215155  2
     67     65     66     83     1  0.0000000  -2.2020024  1
     67     65     66     83     1  180.0000000  -0.5955313  2
     67     65     66     83     1  0.0000000  1.3546857  3
     67     65     66     83     1  180.0000000  -0.6938245  4
     43     24     25     44     1  180.0000000  15.3215155  2
     39     22     45     47     1  0.0000000  0.9182586  1
     39     22     45     47     1  180.0000000  7.6911672  2
     39     22     45     47     1  0.0000000  0.5018577  3
     39     22     45     47     1  180.0000000  0.3319792  4
     15     16     17     18     1  180.0000000  15.3215155  2
    137    138    139    146     1  0.0000000  0.2615300  1
    137    138    139    146     1  180.0000000  6.1195695  2
    137    138    139    146     1  0.0000000  0.1430943  3
    137    138    139    146     1  180.0000000  1.2894771  4
    186    183    185    197     1  0.0000000  0.4667359  3
    186    183    185    197     1  0.0000000  1.4361539  1
     92     93     94     95     1  180.0000000  15.3215155  2
    110    109    111    130     1  0.0000000  0.4834079  3
    137    138    156    175     1  180.0000000  15.3215155  2
    167    149    150    168     1  180.0000000  15.3215155  2
     53     54     57     58     1  180.0000000  15.3215155  2
    151    153    155    173     1  0.0000000  0.4834079  3
     56     55     54     57     1  0.0000000  0.0965786  1
     56     55     54     57     1  180.0000000  9.0511605  2
     56     55     54     57     1  0.0000000  0.4607850  3
     56     55     54     57     1  180.0000000  0.6284526  4
    170    153    154    187     1  0.0000000  3.5770038  1
    170    153    154    187     1  180.0000000  -1.0175152  2
    170    153    154    187     1  0.0000000  -1.1808933  3
    170    153    154    187     1  180.0000000  -0.1132444  4
     51     52     53     72     1  180.0000000  15.3215155  2
     15      8      9     28     1  180.0000000  15.3215155  2
     11     10     13     14     1  180.0000000  15.3215155  2
    184    183    182    190     1  0.0000000  0.4354138  3
     52     51     58     57     1  180.0000000  15.3215155  2
    182    183    184    194     1  0.0000000  0.4354138  3
    185    183    182    189     1  0.0000000  0.4354138  3
     53     52     51     58     1  180.0000000  15.3215155  2
    126    109    111    129     1  0.0000000  0.7999501  3
    107    106    105    123     1  180.0000000  15.3215155  2
     59     64     63     65     1  180.0000000  15.3215155  2
    106    107    109    111     1  0.0000000  -0.2112947  1
    106    107    109    111     1  180.0000000  -0.0876596  2
    106    107    109    111     1  0.0000000  -0.2445688  3
    106    107    109    111     1  180.0000000  -0.0118320  4
    135    136    137    159     1  180.0000000  15.3215155  2
    147    152    151    150     1  180.0000000  15.3215155  2
    134    133    135    157     1  0.0000000  -0.2916432  1
    134    133    135    157     1  180.0000000  0.9445435  2
    134    133    135    157     1  0.0000000  0.0341144  3
    134    133    135    157     1  180.0000000  0.5872515  4
     83     66     89     91     1  0.0000000  0.9182586  1
     83     66     89     91     1  180.0000000  7.6911672  2
     83     66     89     91     1  0.0000000  0.5018577  3
     83     66     89     91     1  180.0000000  0.3319792  4
    108    107    106    124     1  180.0000000  15.3215155  2
     52     53     54     57     1  180.0000000  15.3215155  2
    110    133    135    157     1  0.0000000  0.2769575  1
    110    133    135    157     1  180.0000000  3.0178050  2
    110    133    135    157     1  0.0000000  0.0587032  3
    110    133    135    157     1  180.0000000  -0.5045946  4
     45     47     48     49     1  180.0000000  15.3215155  2
     65     63     62     80     1  180.0000000  15.3215155  2
    140    147    148    149     1  180.0000000  15.3215155  2
     62     63     65     82     1  0.0000000  -0.1176492  1
     62     63     65     82     1  180.0000000  -0.8429016  2
     62     63     65     82     1  0.0000000  -0.2749886  3
     62     63     65     82     1  180.0000000  0.1972288  4
    133    135    157    176     1  180.0000000  15.3215155  2
     54     55     56     74     1  0.0000000  0.1982205  3
    107    109    111    128     1  0.0000000  0.4834079  3
     94    112    113    132     1  180.0000000  15.3215155  2
    141    140    147    148     1  180.0000000  4.8669776  2
    109    107    108    125     1  180.0000000  15.3215155  2
    152    147    148    166     1  180.0000000  15.3215155  2
    186    183    182    190     1  0.0000000  0.4667359  3
    186    183    182    190     1  0.0000000  1.4361539  1
     52     59     64     63     1  180.0000000  15.3215155  2
    170    153    154    171     1  0.0000000  -1.5364094  1
    170    153    154    171     1  180.0000000  0.9352921  2
    170    153    154    171     1  0.0000000  -0.0879315  3
    170    153    154    171     1  180.0000000  -0.0379040  4
     19     21     22     45     1  0.0000000  -3.6812628  1
     19     21     22     45     1  180.0000000  1.4380326  2
     19     21     22     45     1  0.0000000  -0.4947805  3
     19     21     22     45     1  180.0000000  -0.7837117  4
    184    183    185    197     1  0.0000000  0.4354138  3
     32     13     14     33     1  180.0000000  15.3215155  2
     38     21     23     41     1  0.0000000  0.7999501  3
     57     54     53     72     1  180.0000000  15.3215155  2
     55     54     57     76     1  180.0000000  15.3215155  2
     67     65     66     89     1  0.0000000  0.3753138  1
     67     65     66     89     1  180.0000000  -0.6266542  2
     67     65     66     89     1  0.0000000  -1.2349061  3
     67     65     66     89     1  180.0000000  -0.3732036  4
     96     95     94    112     1  0.0000000  -0.2478298  1
     96     95     94    112     1  180.0000000  5.4235756  2
     96     95     94    112     1  0.0000000  -0.2054004  3
     96     95     94    112     1  180.0000000  0.3229005  4
    166    148    149    167     1  180.0000000  15.3215155  2
     51     52     59     60     1  180.0000000  4.8669776  2
     96     97     98    101     1  180.0000000  15.3215155  2
    139    138    156    175     1  180.0000000  15.3215155  2
     51     50     49     71     1  180.0000000  15.3215155  2
    140    139    138    156     1  0.0000000  -0.2478298  1
    140    139    138    156     1  180.0000000  5.4235756  2
    140    139    138    156     1  0.0000000  -0.2054004  3
    140    139    138    156     1  180.0000000  0.3229005  4
    152    151    153    154     1  0.0000000  0.1926753  1
    152    151    153    154     1  180.0000000  1.0186262  2
    152    151    153    154     1  0.0000000  -0.2009445  3
    152    151    153    154     1  180.0000000  0.1432207  4
    186    183    184    192     1  0.0000000  0.4667359  3
    186    183    184    192     1  0.0000000  1.4361539  1
     97     96     95    102     1  180.0000000  15.3215155  2
     10     11     12     31     1  0.0000000  0.1982205  3
     96    103    108    107     1  180.0000000  15.3215155  2
     22     21     23     41     1  0.0000000  0.4834079  3
    127    110    133    134     1  0.0000000  4.1852015  1
    127    110    133    134     1  180.0000000  9.7742281  2
    127    110    133    134     1  0.0000000  -0.0959699  3
    127    110    133    134     1  180.0000000  -0.3128915  4
     25      3      4     26     1  180.0000000  15.3215155  2
     54     57     58     77     1  180.0000000  15.3215155  2
    185    183    186    187     1  0.0000000  3.4075386  1
    185    183    186    187     1  180.0000000  0.4575515  2
    185    183    186    187     1  0.0000000  -0.7233034  3
    185    183    186    187     1  180.0000000  0.8569039  4
     21     22     45     46     1  0.0000000  -1.6422075  1
     21     22     45     46     1  180.0000000  12.1431139  2
     21     22     45     46     1  0.0000000  0.8819624  3
     21     22     45     46     1  180.0000000  -0.6635337  4
     65     66     89     90     1  0.0000000  -1.6422075  1
     65     66     89     90     1  180.0000000  12.1431139  2
     65     66     89     90     1  0.0000000  0.8819624  3
     65     66     89     90     1  180.0000000  -0.6635337  4
     92     93     94    112     1  180.0000000  15.3215155  2
     59     64     63     62     1  180.0000000  15.3215155  2
     95     96    103    104     1  180.0000000  4.8669776  2
    150    151    153    170     1  0.0000000  -0.0827953  1
    150    151    153    170     1  180.0000000  -0.5436248  2
    150    151    153    170     1  0.0000000  -0.2155912  3
    150    151    153    170     1  180.0000000  0.3166740  4
     23     21     22     45     1  0.0000000  0.3753138  1
     23     21     22     45     1  180.0000000  -0.6266542  2
     23     21     22     45     1  0.0000000  -1.2349061  3
     23     21     22     45     1  180.0000000  -0.3732036  4
     39     22     45     46     1  0.0000000  4.1852015  1
     39     22     45     46     1  180.0000000  9.7742281  2
     39     22     45     46     1  0.0000000  -0.0959699  3
     39     22     45     46     1  180.0000000  -0.3128915  4
      7      6      5     27     1  180.0000000  15.3215155  2
    143    142    141    160     1  180.0000000  15.3215155  2
    153    154    187    186     1  0.0000000  -0.3268173  1
    153    154    187    186     1  180.0000000  8.9134704  2
    153    154    187    186     1  0.0000000  0.2557429  3
    153    154    187    186     1  180.0000000  0.7174769  4
     20     19     21     22     1  0.0000000  0.3196188  1
     20     19     21     22     1  180.0000000  1.4539372  2
     20     19     21     22     1  0.0000000  -0.2499592  3
     20     19     21     22     1  180.0000000  -0.0088931  4
    100     99     98    101     1  0.0000000  0.0965786  1
    100     99     98    101     1  180.0000000  9.0511605  2
    100     99     98    101     1  0.0000000  0.4607850  3
    100     99     98    101     1  180.0000000  0.6284526  4
    142    141    140    147     1  180.0000000  15.3215155  2
      2      1    178    177     1  0.0000000  1.8638689  1
      2      1    178    177     1  180.0000000  7.2564519  2
      2      1    178    177     1  0.0000000  -1.8299803  3
      2      1    178    177     1  180.0000000  0.4851043  4
    138    139    146    145     1  180.0000000  15.3215155  2
    186    183    185    196     1  0.0000000  0.4667359  3
    186    183    185    196     1  0.0000000  1.4361539  1
     63     65     67     86     1  0.0000000  0.4834079  3
    110    109    111    129     1  0.0000000  0.4834079  3
    155    153    154    187     1  0.0000000  0.1438683  1
    155    153    154    187     1  180.0000000  -1.1044997  2
    155    153    154    187     1  0.0000000  -1.7491077  3
    155    153    154    187     1  180.0000000  -0.5256516  4
     49     50     68     87     1  180.0000000  15.3215155  2
     49     50     51     52     1  0.0000000  -0.2478298  1
     49     50     51     52     1  180.0000000  5.4235756  2
     49     50     51     52     1  0.0000000  -0.2054004  3
     49     50     51     52     1  180.0000000  0.3229005  4
    147    148    149    150     1  180.0000000  15.3215155  2
    135    136    137    138     1  180.0000000  15.3215155  2
     50     51     52     53     1  180.0000000  15.3215155  2
      8      7      6     24     1  0.0000000  -0.2478298  1
      8      7      6     24     1  180.0000000  5.4235756  2
      8      7      6     24     1  0.0000000  -0.2054004  3
      8      7      6     24     1  180.0000000  0.3229005  4
    107    109    110    127     1  0.0000000  5.4869190  1
    107    109    110    127     1  180.0000000  2.5479633  2
    107    109    110    127     1  0.0000000  0.3724361  3
    107    109    110    127     1  180.0000000  0.5705066  4
    151    153    155    172     1  0.0000000  0.4834079  3
    103    108    107    106     1  180.0000000  15.3215155  2
    142    143    144    163     1  0.0000000  0.1982205  3
     95     94    112    113     1  180.0000000  15.3215155  2
    182    183    184    193     1  0.0000000  0.4354138  3
     50     68     69     88     1  180.0000000  15.3215155  2
    138    139    146    165     1  180.0000000  15.3215155  2
    140    147    148    166     1  180.0000000  15.3215155  2
     21     19     20     37     1  180.0000000  15.3215155  2
    140    141    142    143     1  180.0000000  15.3215155  2
     22     45     47     69     1  0.0000000  0.2769575  1
     22     45     47     69     1  180.0000000  3.0178050  2
     22     45     47     69     1  0.0000000  0.0587032  3
     22     45     47     69     1  180.0000000  -0.5045946  4
    134    133    135    136     1  0.0000000  -0.2916432  1
    134    133    135    136     1  180.0000000  0.9445435  2
    134    133    135    136     1  0.0000000  0.0341144  3
    134    133    135    136     1  180.0000000  0.5872515  4
     16     17     18     36     1  180.0000000  15.3215155  2
    110    133    135    136     1  0.0000000  0.2769575  1
    110    133    135    136     1  180.0000000  3.0178050  2
    110    133    135    136     1  0.0000000  0.0587032  3
    110    133    135    136     1  180.0000000  -0.5045946  4
     96     95    102    121     1  180.0000000  15.3215155  2
     49     48     47     69     1  180.0000000  15.3215155  2
     19     21     23     42     1  0.0000000  0.4834079  3
     93     94    112    131     1  180.0000000  15.3215155  2
     98     99    100    119     1  0.0000000  0.1982205  3
      5      4      3     25     1  180.0000000  15.3215155  2
      1    178    177    181     1  0.0000000  0.1982205  3
     91     92     93    115     1  180.0000000  15.3215155  2
    184    183    185    196     1  0.0000000  0.4354138  3
    152    151    150    168     1  180.0000000  15.3215155  2
     94     95    102    101     1  180.0000000  15.3215155  2
    139    146    145    142     1  180.0000000  15.3215155  2
    143    142    145    146     1  180.0000000  15.3215155  2
     58     51     52     59     1  180.0000000  15.3215155  2
    156    138    137    159     1  180.0000000  15.3215155  2
    111    109    110    127     1  0.0000000  -2.2020024  1
    111    109    110    127     1  180.0000000  -0.5955313  2
    111    109    110    127     1  0.0000000  1.3546857  3
    111    109    110    127     1  180.0000000  -0.6938245  4
    145    142    141    160     1  180.0000000  15.3215155  2
    102     95     94    112     1  0.0000000  0.2615300  1
    102     95     94    112     1  180.0000000  6.1195695  2
    102     95     94    112     1  0.0000000  0.1430943  3
    102     95     94    112     1  180.0000000  1.2894771  4
     87     68     69     88     1  180.0000000  15.3215155  2
    140    139    146    145     1  180.0000000  15.3215155  2
     10     13     14     33     1  180.0000000  15.3215155  2
     51     50     68     87     1  180.0000000  15.3215155  2
     61     60     59     64     1  180.0000000  15.3215155  2
     60     59     64     63     1  180.0000000  15.3215155  2
    138    137    136    158     1  180.0000000  15.3215155  2
      8      9     10     11     1  180.0000000  15.3215155  2
    107    109    110    133     1  0.0000000  -3.6812628  1
    107    109    110    133     1  180.0000000  1.4380326  2
    107    109    110    133     1  0.0000000  -0.4947805  3
    107    109    110    133     1  180.0000000  -0.7837117  4
     10     11     12     30     1  0.0000000  0.1982205  3
    149    148    147    152     1  180.0000000  15.3215155  2
    185    183    184    194     1  0.0000000  0.4354138  3
    151    153    154    171     1  0.0000000  2.9689363  1
    151    153    154    171     1  180.0000000  0.4587055  2
    151    153    154    171     1  0.0000000  0.0037167  3
    151    153    154    171     1  180.0000000  0.2450203  4
    182    183    185    197     1  0.0000000  0.4354138  3
    126    109    110    127     1  0.0000000  -3.5200873  1
    126    109    110    127     1  180.0000000  0.6389984  2
    126    109    110    127     1  0.0000000  0.7393663  3
    126    109    110    127     1  180.0000000  -0.3406885  4
     52     59     60     61     1  180.0000000  15.3215155  2
     22     21     23     40     1  0.0000000  0.4834079  3
    184    183    186    187     1  0.0000000  3.4075386  1
    184    183    186    187     1  180.0000000  0.4575515  2
    184    183    186    187     1  0.0000000  -0.7233034  3
    184    183    186    187     1  180.0000000  0.8569039  4
    135    157    156    138     1  180.0000000  15.3215155  2
    144    143    142    145     1  0.0000000  0.0965786  1
    144    143    142    145     1  180.0000000  9.0511605  2
    144    143    142    145     1  0.0000000  0.4607850  3
    144    143    142    145     1  180.0000000  0.6284526  4
    171    154    187    186     1  0.0000000  0.7751725  1
    171    154    187    186     1  180.0000000  7.7539618  2
    171    154    187    186     1  0.0000000  0.2892143  3
    171    154    187    186     1  180.0000000  0.6508879  4
    140    139    146    165     1  180.0000000  15.3215155  2
     69     47     48     70     1  180.0000000  15.3215155  2
    133    135    136    158     1  180.0000000  15.3215155  2
    147    148    149    167     1  180.0000000  15.3215155  2
      6      7      8      9     1  180.0000000  15.3215155  2
     50     51     52     59     1  180.0000000  15.3215155  2
     63     62     61     79     1  180.0000000  15.3215155  2
     63     65     67     85     1  0.0000000  0.4834079  3
    110    109    111    128     1  0.0000000  0.4834079  3
     10      9      8     15     1  180.0000000  15.3215155  2
      6      5      4     26     1  180.0000000  15.3215155  2
     97     96    103    104     1  180.0000000  4.8669776  2
     65     63     64     81     1  180.0000000  15.3215155  2
    114     92     93    115     1  180.0000000  15.3215155  2
    138    139    140    141     1  180.0000000  15.3215155  2
     22     45     47     48     1  0.0000000  0.2769575  1
     22     45     47     48     1  180.0000000  3.0178050  2
     22     45     47     48     1  0.0000000  0.0587032  3
     22     45     47     48     1  180.0000000  -0.5045946  4
     52     51     58     77     1  180.0000000  15.3215155  2
    137    138    156    157     1  180.0000000  15.3215155  2
     59     60     61     62     1  180.0000000  15.3215155  2
     99     98     97    116     1  180.0000000  15.3215155  2
    142    143    144    162     1  0.0000000  0.1982205  3
     24      6      5     27     1  180.0000000  15.3215155  2
    182    183    184    192     1  0.0000000  0.4354138  3
      2      1      3     25     1  0.0000000  0.0968975  1
      2      1      3     25     1  180.0000000  2.2055380  2
      2      1      3     25     1  0.0000000  0.0959190  3
      2      1      3     25     1  180.0000000  0.2179458  4
     60     61     62     80     1  180.0000000  15.3215155  2
    170    153    155    174     1  0.0000000  0.7999501  3
    103    104    105    106     1  180.0000000  15.3215155  2
     51     52     53     54     1  180.0000000  15.3215155  2
    149    150    151    152     1  180.0000000  15.3215155  2
     89     91     92    114     1  180.0000000  15.3215155  2
    108    103    104    122     1  180.0000000  15.3215155  2
    111    109    110    133     1  0.0000000  0.3753138  1
    111    109    110    133     1  180.0000000  -0.6266542  2
    111    109    110    133     1  0.0000000  -1.2349061  3
    111    109    110    133     1  180.0000000  -0.3732036  4
     91     92     93     94     1  180.0000000  15.3215155  2
      9      8     15     20     1  180.0000000  4.8669776  2
    109    107    106    124     1  180.0000000  15.3215155  2
      5      6     24     43     1  180.0000000  15.3215155  2
     51     58     57     76     1  180.0000000  15.3215155  2
     82     65     67     84     1  0.0000000  0.7999501  3
    150    151    153    155     1  0.0000000  -0.1159355  1
    150    151    153    155     1  180.0000000  0.1247978  2
    150    151    153    155     1  0.0000000  -0.1919614  3
    150    151    153    155     1  180.0000000  -0.0639017  4
    139    140    141    160     1  180.0000000  15.3215155  2
      6      7      8     15     1  180.0000000  15.3215155  2
     95    102    101    120     1  180.0000000  15.3215155  2
    105    106    123    104     4  180.0000000  1.5341333  2
      6     24      5      7     4  180.0000000  1.5341333  2
    102    101    121     95     4  180.0000000  1.5341333  2
     45     47     22     46     4  180.0000000  1.5341333  2
     61     62     79     60     4  180.0000000  1.5341333  2
    136    137    158    135     4  180.0000000  1.5341333  2
     19     20     21     18     4  180.0000000  1.5341333  2
      9     28      8     10     4  180.0000000  1.5341333  2
    145    142    146    164     4  180.0000000  1.5341333  2
    137    159    136    138     4  180.0000000  1.5341333  2
    113    112    132     91     4  180.0000000  1.5341333  2
     48     70     47     49     4  180.0000000  1.5341333  2
    138    139    156    137     4  180.0000000  1.5341333  2
      4      3      5     26     4  180.0000000  1.5341333  2
     14      7     13     33     4  180.0000000  1.5341333  2
     25      3     24     44     4  180.0000000  1.5341333  2
     17     18     35     16     4  180.0000000  1.5341333  2
     91    113     89     92     4  180.0000000  1.5341333  2
     50     49     51     68     4  180.0000000  1.5341333  2
     22     21     39     45     4  180.0000000  1.3946667  2
    148    147    149    166     4  180.0000000  1.5341333  2
    156    157    175    138     4  180.0000000  1.5341333  2
      5     27      4      6     4  180.0000000  1.5341333  2
     14     13     33      7     4  180.0000000  1.5341333  2
    142    141    143    145     4  180.0000000  1.5341333  2
     13     14     32     10     4  180.0000000  1.5341333  2
     69     47     68     88     4  180.0000000  1.5341333  2
     64     81     59     63     4  180.0000000  1.5341333  2
     59     52     60     64     4  180.0000000  1.5341333  2
    146    165    139    145     4  180.0000000  1.5341333  2
     61     60     62     79     4  180.0000000  1.5341333  2
      3     25      1      4     4  180.0000000  1.5341333  2
    136    135    137    158     4  180.0000000  1.5341333  2
     89     90     91     66     4  180.0000000  1.5341333  2
     47     69     45     48     4  180.0000000  1.5341333  2
      7      6      8     14     4  180.0000000  1.5341333  2
     62     80     61     63     4  180.0000000  1.5341333  2
    106    124    105    107     4  180.0000000  1.5341333  2
     59     60     64     52     4  180.0000000  1.5341333  2
    152    147    151    169     4  180.0000000  1.5341333  2
     97     96     98    116     4  180.0000000  1.5341333  2
    110    127    133    109     4  180.0000000  1.3946667  2
    137    138    159    136     4  180.0000000  1.5341333  2
      5      4      6     27     4  180.0000000  1.5341333  2
    147    152    140    148     4  180.0000000  1.5341333  2
     47     48     69     45     4  180.0000000  1.5341333  2
    151    150    152    153     4  180.0000000  1.5341333  2
     49     71     48     50     4  180.0000000  1.5341333  2
    145    146    164    142     4  180.0000000  1.5341333  2
     22     39     45     21     4  180.0000000  1.3946667  2
    135    136    157    133     4  180.0000000  1.5341333  2
     51     58     50     52     4  180.0000000  1.5341333  2
     60     59     61     78     4  180.0000000  1.5341333  2
     58     77     51     57     4  180.0000000  1.5341333  2
    148    149    166    147     4  180.0000000  1.5341333  2
     57     54     58     76     4  180.0000000  1.5341333  2
     61     79     60     62     4  180.0000000  1.5341333  2
    102    121     95    101     4  180.0000000  1.5341333  2
    150    168    149    151     4  180.0000000  1.5341333  2
     14     33      7     13     4  180.0000000  1.5341333  2
     63     62     64     65     4  180.0000000  1.5341333  2
    104    103    105    122     4  180.0000000  1.5341333  2
    150    149    151    168     4  180.0000000  1.5341333  2
      1      3    178      2     4  180.0000000  14.6440000  2
      4     26      3      5     4  180.0000000  1.5341333  2
     98     97     99    101     4  180.0000000  1.5341333  2
     10     13      9     11     4  180.0000000  1.5341333  2
    149    167    148    150     4  180.0000000  1.5341333  2
     16     17     34     15     4  180.0000000  1.5341333  2
    142    143    145    141     4  180.0000000  1.5341333  2
     96    103     95     97     4  180.0000000  1.5341333  2
     52     59     51     53     4  180.0000000  1.5341333  2
     17     16     18     35     4  180.0000000  1.5341333  2
    108    103    107    125     4  180.0000000  1.5341333  2
     53     54     72     52     4  180.0000000  1.5341333  2
      3      1      4     25     4  180.0000000  1.5341333  2
    139    146    138    140     4  180.0000000  1.5341333  2
     92     91     93    114     4  180.0000000  1.5341333  2
    133    135    110    134     4  180.0000000  1.5341333  2
      1    178      2      3     4  180.0000000  14.6440000  2
     89     66     90     91     4  180.0000000  1.5341333  2
    157    156    176    135     4  180.0000000  1.5341333  2
    145    164    142    146     4  180.0000000  1.5341333  2
      7     14      6      8     4  180.0000000  1.5341333  2
    135    133    136    157     4  180.0000000  1.5341333  2
     13     10     14     32     4  180.0000000  1.5341333  2
    156    175    138    157     4  180.0000000  1.5341333  2
    140    141    147    139     4  180.0000000  1.5341333  2
     25     44      3     24     4  180.0000000  1.5341333  2
     50     68     49     51     4  180.0000000  1.5341333  2
    148    166    147    149     4  180.0000000  1.5341333  2
     45     46     47     22     4  180.0000000  1.5341333  2
     49     48     50     71     4  180.0000000  1.5341333  2
     68     69     87     50     4  180.0000000  1.5341333  2
    187    188    154    186     4  180.0000000  14.6440000  2
     53     52     54     72     4  180.0000000  1.5341333  2
    135    157    133    136     4  180.0000000  1.5341333  2
     51     50     52     58     4  180.0000000  1.5341333  2
     63     65     62     64     4  180.0000000  1.5341333  2
     10     11     13      9     4  180.0000000  1.5341333  2
      8      7      9     15     4  180.0000000  1.5341333  2
    146    139    145    165     4  180.0000000  1.5341333  2
    187    154    186    188     4  180.0000000  14.6440000  2
     64     63     81     59     4  180.0000000  1.5341333  2
     58     57     77     51     4  180.0000000  1.5341333  2
    101     98    102    120     4  180.0000000  1.5341333  2
     97     98    116     96     4  180.0000000  1.5341333  2
     69     68     88     47     4  180.0000000  1.5341333  2
     20     37     15     19     4  180.0000000  1.5341333  2
    108    125    103    107     4  180.0000000  1.5341333  2
    108    107    125    103     4  180.0000000  1.5341333  2
     91     89     92    113     4  180.0000000  1.5341333  2
     62     63     80     61     4  180.0000000  1.5341333  2
     60     61     78     59     4  180.0000000  1.5341333  2
     57     76     54     58     4  180.0000000  1.5341333  2
     48     49     70     47     4  180.0000000  1.5341333  2
     54     55     57     53     4  180.0000000  1.5341333  2
     94     93     95    112     4  180.0000000  1.5341333  2
    152    169    147    151     4  180.0000000  1.5341333  2
     48     47     49     70     4  180.0000000  1.5341333  2
    141    160    140    142     4  180.0000000  1.5341333  2
     25     24     44      3     4  180.0000000  1.5341333  2
     24     43      6     25     4  180.0000000  1.5341333  2
     63     64     65     62     4  180.0000000  1.5341333  2
     59     64     52     60     4  180.0000000  1.5341333  2
    137    136    138    159     4  180.0000000  1.5341333  2
    154    171    187    153     4  180.0000000  1.3946667  2
    102     95    101    121     4  180.0000000  1.5341333  2
    139    138    140    146     4  180.0000000  1.5341333  2
    106    107    124    105     4  180.0000000  1.5341333  2
     15     20      8     16     4  180.0000000  1.5341333  2
      6      7     24      5     4  180.0000000  1.5341333  2
     95     96    102     94     4  180.0000000  1.5341333  2
     62     61     63     80     4  180.0000000  1.5341333  2
    107    108    109    106     4  180.0000000  1.5341333  2
     54     57     53     55     4  180.0000000  1.5341333  2
     66     83     89     65     4  180.0000000  1.3946667  2
    157    135    156    176     4  180.0000000  1.5341333  2
      6      5      7     24     4  180.0000000  1.5341333  2
    104    105    122    103     4  180.0000000  1.5341333  2
    150    151    168    149     4  180.0000000  1.5341333  2
     95    102     94     96     4  180.0000000  1.5341333  2
     52     51     53     59     4  180.0000000  1.5341333  2
      7      8     14      6     4  180.0000000  1.5341333  2
    146    145    165    139     4  180.0000000  1.5341333  2
    101    102    120     98     4  180.0000000  1.5341333  2
     98    101     97     99     4  180.0000000  1.5341333  2
     89     91     66     90     4  180.0000000  1.5341333  2
     95     94     96    102     4  180.0000000  1.5341333  2
     20     19     37     15     4  180.0000000  1.5341333  2
    136    158    135    137     4  180.0000000  1.5341333  2
     96     97    103     95     4  180.0000000  1.5341333  2
     18     19     36     17     4  180.0000000  1.5341333  2
     93     94    115     92     4  180.0000000  1.5341333  2
    103     96    104    108     4  180.0000000  1.5341333  2
     51     52     58     50     4  180.0000000  1.5341333  2
    103    104    108     96     4  180.0000000  1.5341333  2
      3      4     25      1     4  180.0000000  1.5341333  2
     53     72     52     54     4  180.0000000  1.5341333  2
     24     25     43      6     4  180.0000000  1.5341333  2
    110    109    127    133     4  180.0000000  1.3946667  2
    149    148    150    167     4  180.0000000  1.5341333  2
     52     53     59     51     4  180.0000000  1.5341333  2
    113     91    112    132     4  180.0000000  1.5341333  2
    105    104    106    123     4  180.0000000  1.5341333  2
     47     45     48     69     4  180.0000000  1.5341333  2
      1      2      3    178     4  180.0000000  14.6440000  2
    107    109    106    108     4  180.0000000  1.5341333  2
      4      5     26      3     4  180.0000000  1.5341333  2
    101    120     98    102     4  180.0000000  1.5341333  2
     57     58     76     54     4  180.0000000  1.5341333  2
      8     15      7      9     4  180.0000000  1.5341333  2
    133    134    135    110     4  180.0000000  1.5341333  2
    141    142    160    140     4  180.0000000  1.5341333  2
    142    145    141    143     4  180.0000000  1.5341333  2
     24      6     25     43     4  180.0000000  1.5341333  2
      9     10     28      8     4  180.0000000  1.5341333  2
     45     22     46     47     4  180.0000000  1.5341333  2
     97    116     96     98     4  180.0000000  1.5341333  2
     18     17     19     36     4  180.0000000  1.5341333  2
     66     65     83     89     4  180.0000000  1.3946667  2
    147    148    152    140     4  180.0000000  1.5341333  2
     15      8     16     20     4  180.0000000  1.5341333  2
    157    176    135    156     4  180.0000000  1.5341333  2
     49     50     71     48     4  180.0000000  1.5341333  2
     94     95    112     93     4  180.0000000  1.5341333  2
    138    137    139    156     4  180.0000000  1.5341333  2
    106    105    107    124     4  180.0000000  1.5341333  2
     22     45     21     39     4  180.0000000  1.3946667  2
    104    122    103    105     4  180.0000000  1.5341333  2
     13     32     10     14     4  180.0000000  1.5341333  2
     93    115     92     94     4  180.0000000  1.5341333  2
    149    150    167    148     4  180.0000000  1.5341333  2
     91     92    113     89     4  180.0000000  1.5341333  2
      5      6     27      4     4  180.0000000  1.5341333  2
    110    133    109    127     4  180.0000000  1.3946667  2
     60     78     59     61     4  180.0000000  1.5341333  2
     68     87     50     69     4  180.0000000  1.5341333  2
     58     51     57     77     4  180.0000000  1.5341333  2
     96     95     97    103     4  180.0000000  1.5341333  2
    154    187    153    171     4  180.0000000  1.3946667  2
    138    156    137    139     4  180.0000000  1.5341333  2
    112     94    113    131     4  180.0000000  1.5341333  2
     15     16     20      8     4  180.0000000  1.5341333  2
     54     53     55     57     4  180.0000000  1.5341333  2
    113    132     91    112     4  180.0000000  1.5341333  2
    103    108     96    104     4  180.0000000  1.5341333  2
     20     15     19     37     4  180.0000000  1.5341333  2
     18     36     17     19     4  180.0000000  1.5341333  2
     66     89     65     83     4  180.0000000  1.3946667  2
     98     99    101     97     4  180.0000000  1.5341333  2
     92    114     91     93     4  180.0000000  1.5341333  2
     16     15     17     34     4  180.0000000  1.5341333  2
    152    151    169    147     4  180.0000000  1.5341333  2
    147    140    148    152     4  180.0000000  1.5341333  2
    140    147    139    141     4  180.0000000  1.5341333  2
     10      9     11     13     4  180.0000000  1.5341333  2
    151    153    150    152     4  180.0000000  1.5341333  2
    140    139    141    147     4  180.0000000  1.5341333  2
    156    138    157    175     4  180.0000000  1.5341333  2
    187    186    188    154     4  180.0000000  14.6440000  2
     50     51     68     49     4  180.0000000  1.5341333  2
     64     59     63     81     4  180.0000000  1.5341333  2
     19     18     20     21     4  180.0000000  1.5341333  2
     92     93    114     91     4  180.0000000  1.5341333  2
    112    113    131     94     4  180.0000000  1.5341333  2
     16     34     15     17     4  180.0000000  1.5341333  2
    139    140    146    138     4  180.0000000  1.5341333  2
    133    110    134    135     4  180.0000000  1.5341333  2
    112    131     94    113     4  180.0000000  1.5341333  2
    154    153    171    187     4  180.0000000  1.3946667  2
    141    140    142    160     4  180.0000000  1.5341333  2
     68     50     69     87     4  180.0000000  1.5341333  2
     93     92     94    115     4  180.0000000  1.5341333  2
      8      9     15      7     4  180.0000000  1.5341333  2
     17     35     16     18     4  180.0000000  1.5341333  2
     19     21     18     20     4  180.0000000  1.5341333  2
    107    106    108    109     4  180.0000000  1.5341333  2
     94    112     93     95     4  180.0000000  1.5341333  2
    151    152    153    150     4  180.0000000  1.5341333  2
      9      8     10     28     4  180.0000000  1.5341333  2
    105    123    104    106     4  180.0000000  1.5341333  2
     69     88     47     68     4  180.0000000  1.5341333  2


[ moleculetype ]
; Name            nrexcl
MOL1          3

[ atoms ]
;   nr       type  resnr residue  atom   cgnr    charge       mass  typeB    chargeB      massB
; residue    1 MOL1 rtp MOL1 q -0.0
    1     MOL1_0      1   MOL1     Cl      1 -0.11398000  35.453200   ; qtot -0.113980
    2     MOL1_1      1   MOL1      C      2 0.22337000   9.994886   ; qtot 0.109390
    3     MOL1_2      1   MOL1     Cl      3 -0.11398000  35.453200   ; qtot -0.004590
    4     MOL1_3      1   MOL1     Cl      4 -0.11398000  35.453200   ; qtot -0.118570
    5     MOL1_4      1   MOL1      H      5 0.11857000   3.023841   ; qtot -0.000000

[ bonds ]
;    ai     aj funct         c0         c1         c2         c3
      1      2     1   0.17915 144269.526419
      2      3     1   0.17915 144269.526419
      2      4     1   0.17915 144269.526419
      2      5     1   0.10939 309655.084322

[ angles ]
;    ai     aj     ak funct         c0         c1         c2         c3
      3      2      4     1   116.5475863 445.222087
      1      2      4     1   116.5475863 445.222087
      1      2      3     1   116.5475863 445.222087
      3      2      5     1   116.5475863 445.222087
      1      2      5     1   116.5475863 445.222087
      4      2      5     1   116.5475863 445.222087

[ system ]
; Name
FOO

[ molecules ]
; Compound       #mols
mop_tetramer.pdb      1
MOL1               634
