Generated by Interchange
197
    1MOP     C1    1  -0.328  -0.479   0.002
    1MOP     O2    2  -0.383  -0.528  -0.095
    1MOP     C3    3  -0.283  -0.338   0.007
    1MOP     C4    4  -0.184  -0.292   0.094
    1MOP     C5    5  -0.153  -0.156   0.096
    1MOP     C6    6  -0.220  -0.066   0.011
    1MOP     C7    7  -0.189   0.079   0.009
    1MOP     C8    8  -0.060   0.129  -0.018
    1MOP     C9    9  -0.036   0.267  -0.007
    1MOP    C10   10  -0.137   0.357   0.022
    1MOP    O11   11  -0.097   0.487   0.028
    1MOP    C12   12  -0.198   0.584   0.051
    1MOP    C13   13  -0.266   0.309   0.041
    1MOP    C14   14  -0.291   0.171   0.036
    1MOP    C15   15   0.051   0.042  -0.056
    1MOP    C16   16   0.045  -0.045  -0.166
    1MOP    C17   17   0.150  -0.131  -0.195
    1MOP    C18   18   0.264  -0.127  -0.118
    1MOP    C19   19   0.271  -0.037  -0.009
    1MOP    C20   20   0.164   0.045   0.023
    1MOP    C21   21   0.390  -0.036   0.081
    1MOP    N22   22   0.386  -0.169   0.140
    1MOP    C23   23   0.507  -0.001  -0.014
    1MOP    C24   24  -0.318  -0.116  -0.077
    1MOP    C25   25  -0.348  -0.251  -0.079
    1MOP    H26   26  -0.131  -0.360   0.160
    1MOP    H27   27  -0.074  -0.121   0.163
    1MOP    H28   28   0.065   0.305  -0.022
    1MOP    H29   29  -0.150   0.683   0.050
    1MOP    H30   30  -0.243   0.570   0.150
    1MOP    H31   31  -0.273   0.582  -0.028
    1MOP    H32   32  -0.350   0.375   0.061
    1MOP    H33   33  -0.392   0.136   0.054
    1MOP    H34   34  -0.044  -0.050  -0.227
    1MOP    H35   35   0.144  -0.203  -0.276
    1MOP    H36   36   0.345  -0.195  -0.139
    1MOP    H37   37   0.170   0.107   0.112
    1MOP    H38   38   0.382   0.039   0.161
    1MOP    H39   39   0.409  -0.240   0.075
    1MOP    H40   40   0.532  -0.083  -0.081
    1MOP    H41   41   0.599   0.028   0.035
    1MOP    H42   42   0.481   0.087  -0.074
    1MOP    H43   43  -0.369  -0.050  -0.146
    1MOP    H44   44  -0.423  -0.288  -0.149
    2MOP    C45   45   0.293  -0.203   0.238
    2MOP    O46   46   0.251  -0.123   0.324
    2MOP    C47   47   0.238  -0.343   0.231
    2MOP    C48   48   0.289  -0.440   0.143
    2MOP    C49   49   0.229  -0.565   0.127
    2MOP    C50   50   0.116  -0.601   0.203
    2MOP    C51   51   0.054  -0.735   0.187
    2MOP    C52   52   0.116  -0.857   0.217
    2MOP    C53   53   0.053  -0.982   0.193
    2MOP    C54   54  -0.075  -0.988   0.140
    2MOP    O55   55  -0.130  -1.111   0.121
    2MOP    C56   56  -0.267  -1.114   0.081
    2MOP    C57   57  -0.134  -0.868   0.108
    2MOP    C58   58  -0.071  -0.744   0.131
    2MOP    C59   59   0.252  -0.858   0.264
    2MOP    C60   60   0.292  -0.792   0.381
    2MOP    C61   61   0.425  -0.786   0.418
    2MOP    C62   62   0.516  -0.852   0.339
    2MOP    C63   63   0.475  -0.919   0.222
    2MOP    C64   64   0.344  -0.918   0.182
    2MOP    C65   65   0.572  -0.986   0.133
    2MOP    N66   66   0.653  -0.875   0.087
    2MOP    C67   67   0.632  -1.093   0.225
    2MOP    C68   68   0.065  -0.505   0.292
    2MOP    C69   69   0.125  -0.378   0.307
    2MOP    H70   70   0.377  -0.422   0.083
    2MOP    H71   71   0.271  -0.634   0.055
    2MOP    H72   72   0.106  -1.075   0.213
    2MOP    H73   73  -0.297  -1.218   0.067
    2MOP    H74   74  -0.282  -1.063  -0.015
    2MOP    H75   75  -0.332  -1.070   0.158
    2MOP    H76   76  -0.232  -0.869   0.063
    2MOP    H77   77  -0.119  -0.652   0.102
    2MOP    H78   78   0.219  -0.739   0.441
    2MOP    H79   79   0.457  -0.731   0.505
    2MOP    H80   80   0.622  -0.849   0.367
    2MOP    H81   81   0.316  -0.961   0.085
    2MOP    H82   82   0.526  -1.033   0.045
    2MOP    H83   83   0.710  -0.839   0.162
    2MOP    H84   84   0.697  -1.051   0.302
    2MOP    H85   85   0.688  -1.172   0.177
    2MOP    H86   86   0.552  -1.149   0.276
    2MOP    H87   87  -0.023  -0.529   0.351
    2MOP    H88   88   0.080  -0.306   0.375
    3MOP    C89   89   0.606  -0.780  -0.004
    3MOP    O90   90   0.526  -0.808  -0.094
    3MOP    C91   91   0.653  -0.639   0.018
    3MOP    C92   92   0.747  -0.608   0.117
    3MOP    C93   93   0.778  -0.476   0.150
    3MOP    C94   94   0.720  -0.369   0.083
    3MOP    C95   95   0.755  -0.232   0.126
    3MOP    C96   96   0.880  -0.171   0.108
    3MOP    C97   97   0.900  -0.037   0.150
    3MOP    C98   98   0.799   0.038   0.210
    3MOP    O99   99   0.825   0.170   0.230
    3MOP   C100  100   0.715   0.257   0.257
    3MOP   C101  101   0.682  -0.028   0.243
    3MOP   C102  102   0.664  -0.162   0.205
    3MOP   C103  103   0.994  -0.248   0.062
    3MOP   C104  104   0.996  -0.313  -0.062
    3MOP   C105  105   1.102  -0.396  -0.097
    3MOP   C106  106   1.209  -0.412  -0.009
    3MOP   C107  107   1.210  -0.348   0.116
    3MOP   C108  108   1.101  -0.268   0.150
    3MOP   C109  109   1.318  -0.370   0.219
    3MOP   N110  110   1.318  -0.510   0.256
    3MOP   C111  111   1.452  -0.323   0.162
    3MOP   C112  112   0.629  -0.399  -0.021
    3MOP   C113  113   0.596  -0.533  -0.052
    3MOP   H114  114   0.800  -0.683   0.173
    3MOP   H115  115   0.849  -0.458   0.231
    3MOP   H116  116   0.997   0.010   0.137
    3MOP   H117  117   0.755   0.357   0.276
    3MOP   H118  118   0.661   0.227   0.347
    3MOP   H119  119   0.647   0.264   0.171
    3MOP   H120  120   0.598   0.023   0.289
    3MOP   H121  121   0.574  -0.213   0.236
    3MOP   H122  122   0.912  -0.304  -0.130
    3MOP   H123  123   1.100  -0.450  -0.192
    3MOP   H124  124   1.290  -0.478  -0.038
    3MOP   H125  125   1.096  -0.226   0.251
    3MOP   H126  126   1.298  -0.311   0.309
    3MOP   H127  127   1.361  -0.568   0.187
    3MOP   H128  128   1.482  -0.381   0.073
    3MOP   H129  129   1.532  -0.332   0.235
    3MOP   H130  130   1.446  -0.218   0.131
    3MOP   H131  131   0.582  -0.319  -0.077
    3MOP   H132  132   0.521  -0.553  -0.130
    4MOP   C133  133   1.205  -0.558   0.324
    4MOP   O134  134   1.150  -0.495   0.413
    4MOP   C135  135   1.146  -0.688   0.277
    4MOP   C136  136   1.201  -0.758   0.170
    4MOP   C137  137   1.146  -0.876   0.121
    4MOP   C138  138   1.031  -0.931   0.178
    4MOP   C139  139   0.977  -1.057   0.120
    4MOP   C140  140   1.036  -1.184   0.132
    4MOP   C141  141   0.972  -1.297   0.074
    4MOP   C142  142   0.852  -1.288   0.004
    4MOP   O143  143   0.794  -1.405  -0.033
    4MOP   C144  144   0.657  -1.402  -0.074
    4MOP   C145  145   0.804  -1.161  -0.022
    4MOP   C146  146   0.870  -1.049   0.032
    4MOP   C147  147   1.169  -1.200   0.190
    4MOP   C148  148   1.199  -1.160   0.321
    4MOP   C149  149   1.330  -1.164   0.367
    4MOP   C150  150   1.432  -1.209   0.284
    4MOP   C151  151   1.404  -1.250   0.153
    4MOP   C152  152   1.272  -1.244   0.108
    4MOP   C153  153   1.512  -1.288   0.055
    4MOP   N154  154   1.598  -1.174   0.028
    4MOP   C155  155   1.584  -1.414   0.105
    4MOP   C156  156   0.972  -0.860   0.284
    4MOP   C157  157   1.029  -0.739   0.333
    4MOP   H158  158   1.288  -0.721   0.118
    4MOP   H159  159   1.193  -0.927   0.038
    4MOP   H160  160   1.018  -1.396   0.084
    4MOP   H161  161   0.630  -1.503  -0.106
    4MOP   H162  162   0.641  -1.335  -0.159
    4MOP   H163  163   0.591  -1.375   0.010
    4MOP   H164  164   0.711  -1.144  -0.075
    4MOP   H165  165   0.835  -0.950   0.007
    4MOP   H166  166   1.121  -1.120   0.385
    4MOP   H167  167   1.353  -1.128   0.467
    4MOP   H168  168   1.535  -1.210   0.321
    4MOP   H169  169   1.251  -1.268   0.003
    4MOP   H170  170   1.466  -1.316  -0.041
    4MOP   H171  171   1.673  -1.150   0.091
    4MOP   H172  172   1.636  -1.398   0.200
    4MOP   H173  173   1.657  -1.450   0.032
    4MOP   H174  174   1.510  -1.495   0.121
    4MOP   H175  175   0.881  -0.895   0.331
    4MOP   H176  176   0.979  -0.683   0.412
    5CAP   C177  177  -0.372  -0.664   0.131
    5CAP   O178  178  -0.312  -0.535   0.123
    5CAP   H179  179  -0.478  -0.654   0.152
    5CAP   H180  180  -0.326  -0.719   0.214
    5CAP   H181  181  -0.358  -0.720   0.038
    6CAP   C182  182   1.704  -0.744  -0.121
    6CAP   C183  183   1.584  -0.838  -0.111
    6CAP   C184  184   1.481  -0.773  -0.020
    6CAP   C185  185   1.526  -0.857  -0.252
    6CAP   O186  186   1.630  -0.963  -0.050
    6CAP   C187  187   1.544  -1.068  -0.042
    6CAP   O188  188   1.432  -1.069  -0.090
    6CAP   H189  189   1.674  -0.647  -0.163
    6CAP   H190  190   1.748  -0.725  -0.022
    6CAP   H191  191   1.782  -0.786  -0.184
    6CAP   H192  192   1.517  -0.765   0.083
    6CAP   H193  193   1.391  -0.834  -0.018
    6CAP   H194  194   1.452  -0.673  -0.055
    6CAP   H195  195   1.596  -0.911  -0.317
    6CAP   H196  196   1.432  -0.913  -0.253
    6CAP   H197  197   1.502  -0.760  -0.298
  5.0000000  5.0000000  5.0000000
