Generated by Interchange
197
    1MOP     C1    1  -0.343  -0.473   0.004
    1MOP     O2    2  -0.386  -0.528  -0.096
    1MOP     C3    3  -0.298  -0.332   0.007
    1MOP     C4    4  -0.200  -0.286   0.095
    1MOP     C5    5  -0.167  -0.150   0.096
    1MOP     C6    6  -0.230  -0.059   0.010
    1MOP     C7    7  -0.197   0.085   0.010
    1MOP     C8    8  -0.070   0.135  -0.025
    1MOP     C9    9  -0.045   0.274  -0.017
    1MOP    C10   10  -0.144   0.364   0.020
    1MOP    O11   11  -0.103   0.494   0.024
    1MOP    C12   12  -0.203   0.591   0.052
    1MOP    C13   13  -0.271   0.315   0.048
    1MOP    C14   14  -0.297   0.178   0.044
    1MOP    C15   15   0.041   0.047  -0.065
    1MOP    C16   16   0.033  -0.038  -0.176
    1MOP    C17   17   0.137  -0.125  -0.208
    1MOP    C18   18   0.252  -0.125  -0.130
    1MOP    C19   19   0.262  -0.038  -0.020
    1MOP    C20   20   0.157   0.046   0.012
    1MOP    C21   21   0.383  -0.040   0.070
    1MOP    N22   22   0.387  -0.172   0.131
    1MOP    C23   23   0.504  -0.005  -0.017
    1MOP    C24   24  -0.326  -0.108  -0.080
    1MOP    C25   25  -0.359  -0.244  -0.083
    1MOP    H26   26  -0.150  -0.354   0.163
    1MOP    H27   27  -0.090  -0.115   0.165
    1MOP    H28   28   0.055   0.312  -0.040
    1MOP    H29   29  -0.154   0.689   0.053
    1MOP    H30   30  -0.247   0.575   0.151
    1MOP    H31   31  -0.280   0.592  -0.026
    1MOP    H32   32  -0.352   0.382   0.076
    1MOP    H33   33  -0.397   0.143   0.070
    1MOP    H34   34  -0.057  -0.039  -0.237
    1MOP    H35   35   0.128  -0.193  -0.292
    1MOP    H36   36   0.332  -0.194  -0.154
    1MOP    H37   37   0.164   0.109   0.102
    1MOP    H38   38   0.374   0.035   0.150
    1MOP    H39   39   0.416  -0.244   0.068
    1MOP    H40   40   0.535  -0.088  -0.081
    1MOP    H41   41   0.590   0.023   0.043
    1MOP    H42   42   0.483   0.082  -0.081
    1MOP    H43   43  -0.375  -0.041  -0.150
    1MOP    H44   44  -0.433  -0.279  -0.153
    2MOP    C45   45   0.292  -0.206   0.227
    2MOP    O46   46   0.246  -0.124   0.307
    2MOP    C47   47   0.238  -0.346   0.224
    2MOP    C48   48   0.287  -0.444   0.137
    2MOP    C49   49   0.223  -0.568   0.125
    2MOP    C50   50   0.110  -0.600   0.200
    2MOP    C51   51   0.044  -0.731   0.184
    2MOP    C52   52   0.103  -0.852   0.225
    2MOP    C53   53   0.038  -0.975   0.199
    2MOP    C54   54  -0.083  -0.981   0.131
    2MOP    O55   55  -0.131  -1.106   0.109
    2MOP    C56   56  -0.269  -1.115   0.074
    2MOP    C57   57  -0.139  -0.862   0.086
    2MOP    C58   58  -0.077  -0.739   0.113
    2MOP    C59   59   0.239  -0.857   0.278
    2MOP    C60   60   0.277  -0.792   0.397
    2MOP    C61   61   0.411  -0.788   0.435
    2MOP    C62   62   0.507  -0.851   0.356
    2MOP    C63   63   0.468  -0.918   0.238
    2MOP    C64   64   0.335  -0.920   0.200
    2MOP    C65   65   0.568  -0.984   0.147
    2MOP    N66   66   0.657  -0.879   0.100
    2MOP    C67   67   0.634  -1.095   0.229
    2MOP    C68   68   0.063  -0.504   0.291
    2MOP    C69   69   0.126  -0.378   0.303
    2MOP    H70   70   0.374  -0.429   0.076
    2MOP    H71   71   0.264  -0.641   0.055
    2MOP    H72   72   0.086  -1.069   0.227
    2MOP    H73   73  -0.296  -1.221   0.071
    2MOP    H74   74  -0.287  -1.073  -0.025
    2MOP    H75   75  -0.331  -1.067   0.150
    2MOP    H76   76  -0.230  -0.862   0.027
    2MOP    H77   77  -0.121  -0.648   0.074
    2MOP    H78   78   0.203  -0.741   0.458
    2MOP    H79   79   0.441  -0.735   0.524
    2MOP    H80   80   0.611  -0.846   0.385
    2MOP    H81   81   0.307  -0.966   0.106
    2MOP    H82   82   0.519  -1.029   0.060
    2MOP    H83   83   0.726  -0.853   0.168
    2MOP    H84   84   0.703  -1.056   0.304
    2MOP    H85   85   0.690  -1.164   0.167
    2MOP    H86   86   0.559  -1.156   0.281
    2MOP    H87   87  -0.023  -0.525   0.353
    2MOP    H88   88   0.086  -0.305   0.372
    3MOP    C89   89   0.611  -0.782   0.011
    3MOP    O90   90   0.526  -0.804  -0.075
    3MOP    C91   91   0.662  -0.642   0.033
    3MOP    C92   92   0.752  -0.610   0.135
    3MOP    C93   93   0.784  -0.479   0.166
    3MOP    C94   94   0.728  -0.372   0.096
    3MOP    C95   95   0.760  -0.234   0.137
    3MOP    C96   96   0.880  -0.170   0.103
    3MOP    C97   97   0.899  -0.035   0.140
    3MOP    C98   98   0.805   0.034   0.216
    3MOP    O99   99   0.834   0.165   0.243
    3MOP   C100  100   0.722   0.250   0.263
    3MOP   C101  101   0.694  -0.035   0.264
    3MOP   C102  102   0.673  -0.168   0.225
    3MOP   C103  103   0.996  -0.245   0.053
    3MOP   C104  104   1.000  -0.308  -0.072
    3MOP   C105  105   1.108  -0.390  -0.105
    3MOP   C106  106   1.214  -0.409  -0.015
    3MOP   C107  107   1.212  -0.346   0.111
    3MOP   C108  108   1.103  -0.264   0.142
    3MOP   C109  109   1.316  -0.371   0.218
    3MOP   N110  110   1.312  -0.511   0.257
    3MOP   C111  111   1.455  -0.329   0.169
    3MOP   C112  112   0.643  -0.403  -0.012
    3MOP   C113  113   0.610  -0.536  -0.043
    3MOP   H114  114   0.800  -0.686   0.196
    3MOP   H115  115   0.853  -0.459   0.249
    3MOP   H116  116   0.992   0.016   0.114
    3MOP   H117  117   0.759   0.353   0.271
    3MOP   H118  118   0.670   0.227   0.357
    3MOP   H119  119   0.653   0.246   0.178
    3MOP   H120  120   0.621   0.012   0.329
    3MOP   H121  121   0.587  -0.220   0.265
    3MOP   H122  122   0.918  -0.298  -0.141
    3MOP   H123  123   1.109  -0.443  -0.200
    3MOP   H124  124   1.295  -0.476  -0.042
    3MOP   H125  125   1.097  -0.220   0.242
    3MOP   H126  126   1.293  -0.311   0.308
    3MOP   H127  127   1.365  -0.572   0.198
    3MOP   H128  128   1.488  -0.389   0.084
    3MOP   H129  129   1.530  -0.342   0.248
    3MOP   H130  130   1.455  -0.224   0.138
    3MOP   H131  131   0.601  -0.323  -0.073
    3MOP   H132  132   0.540  -0.557  -0.124
    4MOP   C133  133   1.197  -0.560   0.318
    4MOP   O134  134   1.133  -0.496   0.401
    4MOP   C135  135   1.148  -0.694   0.272
    4MOP   C136  136   1.202  -0.756   0.159
    4MOP   C137  137   1.149  -0.875   0.108
    4MOP   C138  138   1.039  -0.935   0.167
    4MOP   C139  139   0.985  -1.058   0.108
    4MOP   C140  140   1.037  -1.186   0.136
    4MOP   C141  141   0.973  -1.300   0.082
    4MOP   C142  142   0.863  -1.288  -0.004
    4MOP   O143  143   0.807  -1.406  -0.046
    4MOP   C144  144   0.668  -1.400  -0.077
    4MOP   C145  145   0.824  -1.162  -0.046
    4MOP   C146  146   0.886  -1.049   0.009
    4MOP   C147  147   1.169  -1.203   0.198
    4MOP   C148  148   1.199  -1.166   0.330
    4MOP   C149  149   1.331  -1.170   0.376
    4MOP   C150  150   1.435  -1.212   0.291
    4MOP   C151  151   1.407  -1.250   0.160
    4MOP   C152  152   1.275  -1.246   0.116
    4MOP   C153  153   1.515  -1.288   0.060
    4MOP   N154  154   1.597  -1.173   0.026
    4MOP   C155  155   1.598  -1.407   0.108
    4MOP   C156  156   0.983  -0.873   0.281
    4MOP   C157  157   1.037  -0.754   0.333
    4MOP   H158  158   1.283  -0.712   0.105
    4MOP   H159  159   1.195  -0.921   0.021
    4MOP   H160  160   1.011  -1.399   0.104
    4MOP   H161  161   0.634  -1.502  -0.096
    4MOP   H162  162   0.650  -1.341  -0.167
    4MOP   H163  163   0.610  -1.361   0.008
    4MOP   H164  164   0.744  -1.147  -0.117
    4MOP   H165  165   0.854  -0.951  -0.026
    4MOP   H166  166   1.121  -1.130   0.396
    4MOP   H167  167   1.354  -1.139   0.477
    4MOP   H168  168   1.537  -1.211   0.328
    4MOP   H169  169   1.253  -1.269   0.011
    4MOP   H170  170   1.467  -1.320  -0.034
    4MOP   H171  171   1.679  -1.150   0.080
    4MOP   H172  172   1.653  -1.384   0.199
    4MOP   H173  173   1.671  -1.436   0.031
    4MOP   H174  174   1.533  -1.493   0.127
    4MOP   H175  175   0.897  -0.917   0.330
    4MOP   H176  176   0.990  -0.705   0.418
    5CAP   C177  177  -0.403  -0.652   0.144
    5CAP   O178  178  -0.341  -0.524   0.130
    5CAP   H179  179  -0.508  -0.638   0.169
    5CAP   H180  180  -0.354  -0.705   0.226
    5CAP   H181  181  -0.395  -0.713   0.053
    6CAP   C182  182   1.718  -0.753  -0.120
    6CAP   C183  183   1.593  -0.843  -0.117
    6CAP   C184  184   1.490  -0.776  -0.028
    6CAP   C185  185   1.540  -0.857  -0.260
    6CAP   O186  186   1.634  -0.969  -0.057
    6CAP   C187  187   1.546  -1.072  -0.051
    6CAP   O188  188   1.436  -1.073  -0.103
    6CAP   H189  189   1.694  -0.653  -0.160
    6CAP   H190  190   1.760  -0.741  -0.020
    6CAP   H191  191   1.796  -0.797  -0.182
    6CAP   H192  192   1.524  -0.770   0.076
    6CAP   H193  193   1.398  -0.835  -0.028
    6CAP   H194  194   1.465  -0.675  -0.062
    6CAP   H195  195   1.609  -0.915  -0.322
    6CAP   H196  196   1.444  -0.908  -0.264
    6CAP   H197  197   1.524  -0.759  -0.307
  5.0000000  5.0000000  5.0000000
