[ defaults ]
; nbfunc	comb-rule	gen-pairs	fudgeLJ	fudgeQQ
     1	     2	yes   	0.500000	0.833333

[ atomtypes ]
;type, bondingtype, atomic_number, mass, charge, ptype, sigma, epsilon
mop_tetramer.pdb_0	     6	12.01078	0.0000000000000000	A    	0.3480646886945065	0.3635030558377792
mop_tetramer.pdb_1	     8	15.99943	0.0000000000000000	A    	0.3039812205065809	0.8795023257036865
mop_tetramer.pdb_2	     6	12.01078	0.0000000000000000	A    	0.3480646886945065	0.3635030558377792
mop_tetramer.pdb_3	     6	12.01078	0.0000000000000000	A    	0.3480646886945065	0.3635030558377792
mop_tetramer.pdb_4	     6	12.01078	0.0000000000000000	A    	0.3480646886945065	0.3635030558377792
mop_tetramer.pdb_5	     6	12.01078	0.0000000000000000	A    	0.3480646886945065	0.3635030558377792
mop_tetramer.pdb_6	     6	12.01078	0.0000000000000000	A    	0.3480646886945065	0.3635030558377792
mop_tetramer.pdb_7	     6	12.01078	0.0000000000000000	A    	0.3480646886945065	0.3635030558377792
mop_tetramer.pdb_8	     6	12.01078	0.0000000000000000	A    	0.3480646886945065	0.3635030558377792
mop_tetramer.pdb_9	     6	12.01078	0.0000000000000000	A    	0.3480646886945065	0.3635030558377792
mop_tetramer.pdb_10	     8	15.99943	0.0000000000000000	A    	0.3025106490435313	0.7048581468486769
mop_tetramer.pdb_11	     6	12.01078	0.0000000000000000	A    	0.337953176162662	0.4553891161106184
mop_tetramer.pdb_12	     6	12.01078	0.0000000000000000	A    	0.3480646886945065	0.3635030558377792
mop_tetramer.pdb_13	     6	12.01078	0.0000000000000000	A    	0.3480646886945065	0.3635030558377792
mop_tetramer.pdb_14	     6	12.01078	0.0000000000000000	A    	0.3480646886945065	0.3635030558377792
mop_tetramer.pdb_15	     6	12.01078	0.0000000000000000	A    	0.3480646886945065	0.3635030558377792
mop_tetramer.pdb_16	     6	12.01078	0.0000000000000000	A    	0.3480646886945065	0.3635030558377792
mop_tetramer.pdb_17	     6	12.01078	0.0000000000000000	A    	0.3480646886945065	0.3635030558377792
mop_tetramer.pdb_18	     6	12.01078	0.0000000000000000	A    	0.3480646886945065	0.3635030558377792
mop_tetramer.pdb_19	     6	12.01078	0.0000000000000000	A    	0.3480646886945065	0.3635030558377792
mop_tetramer.pdb_20	     6	12.01078	0.0000000000000000	A    	0.337953176162662	0.4553891161106184
mop_tetramer.pdb_21	     7	14.00672	0.0000000000000000	A    	0.3206876023663901	0.7016212989374017
mop_tetramer.pdb_22	     6	12.01078	0.0000000000000000	A    	0.337953176162662	0.4553891161106184
mop_tetramer.pdb_23	     6	12.01078	0.0000000000000000	A    	0.3480646886945065	0.3635030558377792
mop_tetramer.pdb_24	     6	12.01078	0.0000000000000000	A    	0.3480646886945065	0.3635030558377792
mop_tetramer.pdb_25	     1	1.007947	0.0000000000000000	A    	0.2572581535063279	0.06531785996356952
mop_tetramer.pdb_26	     1	1.007947	0.0000000000000000	A    	0.2572581535063279	0.06531785996356952
mop_tetramer.pdb_27	     1	1.007947	0.0000000000000000	A    	0.2572581535063279	0.06531785996356952
mop_tetramer.pdb_28	     1	1.007947	0.0000000000000000	A    	0.2583225710839196	0.068656285380106
mop_tetramer.pdb_29	     1	1.007947	0.0000000000000000	A    	0.2583225710839196	0.068656285380106
mop_tetramer.pdb_30	     1	1.007947	0.0000000000000000	A    	0.2583225710839196	0.068656285380106
mop_tetramer.pdb_31	     1	1.007947	0.0000000000000000	A    	0.2572581535063279	0.06531785996356952
mop_tetramer.pdb_32	     1	1.007947	0.0000000000000000	A    	0.2572581535063279	0.06531785996356952
mop_tetramer.pdb_33	     1	1.007947	0.0000000000000000	A    	0.2572581535063279	0.06531785996356952
mop_tetramer.pdb_34	     1	1.007947	0.0000000000000000	A    	0.2572581535063279	0.06531785996356952
mop_tetramer.pdb_35	     1	1.007947	0.0000000000000000	A    	0.2572581535063279	0.06531785996356952
mop_tetramer.pdb_36	     1	1.007947	0.0000000000000000	A    	0.2572581535063279	0.06531785996356952
mop_tetramer.pdb_37	     1	1.007947	0.0000000000000000	A    	0.2583225710839196	0.068656285380106
mop_tetramer.pdb_38	     1	1.007947	0.0000000000000000	A    	0.1103427677297317	0.05895596890015097
mop_tetramer.pdb_39	     1	1.007947	0.0000000000000000	A    	0.2644543413268124	0.06602135607582665
mop_tetramer.pdb_40	     1	1.007947	0.0000000000000000	A    	0.2644543413268124	0.06602135607582665
mop_tetramer.pdb_41	     1	1.007947	0.0000000000000000	A    	0.2644543413268124	0.06602135607582665
mop_tetramer.pdb_42	     1	1.007947	0.0000000000000000	A    	0.2572581535063279	0.06531785996356952
mop_tetramer.pdb_43	     1	1.007947	0.0000000000000000	A    	0.2572581535063279	0.06531785996356952
mop_tetramer.pdb_44	     6	12.01078	0.0000000000000000	A    	0.3480646886945065	0.3635030558377792
mop_tetramer.pdb_45	     8	15.99943	0.0000000000000000	A    	0.3039812205065809	0.8795023257036865
mop_tetramer.pdb_46	     6	12.01078	0.0000000000000000	A    	0.3480646886945065	0.3635030558377792
mop_tetramer.pdb_47	     6	12.01078	0.0000000000000000	A    	0.3480646886945065	0.3635030558377792
mop_tetramer.pdb_48	     6	12.01078	0.0000000000000000	A    	0.3480646886945065	0.3635030558377792
mop_tetramer.pdb_49	     6	12.01078	0.0000000000000000	A    	0.3480646886945065	0.3635030558377792
mop_tetramer.pdb_50	     6	12.01078	0.0000000000000000	A    	0.3480646886945065	0.3635030558377792
mop_tetramer.pdb_51	     6	12.01078	0.0000000000000000	A    	0.3480646886945065	0.3635030558377792
mop_tetramer.pdb_52	     6	12.01078	0.0000000000000000	A    	0.3480646886945065	0.3635030558377792
mop_tetramer.pdb_53	     6	12.01078	0.0000000000000000	A    	0.3480646886945065	0.3635030558377792
mop_tetramer.pdb_54	     8	15.99943	0.0000000000000000	A    	0.3025106490435313	0.7048581468486769
mop_tetramer.pdb_55	     6	12.01078	0.0000000000000000	A    	0.337953176162662	0.4553891161106184
mop_tetramer.pdb_56	     6	12.01078	0.0000000000000000	A    	0.3480646886945065	0.3635030558377792
mop_tetramer.pdb_57	     6	12.01078	0.0000000000000000	A    	0.3480646886945065	0.3635030558377792
mop_tetramer.pdb_58	     6	12.01078	0.0000000000000000	A    	0.3480646886945065	0.3635030558377792
mop_tetramer.pdb_59	     6	12.01078	0.0000000000000000	A    	0.3480646886945065	0.3635030558377792
mop_tetramer.pdb_60	     6	12.01078	0.0000000000000000	A    	0.3480646886945065	0.3635030558377792
mop_tetramer.pdb_61	     6	12.01078	0.0000000000000000	A    	0.3480646886945065	0.3635030558377792
mop_tetramer.pdb_62	     6	12.01078	0.0000000000000000	A    	0.3480646886945065	0.3635030558377792
mop_tetramer.pdb_63	     6	12.01078	0.0000000000000000	A    	0.3480646886945065	0.3635030558377792
mop_tetramer.pdb_64	     6	12.01078	0.0000000000000000	A    	0.337953176162662	0.4553891161106184
mop_tetramer.pdb_65	     7	14.00672	0.0000000000000000	A    	0.3206876023663901	0.7016212989374017
mop_tetramer.pdb_66	     6	12.01078	0.0000000000000000	A    	0.337953176162662	0.4553891161106184
mop_tetramer.pdb_67	     6	12.01078	0.0000000000000000	A    	0.3480646886945065	0.3635030558377792
mop_tetramer.pdb_68	     6	12.01078	0.0000000000000000	A    	0.3480646886945065	0.3635030558377792
mop_tetramer.pdb_69	     1	1.007947	0.0000000000000000	A    	0.2572581535063279	0.06531785996356952
mop_tetramer.pdb_70	     1	1.007947	0.0000000000000000	A    	0.2572581535063279	0.06531785996356952
mop_tetramer.pdb_71	     1	1.007947	0.0000000000000000	A    	0.2572581535063279	0.06531785996356952
mop_tetramer.pdb_72	     1	1.007947	0.0000000000000000	A    	0.2583225710839196	0.068656285380106
mop_tetramer.pdb_73	     1	1.007947	0.0000000000000000	A    	0.2583225710839196	0.068656285380106
mop_tetramer.pdb_74	     1	1.007947	0.0000000000000000	A    	0.2583225710839196	0.068656285380106
mop_tetramer.pdb_75	     1	1.007947	0.0000000000000000	A    	0.2572581535063279	0.06531785996356952
mop_tetramer.pdb_76	     1	1.007947	0.0000000000000000	A    	0.2572581535063279	0.06531785996356952
mop_tetramer.pdb_77	     1	1.007947	0.0000000000000000	A    	0.2572581535063279	0.06531785996356952
mop_tetramer.pdb_78	     1	1.007947	0.0000000000000000	A    	0.2572581535063279	0.06531785996356952
mop_tetramer.pdb_79	     1	1.007947	0.0000000000000000	A    	0.2572581535063279	0.06531785996356952
mop_tetramer.pdb_80	     1	1.007947	0.0000000000000000	A    	0.2572581535063279	0.06531785996356952
mop_tetramer.pdb_81	     1	1.007947	0.0000000000000000	A    	0.2583225710839196	0.068656285380106
mop_tetramer.pdb_82	     1	1.007947	0.0000000000000000	A    	0.1103427677297317	0.05895596890015097
mop_tetramer.pdb_83	     1	1.007947	0.0000000000000000	A    	0.2644543413268124	0.06602135607582665
mop_tetramer.pdb_84	     1	1.007947	0.0000000000000000	A    	0.2644543413268124	0.06602135607582665
mop_tetramer.pdb_85	     1	1.007947	0.0000000000000000	A    	0.2644543413268124	0.06602135607582665
mop_tetramer.pdb_86	     1	1.007947	0.0000000000000000	A    	0.2572581535063279	0.06531785996356952
mop_tetramer.pdb_87	     1	1.007947	0.0000000000000000	A    	0.2572581535063279	0.06531785996356952
mop_tetramer.pdb_88	     6	12.01078	0.0000000000000000	A    	0.3480646886945065	0.3635030558377792
mop_tetramer.pdb_89	     8	15.99943	0.0000000000000000	A    	0.3039812205065809	0.8795023257036865
mop_tetramer.pdb_90	     6	12.01078	0.0000000000000000	A    	0.3480646886945065	0.3635030558377792
mop_tetramer.pdb_91	     6	12.01078	0.0000000000000000	A    	0.3480646886945065	0.3635030558377792
mop_tetramer.pdb_92	     6	12.01078	0.0000000000000000	A    	0.3480646886945065	0.3635030558377792
mop_tetramer.pdb_93	     6	12.01078	0.0000000000000000	A    	0.3480646886945065	0.3635030558377792
mop_tetramer.pdb_94	     6	12.01078	0.0000000000000000	A    	0.3480646886945065	0.3635030558377792
mop_tetramer.pdb_95	     6	12.01078	0.0000000000000000	A    	0.3480646886945065	0.3635030558377792
mop_tetramer.pdb_96	     6	12.01078	0.0000000000000000	A    	0.3480646886945065	0.3635030558377792
mop_tetramer.pdb_97	     6	12.01078	0.0000000000000000	A    	0.3480646886945065	0.3635030558377792
mop_tetramer.pdb_98	     8	15.99943	0.0000000000000000	A    	0.3025106490435313	0.7048581468486769
mop_tetramer.pdb_99	     6	12.01078	0.0000000000000000	A    	0.337953176162662	0.4553891161106184
mop_tetramer.pdb_100	     6	12.01078	0.0000000000000000	A    	0.3480646886945065	0.3635030558377792
mop_tetramer.pdb_101	     6	12.01078	0.0000000000000000	A    	0.3480646886945065	0.3635030558377792
mop_tetramer.pdb_102	     6	12.01078	0.0000000000000000	A    	0.3480646886945065	0.3635030558377792
mop_tetramer.pdb_103	     6	12.01078	0.0000000000000000	A    	0.3480646886945065	0.3635030558377792
mop_tetramer.pdb_104	     6	12.01078	0.0000000000000000	A    	0.3480646886945065	0.3635030558377792
mop_tetramer.pdb_105	     6	12.01078	0.0000000000000000	A    	0.3480646886945065	0.3635030558377792
mop_tetramer.pdb_106	     6	12.01078	0.0000000000000000	A    	0.3480646886945065	0.3635030558377792
mop_tetramer.pdb_107	     6	12.01078	0.0000000000000000	A    	0.3480646886945065	0.3635030558377792
mop_tetramer.pdb_108	     6	12.01078	0.0000000000000000	A    	0.337953176162662	0.4553891161106184
mop_tetramer.pdb_109	     7	14.00672	0.0000000000000000	A    	0.3206876023663901	0.7016212989374017
mop_tetramer.pdb_110	     6	12.01078	0.0000000000000000	A    	0.337953176162662	0.4553891161106184
mop_tetramer.pdb_111	     6	12.01078	0.0000000000000000	A    	0.3480646886945065	0.3635030558377792
mop_tetramer.pdb_112	     6	12.01078	0.0000000000000000	A    	0.3480646886945065	0.3635030558377792
mop_tetramer.pdb_113	     1	1.007947	0.0000000000000000	A    	0.2572581535063279	0.06531785996356952
mop_tetramer.pdb_114	     1	1.007947	0.0000000000000000	A    	0.2572581535063279	0.06531785996356952
mop_tetramer.pdb_115	     1	1.007947	0.0000000000000000	A    	0.2572581535063279	0.06531785996356952
mop_tetramer.pdb_116	     1	1.007947	0.0000000000000000	A    	0.2583225710839196	0.068656285380106
mop_tetramer.pdb_117	     1	1.007947	0.0000000000000000	A    	0.2583225710839196	0.068656285380106
mop_tetramer.pdb_118	     1	1.007947	0.0000000000000000	A    	0.2583225710839196	0.068656285380106
mop_tetramer.pdb_119	     1	1.007947	0.0000000000000000	A    	0.2572581535063279	0.06531785996356952
mop_tetramer.pdb_120	     1	1.007947	0.0000000000000000	A    	0.2572581535063279	0.06531785996356952
mop_tetramer.pdb_121	     1	1.007947	0.0000000000000000	A    	0.2572581535063279	0.06531785996356952
mop_tetramer.pdb_122	     1	1.007947	0.0000000000000000	A    	0.2572581535063279	0.06531785996356952
mop_tetramer.pdb_123	     1	1.007947	0.0000000000000000	A    	0.2572581535063279	0.06531785996356952
mop_tetramer.pdb_124	     1	1.007947	0.0000000000000000	A    	0.2572581535063279	0.06531785996356952
mop_tetramer.pdb_125	     1	1.007947	0.0000000000000000	A    	0.2583225710839196	0.068656285380106
mop_tetramer.pdb_126	     1	1.007947	0.0000000000000000	A    	0.1103427677297317	0.05895596890015097
mop_tetramer.pdb_127	     1	1.007947	0.0000000000000000	A    	0.2644543413268124	0.06602135607582665
mop_tetramer.pdb_128	     1	1.007947	0.0000000000000000	A    	0.2644543413268124	0.06602135607582665
mop_tetramer.pdb_129	     1	1.007947	0.0000000000000000	A    	0.2644543413268124	0.06602135607582665
mop_tetramer.pdb_130	     1	1.007947	0.0000000000000000	A    	0.2572581535063279	0.06531785996356952
mop_tetramer.pdb_131	     1	1.007947	0.0000000000000000	A    	0.2572581535063279	0.06531785996356952
mop_tetramer.pdb_132	     6	12.01078	0.0000000000000000	A    	0.3480646886945065	0.3635030558377792
mop_tetramer.pdb_133	     8	15.99943	0.0000000000000000	A    	0.3039812205065809	0.8795023257036865
mop_tetramer.pdb_134	     6	12.01078	0.0000000000000000	A    	0.3480646886945065	0.3635030558377792
mop_tetramer.pdb_135	     6	12.01078	0.0000000000000000	A    	0.3480646886945065	0.3635030558377792
mop_tetramer.pdb_136	     6	12.01078	0.0000000000000000	A    	0.3480646886945065	0.3635030558377792
mop_tetramer.pdb_137	     6	12.01078	0.0000000000000000	A    	0.3480646886945065	0.3635030558377792
mop_tetramer.pdb_138	     6	12.01078	0.0000000000000000	A    	0.3480646886945065	0.3635030558377792
mop_tetramer.pdb_139	     6	12.01078	0.0000000000000000	A    	0.3480646886945065	0.3635030558377792
mop_tetramer.pdb_140	     6	12.01078	0.0000000000000000	A    	0.3480646886945065	0.3635030558377792
mop_tetramer.pdb_141	     6	12.01078	0.0000000000000000	A    	0.3480646886945065	0.3635030558377792
mop_tetramer.pdb_142	     8	15.99943	0.0000000000000000	A    	0.3025106490435313	0.7048581468486769
mop_tetramer.pdb_143	     6	12.01078	0.0000000000000000	A    	0.337953176162662	0.4553891161106184
mop_tetramer.pdb_144	     6	12.01078	0.0000000000000000	A    	0.3480646886945065	0.3635030558377792
mop_tetramer.pdb_145	     6	12.01078	0.0000000000000000	A    	0.3480646886945065	0.3635030558377792
mop_tetramer.pdb_146	     6	12.01078	0.0000000000000000	A    	0.3480646886945065	0.3635030558377792
mop_tetramer.pdb_147	     6	12.01078	0.0000000000000000	A    	0.3480646886945065	0.3635030558377792
mop_tetramer.pdb_148	     6	12.01078	0.0000000000000000	A    	0.3480646886945065	0.3635030558377792
mop_tetramer.pdb_149	     6	12.01078	0.0000000000000000	A    	0.3480646886945065	0.3635030558377792
mop_tetramer.pdb_150	     6	12.01078	0.0000000000000000	A    	0.3480646886945065	0.3635030558377792
mop_tetramer.pdb_151	     6	12.01078	0.0000000000000000	A    	0.3480646886945065	0.3635030558377792
mop_tetramer.pdb_152	     6	12.01078	0.0000000000000000	A    	0.337953176162662	0.4553891161106184
mop_tetramer.pdb_153	     7	14.00672	0.0000000000000000	A    	0.3206876023663901	0.7016212989374017
mop_tetramer.pdb_154	     6	12.01078	0.0000000000000000	A    	0.337953176162662	0.4553891161106184
mop_tetramer.pdb_155	     6	12.01078	0.0000000000000000	A    	0.3480646886945065	0.3635030558377792
mop_tetramer.pdb_156	     6	12.01078	0.0000000000000000	A    	0.3480646886945065	0.3635030558377792
mop_tetramer.pdb_157	     1	1.007947	0.0000000000000000	A    	0.2572581535063279	0.06531785996356952
mop_tetramer.pdb_158	     1	1.007947	0.0000000000000000	A    	0.2572581535063279	0.06531785996356952
mop_tetramer.pdb_159	     1	1.007947	0.0000000000000000	A    	0.2572581535063279	0.06531785996356952
mop_tetramer.pdb_160	     1	1.007947	0.0000000000000000	A    	0.2583225710839196	0.068656285380106
mop_tetramer.pdb_161	     1	1.007947	0.0000000000000000	A    	0.2583225710839196	0.068656285380106
mop_tetramer.pdb_162	     1	1.007947	0.0000000000000000	A    	0.2583225710839196	0.068656285380106
mop_tetramer.pdb_163	     1	1.007947	0.0000000000000000	A    	0.2572581535063279	0.06531785996356952
mop_tetramer.pdb_164	     1	1.007947	0.0000000000000000	A    	0.2572581535063279	0.06531785996356952
mop_tetramer.pdb_165	     1	1.007947	0.0000000000000000	A    	0.2572581535063279	0.06531785996356952
mop_tetramer.pdb_166	     1	1.007947	0.0000000000000000	A    	0.2572581535063279	0.06531785996356952
mop_tetramer.pdb_167	     1	1.007947	0.0000000000000000	A    	0.2572581535063279	0.06531785996356952
mop_tetramer.pdb_168	     1	1.007947	0.0000000000000000	A    	0.2572581535063279	0.06531785996356952
mop_tetramer.pdb_169	     1	1.007947	0.0000000000000000	A    	0.2583225710839196	0.068656285380106
mop_tetramer.pdb_170	     1	1.007947	0.0000000000000000	A    	0.1103427677297317	0.05895596890015097
mop_tetramer.pdb_171	     1	1.007947	0.0000000000000000	A    	0.2644543413268124	0.06602135607582665
mop_tetramer.pdb_172	     1	1.007947	0.0000000000000000	A    	0.2644543413268124	0.06602135607582665
mop_tetramer.pdb_173	     1	1.007947	0.0000000000000000	A    	0.2644543413268124	0.06602135607582665
mop_tetramer.pdb_174	     1	1.007947	0.0000000000000000	A    	0.2572581535063279	0.06531785996356952
mop_tetramer.pdb_175	     1	1.007947	0.0000000000000000	A    	0.2572581535063279	0.06531785996356952
mop_tetramer.pdb_176	     6	12.01078	0.0000000000000000	A    	0.337953176162662	0.4553891161106184
mop_tetramer.pdb_177	     8	15.99943	0.0000000000000000	A    	0.3025106490435313	0.7048581468486769
mop_tetramer.pdb_178	     1	1.007947	0.0000000000000000	A    	0.2583225710839196	0.068656285380106
mop_tetramer.pdb_179	     1	1.007947	0.0000000000000000	A    	0.2583225710839196	0.068656285380106
mop_tetramer.pdb_180	     1	1.007947	0.0000000000000000	A    	0.2583225710839196	0.068656285380106
mop_tetramer.pdb_181	     6	12.01078	0.0000000000000000	A    	0.337953176162662	0.4553891161106184
mop_tetramer.pdb_182	     6	12.01078	0.0000000000000000	A    	0.337953176162662	0.4553891161106184
mop_tetramer.pdb_183	     6	12.01078	0.0000000000000000	A    	0.337953176162662	0.4553891161106184
mop_tetramer.pdb_184	     6	12.01078	0.0000000000000000	A    	0.337953176162662	0.4553891161106184
mop_tetramer.pdb_185	     8	15.99943	0.0000000000000000	A    	0.3025106490435313	0.7048581468486769
mop_tetramer.pdb_186	     6	12.01078	0.0000000000000000	A    	0.3480646886945065	0.3635030558377792
mop_tetramer.pdb_187	     8	15.99943	0.0000000000000000	A    	0.3039812205065809	0.8795023257036865
mop_tetramer.pdb_188	     1	1.007947	0.0000000000000000	A    	0.2644543413268124	0.06602135607582665
mop_tetramer.pdb_189	     1	1.007947	0.0000000000000000	A    	0.2644543413268124	0.06602135607582665
mop_tetramer.pdb_190	     1	1.007947	0.0000000000000000	A    	0.2644543413268124	0.06602135607582665
mop_tetramer.pdb_191	     1	1.007947	0.0000000000000000	A    	0.2644543413268124	0.06602135607582665
mop_tetramer.pdb_192	     1	1.007947	0.0000000000000000	A    	0.2644543413268124	0.06602135607582665
mop_tetramer.pdb_193	     1	1.007947	0.0000000000000000	A    	0.2644543413268124	0.06602135607582665
mop_tetramer.pdb_194	     1	1.007947	0.0000000000000000	A    	0.2644543413268124	0.06602135607582665
mop_tetramer.pdb_195	     1	1.007947	0.0000000000000000	A    	0.2644543413268124	0.06602135607582665
mop_tetramer.pdb_196	     1	1.007947	0.0000000000000000	A    	0.2644543413268124	0.06602135607582665

[ moleculetype ]
mop_tetramer.pdb	         3

[ atoms ]
;index, atom type, resnum, resname, name, cgnr, charge, mass
     1 mop_tetramer.pdb_0       1 MOP      C1         1      0.644829988683     12.010780000000
     2 mop_tetramer.pdb_1       1 MOP      O2         1     -0.543760001456     15.999430000000
     3 mop_tetramer.pdb_2       1 MOP      C3         1     -0.135759994184     12.010780000000
     4 mop_tetramer.pdb_3       1 MOP      C4         1     -0.077040001546     12.010780000000
     5 mop_tetramer.pdb_4       1 MOP      C5         1     -0.130700006877     12.010780000000
     6 mop_tetramer.pdb_5       1 MOP      C6         1      0.000690000219     12.010780000000
     7 mop_tetramer.pdb_6       1 MOP      C7         1     -0.075309999083     12.010780000000
     8 mop_tetramer.pdb_7       1 MOP      C8         1      0.009870000387     12.010780000000
     9 mop_tetramer.pdb_8       1 MOP      C9         1     -0.199630006944     12.010780000000
    10 mop_tetramer.pdb_9       1 MOP      C10        1      0.126929998602     12.010780000000
    11 mop_tetramer.pdb_10       1 MOP      O11        1     -0.324119984900     15.999430000000
    12 mop_tetramer.pdb_11       1 MOP      C12        1      0.111579999532     12.010780000000
    13 mop_tetramer.pdb_12       1 MOP      C13        1     -0.152520000731     12.010780000000
    14 mop_tetramer.pdb_13       1 MOP      C14        1     -0.081710003113     12.010780000000
    15 mop_tetramer.pdb_14       1 MOP      C15        1     -0.045889999514     12.010780000000
    16 mop_tetramer.pdb_15       1 MOP      C16        1     -0.108920000290     12.010780000000
    17 mop_tetramer.pdb_16       1 MOP      C17        1     -0.131699994003     12.010780000000
    18 mop_tetramer.pdb_17       1 MOP      C18        1     -0.102260000800     12.010780000000
    19 mop_tetramer.pdb_18       1 MOP      C19        1     -0.112999997829     12.010780000000
    20 mop_tetramer.pdb_19       1 MOP      C20        1     -0.107459999417     12.010780000000
    21 mop_tetramer.pdb_20       1 MOP      C21        1      0.143050000275     12.010780000000
    22 mop_tetramer.pdb_21       1 MOP      N22        1     -0.562139987742     14.006720000000
    23 mop_tetramer.pdb_22       1 MOP      C23        1     -0.100890002941     12.010780000000
    24 mop_tetramer.pdb_23       1 MOP      C24        1     -0.130700006877     12.010780000000
    25 mop_tetramer.pdb_24       1 MOP      C25        1     -0.077040001546     12.010780000000
    26 mop_tetramer.pdb_25       1 MOP      H26        1      0.155399993266      1.007947000000
    27 mop_tetramer.pdb_26       1 MOP      H27        1      0.143299997057      1.007947000000
    28 mop_tetramer.pdb_27       1 MOP      H28        1      0.144529998506      1.007947000000
    29 mop_tetramer.pdb_28       1 MOP      H29        1      0.045710001345      1.007947000000
    30 mop_tetramer.pdb_29       1 MOP      H30        1      0.045710001345      1.007947000000
    31 mop_tetramer.pdb_30       1 MOP      H31        1      0.045710001345      1.007947000000
    32 mop_tetramer.pdb_31       1 MOP      H32        1      0.154829994048      1.007947000000
    33 mop_tetramer.pdb_32       1 MOP      H33        1      0.143519997801      1.007947000000
    34 mop_tetramer.pdb_33       1 MOP      H34        1      0.136419996823      1.007947000000
    35 mop_tetramer.pdb_34       1 MOP      H35        1      0.134739995207      1.007947000000
    36 mop_tetramer.pdb_35       1 MOP      H36        1      0.142189994658      1.007947000000
    37 mop_tetramer.pdb_36       1 MOP      H37        1      0.132679999079      1.007947000000
    38 mop_tetramer.pdb_37       1 MOP      H38        1      0.087999999727      1.007947000000
    39 mop_tetramer.pdb_38       1 MOP      H39        1      0.302630007471      1.007947000000
    40 mop_tetramer.pdb_39       1 MOP      H40        1      0.044629998709      1.007947000000
    41 mop_tetramer.pdb_40       1 MOP      H41        1      0.044629998709      1.007947000000
    42 mop_tetramer.pdb_41       1 MOP      H42        1      0.044629998709      1.007947000000
    43 mop_tetramer.pdb_42       1 MOP      H43        1      0.143299997057      1.007947000000
    44 mop_tetramer.pdb_43       1 MOP      H44        1      0.155399993266      1.007947000000
    45 mop_tetramer.pdb_44       2 MOP      C45        1      0.673399985040     12.010780000000
    46 mop_tetramer.pdb_45       2 MOP      O46        1     -0.596840023791     15.999430000000
    47 mop_tetramer.pdb_46       2 MOP      C47        1     -0.142480000650     12.010780000000
    48 mop_tetramer.pdb_47       2 MOP      C48        1     -0.090029999410     12.010780000000
    49 mop_tetramer.pdb_48       2 MOP      C49        1     -0.128380000387     12.010780000000
    50 mop_tetramer.pdb_49       2 MOP      C50        1     -0.008819999901     12.010780000000
    51 mop_tetramer.pdb_50       2 MOP      C51        1     -0.076729997789     12.010780000000
    52 mop_tetramer.pdb_51       2 MOP      C52        1      0.006850000209     12.010780000000
    53 mop_tetramer.pdb_52       2 MOP      C53        1     -0.144679993187     12.010780000000
    54 mop_tetramer.pdb_53       2 MOP      C54        1      0.128739997948     12.010780000000
    55 mop_tetramer.pdb_54       2 MOP      O55        1     -0.326359987055     15.999430000000
    56 mop_tetramer.pdb_55       2 MOP      C56        1      0.113200001622     12.010780000000
    57 mop_tetramer.pdb_56       2 MOP      C57        1     -0.202690005099     12.010780000000
    58 mop_tetramer.pdb_57       2 MOP      C58        1     -0.082319997047     12.010780000000
    59 mop_tetramer.pdb_58       2 MOP      C59        1     -0.041370000486     12.010780000000
    60 mop_tetramer.pdb_59       2 MOP      C60        1     -0.105169996415     12.010780000000
    61 mop_tetramer.pdb_60       2 MOP      C61        1     -0.131970003043     12.010780000000
    62 mop_tetramer.pdb_61       2 MOP      C62        1     -0.111319996213     12.010780000000
    63 mop_tetramer.pdb_62       2 MOP      C63        1     -0.103820003365     12.010780000000
    64 mop_tetramer.pdb_63       2 MOP      C64        1     -0.108259998058     12.010780000000
    65 mop_tetramer.pdb_64       2 MOP      C65        1      0.150590002741     12.010780000000
    66 mop_tetramer.pdb_65       2 MOP      N66        1     -0.564589977061     14.006720000000
    67 mop_tetramer.pdb_66       2 MOP      C67        1     -0.112580001150     12.010780000000
    68 mop_tetramer.pdb_67       2 MOP      C68        1     -0.128380000387     12.010780000000
    69 mop_tetramer.pdb_68       2 MOP      C69        1     -0.090029999410     12.010780000000
    70 mop_tetramer.pdb_69       2 MOP      H70        1      0.148709997739      1.007947000000
    71 mop_tetramer.pdb_70       2 MOP      H71        1      0.138909995760      1.007947000000
    72 mop_tetramer.pdb_71       2 MOP      H72        1      0.157820001448      1.007947000000
    73 mop_tetramer.pdb_72       2 MOP      H73        1      0.045949999447      1.007947000000
    74 mop_tetramer.pdb_73       2 MOP      H74        1      0.045949999447      1.007947000000
    75 mop_tetramer.pdb_74       2 MOP      H75        1      0.045949999447      1.007947000000
    76 mop_tetramer.pdb_75       2 MOP      H76        1      0.141639992799      1.007947000000
    77 mop_tetramer.pdb_76       2 MOP      H77        1      0.141660005058      1.007947000000
    78 mop_tetramer.pdb_77       2 MOP      H78        1      0.137009993399      1.007947000000
    79 mop_tetramer.pdb_78       2 MOP      H79        1      0.139740005339      1.007947000000
    80 mop_tetramer.pdb_79       2 MOP      H80        1      0.141460001673      1.007947000000
    81 mop_tetramer.pdb_80       2 MOP      H81        1      0.136299997772      1.007947000000
    82 mop_tetramer.pdb_81       2 MOP      H82        1      0.084839999880      1.007947000000
    83 mop_tetramer.pdb_82       2 MOP      H83        1      0.311760008539      1.007947000000
    84 mop_tetramer.pdb_83       2 MOP      H84        1      0.046530001069      1.007947000000
    85 mop_tetramer.pdb_84       2 MOP      H85        1      0.046530001069      1.007947000000
    86 mop_tetramer.pdb_85       2 MOP      H86        1      0.046530001069      1.007947000000
    87 mop_tetramer.pdb_86       2 MOP      H87        1      0.138909995760      1.007947000000
    88 mop_tetramer.pdb_87       2 MOP      H88        1      0.148709997739      1.007947000000
    89 mop_tetramer.pdb_88       3 MOP      C89        1      0.675790012087     12.010780000000
    90 mop_tetramer.pdb_89       3 MOP      O90        1     -0.621439993178     15.999430000000
    91 mop_tetramer.pdb_90       3 MOP      C91        1     -0.142299994622     12.010780000000
    92 mop_tetramer.pdb_91       3 MOP      C92        1     -0.096309996937     12.010780000000
    93 mop_tetramer.pdb_92       3 MOP      C93        1     -0.128069996630     12.010780000000
    94 mop_tetramer.pdb_93       3 MOP      C94        1     -0.004699999728     12.010780000000
    95 mop_tetramer.pdb_94       3 MOP      C95        1     -0.077840000187     12.010780000000
    96 mop_tetramer.pdb_95       3 MOP      C96        1      0.008960000443     12.010780000000
    97 mop_tetramer.pdb_96       3 MOP      C97        1     -0.148530006205     12.010780000000
    98 mop_tetramer.pdb_97       3 MOP      C98        1      0.128429994191     12.010780000000
    99 mop_tetramer.pdb_98       3 MOP      O99        1     -0.327899992262     15.999430000000
   100 mop_tetramer.pdb_99       3 MOP      C100       1      0.112920001353     12.010780000000
   101 mop_tetramer.pdb_100       3 MOP      C101       1     -0.200069993530     12.010780000000
   102 mop_tetramer.pdb_101       3 MOP      C102       1     -0.080430000817     12.010780000000
   103 mop_tetramer.pdb_102       3 MOP      C103       1     -0.045389998500     12.010780000000
   104 mop_tetramer.pdb_103       3 MOP      C104       1     -0.109260000085     12.010780000000
   105 mop_tetramer.pdb_104       3 MOP      C105       1     -0.134350001608     12.010780000000
   106 mop_tetramer.pdb_105       3 MOP      C106       1     -0.102190002595     12.010780000000
   107 mop_tetramer.pdb_106       3 MOP      C107       1     -0.109559997712     12.010780000000
   108 mop_tetramer.pdb_107       3 MOP      C108       1     -0.103619999980     12.010780000000
   109 mop_tetramer.pdb_108       3 MOP      C109       1      0.149200007523     12.010780000000
   110 mop_tetramer.pdb_109       3 MOP      N110       1     -0.567160010134     14.006720000000
   111 mop_tetramer.pdb_110       3 MOP      C111       1     -0.102779999171     12.010780000000
   112 mop_tetramer.pdb_111       3 MOP      C112       1     -0.128069996630     12.010780000000
   113 mop_tetramer.pdb_112       3 MOP      C113       1     -0.096309996937     12.010780000000
   114 mop_tetramer.pdb_113       3 MOP      H114       1      0.148609996046      1.007947000000
   115 mop_tetramer.pdb_114       3 MOP      H115       1      0.143069997634      1.007947000000
   116 mop_tetramer.pdb_115       3 MOP      H116       1      0.155980006064      1.007947000000
   117 mop_tetramer.pdb_116       3 MOP      H117       1      0.046280000563      1.007947000000
   118 mop_tetramer.pdb_117       3 MOP      H118       1      0.046280000563      1.007947000000
   119 mop_tetramer.pdb_118       3 MOP      H119       1      0.046280000563      1.007947000000
   120 mop_tetramer.pdb_119       3 MOP      H120       1      0.142700001801      1.007947000000
   121 mop_tetramer.pdb_120       3 MOP      H121       1      0.140119999851      1.007947000000
   122 mop_tetramer.pdb_121       3 MOP      H122       1      0.134509995784      1.007947000000
   123 mop_tetramer.pdb_122       3 MOP      H123       1      0.133629992808      1.007947000000
   124 mop_tetramer.pdb_123       3 MOP      H124       1      0.142289996351      1.007947000000
   125 mop_tetramer.pdb_124       3 MOP      H125       1      0.132339999284      1.007947000000
   126 mop_tetramer.pdb_125       3 MOP      H126       1      0.087099999393      1.007947000000
   127 mop_tetramer.pdb_126       3 MOP      H127       1      0.308230012859      1.007947000000
   128 mop_tetramer.pdb_127       3 MOP      H128       1      0.044250000472      1.007947000000
   129 mop_tetramer.pdb_128       3 MOP      H129       1      0.044250000472      1.007947000000
   130 mop_tetramer.pdb_129       3 MOP      H130       1      0.044250000472      1.007947000000
   131 mop_tetramer.pdb_130       3 MOP      H131       1      0.143069997634      1.007947000000
   132 mop_tetramer.pdb_131       3 MOP      H132       1      0.148609996046      1.007947000000
   133 mop_tetramer.pdb_132       4 MOP      C133       1      0.677030027117     12.010780000000
   134 mop_tetramer.pdb_133       4 MOP      O134       1     -0.604149997030     15.999430000000
   135 mop_tetramer.pdb_134       4 MOP      C135       1     -0.144620001112     12.010780000000
   136 mop_tetramer.pdb_135       4 MOP      C136       1     -0.091820001398     12.010780000000
   137 mop_tetramer.pdb_136       4 MOP      C137       1     -0.125670000707     12.010780000000
   138 mop_tetramer.pdb_137       4 MOP      C138       1     -0.007559999620     12.010780000000
   139 mop_tetramer.pdb_138       4 MOP      C139       1     -0.076600000058     12.010780000000
   140 mop_tetramer.pdb_139       4 MOP      C140       1      0.010649999808     12.010780000000
   141 mop_tetramer.pdb_140       4 MOP      C141       1     -0.145309999381     12.010780000000
   142 mop_tetramer.pdb_141       4 MOP      C142       1      0.126670003141     12.010780000000
   143 mop_tetramer.pdb_142       4 MOP      O143       1     -0.325850009714     15.999430000000
   144 mop_tetramer.pdb_143       4 MOP      C144       1      0.112829998339     12.010780000000
   145 mop_tetramer.pdb_144       4 MOP      C145       1     -0.204009994661     12.010780000000
   146 mop_tetramer.pdb_145       4 MOP      C146       1     -0.082730002497     12.010780000000
   147 mop_tetramer.pdb_146       4 MOP      C147       1     -0.048730000650     12.010780000000
   148 mop_tetramer.pdb_147       4 MOP      C148       1     -0.097979999875     12.010780000000
   149 mop_tetramer.pdb_148       4 MOP      C149       1     -0.120470002090     12.010780000000
   150 mop_tetramer.pdb_149       4 MOP      C150       1     -0.111100002919     12.010780000000
   151 mop_tetramer.pdb_150       4 MOP      C151       1     -0.111429996585     12.010780000000
   152 mop_tetramer.pdb_151       4 MOP      C152       1     -0.111639998649     12.010780000000
   153 mop_tetramer.pdb_152       4 MOP      C153       1      0.163719997014     12.010780000000
   154 mop_tetramer.pdb_153       4 MOP      N154       1     -0.555050015246     14.006720000000
   155 mop_tetramer.pdb_154       4 MOP      C155       1     -0.114859998022     12.010780000000
   156 mop_tetramer.pdb_155       4 MOP      C156       1     -0.125670000707     12.010780000000
   157 mop_tetramer.pdb_156       4 MOP      C157       1     -0.091820001398     12.010780000000
   158 mop_tetramer.pdb_157       4 MOP      H158       1      0.146259993519      1.007947000000
   159 mop_tetramer.pdb_158       4 MOP      H159       1      0.142299995030      1.007947000000
   160 mop_tetramer.pdb_159       4 MOP      H160       1      0.157940000500      1.007947000000
   161 mop_tetramer.pdb_160       4 MOP      H161       1      0.045310002024      1.007947000000
   162 mop_tetramer.pdb_161       4 MOP      H162       1      0.045310002024      1.007947000000
   163 mop_tetramer.pdb_162       4 MOP      H163       1      0.045310002024      1.007947000000
   164 mop_tetramer.pdb_163       4 MOP      H164       1      0.140320003237      1.007947000000
   165 mop_tetramer.pdb_164       4 MOP      H165       1      0.140560001339      1.007947000000
   166 mop_tetramer.pdb_165       4 MOP      H166       1      0.145500004495      1.007947000000
   167 mop_tetramer.pdb_166       4 MOP      H167       1      0.163000002707      1.007947000000
   168 mop_tetramer.pdb_167       4 MOP      H168       1      0.136309996451      1.007947000000
   169 mop_tetramer.pdb_168       4 MOP      H169       1      0.131469994987      1.007947000000
   170 mop_tetramer.pdb_169       4 MOP      H170       1      0.079599999095      1.007947000000
   171 mop_tetramer.pdb_170       4 MOP      H171       1      0.327670008148      1.007947000000
   172 mop_tetramer.pdb_171       4 MOP      H172       1      0.046900000627      1.007947000000
   173 mop_tetramer.pdb_172       4 MOP      H173       1      0.046900000627      1.007947000000
   174 mop_tetramer.pdb_173       4 MOP      H174       1      0.046900000627      1.007947000000
   175 mop_tetramer.pdb_174       4 MOP      H175       1      0.142299995030      1.007947000000
   176 mop_tetramer.pdb_175       4 MOP      H176       1      0.146259993519      1.007947000000
   177 mop_tetramer.pdb_176       5 CAP      C177       1      0.124399997498     12.010780000000
   178 mop_tetramer.pdb_177       5 CAP      O178       1     -0.427940010821     15.999430000000
   179 mop_tetramer.pdb_178       5 CAP      H179       1      0.050459999795      1.007947000000
   180 mop_tetramer.pdb_179       5 CAP      H180       1      0.050459999795      1.007947000000
   181 mop_tetramer.pdb_180       5 CAP      H181       1      0.050459999795      1.007947000000
   182 mop_tetramer.pdb_181       6 CAP      C182       1     -0.113300002907     12.010780000000
   183 mop_tetramer.pdb_182       6 CAP      C183       1      0.185369998421     12.010780000000
   184 mop_tetramer.pdb_183       6 CAP      C184       1     -0.113300002907     12.010780000000
   185 mop_tetramer.pdb_184       6 CAP      C185       1     -0.113300002907     12.010780000000
   186 mop_tetramer.pdb_185       6 CAP      O186       1     -0.452529996430     15.999430000000
   187 mop_tetramer.pdb_186       6 CAP      C187       1      0.748690009321     12.010780000000
   188 mop_tetramer.pdb_187       6 CAP      O188       1     -0.606589972769     15.999430000000
   189 mop_tetramer.pdb_188       6 CAP      H189       1      0.051229998673      1.007947000000
   190 mop_tetramer.pdb_189       6 CAP      H190       1      0.051229998673      1.007947000000
   191 mop_tetramer.pdb_190       6 CAP      H191       1      0.051229998673      1.007947000000
   192 mop_tetramer.pdb_191       6 CAP      H192       1      0.051229998673      1.007947000000
   193 mop_tetramer.pdb_192       6 CAP      H193       1      0.051229998673      1.007947000000
   194 mop_tetramer.pdb_193       6 CAP      H194       1      0.051229998673      1.007947000000
   195 mop_tetramer.pdb_194       6 CAP      H195       1      0.051229998673      1.007947000000
   196 mop_tetramer.pdb_195       6 CAP      H196       1      0.051229998673      1.007947000000
   197 mop_tetramer.pdb_196       6 CAP      H197       1      0.051229998673      1.007947000000

[ pairs ]
;ai    aj   funct
    62	    67	     1
   136	   176	     1
   139	   142	     1
   110	   128	     1
   148	   168	     1
    97	   120	     1
    97	   104	     1
   107	   129	     1
   142	   162	     1
    20	    23	     1
    62	    81	     1
   109	   125	     1
    98	   121	     1
    93	   113	     1
    51	    76	     1
    47	    71	     1
    46	    69	     1
   153	   169	     1
     9	    14	     1
    70	    71	     1
     4	    24	     1
    98	   103	     1
     1	    44	     1
   140	   165	     1
     7	    16	     1
    26	    27	     1
     1	   181	     1
    51	    87	     1
   153	   168	     1
    10	    15	     1
    61	    65	     1
   186	   192	     1
     9	    16	     1
   107	   128	     1
   138	   145	     1
    98	   117	     1
   101	   116	     1
     8	    17	     1
    16	    36	     1
    50	    57	     1
    96	   125	     1
    64	    80	     1
    51	    54	     1
    65	    81	     1
   137	   157	     1
    64	    66	     1
   149	   152	     1
     8	    34	     1
    52	    78	     1
    92	   112	     1
   154	   183	     1
    92	   132	     1
   151	   171	     1
   150	   154	     1
    39	    47	     1
    14	    15	     1
    94	   132	     1
   100	   101	     1
    96	   122	     1
   106	   122	     1
     8	    37	     1
   104	   107	     1
    59	    79	     1
   108	   126	     1
   114	   115	     1
   110	   136	     1
   185	   190	     1
    51	    60	     1
    49	    87	     1
   155	   171	     1
    94	    97	     1
    98	   118	     1
   134	   136	     1
    58	    68	     1
    65	    91	     1
   111	   133	     1
     9	    12	     1
   126	   133	     1
    78	    79	     1
   151	   167	     1
    15	    18	     1
   142	   163	     1
    50	    59	     1
   140	   166	     1
   113	   114	     1
   137	   140	     1
    76	    77	     1
    67	    89	     1
   186	   189	     1
    25	    26	     1
     6	     9	     1
   139	   160	     1
    18	    34	     1
    16	    19	     1
    47	    50	     1
    97	   108	     1
   170	   187	     1
    38	    41	     1
    52	    57	     1
   147	   153	     1
    34	    35	     1
    52	    63	     1
   186	   194	     1
    22	    69	     1
    53	    76	     1
    38	    42	     1
   131	   132	     1
    25	   178	     1
    11	    28	     1
    59	    72	     1
   103	   106	     1
     4	   178	     1
    51	    64	     1
    46	    48	     1
    89	   114	     1
   143	   164	     1
   109	   135	     1
   127	   135	     1
    96	   107	     1
     6	    15	     1
    24	    27	     1
    79	    80	     1
    54	    73	     1
   151	   174	     1
   108	   110	     1
    21	    36	     1
   170	   172	     1
   139	   152	     1
   184	   197	     1
   186	   196	     1
   150	   155	     1
    96	    99	     1
    54	    75	     1
    21	    47	     1
    51	    69	     1
    50	    70	     1
    10	    33	     1
    47	    87	     1
     5	    43	     1
   139	   159	     1
    10	    29	     1
   170	   173	     1
    53	    60	     1
    97	   102	     1
   152	   168	     1
    96	   101	     1
     1	   180	     1
     5	    14	     1
    23	    45	     1
    49	    52	     1
    55	    72	     1
    48	    88	     1
   108	   122	     1
     8	    24	     1
    22	    41	     1
    54	    59	     1
    45	    68	     1
   154	   172	     1
   184	   195	     1
   141	   146	     1
    22	    42	     1
     3	     6	     1
   110	   130	     1
   105	   109	     1
   142	   165	     1
    93	   102	     1
   133	   137	     1
    18	    23	     1
    60	    80	     1
    38	    39	     1
     8	    33	     1
   107	   133	     1
   111	   127	     1
   139	   175	     1
   183	   188	     1
    63	    85	     1
   182	   197	     1
    69	    70	     1
   153	   188	     1
   126	   127	     1
   171	   188	     1
    64	    78	     1
    20	    38	     1
    10	    30	     1
    22	    48	     1
    91	    94	     1
    53	    64	     1
   186	   191	     1
    16	    37	     1
    52	    61	     1
   186	   190	     1
   106	   111	     1
    52	    77	     1
     5	     8	     1
   107	   130	     1
    39	    46	     1
     2	   177	     1
    93	    96	     1
     4	    44	     1
   170	   171	     1
    19	    41	     1
    66	    84	     1
    38	    40	     1
   126	   129	     1
   137	   146	     1
    19	    42	     1
    55	    76	     1
   152	   166	     1
    53	    58	     1
     6	    33	     1
   140	   145	     1
   138	   147	     1
   147	   167	     1
    63	    86	     1
   186	   193	     1
   146	   156	     1
    52	    55	     1
    19	    45	     1
    89	    93	     1
    63	    89	     1
    62	    66	     1
    20	    34	     1
   137	   175	     1
   182	   195	     1
    82	    85	     1
   126	   128	     1
   184	   191	     1
    56	    57	     1
    20	    22	     1
    54	    74	     1
    50	    53	     1
   156	   159	     1
   140	   149	     1
   142	   147	     1
   103	   123	     1
    66	    85	     1
    66	    92	     1
   140	   156	     1
    11	    32	     1
    58	    59	     1
   167	   168	     1
   147	   160	     1
    45	    70	     1
    65	    90	     1
     7	    20	     1
     1	   179	     1
   136	   139	     1
    96	   105	     1
     1	     5	     1
    64	    67	     1
   106	   126	     1
    95	   131	     1
     9	    20	     1
    82	    86	     1
   135	   159	     1
     7	    28	     1
     6	    26	     1
    97	   100	     1
   104	   124	     1
   140	   143	     1
    94	   114	     1
     4	     7	     1
   141	   152	     1
   184	   189	     1
   170	   174	     1
    87	    88	     1
    22	    40	     1
    14	    24	     1
    82	    89	     1
    21	    37	     1
    21	    46	     1
    94	   121	     1
   182	   192	     1
    91	   131	     1
    50	    88	     1
    57	    72	     1
     2	    25	     1
    50	    77	     1
    66	    86	     1
   139	   164	     1
    94	   103	     1
    63	    84	     1
    99	   102	     1
   184	   187	     1
   138	   165	     1
   139	   148	     1
    99	   120	     1
     7	    25	     1
    67	    83	     1
   153	   186	     1
   171	   186	     1
   107	   127	     1
   138	   141	     1
   143	   146	     1
    11	    14	     1
   109	   124	     1
    59	    62	     1
   122	   123	     1
   108	   111	     1
    95	   113	     1
   149	   153	     1
    99	   116	     1
   184	   196	     1
    64	    82	     1
    49	    69	     1
   135	   175	     1
    49	    58	     1
   142	   161	     1
    91	   115	     1
   152	   170	     1
   123	   124	     1
   140	   169	     1
   145	   160	     1
     2	     4	     1
   154	   174	     1
   106	   110	     1
    19	    40	     1
   105	   108	     1
    35	    36	     1
    83	    90	     1
    59	    65	     1
    95	   120	     1
    95	   104	     1
   158	   159	     1
   182	   193	     1
   112	   115	     1
   107	   123	     1
    45	    49	     1
    55	    58	     1
   154	   173	     1
    82	    84	     1
     3	   177	     1
    89	   112	     1
    82	    83	     1
    89	   132	     1
    95	   116	     1
   166	   167	     1
   103	   116	     1
   182	   194	     1
     3	    27	     1
   102	   112	     1
   106	   125	     1
   144	   145	     1
   185	   192	     1
   150	   169	     1
   182	   187	     1
    62	    82	     1
    19	    35	     1
    96	   112	     1
    18	    38	     1
    95	    98	     1
   120	   121	     1
    90	    92	     1
     1	    26	     1
    51	    71	     1
    98	   119	     1
     7	    27	     1
    12	    13	     1
   135	   138	     1
    92	    95	     1
   152	   155	     1
    54	    77	     1
   143	   160	     1
   185	   191	     1
    23	    39	     1
   182	   196	     1
    48	    68	     1
   146	   147	     1
   175	   176	     1
    62	    78	     1
   148	   151	     1
    60	    63	     1
    17	    21	     1
   184	   190	     1
     6	    44	     1
   150	   170	     1
   147	   150	     1
   138	   158	     1
   164	   165	     1
    17	    20	     1
   151	   187	     1
   186	   197	     1
    15	    21	     1
   138	   176	     1
   140	   151	     1
    20	    36	     1
   185	   193	     1
   109	   134	     1
   127	   134	     1
   110	   157	     1
    48	    51	     1
   126	   130	     1
    65	    80	     1
     8	    13	     1
   155	   187	     1
    52	    68	     1
   133	   156	     1
    45	    88	     1
    18	    22	     1
    68	    71	     1
     8	    19	     1
   185	   189	     1
    61	    64	     1
    63	    79	     1
    90	   113	     1
    15	    28	     1
   134	   157	     1
    32	    33	     1
    60	    81	     1
    18	    37	     1
    95	   108	     1
   103	   109	     1
   133	   158	     1
    51	    72	     1
   151	   172	     1
   185	   194	     1
   141	   144	     1
     7	    32	     1
   133	   176	     1
   185	   187	     1
    38	    45	     1
   150	   166	     1
     8	    11	     1
    93	   131	     1
     3	    43	     1
     9	    32	     1
    15	    35	     1
   110	   129	     1
   108	   124	     1
     1	    24	     1
   152	   154	     1
     5	    25	     1
    63	    83	     1
    19	    39	     1
   186	   195	     1
   141	   164	     1
   104	   125	     1
   151	   173	     1
   136	   156	     1
     6	    13	     1
    94	   101	     1
   141	   148	     1
    95	   115	     1
    52	    81	     1
    10	    31	     1
    66	   113	     1
   157	   158	     1
   102	   103	     1
    53	    56	     1
     7	    43	     1
    96	   121	     1
     7	    10	     1
   139	   157	     1
   148	   169	     1
    83	    91	     1
    43	    44	     1
    13	    28	     1

[ bonds ]
;ai    aj   funct r k
     1      2      1      0.122519838622  487602.327766196802 
     1      3      1      0.145462892503  233580.248617646750 
     1    178      1      0.134574123280  252005.673256632901 
     3      4      1      0.138719322718  301905.092578520998 
     3     25      1      0.138719322718  301905.092578520998 
     4      5      1      0.138719322718  301905.092578520998 
     4     26      1      0.108535849592  332422.631675317942 
     5      6      1      0.138719322718  301905.092578520998 
     5     27      1      0.108535849592  332422.631675317942 
     6      7      1      0.145462892503  233580.248617646750 
     6     24      1      0.138719322718  301905.092578520998 
     7      8      1      0.138719322718  301905.092578520998 
     7     14      1      0.138719322718  301905.092578520998 
     8      9      1      0.138719322718  301905.092578520998 
     8     15      1      0.145462892503  233580.248617646750 
     9     10      1      0.138719322718  301905.092578520998 
     9     28      1      0.108535849592  332422.631675317942 
    10     11      1      0.136294580649  356218.264001121745 
    10     13      1      0.138719322718  301905.092578520998 
    11     12      1      0.142589505373  306888.771877388994 
    12     29      1      0.109389949263  309655.084322414012 
    12     30      1      0.109389949263  309655.084322414012 
    12     31      1      0.109389949263  309655.084322414012 
    13     14      1      0.138719322718  301905.092578520998 
    13     32      1      0.108535849592  332422.631675317942 
    14     33      1      0.108535849592  332422.631675317942 
    15     16      1      0.138719322718  301905.092578520998 
    15     20      1      0.138719322718  301905.092578520998 
    16     17      1      0.138719322718  301905.092578520998 
    16     34      1      0.108535849592  332422.631675317942 
    17     18      1      0.138719322718  301905.092578520998 
    17     35      1      0.108535849592  332422.631675317942 
    18     19      1      0.138719322718  301905.092578520998 
    18     36      1      0.108535849592  332422.631675317942 
    19     20      1      0.138719322718  301905.092578520998 
    19     21      1      0.149864681646  242452.869388089370 
    20     37      1      0.108535849592  332422.631675317942 
    21     22      1      0.145009858627  294600.927775905351 
    21     23      1      0.152190126495  221435.259290285845 
    21     38      1      0.109389949263  309655.084322414012 
    22     39      1      0.101948186503  422704.914414302446 
    22     45      1      0.138189777668  412347.817359175009 
    23     40      1      0.109389949263  309655.084322414012 
    23     41      1      0.109389949263  309655.084322414012 
    23     42      1      0.109389949263  309655.084322414012 
    24     25      1      0.138719322718  301905.092578520998 
    24     43      1      0.108535849592  332422.631675317942 
    25     44      1      0.108535849592  332422.631675317942 
    45     46      1      0.122519838622  487602.327766196802 
    45     47      1      0.145462892503  233580.248617646750 
    47     48      1      0.138719322718  301905.092578520998 
    47     69      1      0.138719322718  301905.092578520998 
    48     49      1      0.138719322718  301905.092578520998 
    48     70      1      0.108535849592  332422.631675317942 
    49     50      1      0.138719322718  301905.092578520998 
    49     71      1      0.108535849592  332422.631675317942 
    50     51      1      0.145462892503  233580.248617646750 
    50     68      1      0.138719322718  301905.092578520998 
    51     52      1      0.138719322718  301905.092578520998 
    51     58      1      0.138719322718  301905.092578520998 
    52     53      1      0.138719322718  301905.092578520998 
    52     59      1      0.145462892503  233580.248617646750 
    53     54      1      0.138719322718  301905.092578520998 
    53     72      1      0.108535849592  332422.631675317942 
    54     55      1      0.136294580649  356218.264001121745 
    54     57      1      0.138719322718  301905.092578520998 
    55     56      1      0.142589505373  306888.771877388994 
    56     73      1      0.109389949263  309655.084322414012 
    56     74      1      0.109389949263  309655.084322414012 
    56     75      1      0.109389949263  309655.084322414012 
    57     58      1      0.138719322718  301905.092578520998 
    57     76      1      0.108535849592  332422.631675317942 
    58     77      1      0.108535849592  332422.631675317942 
    59     60      1      0.138719322718  301905.092578520998 
    59     64      1      0.138719322718  301905.092578520998 
    60     61      1      0.138719322718  301905.092578520998 
    60     78      1      0.108535849592  332422.631675317942 
    61     62      1      0.138719322718  301905.092578520998 
    61     79      1      0.108535849592  332422.631675317942 
    62     63      1      0.138719322718  301905.092578520998 
    62     80      1      0.108535849592  332422.631675317942 
    63     64      1      0.138719322718  301905.092578520998 
    63     65      1      0.149864681646  242452.869388089370 
    64     81      1      0.108535849592  332422.631675317942 
    65     66      1      0.145009858627  294600.927775905351 
    65     67      1      0.152190126495  221435.259290285845 
    65     82      1      0.109389949263  309655.084322414012 
    66     83      1      0.101948186503  422704.914414302446 
    66     89      1      0.138189777668  412347.817359175009 
    67     84      1      0.109389949263  309655.084322414012 
    67     85      1      0.109389949263  309655.084322414012 
    67     86      1      0.109389949263  309655.084322414012 
    68     69      1      0.138719322718  301905.092578520998 
    68     87      1      0.108535849592  332422.631675317942 
    69     88      1      0.108535849592  332422.631675317942 
    89     90      1      0.122519838622  487602.327766196802 
    89     91      1      0.145462892503  233580.248617646750 
    91     92      1      0.138719322718  301905.092578520998 
    91    113      1      0.138719322718  301905.092578520998 
    92     93      1      0.138719322718  301905.092578520998 
    92    114      1      0.108535849592  332422.631675317942 
    93     94      1      0.138719322718  301905.092578520998 
    93    115      1      0.108535849592  332422.631675317942 
    94     95      1      0.145462892503  233580.248617646750 
    94    112      1      0.138719322718  301905.092578520998 
    95     96      1      0.138719322718  301905.092578520998 
    95    102      1      0.138719322718  301905.092578520998 
    96     97      1      0.138719322718  301905.092578520998 
    96    103      1      0.145462892503  233580.248617646750 
    97     98      1      0.138719322718  301905.092578520998 
    97    116      1      0.108535849592  332422.631675317942 
    98     99      1      0.136294580649  356218.264001121745 
    98    101      1      0.138719322718  301905.092578520998 
    99    100      1      0.142589505373  306888.771877388994 
   100    117      1      0.109389949263  309655.084322414012 
   100    118      1      0.109389949263  309655.084322414012 
   100    119      1      0.109389949263  309655.084322414012 
   101    102      1      0.138719322718  301905.092578520998 
   101    120      1      0.108535849592  332422.631675317942 
   102    121      1      0.108535849592  332422.631675317942 
   103    104      1      0.138719322718  301905.092578520998 
   103    108      1      0.138719322718  301905.092578520998 
   104    105      1      0.138719322718  301905.092578520998 
   104    122      1      0.108535849592  332422.631675317942 
   105    106      1      0.138719322718  301905.092578520998 
   105    123      1      0.108535849592  332422.631675317942 
   106    107      1      0.138719322718  301905.092578520998 
   106    124      1      0.108535849592  332422.631675317942 
   107    108      1      0.138719322718  301905.092578520998 
   107    109      1      0.149864681646  242452.869388089370 
   108    125      1      0.108535849592  332422.631675317942 
   109    110      1      0.145009858627  294600.927775905351 
   109    111      1      0.152190126495  221435.259290285845 
   109    126      1      0.109389949263  309655.084322414012 
   110    127      1      0.101948186503  422704.914414302446 
   110    133      1      0.138189777668  412347.817359175009 
   111    128      1      0.109389949263  309655.084322414012 
   111    129      1      0.109389949263  309655.084322414012 
   111    130      1      0.109389949263  309655.084322414012 
   112    113      1      0.138719322718  301905.092578520998 
   112    131      1      0.108535849592  332422.631675317942 
   113    132      1      0.108535849592  332422.631675317942 
   133    134      1      0.122519838622  487602.327766196802 
   133    135      1      0.145462892503  233580.248617646750 
   135    136      1      0.138719322718  301905.092578520998 
   135    157      1      0.138719322718  301905.092578520998 
   136    137      1      0.138719322718  301905.092578520998 
   136    158      1      0.108535849592  332422.631675317942 
   137    138      1      0.138719322718  301905.092578520998 
   137    159      1      0.108535849592  332422.631675317942 
   138    139      1      0.145462892503  233580.248617646750 
   138    156      1      0.138719322718  301905.092578520998 
   139    140      1      0.138719322718  301905.092578520998 
   139    146      1      0.138719322718  301905.092578520998 
   140    141      1      0.138719322718  301905.092578520998 
   140    147      1      0.145462892503  233580.248617646750 
   141    142      1      0.138719322718  301905.092578520998 
   141    160      1      0.108535849592  332422.631675317942 
   142    143      1      0.136294580649  356218.264001121745 
   142    145      1      0.138719322718  301905.092578520998 
   143    144      1      0.142589505373  306888.771877388994 
   144    161      1      0.109389949263  309655.084322414012 
   144    162      1      0.109389949263  309655.084322414012 
   144    163      1      0.109389949263  309655.084322414012 
   145    146      1      0.138719322718  301905.092578520998 
   145    164      1      0.108535849592  332422.631675317942 
   146    165      1      0.108535849592  332422.631675317942 
   147    148      1      0.138719322718  301905.092578520998 
   147    152      1      0.138719322718  301905.092578520998 
   148    149      1      0.138719322718  301905.092578520998 
   148    166      1      0.108535849592  332422.631675317942 
   149    150      1      0.138719322718  301905.092578520998 
   149    167      1      0.108535849592  332422.631675317942 
   150    151      1      0.138719322718  301905.092578520998 
   150    168      1      0.108535849592  332422.631675317942 
   151    152      1      0.138719322718  301905.092578520998 
   151    153      1      0.149864681646  242452.869388089370 
   152    169      1      0.108535849592  332422.631675317942 
   153    154      1      0.145009858627  294600.927775905351 
   153    155      1      0.152190126495  221435.259290285845 
   153    170      1      0.109389949263  309655.084322414012 
   154    171      1      0.101948186503  422704.914414302446 
   154    187      1      0.138189777668  412347.817359175009 
   155    172      1      0.109389949263  309655.084322414012 
   155    173      1      0.109389949263  309655.084322414012 
   155    174      1      0.109389949263  309655.084322414012 
   156    157      1      0.138719322718  301905.092578520998 
   156    175      1      0.108535849592  332422.631675317942 
   157    176      1      0.108535849592  332422.631675317942 
   177    178      1      0.142589505373  306888.771877388994 
   177    179      1      0.109389949263  309655.084322414012 
   177    180      1      0.109389949263  309655.084322414012 
   177    181      1      0.109389949263  309655.084322414012 
   182    183      1      0.152190126495  221435.259290285845 
   182    189      1      0.109389949263  309655.084322414012 
   182    190      1      0.109389949263  309655.084322414012 
   182    191      1      0.109389949263  309655.084322414012 
   183    184      1      0.152190126495  221435.259290285845 
   183    185      1      0.152190126495  221435.259290285845 
   183    186      1      0.142589505373  306888.771877388994 
   184    192      1      0.109389949263  309655.084322414012 
   184    193      1      0.109389949263  309655.084322414012 
   184    194      1      0.109389949263  309655.084322414012 
   185    195      1      0.109389949263  309655.084322414012 
   185    196      1      0.109389949263  309655.084322414012 
   185    197      1      0.109389949263  309655.084322414012 
   186    187      1      0.134574123280  252005.673256632901 
   187    188      1      0.122519838622  487602.327766196802 

[ angles ]
;ai    aj   ak   funct theta  k
     1      3      4      1     126.806242045100     484.492885493347 
     1      3     25      1     126.806242045100     484.492885493347 
     1    178    177      1     110.353880618100     544.678275491328 
     2      1      3      1     126.806242045100     484.492885493347 
     2      1    178      1     127.469141619100    1685.413543333009 
     3      1    178      1     126.806242045100     484.492885493347 
     3      4      5      1     126.806242045100     484.492885493347 
     3      4     26      1     129.183592992600     285.070774532144 
     3     25     24      1     126.806242045100     484.492885493347 
     3     25     44      1     129.183592992600     285.070774532144 
     4      3     25      1     126.806242045100     484.492885493347 
     4      5      6      1     126.806242045100     484.492885493347 
     4      5     27      1     129.183592992600     285.070774532144 
     5      4     26      1     129.183592992600     285.070774532144 
     5      6      7      1     126.806242045100     484.492885493347 
     5      6     24      1     126.806242045100     484.492885493347 
     6      5     27      1     129.183592992600     285.070774532144 
     6      7      8      1     126.806242045100     484.492885493347 
     6      7     14      1     126.806242045100     484.492885493347 
     6     24     25      1     126.806242045100     484.492885493347 
     6     24     43      1     129.183592992600     285.070774532144 
     7      6     24      1     126.806242045100     484.492885493347 
     7      8      9      1     126.806242045100     484.492885493347 
     7      8     15      1     126.806242045100     484.492885493347 
     7     14     13      1     126.806242045100     484.492885493347 
     7     14     33      1     129.183592992600     285.070774532144 
     8      7     14      1     126.806242045100     484.492885493347 
     8      9     10      1     126.806242045100     484.492885493347 
     8      9     28      1     129.183592992600     285.070774532144 
     8     15     16      1     126.806242045100     484.492885493347 
     8     15     20      1     126.806242045100     484.492885493347 
     9      8     15      1     126.806242045100     484.492885493347 
     9     10     11      1     126.806242045100     484.492885493347 
     9     10     13      1     126.806242045100     484.492885493347 
    10      9     28      1     129.183592992600     285.070774532144 
    10     11     12      1     110.353880618100     544.678275491328 
    10     13     14      1     126.806242045100     484.492885493347 
    10     13     32      1     129.183592992600     285.070774532144 
    11     10     13      1     126.806242045100     484.492885493347 
    11     12     29      1     116.547586263400     445.222086509286 
    11     12     30      1     116.547586263400     445.222086509286 
    11     12     31      1     116.547586263400     445.222086509286 
    13     14     33      1     129.183592992600     285.070774532144 
    14     13     32      1     129.183592992600     285.070774532144 
    15     16     17      1     126.806242045100     484.492885493347 
    15     16     34      1     129.183592992600     285.070774532144 
    15     20     19      1     126.806242045100     484.492885493347 
    15     20     37      1     129.183592992600     285.070774532144 
    16     15     20      1     126.806242045100     484.492885493347 
    16     17     18      1     126.806242045100     484.492885493347 
    16     17     35      1     129.183592992600     285.070774532144 
    17     16     34      1     129.183592992600     285.070774532144 
    17     18     19      1     126.806242045100     484.492885493347 
    17     18     36      1     129.183592992600     285.070774532144 
    18     17     35      1     129.183592992600     285.070774532144 
    18     19     20      1     126.806242045100     484.492885493347 
    18     19     21      1     126.806242045100     484.492885493347 
    19     18     36      1     129.183592992600     285.070774532144 
    19     20     37      1     129.183592992600     285.070774532144 
    19     21     22      1     116.547586263400     445.222086509286 
    19     21     23      1     116.547586263400     445.222086509286 
    19     21     38      1     116.547586263400     445.222086509286 
    20     19     21      1     126.806242045100     484.492885493347 
    21     22     39      1     115.507132767400     530.901282784327 
    21     22     45      1     117.346557051400     463.769802376852 
    21     23     40      1     116.547586263400     445.222086509286 
    21     23     41      1     116.547586263400     445.222086509286 
    21     23     42      1     116.547586263400     445.222086509286 
    22     21     23      1     116.547586263400     445.222086509286 
    22     21     38      1     116.547586263400     445.222086509286 
    22     45     46      1     126.806242045100     484.492885493347 
    22     45     47      1     126.806242045100     484.492885493347 
    23     21     38      1     116.547586263400     445.222086509286 
    24     25     44      1     129.183592992600     285.070774532144 
    25     24     43      1     129.183592992600     285.070774532144 
    29     12     30      1     115.603099953300     408.161690475075 
    29     12     31      1     115.603099953300     408.161690475075 
    30     12     31      1     115.603099953300     408.161690475075 
    39     22     45      1     115.507132767400     530.901282784327 
    40     23     41      1     115.603099953300     408.161690475075 
    40     23     42      1     115.603099953300     408.161690475075 
    41     23     42      1     115.603099953300     408.161690475075 
    45     47     48      1     126.806242045100     484.492885493347 
    45     47     69      1     126.806242045100     484.492885493347 
    46     45     47      1     126.806242045100     484.492885493347 
    47     48     49      1     126.806242045100     484.492885493347 
    47     48     70      1     129.183592992600     285.070774532144 
    47     69     68      1     126.806242045100     484.492885493347 
    47     69     88      1     129.183592992600     285.070774532144 
    48     47     69      1     126.806242045100     484.492885493347 
    48     49     50      1     126.806242045100     484.492885493347 
    48     49     71      1     129.183592992600     285.070774532144 
    49     48     70      1     129.183592992600     285.070774532144 
    49     50     51      1     126.806242045100     484.492885493347 
    49     50     68      1     126.806242045100     484.492885493347 
    50     49     71      1     129.183592992600     285.070774532144 
    50     51     52      1     126.806242045100     484.492885493347 
    50     51     58      1     126.806242045100     484.492885493347 
    50     68     69      1     126.806242045100     484.492885493347 
    50     68     87      1     129.183592992600     285.070774532144 
    51     50     68      1     126.806242045100     484.492885493347 
    51     52     53      1     126.806242045100     484.492885493347 
    51     52     59      1     126.806242045100     484.492885493347 
    51     58     57      1     126.806242045100     484.492885493347 
    51     58     77      1     129.183592992600     285.070774532144 
    52     51     58      1     126.806242045100     484.492885493347 
    52     53     54      1     126.806242045100     484.492885493347 
    52     53     72      1     129.183592992600     285.070774532144 
    52     59     60      1     126.806242045100     484.492885493347 
    52     59     64      1     126.806242045100     484.492885493347 
    53     52     59      1     126.806242045100     484.492885493347 
    53     54     55      1     126.806242045100     484.492885493347 
    53     54     57      1     126.806242045100     484.492885493347 
    54     53     72      1     129.183592992600     285.070774532144 
    54     55     56      1     110.353880618100     544.678275491328 
    54     57     58      1     126.806242045100     484.492885493347 
    54     57     76      1     129.183592992600     285.070774532144 
    55     54     57      1     126.806242045100     484.492885493347 
    55     56     73      1     116.547586263400     445.222086509286 
    55     56     74      1     116.547586263400     445.222086509286 
    55     56     75      1     116.547586263400     445.222086509286 
    57     58     77      1     129.183592992600     285.070774532144 
    58     57     76      1     129.183592992600     285.070774532144 
    59     60     61      1     126.806242045100     484.492885493347 
    59     60     78      1     129.183592992600     285.070774532144 
    59     64     63      1     126.806242045100     484.492885493347 
    59     64     81      1     129.183592992600     285.070774532144 
    60     59     64      1     126.806242045100     484.492885493347 
    60     61     62      1     126.806242045100     484.492885493347 
    60     61     79      1     129.183592992600     285.070774532144 
    61     60     78      1     129.183592992600     285.070774532144 
    61     62     63      1     126.806242045100     484.492885493347 
    61     62     80      1     129.183592992600     285.070774532144 
    62     61     79      1     129.183592992600     285.070774532144 
    62     63     64      1     126.806242045100     484.492885493347 
    62     63     65      1     126.806242045100     484.492885493347 
    63     62     80      1     129.183592992600     285.070774532144 
    63     64     81      1     129.183592992600     285.070774532144 
    63     65     66      1     116.547586263400     445.222086509286 
    63     65     67      1     116.547586263400     445.222086509286 
    63     65     82      1     116.547586263400     445.222086509286 
    64     63     65      1     126.806242045100     484.492885493347 
    65     66     83      1     115.507132767400     530.901282784327 
    65     66     89      1     117.346557051400     463.769802376852 
    65     67     84      1     116.547586263400     445.222086509286 
    65     67     85      1     116.547586263400     445.222086509286 
    65     67     86      1     116.547586263400     445.222086509286 
    66     65     67      1     116.547586263400     445.222086509286 
    66     65     82      1     116.547586263400     445.222086509286 
    66     89     90      1     126.806242045100     484.492885493347 
    66     89     91      1     126.806242045100     484.492885493347 
    67     65     82      1     116.547586263400     445.222086509286 
    68     69     88      1     129.183592992600     285.070774532144 
    69     68     87      1     129.183592992600     285.070774532144 
    73     56     74      1     115.603099953300     408.161690475075 
    73     56     75      1     115.603099953300     408.161690475075 
    74     56     75      1     115.603099953300     408.161690475075 
    83     66     89      1     115.507132767400     530.901282784327 
    84     67     85      1     115.603099953300     408.161690475075 
    84     67     86      1     115.603099953300     408.161690475075 
    85     67     86      1     115.603099953300     408.161690475075 
    89     91     92      1     126.806242045100     484.492885493347 
    89     91    113      1     126.806242045100     484.492885493347 
    90     89     91      1     126.806242045100     484.492885493347 
    91     92     93      1     126.806242045100     484.492885493347 
    91     92    114      1     129.183592992600     285.070774532144 
    91    113    112      1     126.806242045100     484.492885493347 
    91    113    132      1     129.183592992600     285.070774532144 
    92     91    113      1     126.806242045100     484.492885493347 
    92     93     94      1     126.806242045100     484.492885493347 
    92     93    115      1     129.183592992600     285.070774532144 
    93     92    114      1     129.183592992600     285.070774532144 
    93     94     95      1     126.806242045100     484.492885493347 
    93     94    112      1     126.806242045100     484.492885493347 
    94     93    115      1     129.183592992600     285.070774532144 
    94     95     96      1     126.806242045100     484.492885493347 
    94     95    102      1     126.806242045100     484.492885493347 
    94    112    113      1     126.806242045100     484.492885493347 
    94    112    131      1     129.183592992600     285.070774532144 
    95     94    112      1     126.806242045100     484.492885493347 
    95     96     97      1     126.806242045100     484.492885493347 
    95     96    103      1     126.806242045100     484.492885493347 
    95    102    101      1     126.806242045100     484.492885493347 
    95    102    121      1     129.183592992600     285.070774532144 
    96     95    102      1     126.806242045100     484.492885493347 
    96     97     98      1     126.806242045100     484.492885493347 
    96     97    116      1     129.183592992600     285.070774532144 
    96    103    104      1     126.806242045100     484.492885493347 
    96    103    108      1     126.806242045100     484.492885493347 
    97     96    103      1     126.806242045100     484.492885493347 
    97     98     99      1     126.806242045100     484.492885493347 
    97     98    101      1     126.806242045100     484.492885493347 
    98     97    116      1     129.183592992600     285.070774532144 
    98     99    100      1     110.353880618100     544.678275491328 
    98    101    102      1     126.806242045100     484.492885493347 
    98    101    120      1     129.183592992600     285.070774532144 
    99     98    101      1     126.806242045100     484.492885493347 
    99    100    117      1     116.547586263400     445.222086509286 
    99    100    118      1     116.547586263400     445.222086509286 
    99    100    119      1     116.547586263400     445.222086509286 
   101    102    121      1     129.183592992600     285.070774532144 
   102    101    120      1     129.183592992600     285.070774532144 
   103    104    105      1     126.806242045100     484.492885493347 
   103    104    122      1     129.183592992600     285.070774532144 
   103    108    107      1     126.806242045100     484.492885493347 
   103    108    125      1     129.183592992600     285.070774532144 
   104    103    108      1     126.806242045100     484.492885493347 
   104    105    106      1     126.806242045100     484.492885493347 
   104    105    123      1     129.183592992600     285.070774532144 
   105    104    122      1     129.183592992600     285.070774532144 
   105    106    107      1     126.806242045100     484.492885493347 
   105    106    124      1     129.183592992600     285.070774532144 
   106    105    123      1     129.183592992600     285.070774532144 
   106    107    108      1     126.806242045100     484.492885493347 
   106    107    109      1     126.806242045100     484.492885493347 
   107    106    124      1     129.183592992600     285.070774532144 
   107    108    125      1     129.183592992600     285.070774532144 
   107    109    110      1     116.547586263400     445.222086509286 
   107    109    111      1     116.547586263400     445.222086509286 
   107    109    126      1     116.547586263400     445.222086509286 
   108    107    109      1     126.806242045100     484.492885493347 
   109    110    127      1     115.507132767400     530.901282784327 
   109    110    133      1     117.346557051400     463.769802376852 
   109    111    128      1     116.547586263400     445.222086509286 
   109    111    129      1     116.547586263400     445.222086509286 
   109    111    130      1     116.547586263400     445.222086509286 
   110    109    111      1     116.547586263400     445.222086509286 
   110    109    126      1     116.547586263400     445.222086509286 
   110    133    134      1     126.806242045100     484.492885493347 
   110    133    135      1     126.806242045100     484.492885493347 
   111    109    126      1     116.547586263400     445.222086509286 
   112    113    132      1     129.183592992600     285.070774532144 
   113    112    131      1     129.183592992600     285.070774532144 
   117    100    118      1     115.603099953300     408.161690475075 
   117    100    119      1     115.603099953300     408.161690475075 
   118    100    119      1     115.603099953300     408.161690475075 
   127    110    133      1     115.507132767400     530.901282784327 
   128    111    129      1     115.603099953300     408.161690475075 
   128    111    130      1     115.603099953300     408.161690475075 
   129    111    130      1     115.603099953300     408.161690475075 
   133    135    136      1     126.806242045100     484.492885493347 
   133    135    157      1     126.806242045100     484.492885493347 
   134    133    135      1     126.806242045100     484.492885493347 
   135    136    137      1     126.806242045100     484.492885493347 
   135    136    158      1     129.183592992600     285.070774532144 
   135    157    156      1     126.806242045100     484.492885493347 
   135    157    176      1     129.183592992600     285.070774532144 
   136    135    157      1     126.806242045100     484.492885493347 
   136    137    138      1     126.806242045100     484.492885493347 
   136    137    159      1     129.183592992600     285.070774532144 
   137    136    158      1     129.183592992600     285.070774532144 
   137    138    139      1     126.806242045100     484.492885493347 
   137    138    156      1     126.806242045100     484.492885493347 
   138    137    159      1     129.183592992600     285.070774532144 
   138    139    140      1     126.806242045100     484.492885493347 
   138    139    146      1     126.806242045100     484.492885493347 
   138    156    157      1     126.806242045100     484.492885493347 
   138    156    175      1     129.183592992600     285.070774532144 
   139    138    156      1     126.806242045100     484.492885493347 
   139    140    141      1     126.806242045100     484.492885493347 
   139    140    147      1     126.806242045100     484.492885493347 
   139    146    145      1     126.806242045100     484.492885493347 
   139    146    165      1     129.183592992600     285.070774532144 
   140    139    146      1     126.806242045100     484.492885493347 
   140    141    142      1     126.806242045100     484.492885493347 
   140    141    160      1     129.183592992600     285.070774532144 
   140    147    148      1     126.806242045100     484.492885493347 
   140    147    152      1     126.806242045100     484.492885493347 
   141    140    147      1     126.806242045100     484.492885493347 
   141    142    143      1     126.806242045100     484.492885493347 
   141    142    145      1     126.806242045100     484.492885493347 
   142    141    160      1     129.183592992600     285.070774532144 
   142    143    144      1     110.353880618100     544.678275491328 
   142    145    146      1     126.806242045100     484.492885493347 
   142    145    164      1     129.183592992600     285.070774532144 
   143    142    145      1     126.806242045100     484.492885493347 
   143    144    161      1     116.547586263400     445.222086509286 
   143    144    162      1     116.547586263400     445.222086509286 
   143    144    163      1     116.547586263400     445.222086509286 
   145    146    165      1     129.183592992600     285.070774532144 
   146    145    164      1     129.183592992600     285.070774532144 
   147    148    149      1     126.806242045100     484.492885493347 
   147    148    166      1     129.183592992600     285.070774532144 
   147    152    151      1     126.806242045100     484.492885493347 
   147    152    169      1     129.183592992600     285.070774532144 
   148    147    152      1     126.806242045100     484.492885493347 
   148    149    150      1     126.806242045100     484.492885493347 
   148    149    167      1     129.183592992600     285.070774532144 
   149    148    166      1     129.183592992600     285.070774532144 
   149    150    151      1     126.806242045100     484.492885493347 
   149    150    168      1     129.183592992600     285.070774532144 
   150    149    167      1     129.183592992600     285.070774532144 
   150    151    152      1     126.806242045100     484.492885493347 
   150    151    153      1     126.806242045100     484.492885493347 
   151    150    168      1     129.183592992600     285.070774532144 
   151    152    169      1     129.183592992600     285.070774532144 
   151    153    154      1     116.547586263400     445.222086509286 
   151    153    155      1     116.547586263400     445.222086509286 
   151    153    170      1     116.547586263400     445.222086509286 
   152    151    153      1     126.806242045100     484.492885493347 
   153    154    171      1     115.507132767400     530.901282784327 
   153    154    187      1     117.346557051400     463.769802376852 
   153    155    172      1     116.547586263400     445.222086509286 
   153    155    173      1     116.547586263400     445.222086509286 
   153    155    174      1     116.547586263400     445.222086509286 
   154    153    155      1     116.547586263400     445.222086509286 
   154    153    170      1     116.547586263400     445.222086509286 
   154    187    186      1     126.806242045100     484.492885493347 
   154    187    188      1     126.806242045100     484.492885493347 
   155    153    170      1     116.547586263400     445.222086509286 
   156    157    176      1     129.183592992600     285.070774532144 
   157    156    175      1     129.183592992600     285.070774532144 
   161    144    162      1     115.603099953300     408.161690475075 
   161    144    163      1     115.603099953300     408.161690475075 
   162    144    163      1     115.603099953300     408.161690475075 
   171    154    187      1     115.507132767400     530.901282784327 
   172    155    173      1     115.603099953300     408.161690475075 
   172    155    174      1     115.603099953300     408.161690475075 
   173    155    174      1     115.603099953300     408.161690475075 
   178    177    179      1     116.547586263400     445.222086509286 
   178    177    180      1     116.547586263400     445.222086509286 
   178    177    181      1     116.547586263400     445.222086509286 
   179    177    180      1     115.603099953300     408.161690475075 
   179    177    181      1     115.603099953300     408.161690475075 
   180    177    181      1     115.603099953300     408.161690475075 
   182    183    184      1     116.547586263400     445.222086509286 
   182    183    185      1     116.547586263400     445.222086509286 
   182    183    186      1     116.547586263400     445.222086509286 
   183    182    189      1     116.547586263400     445.222086509286 
   183    182    190      1     116.547586263400     445.222086509286 
   183    182    191      1     116.547586263400     445.222086509286 
   183    184    192      1     116.547586263400     445.222086509286 
   183    184    193      1     116.547586263400     445.222086509286 
   183    184    194      1     116.547586263400     445.222086509286 
   183    185    195      1     116.547586263400     445.222086509286 
   183    185    196      1     116.547586263400     445.222086509286 
   183    185    197      1     116.547586263400     445.222086509286 
   183    186    187      1     110.353880618100     544.678275491328 
   184    183    185      1     116.547586263400     445.222086509286 
   184    183    186      1     116.547586263400     445.222086509286 
   185    183    186      1     116.547586263400     445.222086509286 
   186    187    188      1     127.469141619100    1685.413543333009 
   189    182    190      1     115.603099953300     408.161690475075 
   189    182    191      1     115.603099953300     408.161690475075 
   190    182    191      1     115.603099953300     408.161690475075 
   192    184    193      1     115.603099953300     408.161690475075 
   192    184    194      1     115.603099953300     408.161690475075 
   193    184    194      1     115.603099953300     408.161690475075 
   195    185    196      1     115.603099953300     408.161690475075 
   195    185    197      1     115.603099953300     408.161690475075 
   196    185    197      1     115.603099953300     408.161690475075 

[ dihedrals ]
;ai    aj   ak   al   funct phi  k
     1     3     4     5     1    180.000000000000     15.321515534534                 2
     1     3     4    26     1    180.000000000000     15.321515534534                 2
     1     3    25    24     1    180.000000000000     15.321515534534                 2
     1     3    25    44     1    180.000000000000     15.321515534534                 2
     1   178   177   179     1      0.000000000000      0.198220506977                 3
     1   178   177   180     1      0.000000000000      0.198220506977                 3
     1   178   177   181     1      0.000000000000      0.198220506977                 3
     2     1     3     4     1    180.000000000000      4.173190890070                 2
     2     1     3    25     1    180.000000000000      4.173190890070                 2
     2     1   178   177     1    180.000000000000      4.869377577648                 2
     2     1   178   177     1    180.000000000000      0.702571835515                 1
     3     1   178   177     1    180.000000000000     11.630908055712                 2
     3     4     5     6     1    180.000000000000     15.321515534534                 2
     3     4     5    27     1    180.000000000000     15.321515534534                 2
     3    25    24     6     1    180.000000000000     15.321515534534                 2
     3    25    24    43     1    180.000000000000     15.321515534534                 2
     4     3     1   178     1    180.000000000000      4.173190890070                 2
     4     3    25    24     1    180.000000000000     15.321515534534                 2
     4     3    25    44     1    180.000000000000     15.321515534534                 2
     4     5     6     7     1    180.000000000000     15.321515534534                 2
     4     5     6    24     1    180.000000000000     15.321515534534                 2
     5     4     3    25     1    180.000000000000     15.321515534534                 2
     5     6     7     8     1    180.000000000000      4.866977563957                 2
     5     6     7    14     1    180.000000000000      4.866977563957                 2
     5     6    24    25     1    180.000000000000     15.321515534534                 2
     5     6    24    43     1    180.000000000000     15.321515534534                 2
     6     5     4    26     1    180.000000000000     15.321515534534                 2
     6     7     8     9     1    180.000000000000     15.321515534534                 2
     6     7     8    15     1    180.000000000000     15.321515534534                 2
     6     7    14    13     1    180.000000000000     15.321515534534                 2
     6     7    14    33     1    180.000000000000     15.321515534534                 2
     6    24    25    44     1    180.000000000000     15.321515534534                 2
     7     6     5    27     1    180.000000000000     15.321515534534                 2
     7     6    24    25     1    180.000000000000     15.321515534534                 2
     7     6    24    43     1    180.000000000000     15.321515534534                 2
     7     8     9    10     1    180.000000000000     15.321515534534                 2
     7     8     9    28     1    180.000000000000     15.321515534534                 2
     7     8    15    16     1    180.000000000000      4.866977563957                 2
     7     8    15    20     1    180.000000000000      4.866977563957                 2
     7    14    13    10     1    180.000000000000     15.321515534534                 2
     7    14    13    32     1    180.000000000000     15.321515534534                 2
     8     7     6    24     1    180.000000000000      4.866977563957                 2
     8     7    14    13     1    180.000000000000     15.321515534534                 2
     8     7    14    33     1    180.000000000000     15.321515534534                 2
     8     9    10    11     1    180.000000000000     15.321515534534                 2
     8     9    10    13     1    180.000000000000     15.321515534534                 2
     8    15    16    17     1    180.000000000000     15.321515534534                 2
     8    15    16    34     1    180.000000000000     15.321515534534                 2
     8    15    20    19     1    180.000000000000     15.321515534534                 2
     8    15    20    37     1    180.000000000000     15.321515534534                 2
     9     8     7    14     1    180.000000000000     15.321515534534                 2
     9     8    15    16     1    180.000000000000      4.866977563957                 2
     9     8    15    20     1    180.000000000000      4.866977563957                 2
     9    10    11    12     1    180.000000000000      6.410861677363                 2
     9    10    13    14     1    180.000000000000     15.321515534534                 2
     9    10    13    32     1    180.000000000000     15.321515534534                 2
    10     9     8    15     1    180.000000000000     15.321515534534                 2
    10    11    12    29     1      0.000000000000      0.198220506977                 3
    10    11    12    30     1      0.000000000000      0.198220506977                 3
    10    11    12    31     1      0.000000000000      0.198220506977                 3
    10    13    14    33     1    180.000000000000     15.321515534534                 2
    11    10     9    28     1    180.000000000000     15.321515534534                 2
    11    10    13    14     1    180.000000000000     15.321515534534                 2
    11    10    13    32     1    180.000000000000     15.321515534534                 2
    12    11    10    13     1    180.000000000000      6.410861677363                 2
    13    10     9    28     1    180.000000000000     15.321515534534                 2
    14     7     6    24     1    180.000000000000      4.866977563957                 2
    14     7     8    15     1    180.000000000000     15.321515534534                 2
    15     8     9    28     1    180.000000000000     15.321515534534                 2
    15    16    17    18     1    180.000000000000     15.321515534534                 2
    15    16    17    35     1    180.000000000000     15.321515534534                 2
    15    20    19    18     1    180.000000000000     15.321515534534                 2
    15    20    19    21     1    180.000000000000     15.321515534534                 2
    16    15    20    19     1    180.000000000000     15.321515534534                 2
    16    15    20    37     1    180.000000000000     15.321515534534                 2
    16    17    18    19     1    180.000000000000     15.321515534534                 2
    16    17    18    36     1    180.000000000000     15.321515534534                 2
    17    16    15    20     1    180.000000000000     15.321515534534                 2
    17    18    19    20     1    180.000000000000     15.321515534534                 2
    17    18    19    21     1    180.000000000000     15.321515534534                 2
    18    17    16    34     1    180.000000000000     15.321515534534                 2
    18    19    20    37     1    180.000000000000     15.321515534534                 2
    18    19    21    22     1      0.000000000000      0.111501038139                 3
    18    19    21    23     1      0.000000000000      0.111501038139                 3
    18    19    21    38     1      0.000000000000      0.111501038139                 3
    19    18    17    35     1    180.000000000000     15.321515534534                 2
    19    21    22    39     1      0.000000000000      0.762485897686                 2
    19    21    22    39     1      0.000000000000      0.124362804952                 3
    19    21    22    45     1    180.000000000000     -2.883499339083                 2
    19    21    22    45     1      0.000000000000      1.141330947302                 1
    19    21    23    40     1      0.000000000000      0.483407861024                 3
    19    21    23    41     1      0.000000000000      0.483407861024                 3
    19    21    23    42     1      0.000000000000      0.483407861024                 3
    20    15    16    34     1    180.000000000000     15.321515534534                 2
    20    19    18    36     1    180.000000000000     15.321515534534                 2
    20    19    21    22     1      0.000000000000      0.111501038139                 3
    20    19    21    23     1      0.000000000000      0.111501038139                 3
    20    19    21    38     1      0.000000000000      0.111501038139                 3
    21    19    18    36     1    180.000000000000     15.321515534534                 2
    21    19    20    37     1    180.000000000000     15.321515534534                 2
    21    22    45    46     1    180.000000000000     12.978553656010                 2
    21    22    45    46     1      0.000000000000     -1.779100933344                 1
    21    22    45    47     1    180.000000000000      7.569054279773                 2
    21    22    45    47     1      0.000000000000     -0.201513062842                 1
    22    21    23    40     1      0.000000000000      0.483407861024                 3
    22    21    23    41     1      0.000000000000      0.483407861024                 3
    22    21    23    42     1      0.000000000000      0.483407861024                 3
    22    45    47    48     1    180.000000000000      4.173190890070                 2
    22    45    47    69     1    180.000000000000      4.173190890070                 2
    23    21    22    39     1      0.000000000000      0.762485897686                 2
    23    21    22    39     1      0.000000000000      0.124362804952                 3
    23    21    22    45     1    180.000000000000     -0.622862944840                 4
    23    21    22    45     1    180.000000000000     -0.514769632165                 3
    23    21    22    45     1      0.000000000000      1.229801223351                 2
    23    21    22    45     1      0.000000000000     -1.265294746367                 1
    24     6     5    27     1    180.000000000000     15.321515534534                 2
    25     3     1   178     1    180.000000000000      4.173190890070                 2
    25     3     4    26     1    180.000000000000     15.321515534534                 2
    26     4     5    27     1    180.000000000000     15.321515534534                 2
    32    13    14    33     1    180.000000000000     15.321515534534                 2
    34    16    17    35     1    180.000000000000     15.321515534534                 2
    35    17    18    36     1    180.000000000000     15.321515534534                 2
    38    21    22    39     1      0.000000000000      0.762485897686                 2
    38    21    22    39     1      0.000000000000      0.124362804952                 3
    38    21    22    45     1      0.000000000000      0.762485897686                 2
    38    21    22    45     1      0.000000000000      0.124362804952                 3
    38    21    23    40     1      0.000000000000      0.799950138473                 3
    38    21    23    41     1      0.000000000000      0.799950138473                 3
    38    21    23    42     1      0.000000000000      0.799950138473                 3
    39    22    45    46     1    180.000000000000      9.825603686166                 2
    39    22    45    46     1      0.000000000000      5.255757435828                 1
    39    22    45    47     1    180.000000000000      7.569054279773                 2
    39    22    45    47     1      0.000000000000     -0.201513062842                 1
    43    24    25    44     1    180.000000000000     15.321515534534                 2
    45    47    48    49     1    180.000000000000     15.321515534534                 2
    45    47    48    70     1    180.000000000000     15.321515534534                 2
    45    47    69    68     1    180.000000000000     15.321515534534                 2
    45    47    69    88     1    180.000000000000     15.321515534534                 2
    46    45    47    48     1    180.000000000000      4.173190890070                 2
    46    45    47    69     1    180.000000000000      4.173190890070                 2
    47    48    49    50     1    180.000000000000     15.321515534534                 2
    47    48    49    71     1    180.000000000000     15.321515534534                 2
    47    69    68    50     1    180.000000000000     15.321515534534                 2
    47    69    68    87     1    180.000000000000     15.321515534534                 2
    48    47    69    68     1    180.000000000000     15.321515534534                 2
    48    47    69    88     1    180.000000000000     15.321515534534                 2
    48    49    50    51     1    180.000000000000     15.321515534534                 2
    48    49    50    68     1    180.000000000000     15.321515534534                 2
    49    48    47    69     1    180.000000000000     15.321515534534                 2
    49    50    51    52     1    180.000000000000      4.866977563957                 2
    49    50    51    58     1    180.000000000000      4.866977563957                 2
    49    50    68    69     1    180.000000000000     15.321515534534                 2
    49    50    68    87     1    180.000000000000     15.321515534534                 2
    50    49    48    70     1    180.000000000000     15.321515534534                 2
    50    51    52    53     1    180.000000000000     15.321515534534                 2
    50    51    52    59     1    180.000000000000     15.321515534534                 2
    50    51    58    57     1    180.000000000000     15.321515534534                 2
    50    51    58    77     1    180.000000000000     15.321515534534                 2
    50    68    69    88     1    180.000000000000     15.321515534534                 2
    51    50    49    71     1    180.000000000000     15.321515534534                 2
    51    50    68    69     1    180.000000000000     15.321515534534                 2
    51    50    68    87     1    180.000000000000     15.321515534534                 2
    51    52    53    54     1    180.000000000000     15.321515534534                 2
    51    52    53    72     1    180.000000000000     15.321515534534                 2
    51    52    59    60     1    180.000000000000      4.866977563957                 2
    51    52    59    64     1    180.000000000000      4.866977563957                 2
    51    58    57    54     1    180.000000000000     15.321515534534                 2
    51    58    57    76     1    180.000000000000     15.321515534534                 2
    52    51    50    68     1    180.000000000000      4.866977563957                 2
    52    51    58    57     1    180.000000000000     15.321515534534                 2
    52    51    58    77     1    180.000000000000     15.321515534534                 2
    52    53    54    55     1    180.000000000000     15.321515534534                 2
    52    53    54    57     1    180.000000000000     15.321515534534                 2
    52    59    60    61     1    180.000000000000     15.321515534534                 2
    52    59    60    78     1    180.000000000000     15.321515534534                 2
    52    59    64    63     1    180.000000000000     15.321515534534                 2
    52    59    64    81     1    180.000000000000     15.321515534534                 2
    53    52    51    58     1    180.000000000000     15.321515534534                 2
    53    52    59    60     1    180.000000000000      4.866977563957                 2
    53    52    59    64     1    180.000000000000      4.866977563957                 2
    53    54    55    56     1    180.000000000000      6.410861677363                 2
    53    54    57    58     1    180.000000000000     15.321515534534                 2
    53    54    57    76     1    180.000000000000     15.321515534534                 2
    54    53    52    59     1    180.000000000000     15.321515534534                 2
    54    55    56    73     1      0.000000000000      0.198220506977                 3
    54    55    56    74     1      0.000000000000      0.198220506977                 3
    54    55    56    75     1      0.000000000000      0.198220506977                 3
    54    57    58    77     1    180.000000000000     15.321515534534                 2
    55    54    53    72     1    180.000000000000     15.321515534534                 2
    55    54    57    58     1    180.000000000000     15.321515534534                 2
    55    54    57    76     1    180.000000000000     15.321515534534                 2
    56    55    54    57     1    180.000000000000      6.410861677363                 2
    57    54    53    72     1    180.000000000000     15.321515534534                 2
    58    51    50    68     1    180.000000000000      4.866977563957                 2
    58    51    52    59     1    180.000000000000     15.321515534534                 2
    59    52    53    72     1    180.000000000000     15.321515534534                 2
    59    60    61    62     1    180.000000000000     15.321515534534                 2
    59    60    61    79     1    180.000000000000     15.321515534534                 2
    59    64    63    62     1    180.000000000000     15.321515534534                 2
    59    64    63    65     1    180.000000000000     15.321515534534                 2
    60    59    64    63     1    180.000000000000     15.321515534534                 2
    60    59    64    81     1    180.000000000000     15.321515534534                 2
    60    61    62    63     1    180.000000000000     15.321515534534                 2
    60    61    62    80     1    180.000000000000     15.321515534534                 2
    61    60    59    64     1    180.000000000000     15.321515534534                 2
    61    62    63    64     1    180.000000000000     15.321515534534                 2
    61    62    63    65     1    180.000000000000     15.321515534534                 2
    62    61    60    78     1    180.000000000000     15.321515534534                 2
    62    63    64    81     1    180.000000000000     15.321515534534                 2
    62    63    65    66     1      0.000000000000      0.111501038139                 3
    62    63    65    67     1      0.000000000000      0.111501038139                 3
    62    63    65    82     1      0.000000000000      0.111501038139                 3
    63    62    61    79     1    180.000000000000     15.321515534534                 2
    63    65    66    83     1      0.000000000000      0.762485897686                 2
    63    65    66    83     1      0.000000000000      0.124362804952                 3
    63    65    66    89     1    180.000000000000     -2.883499339083                 2
    63    65    66    89     1      0.000000000000      1.141330947302                 1
    63    65    67    84     1      0.000000000000      0.483407861024                 3
    63    65    67    85     1      0.000000000000      0.483407861024                 3
    63    65    67    86     1      0.000000000000      0.483407861024                 3
    64    59    60    78     1    180.000000000000     15.321515534534                 2
    64    63    62    80     1    180.000000000000     15.321515534534                 2
    64    63    65    66     1      0.000000000000      0.111501038139                 3
    64    63    65    67     1      0.000000000000      0.111501038139                 3
    64    63    65    82     1      0.000000000000      0.111501038139                 3
    65    63    62    80     1    180.000000000000     15.321515534534                 2
    65    63    64    81     1    180.000000000000     15.321515534534                 2
    65    66    89    90     1    180.000000000000     12.978553656010                 2
    65    66    89    90     1      0.000000000000     -1.779100933344                 1
    65    66    89    91     1    180.000000000000      7.569054279773                 2
    65    66    89    91     1      0.000000000000     -0.201513062842                 1
    66    65    67    84     1      0.000000000000      0.483407861024                 3
    66    65    67    85     1      0.000000000000      0.483407861024                 3
    66    65    67    86     1      0.000000000000      0.483407861024                 3
    66    89    91    92     1    180.000000000000      4.173190890070                 2
    66    89    91   113     1    180.000000000000      4.173190890070                 2
    67    65    66    83     1      0.000000000000      0.762485897686                 2
    67    65    66    83     1      0.000000000000      0.124362804952                 3
    67    65    66    89     1    180.000000000000     -0.622862944840                 4
    67    65    66    89     1    180.000000000000     -0.514769632165                 3
    67    65    66    89     1      0.000000000000      1.229801223351                 2
    67    65    66    89     1      0.000000000000     -1.265294746367                 1
    68    50    49    71     1    180.000000000000     15.321515534534                 2
    69    47    48    70     1    180.000000000000     15.321515534534                 2
    70    48    49    71     1    180.000000000000     15.321515534534                 2
    76    57    58    77     1    180.000000000000     15.321515534534                 2
    78    60    61    79     1    180.000000000000     15.321515534534                 2
    79    61    62    80     1    180.000000000000     15.321515534534                 2
    82    65    66    83     1      0.000000000000      0.762485897686                 2
    82    65    66    83     1      0.000000000000      0.124362804952                 3
    82    65    66    89     1      0.000000000000      0.762485897686                 2
    82    65    66    89     1      0.000000000000      0.124362804952                 3
    82    65    67    84     1      0.000000000000      0.799950138473                 3
    82    65    67    85     1      0.000000000000      0.799950138473                 3
    82    65    67    86     1      0.000000000000      0.799950138473                 3
    83    66    89    90     1    180.000000000000      9.825603686166                 2
    83    66    89    90     1      0.000000000000      5.255757435828                 1
    83    66    89    91     1    180.000000000000      7.569054279773                 2
    83    66    89    91     1      0.000000000000     -0.201513062842                 1
    87    68    69    88     1    180.000000000000     15.321515534534                 2
    89    91    92    93     1    180.000000000000     15.321515534534                 2
    89    91    92   114     1    180.000000000000     15.321515534534                 2
    89    91   113   112     1    180.000000000000     15.321515534534                 2
    89    91   113   132     1    180.000000000000     15.321515534534                 2
    90    89    91    92     1    180.000000000000      4.173190890070                 2
    90    89    91   113     1    180.000000000000      4.173190890070                 2
    91    92    93    94     1    180.000000000000     15.321515534534                 2
    91    92    93   115     1    180.000000000000     15.321515534534                 2
    91   113   112    94     1    180.000000000000     15.321515534534                 2
    91   113   112   131     1    180.000000000000     15.321515534534                 2
    92    91   113   112     1    180.000000000000     15.321515534534                 2
    92    91   113   132     1    180.000000000000     15.321515534534                 2
    92    93    94    95     1    180.000000000000     15.321515534534                 2
    92    93    94   112     1    180.000000000000     15.321515534534                 2
    93    92    91   113     1    180.000000000000     15.321515534534                 2
    93    94    95    96     1    180.000000000000      4.866977563957                 2
    93    94    95   102     1    180.000000000000      4.866977563957                 2
    93    94   112   113     1    180.000000000000     15.321515534534                 2
    93    94   112   131     1    180.000000000000     15.321515534534                 2
    94    93    92   114     1    180.000000000000     15.321515534534                 2
    94    95    96    97     1    180.000000000000     15.321515534534                 2
    94    95    96   103     1    180.000000000000     15.321515534534                 2
    94    95   102   101     1    180.000000000000     15.321515534534                 2
    94    95   102   121     1    180.000000000000     15.321515534534                 2
    94   112   113   132     1    180.000000000000     15.321515534534                 2
    95    94    93   115     1    180.000000000000     15.321515534534                 2
    95    94   112   113     1    180.000000000000     15.321515534534                 2
    95    94   112   131     1    180.000000000000     15.321515534534                 2
    95    96    97    98     1    180.000000000000     15.321515534534                 2
    95    96    97   116     1    180.000000000000     15.321515534534                 2
    95    96   103   104     1    180.000000000000      4.866977563957                 2
    95    96   103   108     1    180.000000000000      4.866977563957                 2
    95   102   101    98     1    180.000000000000     15.321515534534                 2
    95   102   101   120     1    180.000000000000     15.321515534534                 2
    96    95    94   112     1    180.000000000000      4.866977563957                 2
    96    95   102   101     1    180.000000000000     15.321515534534                 2
    96    95   102   121     1    180.000000000000     15.321515534534                 2
    96    97    98    99     1    180.000000000000     15.321515534534                 2
    96    97    98   101     1    180.000000000000     15.321515534534                 2
    96   103   104   105     1    180.000000000000     15.321515534534                 2
    96   103   104   122     1    180.000000000000     15.321515534534                 2
    96   103   108   107     1    180.000000000000     15.321515534534                 2
    96   103   108   125     1    180.000000000000     15.321515534534                 2
    97    96    95   102     1    180.000000000000     15.321515534534                 2
    97    96   103   104     1    180.000000000000      4.866977563957                 2
    97    96   103   108     1    180.000000000000      4.866977563957                 2
    97    98    99   100     1    180.000000000000      6.410861677363                 2
    97    98   101   102     1    180.000000000000     15.321515534534                 2
    97    98   101   120     1    180.000000000000     15.321515534534                 2
    98    97    96   103     1    180.000000000000     15.321515534534                 2
    98    99   100   117     1      0.000000000000      0.198220506977                 3
    98    99   100   118     1      0.000000000000      0.198220506977                 3
    98    99   100   119     1      0.000000000000      0.198220506977                 3
    98   101   102   121     1    180.000000000000     15.321515534534                 2
    99    98    97   116     1    180.000000000000     15.321515534534                 2
    99    98   101   102     1    180.000000000000     15.321515534534                 2
    99    98   101   120     1    180.000000000000     15.321515534534                 2
   100    99    98   101     1    180.000000000000      6.410861677363                 2
   101    98    97   116     1    180.000000000000     15.321515534534                 2
   102    95    94   112     1    180.000000000000      4.866977563957                 2
   102    95    96   103     1    180.000000000000     15.321515534534                 2
   103    96    97   116     1    180.000000000000     15.321515534534                 2
   103   104   105   106     1    180.000000000000     15.321515534534                 2
   103   104   105   123     1    180.000000000000     15.321515534534                 2
   103   108   107   106     1    180.000000000000     15.321515534534                 2
   103   108   107   109     1    180.000000000000     15.321515534534                 2
   104   103   108   107     1    180.000000000000     15.321515534534                 2
   104   103   108   125     1    180.000000000000     15.321515534534                 2
   104   105   106   107     1    180.000000000000     15.321515534534                 2
   104   105   106   124     1    180.000000000000     15.321515534534                 2
   105   104   103   108     1    180.000000000000     15.321515534534                 2
   105   106   107   108     1    180.000000000000     15.321515534534                 2
   105   106   107   109     1    180.000000000000     15.321515534534                 2
   106   105   104   122     1    180.000000000000     15.321515534534                 2
   106   107   108   125     1    180.000000000000     15.321515534534                 2
   106   107   109   110     1      0.000000000000      0.111501038139                 3
   106   107   109   111     1      0.000000000000      0.111501038139                 3
   106   107   109   126     1      0.000000000000      0.111501038139                 3
   107   106   105   123     1    180.000000000000     15.321515534534                 2
   107   109   110   127     1      0.000000000000      0.762485897686                 2
   107   109   110   127     1      0.000000000000      0.124362804952                 3
   107   109   110   133     1    180.000000000000     -2.883499339083                 2
   107   109   110   133     1      0.000000000000      1.141330947302                 1
   107   109   111   128     1      0.000000000000      0.483407861024                 3
   107   109   111   129     1      0.000000000000      0.483407861024                 3
   107   109   111   130     1      0.000000000000      0.483407861024                 3
   108   103   104   122     1    180.000000000000     15.321515534534                 2
   108   107   106   124     1    180.000000000000     15.321515534534                 2
   108   107   109   110     1      0.000000000000      0.111501038139                 3
   108   107   109   111     1      0.000000000000      0.111501038139                 3
   108   107   109   126     1      0.000000000000      0.111501038139                 3
   109   107   106   124     1    180.000000000000     15.321515534534                 2
   109   107   108   125     1    180.000000000000     15.321515534534                 2
   109   110   133   134     1    180.000000000000     12.978553656010                 2
   109   110   133   134     1      0.000000000000     -1.779100933344                 1
   109   110   133   135     1    180.000000000000      7.569054279773                 2
   109   110   133   135     1      0.000000000000     -0.201513062842                 1
   110   109   111   128     1      0.000000000000      0.483407861024                 3
   110   109   111   129     1      0.000000000000      0.483407861024                 3
   110   109   111   130     1      0.000000000000      0.483407861024                 3
   110   133   135   136     1    180.000000000000      4.173190890070                 2
   110   133   135   157     1    180.000000000000      4.173190890070                 2
   111   109   110   127     1      0.000000000000      0.762485897686                 2
   111   109   110   127     1      0.000000000000      0.124362804952                 3
   111   109   110   133     1    180.000000000000     -0.622862944840                 4
   111   109   110   133     1    180.000000000000     -0.514769632165                 3
   111   109   110   133     1      0.000000000000      1.229801223351                 2
   111   109   110   133     1      0.000000000000     -1.265294746367                 1
   112    94    93   115     1    180.000000000000     15.321515534534                 2
   113    91    92   114     1    180.000000000000     15.321515534534                 2
   114    92    93   115     1    180.000000000000     15.321515534534                 2
   120   101   102   121     1    180.000000000000     15.321515534534                 2
   122   104   105   123     1    180.000000000000     15.321515534534                 2
   123   105   106   124     1    180.000000000000     15.321515534534                 2
   126   109   110   127     1      0.000000000000      0.762485897686                 2
   126   109   110   127     1      0.000000000000      0.124362804952                 3
   126   109   110   133     1      0.000000000000      0.762485897686                 2
   126   109   110   133     1      0.000000000000      0.124362804952                 3
   126   109   111   128     1      0.000000000000      0.799950138473                 3
   126   109   111   129     1      0.000000000000      0.799950138473                 3
   126   109   111   130     1      0.000000000000      0.799950138473                 3
   127   110   133   134     1    180.000000000000      9.825603686166                 2
   127   110   133   134     1      0.000000000000      5.255757435828                 1
   127   110   133   135     1    180.000000000000      7.569054279773                 2
   127   110   133   135     1      0.000000000000     -0.201513062842                 1
   131   112   113   132     1    180.000000000000     15.321515534534                 2
   133   135   136   137     1    180.000000000000     15.321515534534                 2
   133   135   136   158     1    180.000000000000     15.321515534534                 2
   133   135   157   156     1    180.000000000000     15.321515534534                 2
   133   135   157   176     1    180.000000000000     15.321515534534                 2
   134   133   135   136     1    180.000000000000      4.173190890070                 2
   134   133   135   157     1    180.000000000000      4.173190890070                 2
   135   136   137   138     1    180.000000000000     15.321515534534                 2
   135   136   137   159     1    180.000000000000     15.321515534534                 2
   135   157   156   138     1    180.000000000000     15.321515534534                 2
   135   157   156   175     1    180.000000000000     15.321515534534                 2
   136   135   157   156     1    180.000000000000     15.321515534534                 2
   136   135   157   176     1    180.000000000000     15.321515534534                 2
   136   137   138   139     1    180.000000000000     15.321515534534                 2
   136   137   138   156     1    180.000000000000     15.321515534534                 2
   137   136   135   157     1    180.000000000000     15.321515534534                 2
   137   138   139   140     1    180.000000000000      4.866977563957                 2
   137   138   139   146     1    180.000000000000      4.866977563957                 2
   137   138   156   157     1    180.000000000000     15.321515534534                 2
   137   138   156   175     1    180.000000000000     15.321515534534                 2
   138   137   136   158     1    180.000000000000     15.321515534534                 2
   138   139   140   141     1    180.000000000000     15.321515534534                 2
   138   139   140   147     1    180.000000000000     15.321515534534                 2
   138   139   146   145     1    180.000000000000     15.321515534534                 2
   138   139   146   165     1    180.000000000000     15.321515534534                 2
   138   156   157   176     1    180.000000000000     15.321515534534                 2
   139   138   137   159     1    180.000000000000     15.321515534534                 2
   139   138   156   157     1    180.000000000000     15.321515534534                 2
   139   138   156   175     1    180.000000000000     15.321515534534                 2
   139   140   141   142     1    180.000000000000     15.321515534534                 2
   139   140   141   160     1    180.000000000000     15.321515534534                 2
   139   140   147   148     1    180.000000000000      4.866977563957                 2
   139   140   147   152     1    180.000000000000      4.866977563957                 2
   139   146   145   142     1    180.000000000000     15.321515534534                 2
   139   146   145   164     1    180.000000000000     15.321515534534                 2
   140   139   138   156     1    180.000000000000      4.866977563957                 2
   140   139   146   145     1    180.000000000000     15.321515534534                 2
   140   139   146   165     1    180.000000000000     15.321515534534                 2
   140   141   142   143     1    180.000000000000     15.321515534534                 2
   140   141   142   145     1    180.000000000000     15.321515534534                 2
   140   147   148   149     1    180.000000000000     15.321515534534                 2
   140   147   148   166     1    180.000000000000     15.321515534534                 2
   140   147   152   151     1    180.000000000000     15.321515534534                 2
   140   147   152   169     1    180.000000000000     15.321515534534                 2
   141   140   139   146     1    180.000000000000     15.321515534534                 2
   141   140   147   148     1    180.000000000000      4.866977563957                 2
   141   140   147   152     1    180.000000000000      4.866977563957                 2
   141   142   143   144     1    180.000000000000      6.410861677363                 2
   141   142   145   146     1    180.000000000000     15.321515534534                 2
   141   142   145   164     1    180.000000000000     15.321515534534                 2
   142   141   140   147     1    180.000000000000     15.321515534534                 2
   142   143   144   161     1      0.000000000000      0.198220506977                 3
   142   143   144   162     1      0.000000000000      0.198220506977                 3
   142   143   144   163     1      0.000000000000      0.198220506977                 3
   142   145   146   165     1    180.000000000000     15.321515534534                 2
   143   142   141   160     1    180.000000000000     15.321515534534                 2
   143   142   145   146     1    180.000000000000     15.321515534534                 2
   143   142   145   164     1    180.000000000000     15.321515534534                 2
   144   143   142   145     1    180.000000000000      6.410861677363                 2
   145   142   141   160     1    180.000000000000     15.321515534534                 2
   146   139   138   156     1    180.000000000000      4.866977563957                 2
   146   139   140   147     1    180.000000000000     15.321515534534                 2
   147   140   141   160     1    180.000000000000     15.321515534534                 2
   147   148   149   150     1    180.000000000000     15.321515534534                 2
   147   148   149   167     1    180.000000000000     15.321515534534                 2
   147   152   151   150     1    180.000000000000     15.321515534534                 2
   147   152   151   153     1    180.000000000000     15.321515534534                 2
   148   147   152   151     1    180.000000000000     15.321515534534                 2
   148   147   152   169     1    180.000000000000     15.321515534534                 2
   148   149   150   151     1    180.000000000000     15.321515534534                 2
   148   149   150   168     1    180.000000000000     15.321515534534                 2
   149   148   147   152     1    180.000000000000     15.321515534534                 2
   149   150   151   152     1    180.000000000000     15.321515534534                 2
   149   150   151   153     1    180.000000000000     15.321515534534                 2
   150   149   148   166     1    180.000000000000     15.321515534534                 2
   150   151   152   169     1    180.000000000000     15.321515534534                 2
   150   151   153   154     1      0.000000000000      0.111501038139                 3
   150   151   153   155     1      0.000000000000      0.111501038139                 3
   150   151   153   170     1      0.000000000000      0.111501038139                 3
   151   150   149   167     1    180.000000000000     15.321515534534                 2
   151   153   154   171     1      0.000000000000      0.762485897686                 2
   151   153   154   171     1      0.000000000000      0.124362804952                 3
   151   153   154   187     1    180.000000000000     -2.883499339083                 2
   151   153   154   187     1      0.000000000000      1.141330947302                 1
   151   153   155   172     1      0.000000000000      0.483407861024                 3
   151   153   155   173     1      0.000000000000      0.483407861024                 3
   151   153   155   174     1      0.000000000000      0.483407861024                 3
   152   147   148   166     1    180.000000000000     15.321515534534                 2
   152   151   150   168     1    180.000000000000     15.321515534534                 2
   152   151   153   154     1      0.000000000000      0.111501038139                 3
   152   151   153   155     1      0.000000000000      0.111501038139                 3
   152   151   153   170     1      0.000000000000      0.111501038139                 3
   153   151   150   168     1    180.000000000000     15.321515534534                 2
   153   151   152   169     1    180.000000000000     15.321515534534                 2
   153   154   187   186     1    180.000000000000      7.569054279773                 2
   153   154   187   186     1      0.000000000000     -0.201513062842                 1
   153   154   187   188     1    180.000000000000      7.569054279773                 2
   153   154   187   188     1      0.000000000000     -0.201513062842                 1
   154   153   155   172     1      0.000000000000      0.483407861024                 3
   154   153   155   173     1      0.000000000000      0.483407861024                 3
   154   153   155   174     1      0.000000000000      0.483407861024                 3
   154   187   186   183     1    180.000000000000     11.630908055712                 2
   155   153   154   171     1      0.000000000000      0.762485897686                 2
   155   153   154   171     1      0.000000000000      0.124362804952                 3
   155   153   154   187     1    180.000000000000     -0.622862944840                 4
   155   153   154   187     1    180.000000000000     -0.514769632165                 3
   155   153   154   187     1      0.000000000000      1.229801223351                 2
   155   153   154   187     1      0.000000000000     -1.265294746367                 1
   156   138   137   159     1    180.000000000000     15.321515534534                 2
   157   135   136   158     1    180.000000000000     15.321515534534                 2
   158   136   137   159     1    180.000000000000     15.321515534534                 2
   164   145   146   165     1    180.000000000000     15.321515534534                 2
   166   148   149   167     1    180.000000000000     15.321515534534                 2
   167   149   150   168     1    180.000000000000     15.321515534534                 2
   170   153   154   171     1      0.000000000000      0.762485897686                 2
   170   153   154   171     1      0.000000000000      0.124362804952                 3
   170   153   154   187     1      0.000000000000      0.762485897686                 2
   170   153   154   187     1      0.000000000000      0.124362804952                 3
   170   153   155   172     1      0.000000000000      0.799950138473                 3
   170   153   155   173     1      0.000000000000      0.799950138473                 3
   170   153   155   174     1      0.000000000000      0.799950138473                 3
   171   154   187   186     1    180.000000000000      7.569054279773                 2
   171   154   187   186     1      0.000000000000     -0.201513062842                 1
   171   154   187   188     1    180.000000000000      2.033839522640                 2
   171   154   187   188     1      0.000000000000      3.730867000451                 1
   175   156   157   176     1    180.000000000000     15.321515534534                 2
   182   183   184   192     1      0.000000000000      0.435413753811                 3
   182   183   184   193     1      0.000000000000      0.435413753811                 3
   182   183   184   194     1      0.000000000000      0.435413753811                 3
   182   183   185   195     1      0.000000000000      0.435413753811                 3
   182   183   185   196     1      0.000000000000      0.435413753811                 3
   182   183   185   197     1      0.000000000000      0.435413753811                 3
   182   183   186   187     1      0.000000000000      0.802605161760                 3
   182   183   186   187     1    180.000000000000      3.850192060290                 1
   183   186   187   188     1    180.000000000000      4.869377577648                 2
   183   186   187   188     1    180.000000000000      0.702571835515                 1
   184   183   182   189     1      0.000000000000      0.435413753811                 3
   184   183   182   190     1      0.000000000000      0.435413753811                 3
   184   183   182   191     1      0.000000000000      0.435413753811                 3
   184   183   185   195     1      0.000000000000      0.435413753811                 3
   184   183   185   196     1      0.000000000000      0.435413753811                 3
   184   183   185   197     1      0.000000000000      0.435413753811                 3
   184   183   186   187     1      0.000000000000      0.802605161760                 3
   184   183   186   187     1    180.000000000000      3.850192060290                 1
   185   183   182   189     1      0.000000000000      0.435413753811                 3
   185   183   182   190     1      0.000000000000      0.435413753811                 3
   185   183   182   191     1      0.000000000000      0.435413753811                 3
   185   183   184   192     1      0.000000000000      0.435413753811                 3
   185   183   184   193     1      0.000000000000      0.435413753811                 3
   185   183   184   194     1      0.000000000000      0.435413753811                 3
   185   183   186   187     1      0.000000000000      0.802605161760                 3
   185   183   186   187     1    180.000000000000      3.850192060290                 1
   186   183   182   189     1      0.000000000000      0.466735938990                 3
   186   183   182   189     1      0.000000000000      1.436153909162                 1
   186   183   182   190     1      0.000000000000      0.466735938990                 3
   186   183   182   190     1      0.000000000000      1.436153909162                 1
   186   183   182   191     1      0.000000000000      0.466735938990                 3
   186   183   182   191     1      0.000000000000      1.436153909162                 1
   186   183   184   192     1      0.000000000000      0.466735938990                 3
   186   183   184   192     1      0.000000000000      1.436153909162                 1
   186   183   184   193     1      0.000000000000      0.466735938990                 3
   186   183   184   193     1      0.000000000000      1.436153909162                 1
   186   183   184   194     1      0.000000000000      0.466735938990                 3
   186   183   184   194     1      0.000000000000      1.436153909162                 1
   186   183   185   195     1      0.000000000000      0.466735938990                 3
   186   183   185   195     1      0.000000000000      1.436153909162                 1
   186   183   185   196     1      0.000000000000      0.466735938990                 3
   186   183   185   196     1      0.000000000000      1.436153909162                 1
   186   183   185   197     1      0.000000000000      0.466735938990                 3
   186   183   185   197     1      0.000000000000      1.436153909162                 1
   135   157   133   136     4    180.000000000000      1.534133333333                 2
    93    94   115    92     4    180.000000000000      1.534133333333                 2
   142   141   143   145     4    180.000000000000      1.534133333333                 2
   140   147   139   141     4    180.000000000000      1.534133333333                 2
   152   151   169   147     4    180.000000000000      1.534133333333                 2
    15     8    16    20     4    180.000000000000      1.534133333333                 2
    68    69    87    50     4    180.000000000000      1.534133333333                 2
    45    47    22    46     4    180.000000000000      1.534133333333                 2
    97    98   116    96     4    180.000000000000      1.534133333333                 2
   104   105   122   103     4    180.000000000000      1.534133333333                 2
    16    34    15    17     4    180.000000000000      1.534133333333                 2
    98   101    97    99     4    180.000000000000      1.534133333333                 2
    64    81    59    63     4    180.000000000000      1.534133333333                 2
   147   148   152   140     4    180.000000000000      1.534133333333                 2
   157   135   156   176     4    180.000000000000      1.534133333333                 2
   110   133   109   127     4    180.000000000000      1.394666666667                 2
    10     9    11    13     4    180.000000000000      1.534133333333                 2
    68    50    69    87     4    180.000000000000      1.534133333333                 2
     7    14     6     8     4    180.000000000000      1.534133333333                 2
    94   112    93    95     4    180.000000000000      1.534133333333                 2
   101   102   120    98     4    180.000000000000      1.534133333333                 2
    53    54    72    52     4    180.000000000000      1.534133333333                 2
    53    72    52    54     4    180.000000000000      1.534133333333                 2
     9    28     8    10     4    180.000000000000      1.534133333333                 2
   135   133   136   157     4    180.000000000000      1.534133333333                 2
   148   147   149   166     4    180.000000000000      1.534133333333                 2
   137   138   159   136     4    180.000000000000      1.534133333333                 2
   140   141   147   139     4    180.000000000000      1.534133333333                 2
    91    89    92   113     4    180.000000000000      1.534133333333                 2
     4    26     3     5     4    180.000000000000      1.534133333333                 2
   142   143   145   141     4    180.000000000000      1.534133333333                 2
   150   151   168   149     4    180.000000000000      1.534133333333                 2
    49    48    50    71     4    180.000000000000      1.534133333333                 2
    14    13    33     7     4    180.000000000000      1.534133333333                 2
    47    48    69    45     4    180.000000000000      1.534133333333                 2
    96    95    97   103     4    180.000000000000      1.534133333333                 2
   137   159   136   138     4    180.000000000000      1.534133333333                 2
   146   145   165   139     4    180.000000000000      1.534133333333                 2
    59    60    64    52     4    180.000000000000      1.534133333333                 2
    98    99   101    97     4    180.000000000000      1.534133333333                 2
    96   103    95    97     4    180.000000000000      1.534133333333                 2
    49    71    48    50     4    180.000000000000      1.534133333333                 2
    69    88    47    68     4    180.000000000000      1.534133333333                 2
   113   112   132    91     4    180.000000000000      1.534133333333                 2
   140   139   141   147     4    180.000000000000      1.534133333333                 2
   136   158   135   137     4    180.000000000000      1.534133333333                 2
   187   188   154   186     4    180.000000000000     14.644000000000                 2
    52    59    51    53     4    180.000000000000      1.534133333333                 2
    20    15    19    37     4    180.000000000000      1.534133333333                 2
    14    33     7    13     4    180.000000000000      1.534133333333                 2
   138   139   156   137     4    180.000000000000      1.534133333333                 2
   151   150   152   153     4    180.000000000000      1.534133333333                 2
    13    14    32    10     4    180.000000000000      1.534133333333                 2
   105   104   106   123     4    180.000000000000      1.534133333333                 2
   110   127   133   109     4    180.000000000000      1.394666666667                 2
    95   102    94    96     4    180.000000000000      1.534133333333                 2
    97   116    96    98     4    180.000000000000      1.534133333333                 2
    64    63    81    59     4    180.000000000000      1.534133333333                 2
    62    63    80    61     4    180.000000000000      1.534133333333                 2
    89    66    90    91     4    180.000000000000      1.534133333333                 2
    50    49    51    68     4    180.000000000000      1.534133333333                 2
    94    93    95   112     4    180.000000000000      1.534133333333                 2
   104   103   105   122     4    180.000000000000      1.534133333333                 2
   135   136   157   133     4    180.000000000000      1.534133333333                 2
    22    39    45    21     4    180.000000000000      1.394666666667                 2
    66    89    65    83     4    180.000000000000      1.394666666667                 2
    25    44     3    24     4    180.000000000000      1.534133333333                 2
    45    46    47    22     4    180.000000000000      1.534133333333                 2
   112    94   113   131     4    180.000000000000      1.534133333333                 2
   139   140   146   138     4    180.000000000000      1.534133333333                 2
    18    36    17    19     4    180.000000000000      1.534133333333                 2
   102    95   101   121     4    180.000000000000      1.534133333333                 2
    17    18    35    16     4    180.000000000000      1.534133333333                 2
     1     2     3   178     4    180.000000000000     14.644000000000                 2
   133   134   135   110     4    180.000000000000      1.534133333333                 2
   156   138   157   175     4    180.000000000000      1.534133333333                 2
   108   103   107   125     4    180.000000000000      1.534133333333                 2
   136   137   158   135     4    180.000000000000      1.534133333333                 2
    94    95   112    93     4    180.000000000000      1.534133333333                 2
    52    53    59    51     4    180.000000000000      1.534133333333                 2
    25    24    44     3     4    180.000000000000      1.534133333333                 2
    95    96   102    94     4    180.000000000000      1.534133333333                 2
    24    43     6    25     4    180.000000000000      1.534133333333                 2
    51    52    58    50     4    180.000000000000      1.534133333333                 2
    95    94    96   102     4    180.000000000000      1.534133333333                 2
     1     3   178     2     4    180.000000000000     14.644000000000                 2
    45    22    46    47     4    180.000000000000      1.534133333333                 2
    50    68    49    51     4    180.000000000000      1.534133333333                 2
     3     1     4    25     4    180.000000000000      1.534133333333                 2
   136   135   137   158     4    180.000000000000      1.534133333333                 2
   110   109   127   133     4    180.000000000000      1.394666666667                 2
   138   156   137   139     4    180.000000000000      1.534133333333                 2
   145   142   146   164     4    180.000000000000      1.534133333333                 2
    47    69    45    48     4    180.000000000000      1.534133333333                 2
    54    57    53    55     4    180.000000000000      1.534133333333                 2
     6    24     5     7     4    180.000000000000      1.534133333333                 2
    61    60    62    79     4    180.000000000000      1.534133333333                 2
   108   125   103   107     4    180.000000000000      1.534133333333                 2
    49    50    71    48     4    180.000000000000      1.534133333333                 2
     3     4    25     1     4    180.000000000000      1.534133333333                 2
    20    19    37    15     4    180.000000000000      1.534133333333                 2
   107   108   109   106     4    180.000000000000      1.534133333333                 2
     5    27     4     6     4    180.000000000000      1.534133333333                 2
    58    51    57    77     4    180.000000000000      1.534133333333                 2
    61    79    60    62     4    180.000000000000      1.534133333333                 2
    93   115    92    94     4    180.000000000000      1.534133333333                 2
    54    53    55    57     4    180.000000000000      1.534133333333                 2
    19    18    20    21     4    180.000000000000      1.534133333333                 2
    48    49    70    47     4    180.000000000000      1.534133333333                 2
   142   145   141   143     4    180.000000000000      1.534133333333                 2
   146   165   139   145     4    180.000000000000      1.534133333333                 2
   112   131    94   113     4    180.000000000000      1.534133333333                 2
    96    97   103    95     4    180.000000000000      1.534133333333                 2
   141   140   142   160     4    180.000000000000      1.534133333333                 2
    24     6    25    43     4    180.000000000000      1.534133333333                 2
     7     8    14     6     4    180.000000000000      1.534133333333                 2
     1   178     2     3     4    180.000000000000     14.644000000000                 2
    54    55    57    53     4    180.000000000000      1.534133333333                 2
   133   135   110   134     4    180.000000000000      1.534133333333                 2
    20    37    15    19     4    180.000000000000      1.534133333333                 2
    15    20     8    16     4    180.000000000000      1.534133333333                 2
    66    83    89    65     4    180.000000000000      1.394666666667                 2
   150   149   151   168     4    180.000000000000      1.534133333333                 2
    64    59    63    81     4    180.000000000000      1.534133333333                 2
    92    93   114    91     4    180.000000000000      1.534133333333                 2
   104   122   103   105     4    180.000000000000      1.534133333333                 2
    89    91    66    90     4    180.000000000000      1.534133333333                 2
    18    17    19    36     4    180.000000000000      1.534133333333                 2
   146   139   145   165     4    180.000000000000      1.534133333333                 2
    52    51    53    59     4    180.000000000000      1.534133333333                 2
    22    21    39    45     4    180.000000000000      1.394666666667                 2
   103    96   104   108     4    180.000000000000      1.534133333333                 2
   112   113   131    94     4    180.000000000000      1.534133333333                 2
    59    64    52    60     4    180.000000000000      1.534133333333                 2
   141   160   140   142     4    180.000000000000      1.534133333333                 2
    58    57    77    51     4    180.000000000000      1.534133333333                 2
   154   153   171   187     4    180.000000000000      1.394666666667                 2
   149   150   167   148     4    180.000000000000      1.534133333333                 2
   137   136   138   159     4    180.000000000000      1.534133333333                 2
     9     8    10    28     4    180.000000000000      1.534133333333                 2
    62    80    61    63     4    180.000000000000      1.534133333333                 2
   145   164   142   146     4    180.000000000000      1.534133333333                 2
    60    59    61    78     4    180.000000000000      1.534133333333                 2
    50    51    68    49     4    180.000000000000      1.534133333333                 2
   151   152   153   150     4    180.000000000000      1.534133333333                 2
   105   106   123   104     4    180.000000000000      1.534133333333                 2
   103   108    96   104     4    180.000000000000      1.534133333333                 2
    91   113    89    92     4    180.000000000000      1.534133333333                 2
     8    15     7     9     4    180.000000000000      1.534133333333                 2
   106   107   124   105     4    180.000000000000      1.534133333333                 2
    93    92    94   115     4    180.000000000000      1.534133333333                 2
   152   147   151   169     4    180.000000000000      1.534133333333                 2
   148   166   147   149     4    180.000000000000      1.534133333333                 2
   156   157   175   138     4    180.000000000000      1.534133333333                 2
    63    65    62    64     4    180.000000000000      1.534133333333                 2
   105   123   104   106     4    180.000000000000      1.534133333333                 2
    60    78    59    61     4    180.000000000000      1.534133333333                 2
   145   146   164   142     4    180.000000000000      1.534133333333                 2
     4     3     5    26     4    180.000000000000      1.534133333333                 2
   102   101   121    95     4    180.000000000000      1.534133333333                 2
   108   107   125   103     4    180.000000000000      1.534133333333                 2
   156   175   138   157     4    180.000000000000      1.534133333333                 2
   148   149   166   147     4    180.000000000000      1.534133333333                 2
   149   167   148   150     4    180.000000000000      1.534133333333                 2
    58    77    51    57     4    180.000000000000      1.534133333333                 2
   107   109   106   108     4    180.000000000000      1.534133333333                 2
    91    92   113    89     4    180.000000000000      1.534133333333                 2
    57    76    54    58     4    180.000000000000      1.534133333333                 2
   113   132    91   112     4    180.000000000000      1.534133333333                 2
   187   186   188   154     4    180.000000000000     14.644000000000                 2
    13    10    14    32     4    180.000000000000      1.534133333333                 2
    14     7    13    33     4    180.000000000000      1.534133333333                 2
     3    25     1     4     4    180.000000000000      1.534133333333                 2
    97    96    98   116     4    180.000000000000      1.534133333333                 2
    69    47    68    88     4    180.000000000000      1.534133333333                 2
    48    70    47    49     4    180.000000000000      1.534133333333                 2
   106   124   105   107     4    180.000000000000      1.534133333333                 2
     5     6    27     4     4    180.000000000000      1.534133333333                 2
   107   106   108   109     4    180.000000000000      1.534133333333                 2
    51    50    52    58     4    180.000000000000      1.534133333333                 2
   147   140   148   152     4    180.000000000000      1.534133333333                 2
   147   152   140   148     4    180.000000000000      1.534133333333                 2
    47    45    48    69     4    180.000000000000      1.534133333333                 2
    63    64    65    62     4    180.000000000000      1.534133333333                 2
    16    15    17    34     4    180.000000000000      1.534133333333                 2
     6     5     7    24     4    180.000000000000      1.534133333333                 2
    57    54    58    76     4    180.000000000000      1.534133333333                 2
     5     4     6    27     4    180.000000000000      1.534133333333                 2
    17    35    16    18     4    180.000000000000      1.534133333333                 2
     8     7     9    15     4    180.000000000000      1.534133333333                 2
    68    87    50    69     4    180.000000000000      1.534133333333                 2
   133   110   134   135     4    180.000000000000      1.534133333333                 2
   157   156   176   135     4    180.000000000000      1.534133333333                 2
   139   146   138   140     4    180.000000000000      1.534133333333                 2
    48    47    49    70     4    180.000000000000      1.534133333333                 2
    59    52    60    64     4    180.000000000000      1.534133333333                 2
    92    91    93   114     4    180.000000000000      1.534133333333                 2
     8     9    15     7     4    180.000000000000      1.534133333333                 2
    17    16    18    35     4    180.000000000000      1.534133333333                 2
    57    58    76    54     4    180.000000000000      1.534133333333                 2
    10    13     9    11     4    180.000000000000      1.534133333333                 2
    89    90    91    66     4    180.000000000000      1.534133333333                 2
     9    10    28     8     4    180.000000000000      1.534133333333                 2
    22    45    21    39     4    180.000000000000      1.394666666667                 2
   151   153   150   152     4    180.000000000000      1.534133333333                 2
     6     7    24     5     4    180.000000000000      1.534133333333                 2
   157   176   135   156     4    180.000000000000      1.534133333333                 2
    13    32    10    14     4    180.000000000000      1.534133333333                 2
    66    65    83    89     4    180.000000000000      1.394666666667                 2
     4     5    26     3     4    180.000000000000      1.534133333333                 2
   139   138   140   146     4    180.000000000000      1.534133333333                 2
   154   171   187   153     4    180.000000000000      1.394666666667                 2
   150   168   149   151     4    180.000000000000      1.534133333333                 2
    69    68    88    47     4    180.000000000000      1.534133333333                 2
    15    16    20     8     4    180.000000000000      1.534133333333                 2
    19    20    21    18     4    180.000000000000      1.534133333333                 2
   101   120    98   102     4    180.000000000000      1.534133333333                 2
   113    91   112   132     4    180.000000000000      1.534133333333                 2
    18    19    36    17     4    180.000000000000      1.534133333333                 2
    92   114    91    93     4    180.000000000000      1.534133333333                 2
   149   148   150   167     4    180.000000000000      1.534133333333                 2
   138   137   139   156     4    180.000000000000      1.534133333333                 2
    19    21    18    20     4    180.000000000000      1.534133333333                 2
     7     6     8    14     4    180.000000000000      1.534133333333                 2
    61    62    79    60     4    180.000000000000      1.534133333333                 2
   152   169   147   151     4    180.000000000000      1.534133333333                 2
    25     3    24    44     4    180.000000000000      1.534133333333                 2
   103   104   108    96     4    180.000000000000      1.534133333333                 2
   106   105   107   124     4    180.000000000000      1.534133333333                 2
    53    52    54    72     4    180.000000000000      1.534133333333                 2
   101    98   102   120     4    180.000000000000      1.534133333333                 2
    63    62    64    65     4    180.000000000000      1.534133333333                 2
    10    11    13     9     4    180.000000000000      1.534133333333                 2
   141   142   160   140     4    180.000000000000      1.534133333333                 2
    60    61    78    59     4    180.000000000000      1.534133333333                 2
   154   187   153   171     4    180.000000000000      1.394666666667                 2
    62    61    63    80     4    180.000000000000      1.534133333333                 2
    24    25    43     6     4    180.000000000000      1.534133333333                 2
   102   121    95   101     4    180.000000000000      1.534133333333                 2
    98    97    99   101     4    180.000000000000      1.534133333333                 2
   187   154   186   188     4    180.000000000000     14.644000000000                 2
    51    58    50    52     4    180.000000000000      1.534133333333                 2
    16    17    34    15     4    180.000000000000      1.534133333333                 2

[ settles ]
;i  funct   dOH  dHH


[ exclusions ]
;ai    aj


[ system ]
;name
FOO

[ molecules ]
;name	number
mop_tetramer.pdb	1

