Generated by Interchange
197
    1MOP     C1    1  -0.320  -0.507   0.008
    1MOP     O2    2  -0.411  -0.542  -0.072
    1MOP     C3    3  -0.287  -0.362   0.010
    1MOP     C4    4  -0.182  -0.305   0.098
    1MOP     C5    5  -0.151  -0.162   0.103
    1MOP     C6    6  -0.221  -0.066   0.016
    1MOP     C7    7  -0.189   0.078   0.014
    1MOP     C8    8  -0.051   0.132  -0.015
    1MOP     C9    9  -0.030   0.278  -0.005
    1MOP    C10   10  -0.138   0.369   0.019
    1MOP    O11   11  -0.104   0.502   0.020
    1MOP    C12   12  -0.205   0.596   0.051
    1MOP    C13   13  -0.273   0.320   0.038
    1MOP    C14   14  -0.297   0.176   0.035
    1MOP    C15   15   0.063   0.046  -0.052
    1MOP    C16   16   0.059  -0.043  -0.169
    1MOP    C17   17   0.171  -0.129  -0.203
    1MOP    C18   18   0.291  -0.127  -0.122
    1MOP    C19   19   0.299  -0.040  -0.004
    1MOP    C20   20   0.185   0.045   0.030
    1MOP    C21   21   0.412  -0.054   0.097
    1MOP    N22   22   0.425  -0.189   0.153
    1MOP    C23   23   0.544  -0.016   0.027
    1MOP    C24   24  -0.321  -0.122  -0.075
    1MOP    C25   25  -0.352  -0.263  -0.079
    1MOP    H26   26  -0.116  -0.373   0.152
    1MOP    H27   27  -0.064  -0.132   0.160
    1MOP    H28   28   0.071   0.316  -0.016
    1MOP    H29   29  -0.159   0.695   0.053
    1MOP    H30   30  -0.248   0.577   0.150
    1MOP    H31   31  -0.282   0.596  -0.026
    1MOP    H32   32  -0.355   0.384   0.065
    1MOP    H33   33  -0.397   0.139   0.056
    1MOP    H34   34  -0.037  -0.063  -0.217
    1MOP    H35   35   0.151  -0.219  -0.260
    1MOP    H36   36   0.354  -0.215  -0.123
    1MOP    H37   37   0.181   0.088   0.130
    1MOP    H38   38   0.399   0.018   0.178
    1MOP    H39   39   0.422  -0.256   0.078
    1MOP    H40   40   0.571  -0.089  -0.051
    1MOP    H41   41   0.627  -0.012   0.098
    1MOP    H42   42   0.536   0.082  -0.021
    1MOP    H43   43  -0.365  -0.058  -0.151
    1MOP    H44   44  -0.420  -0.300  -0.154
    2MOP    C45   45   0.316  -0.226   0.236
    2MOP    O46   46   0.252  -0.326   0.194
    2MOP    C47   47   0.310  -0.196   0.379
    2MOP    C48   48   0.425  -0.141   0.452
    2MOP    C49   49   0.424  -0.121   0.596
    2MOP    C50   50   0.305  -0.149   0.677
    2MOP    C51   51   0.301  -0.125   0.823
    2MOP    C52   52   0.333   0.009   0.883
    2MOP    C53   53   0.342   0.018   1.030
    2MOP    C54   54   0.310  -0.093   1.116
    2MOP    O55   55   0.316  -0.066   1.250
    2MOP    C56   56   0.288  -0.172   1.340
    2MOP    C57   57   0.270  -0.220   1.059
    2MOP    C58   58   0.267  -0.235   0.915
    2MOP    C59   59   0.356   0.131   0.803
    2MOP    C60   60   0.257   0.180   0.705
    2MOP    C61   61   0.284   0.297   0.623
    2MOP    C62   62   0.409   0.369   0.638
    2MOP    C63   63   0.510   0.323   0.733
    2MOP    C64   64   0.483   0.205   0.814
    2MOP    C65   65   0.651   0.380   0.734
    2MOP    N66   66   0.720   0.372   0.604
    2MOP    C67   67   0.642   0.528   0.776
    2MOP    C68   68   0.187  -0.198   0.605
    2MOP    C69   69   0.188  -0.219   0.461
    2MOP    H70   70   0.512  -0.109   0.396
    2MOP    H71   71   0.511  -0.072   0.640
    2MOP    H72   72   0.373   0.113   1.074
    2MOP    H73   73   0.300  -0.134   1.441
    2MOP    H74   74   0.359  -0.254   1.326
    2MOP    H75   75   0.185  -0.207   1.328
    2MOP    H76   76   0.248  -0.307   1.119
    2MOP    H77   77   0.248  -0.333   0.872
    2MOP    H78   78   0.176   0.115   0.676
    2MOP    H79   79   0.232   0.304   0.528
    2MOP    H80   80   0.443   0.427   0.553
    2MOP    H81   81   0.566   0.156   0.864
    2MOP    H82   82   0.711   0.330   0.811
    2MOP    H83   83   0.657   0.404   0.532
    2MOP    H84   84   0.590   0.589   0.701
    2MOP    H85   85   0.742   0.571   0.790
    2MOP    H86   86   0.588   0.539   0.870
    2MOP    H87   87   0.094  -0.214   0.658
    2MOP    H88   88   0.100  -0.255   0.411
    3MOP    C89   89   0.750   0.238   0.565
    3MOP    O90   90   0.696   0.205   0.458
    3MOP    C91   91   0.873   0.168   0.605
    3MOP    C92   92   0.983   0.237   0.675
    3MOP    C93   93   1.110   0.172   0.703
    3MOP    C94   94   1.133   0.031   0.671
    3MOP    C95   95   1.260  -0.038   0.705
    3MOP    C96   96   1.315  -0.040   0.845
    3MOP    C97   97   1.451  -0.097   0.864
    3MOP    C98   98   1.524  -0.159   0.757
    3MOP    O99   99   1.646  -0.210   0.792
    3MOP   C100  100   1.724  -0.270   0.690
    3MOP   C101  101   1.467  -0.164   0.623
    3MOP   C102  102   1.338  -0.104   0.599
    3MOP   C103  103   1.244   0.012   0.962
    3MOP   C104  104   1.108  -0.034   0.999
    3MOP   C105  105   1.038   0.022   1.112
    3MOP   C106  106   1.100   0.126   1.193
    3MOP   C107  107   1.233   0.177   1.157
    3MOP   C108  108   1.302   0.120   1.042
    3MOP   C109  109   1.289   0.302   1.222
    3MOP   N110  110   1.204   0.422   1.207
    3MOP   C111  111   1.310   0.274   1.371
    3MOP   C112  112   1.022  -0.042   0.608
    3MOP   C113  113   0.895   0.024   0.579
    3MOP   H114  114   0.966   0.338   0.711
    3MOP   H115  115   1.182   0.229   0.760
    3MOP   H116  116   1.495  -0.090   0.962
    3MOP   H117  117   1.817  -0.304   0.735
    3MOP   H118  118   1.748  -0.197   0.612
    3MOP   H119  119   1.672  -0.357   0.648
    3MOP   H120  120   1.521  -0.203   0.538
    3MOP   H121  121   1.300  -0.099   0.497
    3MOP   H122  122   1.051  -0.091   0.926
    3MOP   H123  123   0.929   0.017   1.111
    3MOP   H124  124   1.034   0.192   1.248
    3MOP   H125  125   1.385   0.177   1.000
    3MOP   H126  126   1.389   0.324   1.181
    3MOP   H127  127   1.110   0.397   1.233
    3MOP   H128  128   1.215   0.260   1.424
    3MOP   H129  129   1.363   0.357   1.420
    3MOP   H130  130   1.370   0.184   1.386
    3MOP   H131  131   1.030  -0.148   0.588
    3MOP   H132  132   0.815  -0.032   0.532
    4MOP   C133  133   1.190   0.466   1.072
    4MOP   O134  134   1.071   0.467   1.033
    4MOP   C135  135   1.282   0.561   1.008
    4MOP   C136  136   1.386   0.628   1.086
    4MOP   C137  137   1.478   0.722   1.026
    4MOP   C138  138   1.467   0.768   0.888
    4MOP   C139  139   1.560   0.870   0.833
    4MOP   C140  140   1.710   0.863   0.852
    4MOP   C141  141   1.791   0.978   0.810
    4MOP   C142  142   1.732   1.094   0.746
    4MOP   O143  143   1.822   1.192   0.711
    4MOP   C144  144   1.771   1.306   0.644
    4MOP   C145  145   1.590   1.101   0.726
    4MOP   C146  146   1.505   0.991   0.768
    4MOP   C147  147   1.780   0.746   0.910
    4MOP   C148  148   1.760   0.609   0.860
    4MOP   C149  149   1.823   0.495   0.925
    4MOP   C150  150   1.906   0.515   1.042
    4MOP   C151  151   1.930   0.649   1.094
    4MOP   C152  152   1.866   0.763   1.029
    4MOP   C153  153   2.010   0.674   1.220
    4MOP   N154  154   1.956   0.614   1.341
    4MOP   C155  155   2.153   0.622   1.198
    4MOP   C156  156   1.364   0.700   0.807
    4MOP   C157  157   1.277   0.598   0.865
    4MOP   H158  158   1.401   0.598   1.189
    4MOP   H159  159   1.572   0.734   1.077
    4MOP   H160  160   1.898   0.975   0.825
    4MOP   H161  161   1.855   1.371   0.619
    4MOP   H162  162   1.703   1.362   0.709
    4MOP   H163  163   1.721   1.278   0.550
    4MOP   H164  164   1.541   1.191   0.691
    4MOP   H165  165   1.397   1.003   0.765
    4MOP   H166  166   1.678   0.590   0.791
    4MOP   H167  167   1.781   0.397   0.906
    4MOP   H168  168   1.926   0.430   1.106
    4MOP   H169  169   1.861   0.857   1.083
    4MOP   H170  170   2.021   0.782   1.236
    4MOP   H171  171   1.939   0.514   1.331
    4MOP   H172  172   2.156   0.513   1.183
    4MOP   H173  173   2.217   0.645   1.285
    4MOP   H174  174   2.199   0.669   1.111
    4MOP   H175  175   1.358   0.719   0.701
    4MOP   H176  176   1.206   0.546   0.803
    5CAP   C177  177  -0.302  -0.709   0.125
    5CAP   O178  178  -0.246  -0.580   0.100
    5CAP   H179  179  -0.402  -0.699   0.170
    5CAP   H180  180  -0.238  -0.760   0.197
    5CAP   H181  181  -0.306  -0.770   0.034
    6CAP   C182  182   1.720   1.018   1.413
    6CAP   C183  183   1.692   0.866   1.417
    6CAP   C184  184   1.632   0.832   1.555
    6CAP   C185  185   1.590   0.840   1.307
    6CAP   O186  186   1.820   0.805   1.390
    6CAP   C187  187   1.834   0.668   1.390
    6CAP   O188  188   1.763   0.575   1.433
    6CAP   H189  189   1.629   1.076   1.431
    6CAP   H190  190   1.795   1.045   1.487
    6CAP   H191  191   1.760   1.046   1.315
    6CAP   H192  192   1.706   0.844   1.634
    6CAP   H193  193   1.596   0.728   1.560
    6CAP   H194  194   1.546   0.895   1.577
    6CAP   H195  195   1.633   0.871   1.211
    6CAP   H196  196   1.564   0.734   1.302
    6CAP   H197  197   1.497   0.896   1.322
  5.0000000  5.0000000  5.0000000
