Generated by Interchange
197
    1MOP     C1    1  -0.329  -0.476   0.002
    1MOP     O2    2  -0.381  -0.528  -0.096
    1MOP     C3    3  -0.282  -0.336   0.005
    1MOP     C4    4  -0.185  -0.290   0.093
    1MOP     C5    5  -0.154  -0.154   0.096
    1MOP     C6    6  -0.220  -0.063   0.010
    1MOP     C7    7  -0.190   0.081   0.010
    1MOP     C8    8  -0.061   0.130  -0.019
    1MOP     C9    9  -0.037   0.269  -0.010
    1MOP    C10   10  -0.138   0.359   0.020
    1MOP    O11   11  -0.098   0.489   0.025
    1MOP    C12   12  -0.198   0.586   0.050
    1MOP    C13   13  -0.267   0.311   0.041
    1MOP    C14   14  -0.292   0.173   0.037
    1MOP    C15   15   0.050   0.043  -0.056
    1MOP    C16   16   0.044  -0.045  -0.166
    1MOP    C17   17   0.148  -0.132  -0.196
    1MOP    C18   18   0.261  -0.128  -0.118
    1MOP    C19   19   0.269  -0.038  -0.010
    1MOP    C20   20   0.164   0.045   0.022
    1MOP    C21   21   0.389  -0.037   0.080
    1MOP    N22   22   0.387  -0.170   0.141
    1MOP    C23   23   0.505  -0.003  -0.014
    1MOP    C24   24  -0.316  -0.113  -0.080
    1MOP    C25   25  -0.346  -0.249  -0.083
    1MOP    H26   26  -0.132  -0.358   0.160
    1MOP    H27   27  -0.078  -0.118   0.165
    1MOP    H28   28   0.064   0.307  -0.026
    1MOP    H29   29  -0.150   0.684   0.050
    1MOP    H30   30  -0.244   0.571   0.149
    1MOP    H31   31  -0.274   0.586  -0.029
    1MOP    H32   32  -0.350   0.377   0.062
    1MOP    H33   33  -0.393   0.137   0.057
    1MOP    H34   34  -0.046  -0.049  -0.228
    1MOP    H35   35   0.141  -0.201  -0.279
    1MOP    H36   36   0.343  -0.196  -0.140
    1MOP    H37   37   0.170   0.109   0.110
    1MOP    H38   38   0.381   0.038   0.159
    1MOP    H39   39   0.411  -0.241   0.075
    1MOP    H40   40   0.530  -0.085  -0.082
    1MOP    H41   41   0.597   0.026   0.035
    1MOP    H42   42   0.480   0.084  -0.076
    1MOP    H43   43  -0.367  -0.046  -0.148
    1MOP    H44   44  -0.421  -0.286  -0.153
    2MOP    C45   45   0.293  -0.204   0.239
    2MOP    O46   46   0.249  -0.123   0.320
    2MOP    C47   47   0.238  -0.344   0.233
    2MOP    C48   48   0.291  -0.441   0.147
    2MOP    C49   49   0.230  -0.565   0.129
    2MOP    C50   50   0.116  -0.601   0.202
    2MOP    C51   51   0.052  -0.734   0.183
    2MOP    C52   52   0.114  -0.856   0.215
    2MOP    C53   53   0.051  -0.980   0.186
    2MOP    C54   54  -0.075  -0.986   0.131
    2MOP    O55   55  -0.128  -1.110   0.110
    2MOP    C56   56  -0.267  -1.114   0.077
    2MOP    C57   57  -0.134  -0.866   0.098
    2MOP    C58   58  -0.072  -0.743   0.123
    2MOP    C59   59   0.249  -0.858   0.265
    2MOP    C60   60   0.288  -0.793   0.382
    2MOP    C61   61   0.421  -0.788   0.420
    2MOP    C62   62   0.514  -0.853   0.342
    2MOP    C63   63   0.473  -0.921   0.225
    2MOP    C64   64   0.342  -0.920   0.185
    2MOP    C65   65   0.571  -0.988   0.134
    2MOP    N66   66   0.653  -0.878   0.087
    2MOP    C67   67   0.633  -1.095   0.226
    2MOP    C68   68   0.065  -0.506   0.292
    2MOP    C69   69   0.125  -0.379   0.308
    2MOP    H70   70   0.381  -0.424   0.089
    2MOP    H71   71   0.274  -0.635   0.058
    2MOP    H72   72   0.104  -1.074   0.206
    2MOP    H73   73  -0.296  -1.219   0.066
    2MOP    H74   74  -0.286  -1.065  -0.020
    2MOP    H75   75  -0.328  -1.069   0.156
    2MOP    H76   76  -0.231  -0.866   0.050
    2MOP    H77   77  -0.119  -0.651   0.091
    2MOP    H78   78   0.215  -0.740   0.442
    2MOP    H79   79   0.453  -0.733   0.508
    2MOP    H80   80   0.619  -0.850   0.370
    2MOP    H81   81   0.315  -0.964   0.089
    2MOP    H82   82   0.523  -1.036   0.048
    2MOP    H83   83   0.715  -0.845   0.158
    2MOP    H84   84   0.700  -1.052   0.301
    2MOP    H85   85   0.688  -1.172   0.174
    2MOP    H86   86   0.554  -1.151   0.278
    2MOP    H87   87  -0.023  -0.530   0.351
    2MOP    H88   88   0.081  -0.307   0.376
    3MOP    C89   89   0.603  -0.782  -0.001
    3MOP    O90   90   0.518  -0.808  -0.088
    3MOP    C91   91   0.650  -0.640   0.021
    3MOP    C92   92   0.743  -0.608   0.122
    3MOP    C93   93   0.775  -0.477   0.154
    3MOP    C94   94   0.720  -0.370   0.086
    3MOP    C95   95   0.755  -0.232   0.130
    3MOP    C96   96   0.879  -0.171   0.108
    3MOP    C97   97   0.900  -0.037   0.149
    3MOP    C98   98   0.800   0.038   0.211
    3MOP    O99   99   0.827   0.169   0.232
    3MOP   C100  100   0.716   0.255   0.258
    3MOP   C101  101   0.684  -0.028   0.247
    3MOP   C102  102   0.665  -0.163   0.211
    3MOP   C103  103   0.994  -0.249   0.060
    3MOP   C104  104   0.994  -0.315  -0.063
    3MOP   C105  105   1.100  -0.398  -0.098
    3MOP   C106  106   1.208  -0.414  -0.010
    3MOP   C107  107   1.209  -0.348   0.114
    3MOP   C108  108   1.101  -0.268   0.148
    3MOP   C109  109   1.318  -0.370   0.218
    3MOP   N110  110   1.316  -0.510   0.256
    3MOP   C111  111   1.452  -0.325   0.161
    3MOP   C112  112   0.631  -0.399  -0.020
    3MOP   C113  113   0.596  -0.533  -0.052
    3MOP   H114  114   0.793  -0.684   0.180
    3MOP   H115  115   0.848  -0.458   0.237
    3MOP   H116  116   0.997   0.010   0.132
    3MOP   H117  117   0.756   0.355   0.278
    3MOP   H118  118   0.661   0.225   0.347
    3MOP   H119  119   0.651   0.263   0.171
    3MOP   H120  120   0.601   0.022   0.296
    3MOP   H121  121   0.576  -0.214   0.245
    3MOP   H122  122   0.910  -0.305  -0.131
    3MOP   H123  123   1.097  -0.453  -0.192
    3MOP   H124  124   1.289  -0.481  -0.039
    3MOP   H125  125   1.097  -0.223   0.248
    3MOP   H126  126   1.297  -0.311   0.308
    3MOP   H127  127   1.362  -0.570   0.189
    3MOP   H128  128   1.482  -0.383   0.073
    3MOP   H129  129   1.532  -0.334   0.236
    3MOP   H130  130   1.447  -0.220   0.130
    3MOP   H131  131   0.587  -0.319  -0.078
    3MOP   H132  132   0.524  -0.552  -0.131
    4MOP   C133  133   1.204  -0.558   0.323
    4MOP   O134  134   1.147  -0.494   0.411
    4MOP   C135  135   1.146  -0.689   0.277
    4MOP   C136  136   1.202  -0.759   0.170
    4MOP   C137  137   1.147  -0.877   0.121
    4MOP   C138  138   1.032  -0.931   0.177
    4MOP   C139  139   0.978  -1.056   0.118
    4MOP   C140  140   1.036  -1.184   0.134
    4MOP   C141  141   0.972  -1.297   0.076
    4MOP   C142  142   0.854  -1.287   0.003
    4MOP   O143  143   0.796  -1.404  -0.035
    4MOP   C144  144   0.658  -1.400  -0.072
    4MOP   C145  145   0.808  -1.160  -0.027
    4MOP   C146  146   0.873  -1.047   0.026
    4MOP   C147  147   1.169  -1.199   0.193
    4MOP   C148  148   1.199  -1.160   0.324
    4MOP   C149  149   1.330  -1.164   0.371
    4MOP   C150  150   1.433  -1.209   0.288
    4MOP   C151  151   1.405  -1.249   0.156
    4MOP   C152  152   1.273  -1.244   0.111
    4MOP   C153  153   1.514  -1.288   0.058
    4MOP   N154  154   1.598  -1.173   0.029
    4MOP   C155  155   1.589  -1.411   0.108
    4MOP   C156  156   0.972  -0.861   0.284
    4MOP   C157  157   1.029  -0.740   0.333
    4MOP   H158  158   1.288  -0.722   0.119
    4MOP   H159  159   1.195  -0.928   0.038
    4MOP   H160  160   1.018  -1.395   0.088
    4MOP   H161  161   0.629  -1.502  -0.102
    4MOP   H162  162   0.641  -1.335  -0.158
    4MOP   H163  163   0.595  -1.371   0.012
    4MOP   H164  164   0.718  -1.143  -0.085
    4MOP   H165  165   0.840  -0.949  -0.004
    4MOP   H166  166   1.120  -1.121   0.388
    4MOP   H167  167   1.352  -1.130   0.471
    4MOP   H168  168   1.535  -1.210   0.325
    4MOP   H169  169   1.252  -1.267   0.006
    4MOP   H170  170   1.467  -1.317  -0.037
    4MOP   H171  171   1.675  -1.150   0.089
    4MOP   H172  172   1.642  -1.392   0.203
    4MOP   H173  173   1.663  -1.444   0.035
    4MOP   H174  174   1.519  -1.494   0.125
    4MOP   H175  175   0.881  -0.897   0.330
    4MOP   H176  176   0.979  -0.685   0.412
    5CAP   C177  177  -0.376  -0.660   0.134
    5CAP   O178  178  -0.317  -0.530   0.125
    5CAP   H179  179  -0.481  -0.652   0.157
    5CAP   H180  180  -0.326  -0.714   0.216
    5CAP   H181  181  -0.363  -0.716   0.041
    6CAP   C182  182   1.705  -0.745  -0.120
    6CAP   C183  183   1.584  -0.839  -0.111
    6CAP   C184  184   1.481  -0.774  -0.020
    6CAP   C185  185   1.527  -0.857  -0.252
    6CAP   O186  186   1.630  -0.963  -0.050
    6CAP   C187  187   1.545  -1.069  -0.044
    6CAP   O188  188   1.433  -1.072  -0.094
    6CAP   H189  189   1.676  -0.647  -0.162
    6CAP   H190  190   1.749  -0.727  -0.021
    6CAP   H191  191   1.783  -0.787  -0.183
    6CAP   H192  192   1.517  -0.766   0.083
    6CAP   H193  193   1.391  -0.835  -0.019
    6CAP   H194  194   1.454  -0.673  -0.055
    6CAP   H195  195   1.596  -0.912  -0.316
    6CAP   H196  196   1.432  -0.912  -0.253
    6CAP   H197  197   1.505  -0.760  -0.299
  5.0000000  5.0000000  5.0000000
