Generated by Interchange
373
    1MOP     C1    1  -0.300  -0.500  -0.077
    1MOP     O1    2  -0.378  -0.537  -0.163
    1MOP     C2    3  -0.266  -0.357  -0.053
    1MOP     C3    4  -0.170  -0.318   0.041
    1MOP     C4    5  -0.147  -0.182   0.064
    1MOP     C5    6  -0.216  -0.082  -0.007
    1MOP     C6    7  -0.190   0.061   0.018
    1MOP     C7    8  -0.064   0.120  -0.005
    1MOP     C8    9  -0.047   0.257   0.025
    1MOP     C9   10  -0.150   0.335   0.078
    1MOP     O2   11  -0.116   0.465   0.104
    1MOP    C10   12  -0.215   0.546   0.166
    1MOP    C11   13  -0.274   0.276   0.098
    1MOP    C12   14  -0.294   0.141   0.069
    1MOP    C13   15   0.052   0.045  -0.057
    1MOP    C14   16   0.048  -0.019  -0.182
    1MOP    C15   17   0.158  -0.092  -0.228
    1MOP    C16   18   0.274  -0.098  -0.152
    1MOP    C17   19   0.283  -0.031  -0.028
    1MOP    C18   20   0.169   0.036   0.019
    1MOP    C19   21   0.414  -0.030   0.048
    1MOP     N1   22   0.411  -0.124   0.159
    1MOP    C20   23   0.452   0.113   0.091
    1MOP    C21   24  -0.311  -0.123  -0.102
    1MOP    C22   25  -0.336  -0.259  -0.125
    1MOP     H1   26  -0.113  -0.391   0.097
    1MOP     H2   27  -0.072  -0.154   0.139
    1MOP     H3   28   0.050   0.304   0.008
    1MOP     H4   29  -0.171   0.645   0.183
    1MOP     H5   30  -0.244   0.505   0.264
    1MOP     H6   31  -0.302   0.559   0.101
    1MOP     H7   32  -0.358   0.333   0.138
    1MOP     H8   33  -0.392   0.097   0.088
    1MOP     H9   34  -0.041  -0.013  -0.244
    1MOP    H10   35   0.153  -0.143  -0.324
    1MOP    H11   36   0.359  -0.154  -0.190
    1MOP    H12   37   0.172   0.084   0.116
    1MOP    H13   38   0.488  -0.067  -0.022
    1MOP    H14   39   0.319  -0.161   0.183
    1MOP    H15   40   0.376   0.160   0.153
    1MOP    H16   41   0.467   0.176   0.002
    1MOP    H17   42   0.545   0.116   0.149
    1MOP    H18   43  -0.365  -0.049  -0.160
    1MOP    H19   44  -0.411  -0.288  -0.199
    2MOP    C23   45   0.509  -0.178   0.239
    2MOP     O3   46   0.474  -0.260   0.324
    2MOP    C24   47   0.653  -0.138   0.233
    2MOP    C25   48   0.715  -0.080   0.123
    2MOP    C26   49   0.845  -0.030   0.132
    2MOP    C27   50   0.920  -0.044   0.249
    2MOP    C28   51   1.054   0.013   0.255
    2MOP    C29   52   1.076   0.153   0.267
    2MOP    C30   53   1.209   0.199   0.255
    2MOP    C31   54   1.317   0.114   0.231
    2MOP     O4   55   1.438   0.176   0.216
    2MOP    C32   56   1.547   0.094   0.178
    2MOP    C33   57   1.294  -0.024   0.223
    2MOP    C34   58   1.164  -0.073   0.235
    2MOP    C35   59   0.968   0.251   0.286
    2MOP    C36   60   0.881   0.245   0.396
    2MOP    C37   61   0.779   0.340   0.413
    2MOP    C38   62   0.766   0.445   0.323
    2MOP    C39   63   0.854   0.457   0.214
    2MOP    C40   64   0.951   0.356   0.195
    2MOP    C41   65   0.845   0.576   0.121
    2MOP     N2   66   0.790   0.535  -0.008
    2MOP    C42   67   0.983   0.643   0.109
    2MOP    C43   68   0.863  -0.114   0.356
    2MOP    C44   69   0.730  -0.159   0.349
    2MOP    H20   70   0.668  -0.069   0.027
    2MOP    H21   71   0.887   0.022   0.046
    2MOP    H22   72   1.229   0.306   0.263
    2MOP    H23   73   1.635   0.158   0.168
    2MOP    H24   74   1.529   0.047   0.081
    2MOP    H25   75   1.569   0.019   0.255
    2MOP    H26   76   1.374  -0.094   0.204
    2MOP    H27   77   1.148  -0.180   0.223
    2MOP    H28   78   0.891   0.166   0.470
    2MOP    H29   79   0.712   0.332   0.498
    2MOP    H30   80   0.687   0.518   0.339
    2MOP    H31   81   1.016   0.361   0.108
    2MOP    H32   82   0.775   0.647   0.165
    2MOP    H33   83   0.780   0.435  -0.017
    2MOP    H34   84   1.061   0.574   0.074
    2MOP    H35   85   1.014   0.681   0.207
    2MOP    H36   86   0.985   0.727   0.039
    2MOP    H37   87   0.920  -0.131   0.447
    2MOP    H38   88   0.687  -0.210   0.435
    3MOP    C45   89   0.696   0.597  -0.087
    3MOP     O5   90   0.618   0.525  -0.148
    3MOP    C46   91   0.695   0.744  -0.114
    3MOP    C47   92   0.753   0.842  -0.033
    3MOP    C48   93   0.762   0.974  -0.076
    3MOP    C49   94   0.708   1.015  -0.198
    3MOP    C50   95   0.722   1.155  -0.240
    3MOP    C51   96   0.848   1.213  -0.272
    3MOP    C52   97   0.853   1.352  -0.294
    3MOP    C53   98   0.740   1.433  -0.286
    3MOP     O6   99   0.764   1.566  -0.304
    3MOP    C54  100   0.655   1.654  -0.280
    3MOP    C55  101   0.617   1.375  -0.259
    3MOP    C56  102   0.608   1.237  -0.237
    3MOP    C57  103   0.974   1.135  -0.278
    3MOP    C58  104   0.991   1.027  -0.365
    3MOP    C59  105   1.112   0.957  -0.370
    3MOP    C60  106   1.220   0.998  -0.292
    3MOP    C61  107   1.207   1.109  -0.207
    3MOP    C62  108   1.083   1.173  -0.198
    3MOP    C63  109   1.327   1.161  -0.130
    3MOP     N3  110   1.308   1.139   0.013
    3MOP    C64  111   1.350   1.309  -0.165
    3MOP    C65  112   0.640   0.920  -0.276
    3MOP    C66  113   0.634   0.786  -0.234
    3MOP    H39  114   0.795   0.821   0.064
    3MOP    H40  115   0.813   1.046  -0.012
    3MOP    H41  116   0.949   1.399  -0.317
    3MOP    H42  117   0.691   1.757  -0.291
    3MOP    H43  118   0.617   1.644  -0.177
    3MOP    H44  119   0.575   1.639  -0.353
    3MOP    H45  120   0.526   1.433  -0.252
    3MOP    H46  121   0.511   1.194  -0.212
    3MOP    H47  122   0.909   0.995  -0.430
    3MOP    H48  123   1.123   0.873  -0.438
    3MOP    H49  124   1.314   0.944  -0.299
    3MOP    H50  125   1.071   1.257  -0.129
    3MOP    H51  126   1.414   1.102  -0.161
    3MOP    H52  127   1.215   1.109   0.037
    3MOP    H53  128   1.265   1.372  -0.139
    3MOP    H54  129   1.368   1.320  -0.272
    3MOP    H55  130   1.436   1.352  -0.112
    3MOP    H56  131   0.595   0.948  -0.370
    3MOP    H57  132   0.584   0.714  -0.298
    4MOP    C67  133   1.397   1.082   0.101
    4MOP     O7  134   1.352   1.001   0.183
    4MOP    C68  135   1.538   1.128   0.114
    4MOP    C69  136   1.612   1.188   0.012
    4MOP    C70  137   1.736   1.246   0.039
    4MOP    C71  138   1.791   1.243   0.168
    4MOP    C72  139   1.920   1.308   0.191
    4MOP    C73  140   1.936   1.449   0.185
    4MOP    C74  141   2.067   1.501   0.191
    4MOP    C75  142   2.179   1.418   0.201
    4MOP     O8  143   2.299   1.484   0.199
    4MOP    C76  144   2.416   1.402   0.196
    4MOP    C77  145   2.162   1.281   0.209
    4MOP    C78  146   2.034   1.226   0.205
    4MOP    C79  147   1.822   1.541   0.166
    4MOP    C80  148   1.718   1.551   0.259
    4MOP    C81  149   1.612   1.640   0.238
    4MOP    C82  150   1.612   1.724   0.127
    4MOP    C83  151   1.717   1.720   0.034
    4MOP    C84  152   1.818   1.625   0.053
    4MOP    C85  153   1.729   1.827  -0.073
    4MOP     N4  154   1.715   1.777  -0.210
    4MOP    C86  155   1.863   1.901  -0.056
    4MOP    C87  156   1.722   1.174   0.268
    4MOP    C88  157   1.597   1.118   0.242
    4MOP    H58  158   1.579   1.193  -0.090
    4MOP    H59  159   1.789   1.297  -0.041
    4MOP    H60  160   2.082   1.609   0.186
    4MOP    H61  161   2.503   1.468   0.194
    4MOP    H62  162   2.418   1.340   0.105
    4MOP    H63  163   2.423   1.340   0.286
    4MOP    H64  164   2.246   1.212   0.216
    4MOP    H65  165   2.022   1.118   0.208
    4MOP    H66  166   1.717   1.490   0.348
    4MOP    H67  167   1.531   1.646   0.310
    4MOP    H68  168   1.530   1.796   0.114
    4MOP    H69  169   1.898   1.618  -0.020
    4MOP    H70  170   1.648   1.900  -0.056
    4MOP    H71  171   1.799   1.795  -0.262
    4MOP    H72  172   1.949   1.834  -0.059
    4MOP    H73  173   1.866   1.956   0.039
    4MOP    H74  174   1.880   1.974  -0.137
    4MOP    H75  175   1.763   1.168   0.369
    4MOP    H76  176   1.543   1.068   0.322
    5MOP    C89  177   1.601   1.816  -0.280
    5MOP     O9  178   1.495   1.755  -0.278
    5MOP    C90  179   1.615   1.939  -0.363
    5MOP    C91  180   1.671   2.054  -0.306
    5MOP    C92  181   1.683   2.171  -0.379
    5MOP    C93  182   1.636   2.179  -0.511
    5MOP    C94  183   1.647   2.308  -0.581
    5MOP    C95  184   1.772   2.368  -0.609
    5MOP    C96  185   1.773   2.501  -0.659
    5MOP    C97  186   1.655   2.573  -0.679
    5MOP    O10  187   1.673   2.702  -0.722
    5MOP    C98  188   1.556   2.781  -0.737
    5MOP    C99  189   1.533   2.512  -0.652
    5MOP   C100  190   1.529   2.381  -0.605
    5MOP   C101  191   1.901   2.302  -0.581
    5MOP   C102  192   1.936   2.179  -0.640
    5MOP   C103  193   2.058   2.117  -0.609
    5MOP   C104  194   2.148   2.179  -0.524
    5MOP   C105  195   2.119   2.304  -0.467
    5MOP   C106  196   1.993   2.361  -0.493
    5MOP   C107  197   2.225   2.380  -0.390
    5MOP     N5  198   2.195   2.393  -0.247
    5MOP   C108  199   2.246   2.519  -0.454
    5MOP   C109  200   1.576   2.065  -0.567
    5MOP   C110  201   1.565   1.945  -0.494
    5MOP    H77  202   1.702   2.057  -0.203
    5MOP    H78  203   1.728   2.258  -0.332
    5MOP    H79  204   1.868   2.550  -0.680
    5MOP    H80  205   1.587   2.880  -0.772
    5MOP    H81  206   1.504   2.795  -0.642
    5MOP    H82  207   1.489   2.739  -0.813
    5MOP    H83  208   1.438   2.564  -0.665
    5MOP    H84  209   1.432   2.337  -0.580
    5MOP    H85  210   1.868   2.130  -0.709
    5MOP    H86  211   2.082   2.022  -0.654
    5MOP    H87  212   2.244   2.131  -0.504
    5MOP    H88  213   1.967   2.456  -0.446
    5MOP    H89  214   2.319   2.324  -0.400
    5MOP    H90  215   2.181   2.490  -0.223
    5MOP    H91  216   2.154   2.578  -0.457
    5MOP    H92  217   2.283   2.509  -0.556
    5MOP    H93  218   2.317   2.580  -0.398
    5MOP    H94  219   1.536   2.069  -0.668
    5MOP    H95  220   1.517   1.858  -0.538
    6MOP   C111  221   2.280   2.330  -0.156
    6MOP    O11  222   2.258   2.218  -0.110
    6MOP   C112  223   2.399   2.408  -0.112
    6MOP   C113  224   2.480   2.471  -0.206
    6MOP   C114  225   2.590   2.546  -0.167
    6MOP   C115  226   2.627   2.554  -0.032
    6MOP   C116  227   2.748   2.630   0.002
    6MOP   C117  228   2.759   2.770  -0.017
    6MOP   C118  229   2.885   2.831   0.003
    6MOP   C119  230   2.998   2.757   0.040
    6MOP    O12  231   3.113   2.829   0.050
    6MOP   C120  232   3.233   2.757   0.075
    6MOP   C121  233   2.986   2.620   0.060
    6MOP   C122  234   2.862   2.557   0.042
    6MOP   C123  235   2.646   2.852  -0.066
    6MOP   C124  236   2.528   2.866   0.008
    6MOP   C125  237   2.423   2.945  -0.040
    6MOP   C126  238   2.437   3.015  -0.160
    6MOP   C127  239   2.555   3.006  -0.234
    6MOP   C128  240   2.657   2.921  -0.188
    6MOP   C129  241   2.578   3.097  -0.353
    6MOP     N6  242   2.589   3.025  -0.481
    6MOP   C130  243   2.704   3.182  -0.328
    6MOP   C131  244   2.549   2.485   0.062
    6MOP   C132  245   2.435   2.413   0.023
    6MOP    H96  246   2.463   2.461  -0.312
    6MOP    H97  247   2.649   2.596  -0.244
    6MOP    H98  248   2.896   2.938  -0.012
    6MOP    H99  249   3.316   2.828   0.075
    6MOP   H100  250   3.252   2.684  -0.004
    6MOP   H101  251   3.230   2.709   0.173
    6MOP   H102  252   3.070   2.558   0.088
    6MOP   H103  253   2.856   2.449   0.055
    6MOP   H104  254   2.516   2.814   0.102
    6MOP   H105  255   2.331   2.954   0.017
    6MOP   H106  256   2.355   3.079  -0.194
    6MOP   H107  257   2.748   2.911  -0.246
    6MOP   H108  258   2.493   3.165  -0.361
    6MOP   H109  259   2.680   3.041  -0.523
    6MOP   H110  260   2.792   3.121  -0.305
    6MOP   H111  261   2.688   3.251  -0.244
    6MOP   H112  262   2.733   3.242  -0.414
    6MOP   H113  263   2.577   2.488   0.167
    6MOP   H114  264   2.377   2.360   0.098
    7MOP   C133  265   2.487   3.042  -0.574
    7MOP    O13  266   2.386   2.973  -0.576
    7MOP   C134  267   2.507   3.150  -0.674
    7MOP   C135  268   2.556   3.274  -0.631
    7MOP   C136  269   2.576   3.378  -0.720
    7MOP   C137  270   2.543   3.364  -0.855
    7MOP   C138  271   2.558   3.481  -0.943
    7MOP   C139  272   2.683   3.543  -0.968
    7MOP   C140  273   2.684   3.665  -1.039
    7MOP   C141  274   2.567   3.727  -1.083
    7MOP    O14  275   2.585   3.847  -1.146
    7MOP   C142  276   2.467   3.914  -1.191
    7MOP   C143  277   2.445   3.665  -1.058
    7MOP   C144  278   2.440   3.544  -0.990
    7MOP   C145  279   2.810   3.490  -0.914
    7MOP   C146  280   2.857   3.363  -0.947
    7MOP   C147  281   2.976   3.313  -0.892
    7MOP   C148  282   3.051   3.392  -0.804
    7MOP   C149  283   3.008   3.521  -0.771
    7MOP   C150  284   2.886   3.567  -0.824
    7MOP   C151  285   3.099   3.614  -0.692
    7MOP     N7  286   3.046   3.651  -0.560
    7MOP   C152  287   3.125   3.739  -0.779
    7MOP   C153  288   2.489   3.241  -0.898
    7MOP   C154  289   2.471   3.135  -0.808
    7MOP   H115  290   2.574   3.296  -0.527
    7MOP   H116  291   2.615   3.473  -0.683
    7MOP   H117  292   2.779   3.715  -1.058
    7MOP   H118  293   2.498   4.007  -1.239
    7MOP   H119  294   2.401   3.939  -1.107
    7MOP   H120  295   2.414   3.854  -1.266
    7MOP   H121  296   2.350   3.710  -1.087
    7MOP   H122  297   2.343   3.500  -0.967
    7MOP   H123  298   2.801   3.300  -1.016
    7MOP   H124  299   3.011   3.214  -0.919
    7MOP   H125  300   3.144   3.353  -0.765
    7MOP   H126  301   2.850   3.666  -0.797
    7MOP   H127  302   3.195   3.564  -0.676
    7MOP   H128  303   3.028   3.750  -0.554
    7MOP   H129  304   3.033   3.794  -0.801
    7MOP   H130  305   3.172   3.711  -0.874
    7MOP   H131  306   3.190   3.813  -0.731
    7MOP   H132  307   2.459   3.228  -1.002
    7MOP   H133  308   2.428   3.041  -0.843
    8MOP   C155  309   3.112   3.602  -0.446
    8MOP    O15  310   3.091   3.491  -0.399
    8MOP   C156  311   3.213   3.694  -0.385
    8MOP   C157  312   3.293   3.772  -0.468
    8MOP   C158  313   3.392   3.855  -0.418
    8MOP   C159  314   3.419   3.860  -0.281
    8MOP   C160  315   3.534   3.939  -0.235
    8MOP   C161  316   3.547   4.079  -0.257
    8MOP   C162  317   3.667   4.142  -0.218
    8MOP   C163  318   3.775   4.069  -0.166
    8MOP    O16  319   3.886   4.144  -0.138
    8MOP   C164  320   4.000   4.073  -0.090
    8MOP   C165  321   3.762   3.932  -0.148
    8MOP   C166  322   3.643   3.868  -0.181
    8MOP   C167  323   3.443   4.160  -0.325
    8MOP   C168  324   3.313   4.170  -0.274
    8MOP   C169  325   3.215   4.240  -0.344
    8MOP   C170  326   3.245   4.303  -0.465
    8MOP   C171  327   3.374   4.297  -0.518
    8MOP   C172  328   3.472   4.226  -0.447
    8MOP   C173  329   3.405   4.368  -0.649
    8MOP     N8  330   3.454   4.279  -0.752
    8MOP   C174  331   3.505   4.483  -0.629
    8MOP   C175  332   3.341   3.778  -0.196
    8MOP   C176  333   3.238   3.696  -0.247
    8MOP   H134  334   3.286   3.766  -0.575
    8MOP   H135  335   3.452   3.913  -0.488
    8MOP   H136  336   3.679   4.249  -0.232
    8MOP   H137  337   4.080   4.145  -0.075
    8MOP   H138  338   4.034   3.999  -0.163
    8MOP   H139  339   3.978   4.026   0.007
    8MOP   H140  340   3.844   3.871  -0.110
    8MOP   H141  341   3.637   3.760  -0.170
    8MOP   H142  342   3.287   4.121  -0.181
    8MOP   H143  343   3.113   4.245  -0.304
    8MOP   H144  344   3.166   4.356  -0.518
    8MOP   H145  345   3.573   4.219  -0.488
    8MOP   H146  346   3.312   4.413  -0.687
    8MOP   H147  347   3.552   4.275  -0.773
    8MOP   H148  348   3.599   4.449  -0.585
    8MOP   H149  349   3.463   4.560  -0.564
    8MOP   H150  350   3.529   4.529  -0.726
    8MOP   H151  351   3.361   3.777  -0.089
    8MOP   H152  352   3.181   3.632  -0.180
    9CAP   C177  353  -0.280  -0.715   0.014
    9CAP    O17  354  -0.239  -0.578   0.015
    9CAP   H153  355  -0.373  -0.724   0.071
    9CAP   H154  356  -0.203  -0.774   0.065
    9CAP   H155  357  -0.293  -0.754  -0.087
   10CAP   C178  358   3.498   4.148  -1.182
   10CAP   C179  359   3.394   4.124  -1.071
   10CAP   C180  360   3.261   4.186  -1.119
   10CAP   C181  361   3.380   3.974  -1.046
   10CAP    O18  362   3.449   4.186  -0.952
   10CAP   C182  363   3.372   4.223  -0.846
   10CAP    O19  364   3.252   4.213  -0.838
   10CAP   H156  365   3.470   4.099  -1.275
   10CAP   H157  366   3.510   4.255  -1.202
   10CAP   H158  367   3.597   4.111  -1.151
   10CAP   H159  368   3.267   4.295  -1.121
   10CAP   H160  369   3.177   4.158  -1.055
   10CAP   H161  370   3.236   4.151  -1.220
   10CAP   H162  371   3.478   3.930  -1.022
   10CAP   H163  372   3.315   3.954  -0.961
   10CAP   H164  373   3.341   3.922  -1.134
  5.0000000  5.0000000  5.0000000
