Generated by Interchange
373
    1MOP     C1    1  -0.324  -0.487   0.011
    1MOP     O2    2  -0.402  -0.534  -0.069
    1MOP     C3    3  -0.285  -0.343   0.013
    1MOP     C4    4  -0.190  -0.292   0.102
    1MOP     C5    5  -0.158  -0.156   0.102
    1MOP     C6    6  -0.219  -0.068   0.011
    1MOP     C7    7  -0.184   0.076   0.009
    1MOP     C8    8  -0.052   0.124  -0.016
    1MOP     C9    9  -0.029   0.263  -0.010
    1MOP    C10   10  -0.130   0.354   0.019
    1MOP    O11   11  -0.091   0.485   0.022
    1MOP    C12   12  -0.191   0.582   0.049
    1MOP    C13   13  -0.259   0.307   0.042
    1MOP    C14   14  -0.285   0.170   0.038
    1MOP    C15   15   0.061   0.034  -0.050
    1MOP    C16   16   0.055  -0.051  -0.161
    1MOP    C17   17   0.160  -0.138  -0.191
    1MOP    C18   18   0.275  -0.139  -0.112
    1MOP    C19   19   0.286  -0.052  -0.003
    1MOP    C20   20   0.178   0.032   0.029
    1MOP    C21   21   0.413  -0.049   0.082
    1MOP    N22   22   0.426  -0.174   0.157
    1MOP    C23   23   0.536  -0.019  -0.005
    1MOP    C24   24  -0.313  -0.120  -0.079
    1MOP    C25   25  -0.346  -0.256  -0.078
    1MOP    H26   26  -0.139  -0.357   0.173
    1MOP    H27   27  -0.084  -0.119   0.173
    1MOP    H28   28   0.071   0.301  -0.030
    1MOP    H29   29  -0.143   0.680   0.050
    1MOP    H30   30  -0.235   0.566   0.148
    1MOP    H31   31  -0.268   0.583  -0.029
    1MOP    H32   32  -0.341   0.374   0.065
    1MOP    H33   33  -0.386   0.136   0.058
    1MOP    H34   34  -0.033  -0.051  -0.225
    1MOP    H35   35   0.152  -0.204  -0.277
    1MOP    H36   36   0.355  -0.208  -0.137
    1MOP    H37   37   0.184   0.098   0.116
    1MOP    H38   38   0.402   0.033   0.153
    1MOP    H39   39   0.364  -0.249   0.130
    1MOP    H40   40   0.561  -0.104  -0.070
    1MOP    H41   41   0.624   0.002   0.056
    1MOP    H42   42   0.519   0.068  -0.069
    1MOP    H43   43  -0.362  -0.054  -0.152
    1MOP    H44   44  -0.419  -0.294  -0.149
    2MOP    C45   45   0.525  -0.218   0.241
    2MOP    O46   46   0.533  -0.338   0.266
    2MOP    C47   47   0.622  -0.124   0.304
    2MOP    C48   48   0.584   0.003   0.345
    2MOP    C49   49   0.676   0.087   0.407
    2MOP    C50   50   0.804   0.042   0.442
    2MOP    C51   51   0.892   0.128   0.524
    2MOP    C52   52   0.849   0.187   0.647
    2MOP    C53   53   0.936   0.276   0.712
    2MOP    C54   54   1.062   0.307   0.662
    2MOP    O55   55   1.133   0.398   0.736
    2MOP    C56   56   1.262   0.433   0.688
    2MOP    C57   57   1.105   0.246   0.545
    2MOP    C58   58   1.021   0.158   0.477
    2MOP    C59   59   0.715   0.160   0.707
    2MOP    C60   60   0.674   0.029   0.737
    2MOP    C61   61   0.545   0.003   0.782
    2MOP    C62   62   0.455   0.108   0.801
    2MOP    C63   63   0.495   0.240   0.779
    2MOP    C64   64   0.624   0.265   0.730
    2MOP    C65   65   0.399   0.355   0.808
    2MOP    N66   66   0.291   0.355   0.711
    2MOP    C67   67   0.354   0.353   0.955
    2MOP    C68   68   0.842  -0.087   0.401
    2MOP    C69   69   0.752  -0.169   0.332
    2MOP    H70   70   0.482   0.038   0.335
    2MOP    H71   71   0.643   0.187   0.436
    2MOP    H72   72   0.904   0.324   0.805
    2MOP    H73   73   1.305   0.505   0.758
    2MOP    H74   74   1.257   0.480   0.590
    2MOP    H75   75   1.328   0.345   0.687
    2MOP    H76   76   1.203   0.266   0.502
    2MOP    H77   77   1.056   0.114   0.384
    2MOP    H78   78   0.742  -0.054   0.721
    2MOP    H79   79   0.514  -0.100   0.800
    2MOP    H80   80   0.354   0.085   0.835
    2MOP    H81   81   0.654   0.367   0.708
    2MOP    H82   82   0.456   0.448   0.794
    2MOP    H83   83   0.323   0.391   0.621
    2MOP    H84   84   0.286   0.270   0.976
    2MOP    H85   85   0.301   0.445   0.981
    2MOP    H86   86   0.440   0.345   1.022
    2MOP    H87   87   0.940  -0.126   0.427
    2MOP    H88   88   0.782  -0.270   0.304
    3MOP    C89   89   0.164   0.401   0.740
    3MOP    O90   90   0.068   0.324   0.743
    3MOP    C91   91   0.143   0.546   0.769
    3MOP    C92   92   0.247   0.640   0.764
    3MOP    C93   93   0.225   0.771   0.806
    3MOP    C94   94   0.098   0.815   0.845
    3MOP    C95   95   0.076   0.957   0.882
    3MOP    C96   96   0.115   1.064   0.798
    3MOP    C97   97   0.099   1.196   0.845
    3MOP    C98   98   0.044   1.224   0.970
    3MOP    O99   99   0.037   1.357   1.001
    3MOP   C100  100  -0.023   1.391   1.125
    3MOP   C101  101   0.002   1.119   1.050
    3MOP   C102  102   0.018   0.987   1.007
    3MOP   C103  103   0.173   1.043   0.663
    3MOP   C104  104   0.102   0.973   0.564
    3MOP   C105  105   0.161   0.945   0.440
    3MOP   C106  106   0.290   0.990   0.413
    3MOP   C107  107   0.361   1.064   0.508
    3MOP   C108  108   0.302   1.089   0.633
    3MOP   C109  109   0.497   1.121   0.476
    3MOP   N110  110   0.597   1.014   0.464
    3MOP   C111  111   0.490   1.220   0.359
    3MOP   C112  112  -0.007   0.722   0.846
    3MOP   C113  113   0.016   0.589   0.810
    3MOP   H114  114   0.346   0.614   0.728
    3MOP   H115  115   0.309   0.840   0.805
    3MOP   H116  116   0.131   1.280   0.782
    3MOP   H117  117  -0.017   1.500   1.136
    3MOP   H118  118   0.032   1.346   1.209
    3MOP   H119  119  -0.128   1.363   1.126
    3MOP   H120  120  -0.042   1.135   1.148
    3MOP   H121  121  -0.012   0.906   1.074
    3MOP   H122  122   0.002   0.937   0.583
    3MOP   H123  123   0.106   0.888   0.366
    3MOP   H124  124   0.335   0.967   0.316
    3MOP   H125  125   0.358   1.144   0.709
    3MOP   H126  126   0.531   1.179   0.562
    3MOP   H127  127   0.648   1.002   0.551
    3MOP   H128  128   0.462   1.171   0.265
    3MOP   H129  129   0.586   1.270   0.343
    3MOP   H130  130   0.416   1.298   0.379
    3MOP   H131  131  -0.108   0.752   0.874
    3MOP   H132  132  -0.066   0.517   0.813
    4MOP   C133  133   0.677   1.008   0.352
    4MOP   O134  134   0.641   0.956   0.248
    4MOP   C135  135   0.809   1.078   0.361
    4MOP   C136  136   0.836   1.171   0.462
    4MOP   C137  137   0.951   1.250   0.456
    4MOP   C138  138   1.044   1.235   0.352
    4MOP   C139  139   1.166   1.319   0.348
    4MOP   C140  140   1.258   1.327   0.457
    4MOP   C141  141   1.367   1.416   0.446
    4MOP   C142  142   1.387   1.495   0.333
    4MOP   O143  143   1.497   1.577   0.339
    4MOP   C144  144   1.525   1.656   0.225
    4MOP   C145  145   1.298   1.486   0.227
    4MOP   C146  146   1.189   1.399   0.234
    4MOP   C147  147   1.242   1.246   0.579
    4MOP   C148  148   1.239   1.106   0.574
    4MOP   C149  149   1.214   1.030   0.688
    4MOP   C150  150   1.194   1.093   0.811
    4MOP   C151  151   1.202   1.232   0.821
    4MOP   C152  152   1.225   1.308   0.705
    4MOP   C153  153   1.192   1.301   0.956
    4MOP   N154  154   1.057   1.289   1.012
    4MOP   C155  155   1.307   1.259   1.048
    4MOP   C156  156   1.018   1.139   0.253
    4MOP   C157  157   0.901   1.062   0.256
    4MOP   H158  158   0.768   1.188   0.544
    4MOP   H159  159   0.967   1.325   0.533
    4MOP   H160  160   1.438   1.423   0.528
    4MOP   H161  161   1.616   1.714   0.246
    4MOP   H162  162   1.444   1.727   0.205
    4MOP   H163  163   1.545   1.593   0.137
    4MOP   H164  164   1.309   1.546   0.137
    4MOP   H165  165   1.119   1.396   0.151
    4MOP   H166  166   1.254   1.055   0.479
    4MOP   H167  167   1.209   0.922   0.681
    4MOP   H168  168   1.174   1.033   0.900
    4MOP   H169  169   1.228   1.416   0.711
    4MOP   H170  170   1.204   1.409   0.939
    4MOP   H171  171   1.002   1.370   0.990
    4MOP   H172  172   1.302   1.154   1.076
    4MOP   H173  173   1.308   1.318   1.140
    4MOP   H174  174   1.404   1.277   0.999
    4MOP   H175  175   1.088   1.124   0.171
    4MOP   H176  176   0.880   0.992   0.176
    5MOP   C177  177   1.041   1.245   1.142
    5MOP   O178  178   1.038   1.126   1.171
    5MOP   C179  179   1.037   1.350   1.248
    5MOP   C180  180   1.083   1.479   1.224
    5MOP   C181  181   1.101   1.568   1.330
    5MOP   C182  182   1.067   1.533   1.461
    5MOP   C183  183   1.084   1.630   1.572
    5MOP   C184  184   1.025   1.758   1.570
    5MOP   C185  185   1.052   1.847   1.676
    5MOP   C186  186   1.134   1.811   1.783
    5MOP   O187  187   1.150   1.909   1.877
    5MOP   C188  188   1.228   1.876   1.991
    5MOP   C189  189   1.191   1.684   1.786
    5MOP   C190  190   1.166   1.595   1.681
    5MOP   C191  191   0.935   1.804   1.461
    5MOP   C192  192   0.816   1.736   1.432
    5MOP   C193  193   0.735   1.776   1.326
    5MOP   C194  194   0.771   1.885   1.248
    5MOP   C195  195   0.887   1.958   1.276
    5MOP   C196  196   0.969   1.915   1.382
    5MOP   C197  197   0.923   2.081   1.198
    5MOP   N198  198   0.963   2.047   1.061
    5MOP   C199  199   0.816   2.190   1.211
    5MOP   C200  200   1.016   1.404   1.484
    5MOP   C201  201   1.002   1.313   1.378
    5MOP   H202  202   1.112   1.513   1.125
    5MOP   H203  203   1.142   1.667   1.309
    5MOP   H204  204   1.007   1.946   1.676
    5MOP   H205  205   1.228   1.963   2.058
    5MOP   H206  206   1.332   1.856   1.963
    5MOP   H207  207   1.185   1.792   2.047
    5MOP   H208  208   1.255   1.651   1.867
    5MOP   H209  209   1.214   1.497   1.684
    5MOP   H210  210   0.786   1.650   1.491
    5MOP   H211  211   0.644   1.721   1.303
    5MOP   H212  212   0.707   1.915   1.165
    5MOP   H213  213   1.061   1.969   1.404
    5MOP   H214  214   1.014   2.124   1.242
    5MOP   H215  215   1.063   2.046   1.050
    5MOP   H216  216   0.720   2.160   1.169
    5MOP   H217  217   0.846   2.283   1.161
    5MOP   H218  218   0.799   2.215   1.317
    5MOP   H219  219   0.988   1.373   1.584
    5MOP   H220  220   0.966   1.212   1.399
    6MOP   C221  221   0.896   2.104   0.954
    6MOP   O222  222   0.786   2.065   0.916
    6MOP   C223  223   0.960   2.225   0.894
    6MOP   C224  224   1.059   2.296   0.962
    6MOP   C225  225   1.102   2.420   0.914
    6MOP   C226  226   1.051   2.474   0.795
    6MOP   C227  227   1.099   2.604   0.746
    6MOP   C228  228   1.236   2.631   0.722
    6MOP   C229  229   1.274   2.761   0.682
    6MOP   C230  230   1.180   2.863   0.665
    6MOP   O231  231   1.233   2.983   0.626
    6MOP   C232  232   1.141   3.088   0.601
    6MOP   C233  233   1.046   2.836   0.688
    6MOP   C234  234   1.006   2.709   0.728
    6MOP   C235  235   1.341   2.528   0.737
    6MOP   C236  236   1.340   2.411   0.659
    6MOP   C237  237   1.434   2.310   0.679
    6MOP   C238  238   1.534   2.326   0.775
    6MOP   C239  239   1.541   2.444   0.851
    6MOP   C240  240   1.444   2.543   0.832
    6MOP   C241  241   1.655   2.467   0.948
    6MOP   N242  242   1.645   2.379   1.065
    6MOP   C243  243   1.791   2.470   0.877
    6MOP   C244  244   0.953   2.400   0.726
    6MOP   C245  245   0.907   2.277   0.775
    6MOP   H246  246   1.101   2.262   1.055
    6MOP   H247  247   1.176   2.475   0.972
    6MOP   H248  248   1.379   2.783   0.663
    6MOP   H249  249   1.198   3.176   0.568
    6MOP   H250  250   1.086   3.116   0.692
    6MOP   H251  251   1.072   3.062   0.520
    6MOP   H252  252   0.969   2.913   0.677
    6MOP   H253  253   0.900   2.691   0.748
    6MOP   H254  254   1.262   2.396   0.584
    6MOP   H255  255   1.430   2.219   0.620
    6MOP   H256  256   1.608   2.247   0.789
    6MOP   H257  257   1.446   2.633   0.893
    6MOP   H258  258   1.642   2.567   0.991
    6MOP   H259  259   1.605   2.427   1.144
    6MOP   H260  260   1.817   2.374   0.833
    6MOP   H261  261   1.871   2.498   0.946
    6MOP   H262  262   1.790   2.544   0.796
    6MOP   H263  263   0.911   2.439   0.633
    6MOP   H264  264   0.829   2.224   0.722
    7MOP   C265  265   1.752   2.297   1.097
    7MOP   O266  266   1.775   2.193   1.038
    7MOP   C267  267   1.846   2.349   1.202
    7MOP   C268  268   1.849   2.484   1.236
    7MOP   C269  269   1.951   2.534   1.316
    7MOP   C270  270   2.050   2.450   1.369
    7MOP   C271  271   2.158   2.505   1.453
    7MOP   C272  272   2.134   2.576   1.574
    7MOP   C273  273   2.244   2.630   1.644
    7MOP   C274  274   2.376   2.613   1.599
    7MOP   O275  275   2.472   2.670   1.678
    7MOP   C276  276   2.607   2.656   1.635
    7MOP   C277  277   2.399   2.542   1.482
    7MOP   C278  278   2.291   2.489   1.410
    7MOP   C279  279   1.998   2.598   1.626
    7MOP   C280  280   1.916   2.490   1.663
    7MOP   C281  281   1.784   2.511   1.703
    7MOP   C282  282   1.732   2.640   1.710
    7MOP   C283  283   1.812   2.750   1.678
    7MOP   C284  284   1.945   2.728   1.637
    7MOP   C285  285   1.759   2.891   1.690
    7MOP   N286  286   1.652   2.917   1.594
    7MOP   C287  287   1.728   2.928   1.836
    7MOP   C288  288   2.043   2.313   1.338
    7MOP   C289  289   1.942   2.263   1.255
    7MOP   H290  290   1.778   2.556   1.195
    7MOP   H291  291   1.954   2.641   1.337
    7MOP   H292  292   2.228   2.685   1.736
    7MOP   H293  293   2.670   2.707   1.708
    7MOP   H294  294   2.622   2.704   1.538
    7MOP   H295  295   2.636   2.550   1.633
    7MOP   H296  296   2.499   2.526   1.443
    7MOP   H297  297   2.312   2.436   1.317
    7MOP   H298  298   1.954   2.389   1.657
    7MOP   H299  299   1.721   2.426   1.728
    7MOP   H300  300   1.629   2.655   1.741
    7MOP   H301  301   2.008   2.813   1.610
    7MOP   H302  302   1.839   2.960   1.659
    7MOP   H303  303   1.685   2.969   1.514
    7MOP   H304  304   1.645   2.870   1.877
    7MOP   H305  305   1.700   3.034   1.844
    7MOP   H306  306   1.815   2.912   1.900
    7MOP   H307  307   2.117   2.244   1.378
    7MOP   H308  308   1.942   2.157   1.228
    8MOP   C309  309   1.527   2.954   1.638
    8MOP   O310  310   1.449   2.874   1.690
    8MOP   C311  311   1.494   3.100   1.631
    8MOP   C312  312   1.595   3.194   1.611
    8MOP   C313  313   1.567   3.331   1.624
    8MOP   C314  314   1.438   3.377   1.653
    8MOP   C315  315   1.413   3.522   1.671
    8MOP   C316  316   1.455   3.620   1.577
    8MOP   C317  317   1.434   3.756   1.608
    8MOP   C318  318   1.376   3.798   1.729
    8MOP   O319  319   1.367   3.933   1.744
    8MOP   C320  320   1.304   3.981   1.862
    8MOP   C321  321   1.335   3.702   1.820
    8MOP   C322  322   1.353   3.566   1.791
    8MOP   C323  323   1.522   3.587   1.449
    8MOP   C324  324   1.461   3.504   1.354
    8MOP   C325  325   1.528   3.466   1.237
    8MOP   C326  326   1.657   3.512   1.212
    8MOP   C327  327   1.721   3.598   1.303
    8MOP   C328  328   1.652   3.634   1.420
    8MOP   C329  329   1.860   3.653   1.275
    8MOP   N330  330   1.965   3.552   1.279
    8MOP   C331  331   1.866   3.741   1.150
    8MOP   C332  332   1.337   3.281   1.670
    8MOP   C333  333   1.364   3.143   1.660
    8MOP   H334  334   1.698   3.167   1.591
    8MOP   H335  335   1.649   3.401   1.612
    8MOP   H336  336   1.465   3.833   1.537
    8MOP   H337  337   1.305   4.090   1.858
    8MOP   H338  338   1.360   3.951   1.952
    8MOP   H339  339   1.200   3.948   1.868
    8MOP   H340  340   1.292   3.728   1.916
    8MOP   H341  341   1.323   3.493   1.866
    8MOP   H342  342   1.360   3.466   1.372
    8MOP   H343  343   1.479   3.401   1.166
    8MOP   H344  344   1.707   3.482   1.121
    8MOP   H345  345   1.700   3.700   1.493
    8MOP   H346  346   1.886   3.719   1.359
    8MOP   H347  347   2.023   3.546   1.362
    8MOP   H348  348   1.839   3.686   1.059
    8MOP   H349  349   1.968   3.780   1.136
    8MOP   H350  350   1.798   3.826   1.158
    8MOP   H351  351   1.235   3.312   1.694
    8MOP   H352  352   1.285   3.071   1.679
    9CAP   C353  353  -0.294  -0.693   0.118
    9CAP   O354  354  -0.261  -0.554   0.111
    9CAP   H355  355  -0.397  -0.706   0.152
    9CAP   H356  356  -0.227  -0.739   0.190
    9CAP   H357  357  -0.278  -0.742   0.021
   10CAP   C358  358   2.357   3.361   1.148
   10CAP   C359  359   2.214   3.372   1.093
   10CAP   C360  360   2.221   3.446   0.958
   10CAP   C361  361   2.155   3.232   1.077
   10CAP   O362  362   2.139   3.443   1.196
   10CAP   C363  363   2.013   3.486   1.170
   10CAP   O364  364   1.954   3.473   1.064
   10CAP   H365  365   2.422   3.303   1.082
   10CAP   H366  366   2.401   3.461   1.161
   10CAP   H367  367   2.358   3.314   1.247
   10CAP   H368  368   2.247   3.551   0.972
   10CAP   H369  369   2.125   3.444   0.905
   10CAP   H370  370   2.295   3.400   0.892
   10CAP   H371  371   2.151   3.181   1.174
   10CAP   H372  372   2.052   3.236   1.040
   10CAP   H373  373   2.214   3.171   1.008
  5.0000000  5.0000000  5.0000000
