Generated by Interchange
197
    1MOM     C1    1  -0.110   0.546  -0.237
    1MOM     O2    2  -0.022   0.439  -0.202
    1MOM     C3    3  -0.080   0.328  -0.149
    1MOM     C4    4  -0.216   0.308  -0.126
    1MOM     C5    5  -0.261   0.188  -0.072
    1MOM     C6    6  -0.172   0.085  -0.039
    1MOM     C7    7  -0.226  -0.036   0.024
    1MOM     C8    8  -0.328  -0.117  -0.032
    1MOM     C9    9  -0.376  -0.232   0.034
    1MOM    C10   10  -0.477  -0.320  -0.030
    1MOM    O11   11  -0.533  -0.291  -0.134
    1MOM    C12   12  -0.324  -0.264   0.159
    1MOM    C13   13  -0.219  -0.190   0.207
    1MOM    C14   14  -0.173  -0.076   0.146
    1MOM    C15   15  -0.032   0.106  -0.060
    1MOM    C16   16   0.071   0.006  -0.029
    1MOM    C17   17   0.184   0.034   0.051
    1MOM    C18   18   0.283  -0.063   0.075
    1MOM    C19   19   0.399  -0.041   0.169
    1MOM    C20   20   0.529  -0.035   0.087
    1MOM    N21   21   0.407  -0.147   0.272
    1MOM    C22   22   0.271  -0.186   0.014
    1MOM    C23   23   0.152  -0.218  -0.049
    1MOM    C24   24   0.057  -0.124  -0.078
    1MOM    C25   25   0.010   0.228  -0.116
    1MOM    H26   26  -0.163   0.582  -0.148
    1MOM    H27   27  -0.179   0.515  -0.315
    1MOM    H28   28  -0.048   0.628  -0.275
    1MOM    H29   29  -0.290   0.384  -0.149
    1MOM    H30   30  -0.367   0.176  -0.052
    1MOM    H31   31  -0.369  -0.091  -0.130
    1MOM    H32   32  -0.360  -0.347   0.218
    1MOM    H33   33  -0.167  -0.222   0.294
    1MOM    H34   34  -0.091  -0.022   0.193
    1MOM    H35   35   0.193   0.132   0.098
    1MOM    H36   36   0.386   0.054   0.222
    1MOM    H37   37   0.552  -0.131   0.039
    1MOM    H38   38   0.521   0.040   0.007
    1MOM    H39   39   0.614  -0.009   0.150
    1MOM    H40   40   0.489  -0.125   0.327
    1MOM    H41   41   0.347  -0.263   0.024
    1MOM    H42   42   0.133  -0.320  -0.071
    1MOM    H43   43  -0.030  -0.153  -0.135
    1MOM    H44   44   0.116   0.244  -0.136
    2MOM    C45   45  -0.590  -0.282   0.717
    2MOM    O46   46  -0.507  -0.396   0.702
    2MOM    C47   47  -0.389  -0.377   0.635
    2MOM    C48   48  -0.342  -0.257   0.584
    2MOM    C49   49  -0.216  -0.252   0.524
    2MOM    C50   50  -0.140  -0.368   0.501
    2MOM    C51   51  -0.017  -0.360   0.415
    2MOM    C52   52   0.084  -0.263   0.430
    2MOM    C53   53   0.200  -0.263   0.350
    2MOM    C54   54   0.304  -0.156   0.366
    2MOM    O55   55   0.304  -0.083   0.463
    2MOM    C56   56   0.218  -0.366   0.258
    2MOM    C57   57   0.114  -0.454   0.234
    2MOM    C58   58  -0.003  -0.452   0.308
    2MOM    C59   59  -0.189  -0.491   0.553
    2MOM    C60   60  -0.112  -0.616   0.547
    2MOM    C61   61  -0.167  -0.739   0.504
    2MOM    C62   62  -0.089  -0.856   0.504
    2MOM    C63   63  -0.139  -0.988   0.450
    2MOM    C64   64  -0.154  -1.085   0.568
    2MOM    N65   65  -0.047  -1.044   0.348
    2MOM    C66   66   0.042  -0.849   0.549
    2MOM    C67   67   0.098  -0.726   0.571
    2MOM    C68   68   0.023  -0.612   0.580
    2MOM    C69   69  -0.312  -0.492   0.622
    2MOM    H70   70  -0.626  -0.246   0.620
    2MOM    H71   71  -0.538  -0.202   0.772
    2MOM    H72   72  -0.677  -0.312   0.776
    2MOM    H73   73  -0.400  -0.165   0.588
    2MOM    H74   74  -0.182  -0.155   0.487
    2MOM    H75   75   0.073  -0.186   0.506
    2MOM    H76   76   0.309  -0.376   0.201
    2MOM    H77   77   0.122  -0.526   0.155
    2MOM    H78   78  -0.080  -0.524   0.285
    2MOM    H79   79  -0.270  -0.743   0.468
    2MOM    H80   80  -0.237  -0.974   0.402
    2MOM    H81   81  -0.057  -1.110   0.614
    2MOM    H82   82  -0.218  -1.042   0.646
    2MOM    H83   83  -0.199  -1.180   0.535
    2MOM    H84   84  -0.087  -1.133   0.322
    2MOM    H85   85   0.104  -0.938   0.557
    2MOM    H86   86   0.205  -0.719   0.576
    2MOM    H87   87   0.072  -0.520   0.607
    2MOM    H88   88  -0.348  -0.584   0.668
    3MOM    C89   89   0.197  -0.275  -0.396
    3MOM    O90   90   0.291  -0.379  -0.371
    3MOM    C91   91   0.261  -0.470  -0.273
    3MOM    C92   92   0.136  -0.490  -0.216
    3MOM    C93   93   0.122  -0.574  -0.105
    3MOM    C94   94   0.229  -0.649  -0.055
    3MOM    C95   95   0.214  -0.732   0.068
    3MOM    C96   96   0.100  -0.811   0.092
    3MOM    C97   97   0.090  -0.895   0.204
    3MOM    C98   98  -0.033  -0.976   0.228
    3MOM    O99   99  -0.118  -0.988   0.140
    3MOM   C100  100   0.199  -0.902   0.291
    3MOM   C101  101   0.304  -0.814   0.275
    3MOM   C102  102   0.312  -0.729   0.167
    3MOM   C103  103   0.352  -0.642  -0.126
    3MOM   C104  104   0.461  -0.739  -0.102
    3MOM   C105  105   0.593  -0.699  -0.081
    3MOM   C106  106   0.695  -0.794  -0.067
    3MOM   C107  107   0.837  -0.749  -0.040
    3MOM   C108  108   0.922  -0.778  -0.163
    3MOM   N109  109   0.894  -0.811   0.081
    3MOM   C110  110   0.663  -0.930  -0.081
    3MOM   C111  111   0.531  -0.971  -0.092
    3MOM   C112  112   0.431  -0.876  -0.104
    3MOM   C113  113   0.367  -0.548  -0.230
    3MOM   H114  114   0.192  -0.205  -0.312
    3MOM   H115  115   0.098  -0.314  -0.420
    3MOM   H116  116   0.232  -0.219  -0.483
    3MOM   H117  117   0.049  -0.433  -0.246
    3MOM   H118  118   0.026  -0.574  -0.053
    3MOM   H119  119   0.017  -0.810   0.021
    3MOM   H120  120   0.202  -0.973   0.373
    3MOM   H121  121   0.383  -0.812   0.347
    3MOM   H122  122   0.399  -0.663   0.160
    3MOM   H123  123   0.617  -0.592  -0.074
    3MOM   H124  124   0.838  -0.641  -0.022
    3MOM   H125  125   0.931  -0.886  -0.183
    3MOM   H126  126   0.879  -0.732  -0.252
    3MOM   H127  127   1.024  -0.739  -0.151
    3MOM   H128  128   0.989  -0.776   0.087
    3MOM   H129  129   0.741  -1.005  -0.078
    3MOM   H130  130   0.506  -1.077  -0.090
    3MOM   H131  131   0.328  -0.910  -0.114
    3MOM   H132  132   0.462  -0.539  -0.282
    4MOM   C133  133   0.191  -0.679   0.910
    4MOM   O134  134   0.272  -0.796   0.906
    4MOM   C135  135   0.355  -0.813   0.798
    4MOM   C136  136   0.387  -0.717   0.704
    4MOM   C137  137   0.459  -0.753   0.588
    4MOM   C138  138   0.509  -0.883   0.569
    4MOM   C139  139   0.576  -0.920   0.441
    4MOM   C140  140   0.670  -0.835   0.380
    4MOM   C141  141   0.740  -0.873   0.265
    4MOM   C142  142   0.837  -0.777   0.203
    4MOM   O143  143   0.870  -0.674   0.260
    4MOM   C144  144   0.720  -1.000   0.212
    4MOM   C145  145   0.617  -1.079   0.260
    4MOM   C146  146   0.546  -1.040   0.374
    4MOM   C147  147   0.493  -0.974   0.676
    4MOM   C148  148   0.568  -1.100   0.681
    4MOM   C149  149   0.505  -1.223   0.705
    4MOM   C150  150   0.580  -1.342   0.709
    4MOM   C151  151   0.508  -1.474   0.731
    4MOM   C152  152   0.544  -1.526   0.871
    4MOM   N153  153   0.541  -1.566   0.623
    4MOM   C154  154   0.718  -1.337   0.688
    4MOM   C155  155   0.782  -1.216   0.663
    4MOM   C156  156   0.708  -1.099   0.662
    4MOM   C157  157   0.411  -0.939   0.786
    4MOM   H158  158   0.114  -0.680   0.832
    4MOM   H159  159   0.250  -0.588   0.904
    4MOM   H160  160   0.138  -0.678   1.006
    4MOM   H161  161   0.348  -0.616   0.709
    4MOM   H162  162   0.468  -0.678   0.510
    4MOM   H163  163   0.690  -0.737   0.424
    4MOM   H164  164   0.781  -1.037   0.130
    4MOM   H165  165   0.592  -1.171   0.208
    4MOM   H166  166   0.467  -1.106   0.409
    4MOM   H167  167   0.397  -1.227   0.716
    4MOM   H168  168   0.399  -1.459   0.728
    4MOM   H169  169   0.651  -1.544   0.882
    4MOM   H170  170   0.515  -1.452   0.947
    4MOM   H171  171   0.491  -1.619   0.894
    4MOM   H172  172   0.549  -1.665   0.640
    4MOM   H173  173   0.777  -1.428   0.688
    4MOM   H174  174   0.889  -1.213   0.644
    4MOM   H175  175   0.759  -1.005   0.642
    4MOM   H176  176   0.394  -1.011   0.866
    5CAP   C177  177  -0.416  -0.539   0.040
    5CAP   O178  178  -0.509  -0.430   0.044
    5CAP   H179  179  -0.390  -0.566  -0.062
    5CAP   H180  180  -0.463  -0.625   0.089
    5CAP   H181  181  -0.324  -0.517   0.096
    6CAP   C182  182   0.640  -1.664   0.181
    6CAP   C183  183   0.545  -1.575   0.262
    6CAP   C184  184   0.581  -1.429   0.229
    6CAP   C185  185   0.400  -1.605   0.221
    6CAP   O186  186   0.565  -1.609   0.403
    6CAP   C187  187   0.503  -1.532   0.496
    6CAP   O188  188   0.424  -1.441   0.471
    6CAP   H189  189   0.629  -1.647   0.073
    6CAP   H190  190   0.744  -1.644   0.207
    6CAP   H191  191   0.622  -1.770   0.201
    6CAP   H192  192   0.682  -1.404   0.264
    6CAP   H193  193   0.513  -1.359   0.276
    6CAP   H194  194   0.576  -1.410   0.121
    6CAP   H195  195   0.373  -1.707   0.251
    6CAP   H196  196   0.329  -1.538   0.270
    6CAP   H197  197   0.387  -1.595   0.113
  5.0000000  5.0000000  5.0000000
