Generated by Interchange
197
    1PMP     C1    1  -0.011   0.453  -0.104
    1PMP     O2    2  -0.013   0.371   0.013
    1PMP     C3    3   0.006   0.236  -0.002
    1PMP     C4    4   0.105   0.168   0.070
    1PMP     C5    5   0.127   0.030   0.059
    1PMP     C6    6   0.253  -0.032   0.108
    1PMP     C7    7   0.376  -0.014   0.040
    1PMP     C8    8   0.496  -0.072   0.081
    1PMP     C9    9   0.496  -0.157   0.192
    1PMP    C10   10   0.624  -0.227   0.223
    1PMP    O11   11   0.730  -0.202   0.168
    1PMP    C12   12   0.377  -0.176   0.262
    1PMP    C13   13   0.257  -0.114   0.221
    1PMP    C14   14   0.027  -0.043  -0.005
    1PMP    C15   15  -0.082   0.020  -0.070
    1PMP    C16   16  -0.199  -0.054  -0.126
    1PMP    C17   17  -0.212  -0.193  -0.121
    1PMP    C18   18  -0.334  -0.255  -0.151
    1PMP    C19   19  -0.446  -0.180  -0.190
    1PMP    C20   20  -0.587  -0.236  -0.198
    1PMP    C21   21  -0.623  -0.340  -0.090
    1PMP    N22   22  -0.694  -0.134  -0.208
    1PMP    C23   23  -0.425  -0.046  -0.219
    1PMP    C24   24  -0.308   0.016  -0.179
    1PMP    C25   25  -0.083   0.161  -0.075
    1PMP    H26   26   0.092   0.479  -0.132
    1PMP    H27   27  -0.062   0.411  -0.191
    1PMP    H28   28  -0.057   0.549  -0.079
    1PMP    H29   29   0.169   0.224   0.135
    1PMP    H30   30   0.382   0.043  -0.052
    1PMP    H31   31   0.587  -0.055   0.025
    1PMP    H32   32   0.375  -0.242   0.349
    1PMP    H33   33   0.166  -0.132   0.278
    1PMP    H34   34   0.034  -0.151  -0.000
    1PMP    H35   35  -0.130  -0.256  -0.089
    1PMP    H36   36  -0.341  -0.363  -0.139
    1PMP    H37   37  -0.590  -0.289  -0.294
    1PMP    H38   38  -0.537  -0.377  -0.033
    1PMP    H39   39  -0.696  -0.301  -0.017
    1PMP    H40   40  -0.671  -0.426  -0.137
    1PMP    H41   41  -0.757  -0.149  -0.286
    1PMP    H42   42  -0.504   0.017  -0.260
    1PMP    H43   43  -0.312   0.124  -0.186
    1PMP    H44   44  -0.159   0.217  -0.126
    2PMP    C45   45  -0.254   0.611   0.307
    2PMP    O46   46  -0.220   0.513   0.403
    2PMP    C47   47  -0.280   0.390   0.393
    2PMP    C48   48  -0.368   0.349   0.292
    2PMP    C49   49  -0.426   0.221   0.295
    2PMP    C50   50  -0.509   0.164   0.186
    2PMP    C51   51  -0.593   0.240   0.104
    2PMP    C52   52  -0.666   0.178   0.000
    2PMP    C53   53  -0.659   0.039  -0.023
    2PMP    C54   54  -0.732  -0.021  -0.139
    2PMP    O55   55  -0.830   0.041  -0.182
    2PMP    C56   56  -0.580  -0.036   0.063
    2PMP    C57   57  -0.504   0.026   0.162
    2PMP    C58   58  -0.398   0.140   0.406
    2PMP    C59   59  -0.306   0.175   0.505
    2PMP    C60   60  -0.277   0.078   0.613
    2PMP    C61   61  -0.381   0.019   0.687
    2PMP    C62   62  -0.355  -0.067   0.793
    2PMP    C63   63  -0.223  -0.097   0.831
    2PMP    C64   64  -0.200  -0.162   0.967
    2PMP    C65   65  -0.080  -0.258   0.972
    2PMP    N66   66  -0.201  -0.057   1.070
    2PMP    C67   67  -0.119  -0.046   0.751
    2PMP    C68   68  -0.146   0.040   0.644
    2PMP    C69   69  -0.247   0.301   0.496
    2PMP    H70   70  -0.362   0.631   0.306
    2PMP    H71   71  -0.205   0.705   0.336
    2PMP    H72   72  -0.218   0.583   0.208
    2PMP    H73   73  -0.389   0.415   0.209
    2PMP    H74   74  -0.604   0.347   0.119
    2PMP    H75   75  -0.728   0.240  -0.064
    2PMP    H76   76  -0.570  -0.143   0.054
    2PMP    H77   77  -0.437  -0.038   0.219
    2PMP    H78   78  -0.446   0.042   0.414
    2PMP    H79   79  -0.485   0.044   0.664
    2PMP    H80   80  -0.438  -0.106   0.851
    2PMP    H81   81  -0.288  -0.223   0.989
    2PMP    H82   82  -0.087  -0.334   0.893
    2PMP    H83   83   0.015  -0.206   0.960
    2PMP    H84   84  -0.077  -0.310   1.069
    2PMP    H85   85  -0.282   0.002   1.060
    2PMP    H86   86  -0.015  -0.066   0.776
    2PMP    H87   87  -0.063   0.082   0.587
    2PMP    H88   88  -0.175   0.334   0.570
    3PMP    C89   89   0.040   0.857   0.781
    3PMP    O90   90   0.080   0.798   0.658
    3PMP    C91   91   0.089   0.662   0.655
    3PMP    C92   92   0.047   0.574   0.754
    3PMP    C93   93   0.060   0.435   0.738
    3PMP    C94   94   0.013   0.347   0.847
    3PMP    C95   95   0.100   0.306   0.949
    3PMP    C96   96   0.060   0.208   1.043
    3PMP    C97   97  -0.067   0.149   1.035
    3PMP    C98   98  -0.084   0.014   1.098
    3PMP    O99   99   0.007  -0.036   1.162
    3PMP   C100  100  -0.161   0.207   0.949
    3PMP   C101  101  -0.120   0.305   0.856
    3PMP   C102  102   0.118   0.385   0.616
    3PMP   C103  103   0.160   0.472   0.512
    3PMP   C104  104   0.213   0.435   0.376
    3PMP   C105  105   0.327   0.358   0.349
    3PMP   C106  106   0.378   0.343   0.215
    3PMP   C107  107   0.321   0.407   0.103
    3PMP   C108  108   0.373   0.383  -0.041
    3PMP   C109  109   0.300   0.290  -0.141
    3PMP   N110  110   0.409   0.510  -0.104
    3PMP   C111  111   0.212   0.490   0.133
    3PMP   C112  112   0.155   0.496   0.263
    3PMP   C113  113   0.145   0.610   0.537
    3PMP   H114  114   0.109   0.829   0.861
    3PMP   H115  115   0.045   0.966   0.769
    3PMP   H116  116  -0.063   0.830   0.806
    3PMP   H117  117   0.002   0.611   0.846
    3PMP   H118  118   0.201   0.345   0.955
    3PMP   H119  119   0.132   0.172   1.116
    3PMP   H120  120  -0.262   0.171   0.942
    3PMP   H121  121  -0.195   0.343   0.787
    3PMP   H122  122   0.126   0.277   0.603
    3PMP   H123  123   0.381   0.310   0.430
    3PMP   H124  124   0.464   0.278   0.200
    3PMP   H125  125   0.469   0.333  -0.027
    3PMP   H126  126   0.281   0.192  -0.104
    3PMP   H127  127   0.205   0.327  -0.178
    3PMP   H128  128   0.363   0.276  -0.230
    3PMP   H129  129   0.483   0.562  -0.058
    3PMP   H130  130   0.163   0.547   0.056
    3PMP   H131  131   0.062   0.552   0.275
    3PMP   H132  132   0.176   0.681   0.461
    4PMP   C133  133   0.792   1.192  -0.737
    4PMP   O134  134   0.666   1.257  -0.722
    4PMP   C135  135   0.576   1.199  -0.637
    4PMP   C136  136   0.596   1.083  -0.562
    4PMP   C137  137   0.494   1.034  -0.480
    4PMP   C138  138   0.503   0.909  -0.404
    4PMP   C139  139   0.527   0.787  -0.471
    4PMP   C140  140   0.492   0.668  -0.409
    4PMP   C141  141   0.438   0.670  -0.280
    4PMP   C142  142   0.372   0.549  -0.230
    4PMP   O143  143   0.292   0.496  -0.306
    4PMP   C144  144   0.427   0.788  -0.207
    4PMP   C145  145   0.460   0.907  -0.270
    4PMP   C146  146   0.372   1.103  -0.474
    4PMP   C147  147   0.350   1.220  -0.546
    4PMP   C148  148   0.224   1.292  -0.527
    4PMP   C149  149   0.101   1.237  -0.567
    4PMP   C150  150  -0.018   1.309  -0.553
    4PMP   C151  151  -0.016   1.437  -0.494
    4PMP   C152  152  -0.139   1.527  -0.504
    4PMP   C153  153  -0.173   1.602  -0.375
    4PMP   N154  154  -0.122   1.611  -0.622
    4PMP   C155  155   0.105   1.487  -0.446
    4PMP   C156  156   0.224   1.416  -0.464
    4PMP   C157  157   0.453   1.266  -0.628
    4PMP   H158  158   0.779   1.092  -0.778
    4PMP   H159  159   0.850   1.250  -0.809
    4PMP   H160  160   0.847   1.191  -0.643
    4PMP   H161  161   0.690   1.028  -0.566
    4PMP   H162  162   0.560   0.786  -0.574
    4PMP   H163  163   0.498   0.574  -0.464
    4PMP   H164  164   0.381   0.789  -0.108
    4PMP   H165  165   0.441   1.001  -0.218
    4PMP   H166  166   0.292   1.064  -0.411
    4PMP   H167  167   0.097   1.138  -0.613
    4PMP   H168  168  -0.111   1.267  -0.591
    4PMP   H169  169  -0.226   1.464  -0.527
    4PMP   H170  170  -0.192   1.531  -0.294
    4PMP   H171  171  -0.094   1.669  -0.341
    4PMP   H172  172  -0.264   1.662  -0.389
    4PMP   H173  173  -0.098   1.558  -0.704
    4PMP   H174  174   0.110   1.586  -0.401
    4PMP   H175  175   0.317   1.460  -0.429
    4PMP   H176  176   0.438   1.357  -0.687
    5CAP   C177  177   0.710  -0.417   0.328
    5CAP   O178  178   0.600  -0.327   0.311
    5CAP   H179  179   0.707  -0.492   0.249
    5CAP   H180  180   0.697  -0.468   0.425
    5CAP   H181  181   0.806  -0.366   0.330
    6CAP   C182  182   0.277   1.713  -0.802
    6CAP   C183  183   0.173   1.792  -0.719
    6CAP   C184  184   0.238   1.825  -0.584
    6CAP   C185  185   0.133   1.918  -0.794
    6CAP   O186  186   0.058   1.703  -0.710
    6CAP   C187  187  -0.037   1.721  -0.616
    6CAP   O188  188  -0.045   1.811  -0.536
    6CAP   H189  189   0.368   1.771  -0.820
    6CAP   H190  190   0.304   1.620  -0.751
    6CAP   H191  191   0.235   1.684  -0.899
    6CAP   H192  192   0.259   1.735  -0.526
    6CAP   H193  193   0.175   1.889  -0.521
    6CAP   H194  194   0.332   1.880  -0.597
    6CAP   H195  195   0.090   1.892  -0.892
    6CAP   H196  196   0.056   1.973  -0.740
    6CAP   H197  197   0.219   1.984  -0.810
  5.0000000  5.0000000  5.0000000
