Generated by Interchange
197
    1POP     C1    1  -0.242  -0.493   0.071
    1POP     O2    2  -0.205  -0.564  -0.022
    1POP     C3    3  -0.242  -0.345   0.065
    1POP     C4    4  -0.284  -0.265   0.172
    1POP     C5    5  -0.270  -0.126   0.165
    1POP     C6    6  -0.215  -0.064   0.051
    1POP     C7    7  -0.195   0.082   0.045
    1POP     C8    8  -0.069   0.143   0.018
    1POP     C9    9  -0.063   0.283   0.007
    1POP    C10   10  -0.176   0.364   0.023
    1POP    O11   11  -0.153   0.499   0.009
    1POP    C12   12  -0.265   0.585   0.022
    1POP    C13   13  -0.298   0.305   0.052
    1POP    C14   14  -0.307   0.166   0.062
    1POP    C15   15   0.056   0.064   0.003
    1POP    C16   16   0.134   0.073  -0.114
    1POP    C17   17   0.252  -0.001  -0.129
    1POP    C18   18   0.297  -0.087  -0.027
    1POP    C19   19   0.219  -0.097   0.089
    1POP    C20   20   0.101  -0.022   0.104
    1POP    C21   21   0.431  -0.158  -0.034
    1POP    N22   22   0.436  -0.257  -0.141
    1POP    C23   23   0.545  -0.056  -0.037
    1POP    C24   24  -0.178  -0.146  -0.057
    1POP    C25   25  -0.190  -0.285  -0.050
    1POP    H26   26  -0.324  -0.309   0.262
    1POP    H27   27  -0.300  -0.065   0.250
    1POP    H28   28   0.032   0.332  -0.013
    1POP    H29   29  -0.230   0.688   0.005
    1POP    H30   30  -0.306   0.580   0.124
    1POP    H31   31  -0.342   0.564  -0.053
    1POP    H32   32  -0.388   0.364   0.066
    1POP    H33   33  -0.405   0.122   0.083
    1POP    H34   34   0.103   0.139  -0.195
    1POP    H35   35   0.310   0.011  -0.220
    1POP    H36   36   0.249  -0.162   0.171
    1POP    H37   37   0.045  -0.031   0.197
    1POP    H38   38   0.443  -0.217   0.058
    1POP    H39   39   0.394  -0.234  -0.230
    1POP    H40   40   0.643  -0.104  -0.031
    1POP    H41   41   0.538   0.011   0.049
    1POP    H42   42   0.543   0.003  -0.128
    1POP    H43   43  -0.135  -0.102  -0.147
    1POP    H44   44  -0.156  -0.345  -0.134
    2POP    C45   45   0.538  -0.350  -0.141
    2POP    O46   46   0.645  -0.332  -0.084
    2POP    C47   47   0.511  -0.484  -0.201
    2POP    C48   48   0.385  -0.525  -0.247
    2POP    C49   49   0.366  -0.658  -0.288
    2POP    C50   50   0.471  -0.752  -0.283
    2POP    C51   51   0.453  -0.891  -0.330
    2POP    C52   52   0.536  -0.949  -0.430
    2POP    C53   53   0.515  -1.085  -0.463
    2POP    C54   54   0.416  -1.162  -0.402
    2POP    O55   55   0.410  -1.292  -0.445
    2POP    C56   56   0.311  -1.375  -0.387
    2POP    C57   57   0.334  -1.104  -0.306
    2POP    C58   58   0.353  -0.970  -0.271
    2POP    C59   59   0.642  -0.873  -0.501
    2POP    C60   60   0.775  -0.916  -0.501
    2POP    C61   61   0.875  -0.842  -0.567
    2POP    C62   62   0.844  -0.724  -0.635
    2POP    C63   63   0.711  -0.680  -0.634
    2POP    C64   64   0.612  -0.754  -0.570
    2POP    C65   65   0.948  -0.649  -0.718
    2POP    N66   66   1.054  -0.593  -0.637
    2POP    C67   67   0.996  -0.737  -0.833
    2POP    C68   68   0.595  -0.709  -0.234
    2POP    C69   69   0.615  -0.577  -0.196
    2POP    H70   70   0.301  -0.457  -0.248
    2POP    H71   71   0.268  -0.688  -0.324
    2POP    H72   72   0.578  -1.132  -0.540
    2POP    H73   73   0.320  -1.475  -0.431
    2POP    H74   74   0.210  -1.338  -0.408
    2POP    H75   75   0.326  -1.386  -0.279
    2POP    H76   76   0.255  -1.160  -0.256
    2POP    H77   77   0.289  -0.928  -0.193
    2POP    H78   78   0.803  -1.007  -0.449
    2POP    H79   79   0.977  -0.880  -0.566
    2POP    H80   80   0.683  -0.588  -0.685
    2POP    H81   81   0.509  -0.718  -0.573
    2POP    H82   82   0.898  -0.562  -0.763
    2POP    H83   83   1.093  -0.648  -0.562
    2POP    H84   84   1.061  -0.683  -0.902
    2POP    H85   85   0.911  -0.773  -0.892
    2POP    H86   86   1.052  -0.824  -0.797
    2POP    H87   87   0.678  -0.779  -0.227
    2POP    H88   88   0.713  -0.548  -0.158
    3POP    C89   89   1.138  -0.498  -0.693
    3POP    O90   90   1.156  -0.489  -0.814
    3POP    C91   91   1.199  -0.395  -0.604
    3POP    C92   92   1.168  -0.380  -0.469
    3POP    C93   93   1.219  -0.271  -0.397
    3POP    C94   94   1.301  -0.175  -0.459
    3POP    C95   95   1.359  -0.062  -0.383
    3POP    C96   96   1.498  -0.036  -0.378
    3POP    C97   97   1.543   0.078  -0.307
    3POP    C98   98   1.454   0.165  -0.242
    3POP    O99   99   1.514   0.270  -0.178
    3POP   C100  100   1.428   0.362  -0.110
    3POP   C101  101   1.318   0.139  -0.246
    3POP   C102  102   1.271   0.027  -0.316
    3POP   C103  103   1.599  -0.125  -0.442
    3POP   C104  104   1.690  -0.075  -0.537
    3POP   C105  105   1.783  -0.160  -0.600
    3POP   C106  106   1.788  -0.296  -0.569
    3POP   C107  107   1.697  -0.346  -0.475
    3POP   C108  108   1.605  -0.262  -0.412
    3POP   C109  109   1.896  -0.388  -0.626
    3POP   N110  110   1.886  -0.404  -0.770
    3POP   C111  111   2.034  -0.343  -0.576
    3POP   C112  112   1.329  -0.190  -0.595
    3POP   C113  113   1.281  -0.300  -0.666
    3POP   H114  114   1.101  -0.450  -0.419
    3POP   H115  115   1.194  -0.261  -0.292
    3POP   H116  116   1.650   0.100  -0.301
    3POP   H117  117   1.491   0.440  -0.067
    3POP   H118  118   1.375   0.312  -0.028
    3POP   H119  119   1.358   0.410  -0.179
    3POP   H120  120   1.245   0.203  -0.198
    3POP   H121  121   1.164   0.010  -0.321
    3POP   H122  122   1.690   0.030  -0.563
    3POP   H123  123   1.854  -0.117  -0.670
    3POP   H124  124   1.697  -0.452  -0.449
    3POP   H125  125   1.537  -0.304  -0.338
    3POP   H126  126   1.879  -0.489  -0.586
    3POP   H127  127   1.870  -0.320  -0.825
    3POP   H128  128   2.112  -0.414  -0.602
    3POP   H129  129   2.034  -0.335  -0.467
    3POP   H130  130   2.062  -0.246  -0.619
    3POP   H131  131   1.390  -0.117  -0.648
    3POP   H132  132   1.305  -0.308  -0.772
    4POP   C133  133   1.961  -0.501  -0.832
    4POP   O134  134   2.067  -0.543  -0.787
    4POP   C135  135   1.904  -0.567  -0.954
    4POP   C136  136   1.779  -0.537  -1.007
    4POP   C137  137   1.729  -0.612  -1.115
    4POP   C138  138   1.803  -0.718  -1.171
    4POP   C139  139   1.753  -0.794  -1.288
    4POP   C140  140   1.829  -0.806  -1.407
    4POP   C141  141   1.776  -0.886  -1.512
    4POP   C142  142   1.654  -0.952  -1.500
    4POP   O143  143   1.616  -1.026  -1.609
    4POP   C144  144   1.491  -1.094  -1.602
    4POP   C145  145   1.579  -0.938  -1.382
    4POP   C146  146   1.629  -0.861  -1.278
    4POP   C147  147   1.960  -0.739  -1.428
    4POP   C148  148   2.075  -0.811  -1.461
    4POP   C149  149   2.200  -0.748  -1.479
    4POP   C150  150   2.212  -0.609  -1.463
    4POP   C151  151   2.097  -0.536  -1.429
    4POP   C152  152   1.973  -0.600  -1.414
    4POP   C153  153   2.342  -0.534  -1.490
    4POP   N154  154   2.456  -0.581  -1.413
    4POP   C155  155   2.377  -0.541  -1.639
    4POP   C156  156   1.926  -0.750  -1.112
    4POP   C157  157   1.977  -0.674  -1.007
    4POP   H158  158   1.717  -0.457  -0.966
    4POP   H159  159   1.632  -0.586  -1.157
    4POP   H160  160   1.831  -0.897  -1.605
    4POP   H161  161   1.477  -1.147  -1.697
    4POP   H162  162   1.408  -1.023  -1.591
    4POP   H163  163   1.491  -1.168  -1.522
    4POP   H164  164   1.484  -0.986  -1.368
    4POP   H165  165   1.571  -0.853  -1.186
    4POP   H166  166   2.070  -0.919  -1.474
    4POP   H167  167   2.286  -0.808  -1.506
    4POP   H168  168   2.102  -0.428  -1.416
    4POP   H169  169   1.886  -0.539  -1.389
    4POP   H170  170   2.326  -0.428  -1.464
    4POP   H171  171   2.485  -0.676  -1.429
    4POP   H172  172   2.467  -0.483  -1.660
    4POP   H173  173   2.296  -0.503  -1.701
    4POP   H174  174   2.398  -0.644  -1.669
    4POP   H175  175   1.985  -0.833  -1.150
    4POP   H176  176   2.074  -0.701  -0.965
    5CAP   C177  177  -0.237  -0.671   0.222
    5CAP   O178  178  -0.274  -0.536   0.195
    5CAP   H179  179  -0.261  -0.738   0.139
    5CAP   H180  180  -0.290  -0.705   0.311
    5CAP   H181  181  -0.129  -0.673   0.242
    6CAP   C182  182   2.903  -0.586  -1.498
    6CAP   C183  183   2.800  -0.484  -1.445
    6CAP   C184  184   2.848  -0.430  -1.311
    6CAP   C185  185   2.788  -0.373  -1.551
    6CAP   O186  186   2.677  -0.560  -1.428
    6CAP   C187  187   2.561  -0.494  -1.401
    6CAP   O188  188   2.550  -0.374  -1.381
    6CAP   H189  189   3.001  -0.541  -1.513
    6CAP   H190  190   2.914  -0.671  -1.428
    6CAP   H191  191   2.870  -0.629  -1.594
    6CAP   H192  192   2.850  -0.510  -1.235
    6CAP   H193  193   2.781  -0.352  -1.272
    6CAP   H194  194   2.949  -0.387  -1.318
    6CAP   H195  195   2.746  -0.412  -1.644
    6CAP   H196  196   2.724  -0.291  -1.518
    6CAP   H197  197   2.886  -0.329  -1.573
  5.0000000  5.0000000  5.0000000
