Generated by Interchange
197
    1POP     C1    1  -0.232  -0.493   0.076
    1POP     O2    2  -0.202  -0.565  -0.017
    1POP     C3    3  -0.236  -0.344   0.067
    1POP     C4    4  -0.276  -0.263   0.173
    1POP     C5    5  -0.267  -0.124   0.163
    1POP     C6    6  -0.217  -0.063   0.046
    1POP     C7    7  -0.197   0.083   0.039
    1POP     C8    8  -0.070   0.142   0.014
    1POP     C9    9  -0.063   0.283   0.005
    1POP    C10   10  -0.176   0.365   0.021
    1POP    O11   11  -0.153   0.499   0.009
    1POP    C12   12  -0.265   0.586   0.023
    1POP    C13   13  -0.299   0.306   0.048
    1POP    C14   14  -0.309   0.167   0.056
    1POP    C15   15   0.055   0.064  -0.001
    1POP    C16   16   0.132   0.071  -0.118
    1POP    C17   17   0.252  -0.001  -0.130
    1POP    C18   18   0.298  -0.082  -0.025
    1POP    C19   19   0.219  -0.092   0.090
    1POP    C20   20   0.100  -0.020   0.102
    1POP    C21   21   0.433  -0.152  -0.029
    1POP    N22   22   0.436  -0.258  -0.130
    1POP    C23   23   0.546  -0.051  -0.042
    1POP    C24   24  -0.182  -0.146  -0.062
    1POP    C25   25  -0.191  -0.285  -0.051
    1POP    H26   26  -0.313  -0.306   0.266
    1POP    H27   27  -0.295  -0.062   0.248
    1POP    H28   28   0.033   0.331  -0.013
    1POP    H29   29  -0.230   0.689   0.012
    1POP    H30   30  -0.309   0.577   0.123
    1POP    H31   31  -0.340   0.567  -0.055
    1POP    H32   32  -0.389   0.364   0.061
    1POP    H33   33  -0.406   0.123   0.076
    1POP    H34   34   0.100   0.134  -0.201
    1POP    H35   35   0.311   0.008  -0.222
    1POP    H36   36   0.251  -0.155   0.173
    1POP    H37   37   0.042  -0.030   0.194
    1POP    H38   38   0.446  -0.204   0.067
    1POP    H39   39   0.355  -0.270  -0.188
    1POP    H40   40   0.645  -0.098  -0.034
    1POP    H41   41   0.540   0.023   0.039
    1POP    H42   42   0.544   0.003  -0.137
    1POP    H43   43  -0.143  -0.103  -0.154
    1POP    H44   44  -0.159  -0.347  -0.135
    2POP    C45   45   0.531  -0.358  -0.118
    2POP    O46   46   0.631  -0.344  -0.047
    2POP    C47   47   0.508  -0.489  -0.185
    2POP    C48   48   0.385  -0.528  -0.237
    2POP    C49   49   0.368  -0.660  -0.284
    2POP    C50   50   0.472  -0.754  -0.279
    2POP    C51   51   0.454  -0.892  -0.326
    2POP    C52   52   0.537  -0.951  -0.426
    2POP    C53   53   0.513  -1.085  -0.462
    2POP    C54   54   0.412  -1.162  -0.404
    2POP    O55   55   0.403  -1.290  -0.450
    2POP    C56   56   0.308  -1.374  -0.387
    2POP    C57   57   0.331  -1.103  -0.307
    2POP    C58   58   0.352  -0.970  -0.269
    2POP    C59   59   0.645  -0.876  -0.494
    2POP    C60   60   0.778  -0.919  -0.488
    2POP    C61   61   0.880  -0.847  -0.552
    2POP    C62   62   0.851  -0.731  -0.625
    2POP    C63   63   0.718  -0.687  -0.629
    2POP    C64   64   0.616  -0.758  -0.565
    2POP    C65   65   0.954  -0.660  -0.711
    2POP    N66   66   1.064  -0.602  -0.636
    2POP    C67   67   1.003  -0.754  -0.822
    2POP    C68   68   0.595  -0.712  -0.227
    2POP    C69   69   0.614  -0.581  -0.182
    2POP    H70   70   0.300  -0.462  -0.239
    2POP    H71   71   0.270  -0.689  -0.323
    2POP    H72   72   0.575  -1.132  -0.539
    2POP    H73   73   0.318  -1.475  -0.430
    2POP    H74   74   0.205  -1.341  -0.407
    2POP    H75   75   0.327  -1.382  -0.279
    2POP    H76   76   0.250  -1.158  -0.258
    2POP    H77   77   0.288  -0.928  -0.191
    2POP    H78   78   0.804  -1.009  -0.434
    2POP    H79   79   0.982  -0.885  -0.548
    2POP    H80   80   0.691  -0.597  -0.684
    2POP    H81   81   0.514  -0.721  -0.572
    2POP    H82   82   0.903  -0.577  -0.762
    2POP    H83   83   1.088  -0.640  -0.546
    2POP    H84   84   1.072  -0.703  -0.890
    2POP    H85   85   0.919  -0.791  -0.881
    2POP    H86   86   1.056  -0.841  -0.781
    2POP    H87   87   0.678  -0.782  -0.220
    2POP    H88   88   0.711  -0.553  -0.141
    3POP    C89   89   1.134  -0.496  -0.692
    3POP    O90   90   1.104  -0.451  -0.803
    3POP    C91   91   1.246  -0.431  -0.618
    3POP    C92   92   1.306  -0.485  -0.504
    3POP    C93   93   1.413  -0.418  -0.443
    3POP    C94   94   1.463  -0.296  -0.494
    3POP    C95   95   1.578  -0.229  -0.430
    3POP    C96   96   1.701  -0.203  -0.498
    3POP    C97   97   1.806  -0.142  -0.426
    3POP    C98   98   1.793  -0.104  -0.292
    3POP    O99   99   1.903  -0.045  -0.236
    3POP   C100  100   1.892  -0.004  -0.100
    3POP   C101  101   1.673  -0.129  -0.227
    3POP   C102  102   1.568  -0.191  -0.295
    3POP   C103  103   1.723  -0.243  -0.639
    3POP   C104  104   1.755  -0.150  -0.739
    3POP   C105  105   1.775  -0.189  -0.872
    3POP   C106  106   1.767  -0.324  -0.909
    3POP   C107  107   1.733  -0.418  -0.809
    3POP   C108  108   1.713  -0.378  -0.677
    3POP   C109  109   1.806  -0.377  -1.046
    3POP   N110  110   1.725  -0.326  -1.156
    3POP   C111  111   1.955  -0.354  -1.070
    3POP   C112  112   1.402  -0.244  -0.608
    3POP   C113  113   1.296  -0.310  -0.670
    3POP   H114  114   1.274  -0.580  -0.462
    3POP   H115  115   1.462  -0.464  -0.357
    3POP   H116  116   1.902  -0.126  -0.476
    3POP   H117  117   1.986   0.044  -0.071
    3POP   H118  118   1.877  -0.091  -0.035
    3POP   H119  119   1.812   0.069  -0.087
    3POP   H120  120   1.658  -0.103  -0.123
    3POP   H121  121   1.475  -0.209  -0.240
    3POP   H122  122   1.765  -0.044  -0.714
    3POP   H123  123   1.802  -0.114  -0.946
    3POP   H124  124   1.726  -0.524  -0.833
    3POP   H125  125   1.689  -0.453  -0.603
    3POP   H126  126   1.790  -0.486  -1.045
    3POP   H127  127   1.662  -0.248  -1.140
    3POP   H128  128   1.988  -0.397  -1.166
    3POP   H129  129   2.014  -0.402  -0.991
    3POP   H130  130   1.980  -0.248  -1.072
    3POP   H131  131   1.439  -0.151  -0.652
    3POP   H132  132   1.253  -0.268  -0.760
    4POP   C133  133   1.719  -0.400  -1.274
    4POP   O134  134   1.782  -0.505  -1.289
    4POP   C135  135   1.632  -0.353  -1.386
    4POP   C136  136   1.586  -0.222  -1.397
    4POP   C137  137   1.509  -0.184  -1.508
    4POP   C138  138   1.479  -0.275  -1.611
    4POP   C139  139   1.403  -0.232  -1.731
    4POP   C140  140   1.458  -0.234  -1.862
    4POP   C141  141   1.377  -0.188  -1.969
    4POP   C142  142   1.247  -0.141  -1.949
    4POP   O143  143   1.182  -0.098  -2.061
    4POP   C144  144   1.050  -0.047  -2.042
    4POP   C145  145   1.195  -0.140  -1.820
    4POP   C146  146   1.272  -0.185  -1.713
    4POP   C147  147   1.596  -0.278  -1.890
    4POP   C148  148   1.623  -0.385  -1.978
    4POP   C149  149   1.754  -0.427  -2.004
    4POP   C150  150   1.863  -0.362  -1.945
    4POP   C151  151   1.837  -0.256  -1.856
    4POP   C152  152   1.706  -0.215  -1.830
    4POP   C153  153   2.008  -0.393  -1.981
    4POP   N154  154   2.050  -0.525  -1.936
    4POP   C155  155   2.029  -0.369  -2.131
    4POP   C156  156   1.524  -0.407  -1.598
    4POP   C157  157   1.601  -0.445  -1.487
    4POP   H158  158   1.611  -0.146  -1.324
    4POP   H159  159   1.474  -0.081  -1.516
    4POP   H160  160   1.417  -0.188  -2.070
    4POP   H161  161   1.010  -0.020  -2.140
    4POP   H162  162   1.052   0.044  -1.981
    4POP   H163  163   0.985  -0.123  -1.999
    4POP   H164  164   1.094  -0.104  -1.799
    4POP   H165  165   1.228  -0.183  -1.613
    4POP   H166  166   1.540  -0.436  -2.027
    4POP   H167  167   1.770  -0.509  -2.074
    4POP   H168  168   1.919  -0.202  -1.809
    4POP   H169  169   1.690  -0.132  -1.762
    4POP   H170  170   2.072  -0.323  -1.927
    4POP   H171  171   1.999  -0.568  -1.859
    4POP   H172  172   2.135  -0.372  -2.159
    4POP   H173  173   1.993  -0.269  -2.159
    4POP   H174  174   1.977  -0.442  -2.193
    4POP   H175  175   1.503  -0.481  -1.675
    4POP   H176  176   1.637  -0.548  -1.481
    5CAP   C177  177  -0.241  -0.673   0.226
    5CAP   O178  178  -0.257  -0.533   0.203
    5CAP   H179  179  -0.277  -0.733   0.142
    5CAP   H180  180  -0.298  -0.700   0.314
    5CAP   H181  181  -0.135  -0.695   0.245
    6CAP   C182  182   2.343  -0.799  -1.714
    6CAP   C183  183   2.346  -0.707  -1.836
    6CAP   C184  184   2.444  -0.592  -1.805
    6CAP   C185  185   2.390  -0.788  -1.959
    6CAP   O186  186   2.209  -0.660  -1.853
    6CAP   C187  187   2.182  -0.561  -1.942
    6CAP   O188  188   2.265  -0.506  -2.013
    6CAP   H189  189   2.443  -0.840  -1.693
    6CAP   H190  190   2.308  -0.745  -1.625
    6CAP   H191  191   2.274  -0.883  -1.729
    6CAP   H192  192   2.405  -0.527  -1.727
    6CAP   H193  193   2.464  -0.530  -1.893
    6CAP   H194  194   2.541  -0.631  -1.772
    6CAP   H195  195   2.320  -0.870  -1.978
    6CAP   H196  196   2.391  -0.726  -2.049
    6CAP   H197  197   2.490  -0.830  -1.945
  5.0000000  5.0000000  5.0000000
