Generated by Interchange
197
    1POP     C1    1  -0.246  -0.492   0.071
    1POP     O2    2  -0.206  -0.563  -0.020
    1POP     C3    3  -0.243  -0.344   0.065
    1POP     C4    4  -0.285  -0.263   0.171
    1POP     C5    5  -0.270  -0.125   0.164
    1POP     C6    6  -0.214  -0.064   0.050
    1POP     C7    7  -0.195   0.083   0.044
    1POP     C8    8  -0.069   0.145   0.018
    1POP     C9    9  -0.066   0.286   0.006
    1POP    C10   10  -0.180   0.365   0.021
    1POP    O11   11  -0.158   0.500   0.005
    1POP    C12   12  -0.269   0.587   0.021
    1POP    C13   13  -0.301   0.305   0.049
    1POP    C14   14  -0.308   0.165   0.060
    1POP    C15   15   0.057   0.068   0.004
    1POP    C16   16   0.136   0.077  -0.111
    1POP    C17   17   0.253   0.001  -0.126
    1POP    C18   18   0.295  -0.087  -0.026
    1POP    C19   19   0.216  -0.097   0.090
    1POP    C20   20   0.100  -0.020   0.105
    1POP    C21   21   0.427  -0.164  -0.035
    1POP    N22   22   0.430  -0.258  -0.146
    1POP    C23   23   0.545  -0.065  -0.035
    1POP    C24   24  -0.174  -0.146  -0.056
    1POP    C25   25  -0.188  -0.285  -0.049
    1POP    H26   26  -0.327  -0.307   0.262
    1POP    H27   27  -0.299  -0.064   0.249
    1POP    H28   28   0.029   0.335  -0.016
    1POP    H29   29  -0.232   0.690   0.008
    1POP    H30   30  -0.311   0.581   0.122
    1POP    H31   31  -0.345   0.569  -0.055
    1POP    H32   32  -0.392   0.362   0.062
    1POP    H33   33  -0.405   0.120   0.080
    1POP    H34   34   0.106   0.144  -0.192
    1POP    H35   35   0.312   0.014  -0.216
    1POP    H36   36   0.245  -0.164   0.171
    1POP    H37   37   0.043  -0.030   0.197
    1POP    H38   38   0.437  -0.226   0.055
    1POP    H39   39   0.411  -0.217  -0.237
    1POP    H40   40   0.642  -0.115  -0.032
    1POP    H41   41   0.541  -0.000   0.053
    1POP    H42   42   0.544  -0.002  -0.125
    1POP    H43   43  -0.129  -0.103  -0.145
    1POP    H44   44  -0.154  -0.346  -0.132
    2POP    C45   45   0.535  -0.349  -0.150
    2POP    O46   46   0.647  -0.325  -0.104
    2POP    C47   47   0.508  -0.485  -0.203
    2POP    C48   48   0.383  -0.527  -0.248
    2POP    C49   49   0.365  -0.660  -0.288
    2POP    C50   50   0.471  -0.753  -0.283
    2POP    C51   51   0.453  -0.892  -0.330
    2POP    C52   52   0.536  -0.951  -0.430
    2POP    C53   53   0.514  -1.087  -0.462
    2POP    C54   54   0.414  -1.163  -0.401
    2POP    O55   55   0.408  -1.293  -0.444
    2POP    C56   56   0.307  -1.376  -0.388
    2POP    C57   57   0.333  -1.105  -0.304
    2POP    C58   58   0.353  -0.971  -0.269
    2POP    C59   59   0.641  -0.875  -0.502
    2POP    C60   60   0.775  -0.918  -0.504
    2POP    C61   61   0.875  -0.843  -0.568
    2POP    C62   62   0.844  -0.723  -0.634
    2POP    C63   63   0.711  -0.680  -0.633
    2POP    C64   64   0.611  -0.756  -0.570
    2POP    C65   65   0.948  -0.646  -0.714
    2POP    N66   66   1.057  -0.594  -0.631
    2POP    C67   67   0.996  -0.730  -0.832
    2POP    C68   68   0.595  -0.709  -0.235
    2POP    C69   69   0.614  -0.577  -0.196
    2POP    H70   70   0.299  -0.459  -0.250
    2POP    H71   71   0.267  -0.691  -0.325
    2POP    H72   72   0.576  -1.134  -0.538
    2POP    H73   73   0.317  -1.475  -0.435
    2POP    H74   74   0.207  -1.339  -0.411
    2POP    H75   75   0.322  -1.389  -0.280
    2POP    H76   76   0.254  -1.160  -0.254
    2POP    H77   77   0.289  -0.927  -0.192
    2POP    H78   78   0.803  -1.010  -0.453
    2POP    H79   79   0.976  -0.882  -0.568
    2POP    H80   80   0.682  -0.588  -0.684
    2POP    H81   81   0.509  -0.719  -0.573
    2POP    H82   82   0.900  -0.556  -0.755
    2POP    H83   83   1.105  -0.663  -0.576
    2POP    H84   84   1.066  -0.677  -0.897
    2POP    H85   85   0.912  -0.759  -0.896
    2POP    H86   86   1.047  -0.821  -0.799
    2POP    H87   87   0.679  -0.778  -0.228
    2POP    H88   88   0.712  -0.547  -0.159
    3POP    C89   89   1.142  -0.501  -0.689
    3POP    O90   90   1.168  -0.499  -0.808
    3POP    C91   91   1.199  -0.394  -0.603
    3POP    C92   92   1.167  -0.378  -0.468
    3POP    C93   93   1.219  -0.269  -0.398
    3POP    C94   94   1.301  -0.173  -0.460
    3POP    C95   95   1.359  -0.060  -0.384
    3POP    C96   96   1.498  -0.034  -0.379
    3POP    C97   97   1.543   0.081  -0.309
    3POP    C98   98   1.454   0.166  -0.243
    3POP    O99   99   1.514   0.272  -0.179
    3POP   C100  100   1.429   0.364  -0.110
    3POP   C101  101   1.318   0.139  -0.246
    3POP   C102  102   1.271   0.028  -0.317
    3POP   C103  103   1.599  -0.122  -0.442
    3POP   C104  104   1.692  -0.074  -0.536
    3POP   C105  105   1.785  -0.159  -0.597
    3POP   C106  106   1.789  -0.296  -0.568
    3POP   C107  107   1.696  -0.345  -0.474
    3POP   C108  108   1.605  -0.259  -0.412
    3POP   C109  109   1.894  -0.389  -0.626
    3POP   N110  110   1.884  -0.401  -0.772
    3POP   C111  111   2.033  -0.347  -0.577
    3POP   C112  112   1.328  -0.189  -0.596
    3POP   C113  113   1.280  -0.298  -0.667
    3POP   H114  114   1.101  -0.448  -0.418
    3POP   H115  115   1.194  -0.259  -0.292
    3POP   H116  116   1.649   0.102  -0.304
    3POP   H117  117   1.493   0.440  -0.065
    3POP   H118  118   1.375   0.314  -0.030
    3POP   H119  119   1.361   0.414  -0.180
    3POP   H120  120   1.245   0.202  -0.197
    3POP   H121  121   1.164   0.010  -0.320
    3POP   H122  122   1.692   0.032  -0.562
    3POP   H123  123   1.857  -0.116  -0.667
    3POP   H124  124   1.696  -0.450  -0.447
    3POP   H125  125   1.536  -0.301  -0.338
    3POP   H126  126   1.875  -0.491  -0.589
    3POP   H127  127   1.889  -0.311  -0.820
    3POP   H128  128   2.111  -0.418  -0.607
    3POP   H129  129   2.036  -0.344  -0.468
    3POP   H130  130   2.062  -0.250  -0.617
    3POP   H131  131   1.390  -0.116  -0.649
    3POP   H132  132   1.303  -0.308  -0.772
    4POP   C133  133   1.960  -0.497  -0.834
    4POP   O134  134   2.070  -0.534  -0.792
    4POP   C135  135   1.903  -0.568  -0.952
    4POP   C136  136   1.777  -0.541  -1.004
    4POP   C137  137   1.728  -0.618  -1.111
    4POP   C138  138   1.804  -0.721  -1.168
    4POP   C139  139   1.755  -0.798  -1.285
    4POP   C140  140   1.829  -0.810  -1.406
    4POP   C141  141   1.775  -0.891  -1.509
    4POP   C142  142   1.652  -0.955  -1.498
    4POP   O143  143   1.615  -1.028  -1.607
    4POP   C144  144   1.490  -1.097  -1.603
    4POP   C145  145   1.578  -0.940  -1.381
    4POP   C146  146   1.630  -0.862  -1.276
    4POP   C147  147   1.959  -0.741  -1.428
    4POP   C148  148   2.075  -0.813  -1.463
    4POP   C149  149   2.198  -0.748  -1.480
    4POP   C150  150   2.211  -0.610  -1.463
    4POP   C151  151   2.095  -0.538  -1.430
    4POP   C152  152   1.971  -0.602  -1.414
    4POP   C153  153   2.341  -0.535  -1.488
    4POP   N154  154   2.455  -0.582  -1.410
    4POP   C155  155   2.380  -0.543  -1.636
    4POP   C156  156   1.930  -0.749  -1.112
    4POP   C157  157   1.979  -0.672  -1.006
    4POP   H158  158   1.714  -0.463  -0.961
    4POP   H159  159   1.630  -0.594  -1.151
    4POP   H160  160   1.831  -0.902  -1.602
    4POP   H161  161   1.478  -1.150  -1.697
    4POP   H162  162   1.407  -1.026  -1.594
    4POP   H163  163   1.488  -1.171  -1.522
    4POP   H164  164   1.481  -0.987  -1.367
    4POP   H165  165   1.570  -0.853  -1.185
    4POP   H166  166   2.070  -0.921  -1.475
    4POP   H167  167   2.284  -0.808  -1.508
    4POP   H168  168   2.098  -0.430  -1.416
    4POP   H169  169   1.884  -0.542  -1.388
    4POP   H170  170   2.325  -0.429  -1.463
    4POP   H171  171   2.482  -0.678  -1.425
    4POP   H172  172   2.470  -0.483  -1.656
    4POP   H173  173   2.300  -0.506  -1.701
    4POP   H174  174   2.403  -0.646  -1.665
    4POP   H175  175   1.992  -0.829  -1.151
    4POP   H176  176   2.077  -0.696  -0.966
    5CAP   C177  177  -0.237  -0.667   0.223
    5CAP   O178  178  -0.285  -0.536   0.194
    5CAP   H179  179  -0.252  -0.738   0.140
    5CAP   H180  180  -0.289  -0.705   0.311
    5CAP   H181  181  -0.130  -0.659   0.246
    6CAP   C182  182   2.906  -0.584  -1.498
    6CAP   C183  183   2.801  -0.484  -1.447
    6CAP   C184  184   2.849  -0.428  -1.312
    6CAP   C185  185   2.789  -0.372  -1.552
    6CAP   O186  186   2.677  -0.560  -1.430
    6CAP   C187  187   2.562  -0.496  -1.399
    6CAP   O188  188   2.550  -0.376  -1.378
    6CAP   H189  189   3.003  -0.536  -1.513
    6CAP   H190  190   2.919  -0.667  -1.428
    6CAP   H191  191   2.875  -0.628  -1.594
    6CAP   H192  192   2.850  -0.507  -1.236
    6CAP   H193  193   2.782  -0.349  -1.275
    6CAP   H194  194   2.949  -0.386  -1.321
    6CAP   H195  195   2.749  -0.410  -1.646
    6CAP   H196  196   2.722  -0.291  -1.519
    6CAP   H197  197   2.887  -0.326  -1.572
  5.0000000  5.0000000  5.0000000
