Generated by Interchange
197
    1POP     C1    1  -0.252  -0.493   0.072
    1POP     O2    2  -0.213  -0.564  -0.022
    1POP     C3    3  -0.246  -0.344   0.067
    1POP     C4    4  -0.285  -0.263   0.174
    1POP     C5    5  -0.268  -0.124   0.165
    1POP     C6    6  -0.213  -0.064   0.051
    1POP     C7    7  -0.195   0.083   0.043
    1POP     C8    8  -0.070   0.145   0.016
    1POP     C9    9  -0.066   0.286   0.003
    1POP    C10   10  -0.180   0.366   0.020
    1POP    O11   11  -0.158   0.500   0.004
    1POP    C12   12  -0.269   0.588   0.022
    1POP    C13   13  -0.301   0.305   0.050
    1POP    C14   14  -0.308   0.166   0.061
    1POP    C15   15   0.056   0.069   0.003
    1POP    C16   16   0.136   0.078  -0.112
    1POP    C17   17   0.253   0.002  -0.126
    1POP    C18   18   0.295  -0.086  -0.025
    1POP    C19   19   0.216  -0.094   0.091
    1POP    C20   20   0.100  -0.017   0.105
    1POP    C21   21   0.425  -0.164  -0.034
    1POP    N22   22   0.428  -0.257  -0.147
    1POP    C23   23   0.544  -0.066  -0.036
    1POP    C24   24  -0.174  -0.148  -0.055
    1POP    C25   25  -0.189  -0.286  -0.046
    1POP    H26   26  -0.326  -0.306   0.265
    1POP    H27   27  -0.298  -0.063   0.250
    1POP    H28   28   0.028   0.335  -0.019
    1POP    H29   29  -0.232   0.691   0.008
    1POP    H30   30  -0.310   0.582   0.123
    1POP    H31   31  -0.346   0.571  -0.054
    1POP    H32   32  -0.392   0.363   0.066
    1POP    H33   33  -0.405   0.121   0.083
    1POP    H34   34   0.106   0.144  -0.193
    1POP    H35   35   0.313   0.015  -0.216
    1POP    H36   36   0.245  -0.160   0.173
    1POP    H37   37   0.042  -0.026   0.197
    1POP    H38   38   0.434  -0.227   0.055
    1POP    H39   39   0.416  -0.211  -0.236
    1POP    H40   40   0.640  -0.117  -0.033
    1POP    H41   41   0.541  -0.001   0.052
    1POP    H42   42   0.543  -0.004  -0.126
    1POP    H43   43  -0.128  -0.106  -0.144
    1POP    H44   44  -0.154  -0.348  -0.129
    2POP    C45   45   0.533  -0.349  -0.152
    2POP    O46   46   0.644  -0.322  -0.107
    2POP    C47   47   0.509  -0.484  -0.201
    2POP    C48   48   0.384  -0.528  -0.245
    2POP    C49   49   0.367  -0.660  -0.285
    2POP    C50   50   0.473  -0.754  -0.281
    2POP    C51   51   0.456  -0.893  -0.327
    2POP    C52   52   0.537  -0.950  -0.429
    2POP    C53   53   0.513  -1.088  -0.462
    2POP    C54   54   0.414  -1.164  -0.401
    2POP    O55   55   0.407  -1.293  -0.445
    2POP    C56   56   0.307  -1.378  -0.388
    2POP    C57   57   0.334  -1.106  -0.304
    2POP    C58   58   0.354  -0.971  -0.268
    2POP    C59   59   0.641  -0.875  -0.501
    2POP    C60   60   0.775  -0.917  -0.503
    2POP    C61   61   0.875  -0.843  -0.568
    2POP    C62   62   0.844  -0.722  -0.633
    2POP    C63   63   0.710  -0.680  -0.633
    2POP    C64   64   0.610  -0.756  -0.569
    2POP    C65   65   0.948  -0.644  -0.712
    2POP    N66   66   1.057  -0.594  -0.629
    2POP    C67   67   0.996  -0.727  -0.831
    2POP    C68   68   0.597  -0.708  -0.232
    2POP    C69   69   0.616  -0.575  -0.194
    2POP    H70   70   0.299  -0.460  -0.247
    2POP    H71   71   0.269  -0.692  -0.321
    2POP    H72   72   0.575  -1.133  -0.539
    2POP    H73   73   0.318  -1.477  -0.434
    2POP    H74   74   0.207  -1.342  -0.411
    2POP    H75   75   0.322  -1.390  -0.280
    2POP    H76   76   0.254  -1.161  -0.256
    2POP    H77   77   0.290  -0.928  -0.192
    2POP    H78   78   0.803  -1.010  -0.452
    2POP    H79   79   0.976  -0.881  -0.568
    2POP    H80   80   0.680  -0.589  -0.684
    2POP    H81   81   0.508  -0.719  -0.571
    2POP    H82   82   0.900  -0.553  -0.752
    2POP    H83   83   1.107  -0.669  -0.582
    2POP    H84   84   1.062  -0.671  -0.898
    2POP    H85   85   0.912  -0.760  -0.893
    2POP    H86   86   1.052  -0.815  -0.798
    2POP    H87   87   0.682  -0.777  -0.225
    2POP    H88   88   0.713  -0.543  -0.158
    3POP    C89   89   1.146  -0.505  -0.688
    3POP    O90   90   1.178  -0.508  -0.806
    3POP    C91   91   1.199  -0.394  -0.604
    3POP    C92   92   1.166  -0.377  -0.470
    3POP    C93   93   1.217  -0.267  -0.400
    3POP    C94   94   1.301  -0.172  -0.462
    3POP    C95   95   1.358  -0.060  -0.385
    3POP    C96   96   1.498  -0.033  -0.380
    3POP    C97   97   1.542   0.082  -0.310
    3POP    C98   98   1.454   0.168  -0.244
    3POP    O99   99   1.513   0.273  -0.181
    3POP   C100  100   1.429   0.364  -0.110
    3POP   C101  101   1.318   0.139  -0.246
    3POP   C102  102   1.271   0.028  -0.316
    3POP   C103  103   1.599  -0.123  -0.442
    3POP   C104  104   1.691  -0.074  -0.536
    3POP   C105  105   1.784  -0.160  -0.598
    3POP   C106  106   1.787  -0.297  -0.568
    3POP   C107  107   1.694  -0.346  -0.474
    3POP   C108  108   1.603  -0.260  -0.412
    3POP   C109  109   1.892  -0.390  -0.628
    3POP   N110  110   1.882  -0.401  -0.773
    3POP   C111  111   2.031  -0.347  -0.580
    3POP   C112  112   1.329  -0.189  -0.598
    3POP   C113  113   1.280  -0.299  -0.668
    3POP   H114  114   1.099  -0.446  -0.420
    3POP   H115  115   1.192  -0.257  -0.294
    3POP   H116  116   1.648   0.104  -0.306
    3POP   H117  117   1.493   0.442  -0.067
    3POP   H118  118   1.378   0.315  -0.026
    3POP   H119  119   1.357   0.413  -0.176
    3POP   H120  120   1.245   0.202  -0.196
    3POP   H121  121   1.164   0.009  -0.318
    3POP   H122  122   1.692   0.031  -0.562
    3POP   H123  123   1.855  -0.117  -0.667
    3POP   H124  124   1.693  -0.451  -0.447
    3POP   H125  125   1.534  -0.302  -0.339
    3POP   H126  126   1.874  -0.492  -0.590
    3POP   H127  127   1.896  -0.311  -0.818
    3POP   H128  128   2.110  -0.415  -0.613
    3POP   H129  129   2.036  -0.345  -0.471
    3POP   H130  130   2.058  -0.248  -0.618
    3POP   H131  131   1.392  -0.117  -0.651
    3POP   H132  132   1.306  -0.310  -0.773
    4POP   C133  133   1.960  -0.499  -0.835
    4POP   O134  134   2.069  -0.535  -0.792
    4POP   C135  135   1.902  -0.570  -0.951
    4POP   C136  136   1.777  -0.542  -1.004
    4POP   C137  137   1.729  -0.616  -1.113
    4POP   C138  138   1.804  -0.721  -1.168
    4POP   C139  139   1.754  -0.797  -1.286
    4POP   C140  140   1.829  -0.810  -1.406
    4POP   C141  141   1.775  -0.890  -1.509
    4POP   C142  142   1.651  -0.954  -1.498
    4POP   O143  143   1.614  -1.027  -1.608
    4POP   C144  144   1.488  -1.094  -1.604
    4POP   C145  145   1.578  -0.939  -1.382
    4POP   C146  146   1.629  -0.861  -1.277
    4POP   C147  147   1.959  -0.741  -1.428
    4POP   C148  148   2.074  -0.812  -1.463
    4POP   C149  149   2.198  -0.748  -1.479
    4POP   C150  150   2.211  -0.610  -1.461
    4POP   C151  151   2.095  -0.538  -1.428
    4POP   C152  152   1.972  -0.602  -1.412
    4POP   C153  153   2.342  -0.536  -1.486
    4POP   N154  154   2.455  -0.584  -1.407
    4POP   C155  155   2.382  -0.543  -1.634
    4POP   C156  156   1.928  -0.751  -1.111
    4POP   C157  157   1.978  -0.676  -1.005
    4POP   H158  158   1.715  -0.463  -0.962
    4POP   H159  159   1.632  -0.590  -1.155
    4POP   H160  160   1.831  -0.902  -1.602
    4POP   H161  161   1.476  -1.146  -1.700
    4POP   H162  162   1.405  -1.023  -1.595
    4POP   H163  163   1.485  -1.169  -1.525
    4POP   H164  164   1.481  -0.986  -1.368
    4POP   H165  165   1.570  -0.852  -1.185
    4POP   H166  166   2.069  -0.920  -1.477
    4POP   H167  167   2.284  -0.808  -1.507
    4POP   H168  168   2.099  -0.430  -1.414
    4POP   H169  169   1.885  -0.542  -1.385
    4POP   H170  170   2.327  -0.430  -1.460
    4POP   H171  171   2.481  -0.680  -1.422
    4POP   H172  172   2.474  -0.486  -1.652
    4POP   H173  173   2.304  -0.502  -1.699
    4POP   H174  174   2.402  -0.646  -1.664
    4POP   H175  175   1.989  -0.832  -1.151
    4POP   H176  176   2.076  -0.700  -0.964
    5CAP   C177  177  -0.237  -0.668   0.222
    5CAP   O178  178  -0.290  -0.539   0.194
    5CAP   H179  179  -0.250  -0.738   0.139
    5CAP   H180  180  -0.287  -0.710   0.310
    5CAP   H181  181  -0.131  -0.656   0.245
    6CAP   C182  182   2.907  -0.585  -1.503
    6CAP   C183  183   2.802  -0.485  -1.450
    6CAP   C184  184   2.850  -0.431  -1.315
    6CAP   C185  185   2.791  -0.372  -1.554
    6CAP   O186  186   2.678  -0.561  -1.434
    6CAP   C187  187   2.563  -0.498  -1.398
    6CAP   O188  188   2.553  -0.379  -1.372
    6CAP   H189  189   3.006  -0.538  -1.513
    6CAP   H190  190   2.918  -0.671  -1.435
    6CAP   H191  191   2.879  -0.626  -1.600
    6CAP   H192  192   2.854  -0.511  -1.241
    6CAP   H193  193   2.783  -0.354  -1.276
    6CAP   H194  194   2.950  -0.386  -1.324
    6CAP   H195  195   2.752  -0.408  -1.649
    6CAP   H196  196   2.725  -0.292  -1.520
    6CAP   H197  197   2.889  -0.326  -1.572
  5.0000000  5.0000000  5.0000000
