FOO
 3367
    1MOP     C1    1   2.684   4.968   2.050
    1MOP     O2    2   2.639   5.085   1.978
    1MOP     C3    3   2.591   5.193   2.052
    1MOP     C4    4   2.581   5.194   2.194
    1MOP     C5    5   2.533   5.308   2.260
    1MOP     C6    6   2.496   5.424   2.188
    1MOP     C7    7   2.439   5.539   2.264
    1MOP     C8    8   2.507   5.590   2.377
    1MOP     C9    9   2.456   5.701   2.449
    1MOP    C10   10   2.530   5.758   2.565
    1MOP    O11   11   2.620   5.693   2.617
    1MOP    C12   12   2.333   5.759   2.408
    1MOP    C13   13   2.264   5.708   2.296
    1MOP    C14   14   2.317   5.598   2.225
    1MOP    C15   15   2.507   5.424   2.046
    1MOP    C16   16   2.479   5.544   1.962
    1MOP    C17   17   2.402   5.531   1.844
    1MOP    C18   18   2.371   5.644   1.764
    1MOP    C19   19   2.286   5.626   1.638
    1MOP    C20   20   2.158   5.545   1.665
    1MOP    N21   21   2.240   5.755   1.582
    1MOP    C22   22   2.424   5.770   1.801
    1MOP    C23   23   2.503   5.784   1.917
    1MOP    C24   24   2.530   5.671   1.998
    1MOP    C25   25   2.553   5.307   1.981
    1MOP    H26   26   2.604   4.930   2.114
    1MOP    H27   27   2.772   4.993   2.110
    1MOP    H28   28   2.711   4.891   1.977
    1MOP    H29   29   2.610   5.108   2.254
    1MOP    H30   30   2.524   5.306   2.368
    1MOP    H31   31   2.602   5.546   2.406
    1MOP    H32   32   2.292   5.844   2.461
    1MOP    H33   33   2.171   5.753   2.264
    1MOP    H34   34   2.263   5.560   2.139
    1MOP    H35   35   2.366   5.433   1.816
    1MOP    H36   36   2.346   5.573   1.564
    1MOP    H37   37   2.097   5.542   1.574
    1MOP    H38   38   2.184   5.442   1.692
    1MOP    H39   39   2.101   5.592   1.746
    1MOP    H40   40   2.164   5.803   1.628
    1MOP    H41   41   2.406   5.858   1.740
    1MOP    H42   42   2.543   5.881   1.945
    1MOP    H43   43   2.591   5.683   2.087
    1MOP    H44   44   2.563   5.305   1.873
    2MOP    C45   45   2.485   6.736   1.564
    2MOP    O46   46   2.343   6.704   1.554
    2MOP    C47   47   2.308   6.574   1.522
    2MOP    C48   48   2.402   6.469   1.503
    2MOP    C49   49   2.358   6.339   1.470
    2MOP    C50   50   2.220   6.310   1.457
    2MOP    C51   51   2.181   6.173   1.410
    2MOP    C52   52   2.247   6.058   1.459
    2MOP    C53   53   2.215   5.929   1.410
    2MOP    C54   54   2.282   5.809   1.462
    2MOP    O55   55   2.375   5.758   1.401
    2MOP    C56   56   2.116   5.915   1.310
    2MOP    C57   57   2.050   6.029   1.260
    2MOP    C58   58   2.082   6.157   1.309
    2MOP    C59   59   2.125   6.414   1.480
    2MOP    C60   60   1.978   6.391   1.482
    2MOP    C61   61   1.892   6.471   1.404
    2MOP    C62   62   1.752   6.449   1.404
    2MOP    C63   63   1.663   6.532   1.310
    2MOP    C64   64   1.708   6.511   1.163
    2MOP    N65   65   1.521   6.490   1.313
    2MOP    C66   66   1.698   6.350   1.490
    2MOP    C67   67   1.783   6.271   1.570
    2MOP    C68   68   1.923   6.290   1.565
    2MOP    C69   69   2.171   6.545   1.510
    2MOP    H70   70   2.534   6.717   1.468
    2MOP    H71   71   2.531   6.676   1.643
    2MOP    H72   72   2.495   6.842   1.589
    2MOP    H73   73   2.509   6.485   1.510
    2MOP    H74   74   2.432   6.262   1.451
    2MOP    H75   75   2.324   6.068   1.536
    2MOP    H76   76   2.093   5.817   1.270
    2MOP    H77   77   1.976   6.019   1.181
    2MOP    H78   78   2.033   6.244   1.266
    2MOP    H79   79   1.935   6.549   1.342
    2MOP    H80   80   1.672   6.638   1.336
    2MOP    H81   81   1.639   6.565   1.097
    2MOP    H82   82   1.808   6.551   1.150
    2MOP    H83   83   1.706   6.405   1.140
    2MOP    H84   84   1.497   6.399   1.277
    2MOP    H85   85   1.591   6.332   1.496
    2MOP    H86   86   1.742   6.194   1.635
    2MOP    H87   87   1.988   6.229   1.627
    2MOP    H88   88   2.099   6.624   1.528
    3MOP    C89   89   0.919   5.857   1.744
    3MOP    O90   90   0.925   5.864   1.599
    3MOP    C91   91   0.976   5.981   1.543
    3MOP    C92   92   1.035   6.085   1.618
    3MOP    C93   93   1.081   6.202   1.554
    3MOP    C94   94   1.070   6.217   1.414
    3MOP    C95   95   1.109   6.347   1.354
    3MOP    C96   96   1.239   6.400   1.376
    3MOP    C97   97   1.277   6.523   1.316
    3MOP    C98   98   1.414   6.575   1.333
    3MOP    O99   99   1.431   6.691   1.369
    3MOP   C100  100   1.184   6.594   1.237
    3MOP   C101  101   1.054   6.543   1.217
    3MOP   C102  102   1.017   6.421   1.275
    3MOP   C103  103   1.013   6.111   1.337
    3MOP   C104  104   0.998   6.120   1.188
    3MOP   C105  105   0.872   6.092   1.129
    3MOP   C106  106   0.852   6.112   0.990
    3MOP   C107  107   0.710   6.091   0.933
    3MOP   C108  108   0.624   6.213   0.971
    3MOP   N109  109   0.697   6.074   0.787
    3MOP   C110  110   0.959   6.159   0.911
    3MOP   C111  111   1.086   6.181   0.968
    3MOP   C112  112   1.105   6.161   1.106
    3MOP   C113  113   0.967   5.995   1.403
    3MOP   H114  114   0.860   5.940   1.783
    3MOP   H115  115   1.020   5.858   1.786
    3MOP   H116  116   0.870   5.763   1.771
    3MOP   H117  117   1.045   6.080   1.726
    3MOP   H118  118   1.122   6.283   1.614
    3MOP   H119  119   1.309   6.344   1.437
    3MOP   H120  120   1.214   6.688   1.191
    3MOP   H121  121   0.983   6.598   1.157
    3MOP   H122  122   0.917   6.382   1.259
    3MOP   H123  123   0.790   6.060   1.192
    3MOP   H124  124   0.667   6.003   0.981
    3MOP   H125  125   0.521   6.197   0.936
    3MOP   H126  126   0.622   6.224   1.080
    3MOP   H127  127   0.665   6.302   0.925
    3MOP   H128  128   0.611   6.105   0.743
    3MOP   H129  129   0.945   6.179   0.805
    3MOP   H130  130   1.168   6.215   0.906
    3MOP   H131  131   1.203   6.181   1.150
    3MOP   H132  132   0.923   5.913   1.345
    4MOP   C133  133   1.258   5.874  -0.123
    4MOP   O134  134   1.160   5.981  -0.111
    4MOP   C135  135   1.075   5.979  -0.001
    4MOP   C136  136   1.083   5.882   0.102
    4MOP   C137  137   0.994   5.888   0.211
    4MOP   C138  138   0.899   5.991   0.221
    4MOP   C139  139   0.796   5.982   0.327
    4MOP   C140  140   0.833   5.994   0.463
    4MOP   C141  141   0.736   5.978   0.564
    4MOP   C142  142   0.774   5.994   0.705
    4MOP   O143  143   0.854   5.914   0.753
    4MOP   C144  144   0.602   5.947   0.529
    4MOP   C145  145   0.566   5.934   0.393
    4MOP   C146  146   0.662   5.953   0.292
    4MOP   C147  147   0.893   6.092   0.120
    4MOP   C148  148   0.805   6.212   0.132
    4MOP   C149  149   0.729   6.256   0.021
    4MOP   C150  150   0.654   6.376   0.029
    4MOP   C151  151   0.570   6.421  -0.092
    4MOP   C152  152   0.421   6.389  -0.069
    4MOP   N153  153   0.600   6.560  -0.131
    4MOP   C154  154   0.657   6.452   0.148
    4MOP   C155  155   0.733   6.409   0.258
    4MOP   C156  156   0.806   6.289   0.251
    4MOP   C157  157   0.981   6.082   0.009
    4MOP   H158  158   1.207   5.777  -0.129
    4MOP   H159  159   1.327   5.876  -0.038
    4MOP   H160  160   1.314   5.890  -0.215
    4MOP   H161  161   1.155   5.801   0.100
    4MOP   H162  162   0.997   5.810   0.287
    4MOP   H163  163   0.936   6.015   0.490
    4MOP   H164  164   0.527   5.932   0.606
    4MOP   H165  165   0.464   5.909   0.367
    4MOP   H166  166   0.634   5.942   0.188
    4MOP   H167  167   0.729   6.197  -0.070
    4MOP   H168  168   0.601   6.360  -0.177
    4MOP   H169  169   0.362   6.427  -0.153
    4MOP   H170  170   0.408   6.281  -0.062
    4MOP   H171  171   0.386   6.434   0.024
    4MOP   H172  172   0.691   6.579  -0.170
    4MOP   H173  173   0.601   6.544   0.157
    4MOP   H174  174   0.736   6.468   0.349
    4MOP   H175  175   0.867   6.257   0.335
    4MOP   H176  176   0.979   6.158  -0.069
    5CAP   C177  177   2.568   5.935   2.722
    5CAP   O178  178   2.493   5.883   2.610
    5CAP   H179  179   2.557   5.869   2.808
    5CAP   H180  180   2.530   6.034   2.747
    5CAP   H181  181   2.674   5.944   2.694
    6CAP   C182  182   0.293   6.756   0.172
    6CAP   C183  183   0.388   6.800   0.058
    6CAP   C184  184   0.299   6.864  -0.052
    6CAP   C185  185   0.487   6.901   0.119
    6CAP   O186  186   0.449   6.674   0.015
    6CAP   C187  187   0.543   6.676  -0.085
    6CAP   O188  188   0.584   6.776  -0.142
    6CAP   H189  189   0.239   6.843   0.210
    6CAP   H190  190   0.223   6.681   0.134
    6CAP   H191  191   0.353   6.713   0.253
    6CAP   H192  192   0.236   6.787  -0.098
    6CAP   H193  193   0.363   6.910  -0.128
    6CAP   H194  194   0.237   6.942  -0.008
    6CAP   H195  195   0.549   6.851   0.194
    6CAP   H196  196   0.550   6.944   0.041
    6CAP   H197  197   0.432   6.982   0.166
    7TCM     c1  198   4.192   0.475   2.660
    7TCM    cl1  199   4.035   0.390   2.644
    7TCM    cl2  200   4.224   0.569   2.510
    7TCM     h1  201   4.188   0.543   2.745
    7TCM    cl3  202   4.324   0.355   2.684
    8TCM     c1  203   1.462   2.374   4.462
    8TCM    cl1  204   1.310   2.290   4.418
    8TCM    cl2  205   1.432   2.550   4.477
    8TCM     h1  206   1.498   2.334   4.557
    8TCM    cl3  207   1.584   2.345   4.334
    9TCM     c1  208   1.657   1.928   1.096
    9TCM    cl1  209   1.510   1.831   1.061
    9TCM    cl2  210   1.802   1.839   1.039
    9TCM     h1  211   1.650   2.024   1.045
    9TCM    cl3  212   1.670   1.954   1.273
   10TCM     c1  213   2.633   0.585   3.567
   10TCM    cl1  214   2.709   0.743   3.531
   10TCM    cl2  215   2.666   0.540   3.737
   10TCM     h1  216   2.525   0.593   3.551
   10TCM    cl3  217   2.701   0.462   3.457
   11TCM     c1  218   2.338   1.605   2.795
   11TCM    cl1  219   2.305   1.759   2.880
   11TCM    cl2  220   2.447   1.503   2.895
   11TCM     h1  221   2.244   1.552   2.777
   11TCM    cl3  222   2.418   1.640   2.638
   12TCM     c1  223   4.990   1.391   0.521
   12TCM    cl1  224   5.040   1.246   0.428
   12TCM    cl2  225   5.131   1.460   0.608
   12TCM     h1  226   4.950   1.466   0.452
   12TCM    cl3  227   4.863   1.345   0.639
   13TCM     c1  228   3.015   0.663   2.454
   13TCM    cl1  229   2.858   0.704   2.377
   13TCM    cl2  230   3.073   0.505   2.393
   13TCM     h1  231   3.089   0.740   2.430
   13TCM    cl3  232   2.993   0.653   2.632
   14TCM     c1  233   3.565   3.978   4.483
   14TCM    cl1  234   3.396   3.925   4.515
   14TCM    cl2  235   3.654   3.991   4.639
   14TCM     h1  236   3.615   3.906   4.418
   14TCM    cl3  237   3.561   4.139   4.403
   15TCM     c1  238   0.388   3.897   3.539
   15TCM    cl1  239   0.447   3.730   3.511
   15TCM    cl2  240   0.525   4.011   3.524
   15TCM     h1  241   0.311   3.921   3.464
   15TCM    cl3  242   0.317   3.910   3.703
   16TCM     c1  243   3.928   1.071   2.468
   16TCM    cl1  244   3.829   1.118   2.609
   16TCM    cl2  245   4.101   1.058   2.517
   16TCM     h1  246   3.894   0.975   2.429
   16TCM    cl3  247   3.913   1.196   2.340
   17TCM     c1  248   0.044   2.870   4.436
   17TCM    cl1  249  -0.110   2.781   4.419
   17TCM    cl2  250   0.147   2.789   4.558
   17TCM     h1  251   0.096   2.872   4.340
   17TCM    cl3  252   0.011   3.038   4.489
   18TCM     c1  253   0.353   2.641   1.220
   18TCM    cl1  254   0.222   2.724   1.309
   18TCM    cl2  255   0.332   2.463   1.235
   18TCM     h1  256   0.348   2.669   1.114
   18TCM    cl3  257   0.511   2.689   1.287
   19TCM     c1  258   1.326   1.711   2.133
   19TCM    cl1  259   1.207   1.767   2.014
   19TCM    cl2  260   1.474   1.659   2.046
   19TCM     h1  261   1.351   1.792   2.203
   19TCM    cl3  262   1.258   1.571   2.222
   20TCM     c1  263   4.656   4.426   0.554
   20TCM    cl1  264   4.717   4.526   0.690
   20TCM    cl2  265   4.711   4.497   0.399
   20TCM     h1  266   4.695   4.324   0.563
   20TCM    cl3  267   4.477   4.424   0.558
   21TCM     c1  268   2.388   0.196   3.808
   21TCM    cl1  269   2.370   0.138   3.977
   21TCM    cl2  270   2.561   0.189   3.762
   21TCM     h1  271   2.329   0.133   3.741
   21TCM    cl3  272   2.331   0.365   3.798
   22TCM     c1  273   2.808   1.736   2.792
   22TCM    cl1  274   2.978   1.793   2.784
   22TCM    cl2  275   2.787   1.594   2.685
   22TCM     h1  276   2.784   1.708   2.895
   22TCM    cl3  277   2.699   1.868   2.738
   23TCM     c1  278   0.654   2.874   4.736
   23TCM    cl1  279   0.763   2.856   4.595
   23TCM    cl2  280   0.484   2.877   4.679
   23TCM     h1  281   0.667   2.790   4.804
   23TCM    cl3  282   0.691   3.027   4.822
   24TCM     c1  283   4.401   3.487   2.091
   24TCM    cl1  284   4.420   3.664   2.111
   24TCM    cl2  285   4.235   3.439   2.140
   24TCM     h1  286   4.417   3.459   1.987
   24TCM    cl3  287   4.520   3.402   2.195
   25TCM     c1  288   0.371   3.809   4.562
   25TCM    cl1  289   0.218   3.802   4.468
   25TCM    cl2  290   0.356   3.929   4.694
   25TCM     h1  291   0.392   3.710   4.604
   25TCM    cl3  292   0.505   3.857   4.453
   26TCM     c1  293   2.122   1.007   3.203
   26TCM    cl1  294   2.258   1.120   3.174
   26TCM    cl2  295   2.107   0.896   3.062
   26TCM     h1  296   2.140   0.949   3.293
   26TCM    cl3  297   1.970   1.101   3.220
   27TCM     c1  298   1.065   1.870   2.466
   27TCM    cl1  299   1.239   1.826   2.465
   27TCM    cl2  300   0.993   1.838   2.304
   27TCM     h1  301   1.013   1.810   2.541
   27TCM    cl3  302   1.049   2.044   2.506
   28TCM     c1  303   3.280   4.628   4.671
   28TCM    cl1  304   3.221   4.725   4.533
   28TCM    cl2  305   3.146   4.531   4.739
   28TCM     h1  306   3.361   4.562   4.638
   28TCM    cl3  307   3.341   4.739   4.799
   29TCM     c1  308   2.695   2.312   2.370
   29TCM    cl1  309   2.560   2.207   2.315
   29TCM    cl2  310   2.652   2.388   2.527
   29TCM     h1  311   2.786   2.252   2.381
   29TCM    cl3  312   2.723   2.441   2.248
   30TCM     c1  313   3.048   2.321   4.949
   30TCM    cl1  314   2.947   2.323   5.097
   30TCM    cl2  315   3.153   2.467   4.944
   30TCM     h1  316   3.111   2.232   4.948
   30TCM    cl3  317   2.941   2.321   4.805
   31TCM     c1  318   0.055   0.112   1.057
   31TCM    cl1  319   0.189   0.181   0.958
   31TCM    cl2  320   0.003   0.233   1.179
   31TCM     h1  321  -0.029   0.087   0.992
   31TCM    cl3  322   0.113  -0.036   1.140
   32TCM     c1  323   2.933   0.614   1.213
   32TCM    cl1  324   2.957   0.471   1.107
   32TCM    cl2  325   2.770   0.683   1.185
   32TCM     h1  326   2.944   0.585   1.318
   32TCM    cl3  327   3.057   0.738   1.173
   33TCM     c1  328   3.935   3.265   1.914
   33TCM    cl1  329   3.811   3.136   1.925
   33TCM    cl2  330   3.878   3.411   2.001
   33TCM     h1  331   4.028   3.229   1.958
   33TCM    cl3  332   3.963   3.306   1.741
   34TCM     c1  333   1.178   0.946   3.562
   34TCM    cl1  334   1.019   0.903   3.491
   34TCM    cl2  335   1.161   1.091   3.665
   34TCM     h1  336   1.215   0.862   3.622
   34TCM    cl3  337   1.295   0.979   3.429
   35TCM     c1  338   2.702   3.551   3.279
   35TCM    cl1  339   2.853   3.622   3.212
   35TCM    cl2  340   2.617   3.673   3.379
   35TCM     h1  341   2.637   3.520   3.197
   35TCM    cl3  342   2.743   3.409   3.380
   36TCM     c1  343   0.461   0.635   2.343
   36TCM    cl1  344   0.560   0.696   2.481
   36TCM    cl2  345   0.550   0.662   2.190
   36TCM     h1  346   0.442   0.528   2.356
   36TCM    cl3  347   0.306   0.724   2.337
   37TCM     c1  348   4.651   2.078   2.158
   37TCM    cl1  349   4.480   2.083   2.213
   37TCM    cl2  350   4.657   2.027   1.986
   37TCM     h1  351   4.696   2.177   2.168
   37TCM    cl3  352   4.743   1.960   2.258
   38TCM     c1  353   1.500   3.685   2.131
   38TCM    cl1  354   1.590   3.830   2.186
   38TCM    cl2  355   1.424   3.720   1.972
   38TCM     h1  356   1.568   3.600   2.121
   38TCM    cl3  357   1.372   3.647   2.250
   39TCM     c1  358   3.791   1.401   2.054
   39TCM    cl1  359   3.659   1.328   1.957
   39TCM    cl2  360   3.751   1.572   2.089
   39TCM     h1  361   3.802   1.346   2.147
   39TCM    cl3  362   3.944   1.393   1.960
   40TCM     c1  363   0.771   2.127   1.743
   40TCM    cl1  364   0.601   2.111   1.689
   40TCM    cl2  365   0.795   2.289   1.815
   40TCM     h1  366   0.794   2.050   1.818
   40TCM    cl3  367   0.882   2.108   1.603
   41TCM     c1  368   2.343   3.580   1.667
   41TCM    cl1  369   2.402   3.719   1.764
   41TCM    cl2  370   2.173   3.608   1.619
   41TCM     h1  371   2.405   3.570   1.577
   41TCM    cl3  372   2.356   3.429   1.764
   42TCM     c1  373   1.043   4.345   1.241
   42TCM    cl1  374   1.185   4.240   1.270
   42TCM    cl2  375   1.086   4.472   1.121
   42TCM     h1  376   0.961   4.285   1.201
   42TCM    cl3  377   0.993   4.423   1.395
   43TCM     c1  378   0.286   1.056   4.696
   43TCM    cl1  379   0.202   0.925   4.607
   43TCM    cl2  380   0.398   0.986   4.817
   43TCM     h1  381   0.342   1.118   4.625
   43TCM    cl3  382   0.163   1.157   4.780
   44TCM     c1  383   1.324   3.978   4.688
   44TCM    cl1  384   1.216   4.106   4.753
   44TCM    cl2  385   1.494   4.021   4.724
   44TCM     h1  386   1.300   3.882   4.735
   44TCM    cl3  387   1.300   3.966   4.511
   45TCM     c1  388   0.410   0.578   4.696
   45TCM    cl1  389   0.567   0.509   4.749
   45TCM    cl2  390   0.283   0.451   4.704
   45TCM     h1  391   0.383   0.661   4.762
   45TCM    cl3  392   0.425   0.637   4.527
   46TCM     c1  393   1.101   4.275   1.851
   46TCM    cl1  394   1.218   4.160   1.780
   46TCM    cl2  395   1.083   4.418   1.743
   46TCM     h1  396   1.004   4.226   1.864
   46TCM    cl3  397   1.162   4.330   2.011
   47TCM     c1  398   3.380   4.137   4.830
   47TCM    cl1  399   3.500   4.135   4.964
   47TCM    cl2  400   3.412   4.278   4.725
   47TCM     h1  401   3.389   4.045   4.772
   47TCM    cl3  402   3.214   4.148   4.898
   48TCM     c1  403   1.236   1.711   1.631
   48TCM    cl1  404   1.389   1.784   1.689
   48TCM    cl2  405   1.098   1.816   1.676
   48TCM     h1  406   1.240   1.700   1.523
   48TCM    cl3  407   1.218   1.550   1.709
   49TCM     c1  408   3.500   0.524   2.379
   49TCM    cl1  409   3.667   0.559   2.324
   49TCM    cl2  410   3.434   0.387   2.284
   49TCM     h1  411   3.500   0.499   2.485
   49TCM    cl3  412   3.396   0.668   2.351
   50TCM     c1  413   0.215   0.645   1.813
   50TCM    cl1  414   0.304   0.561   1.682
   50TCM    cl2  415   0.276   0.589   1.972
   50TCM     h1  416   0.231   0.753   1.804
   50TCM    cl3  417   0.040   0.609   1.801
   51TCM     c1  418   3.568   2.649   0.918
   51TCM    cl1  419   3.430   2.705   1.019
   51TCM    cl2  420   3.720   2.720   0.980
   51TCM     h1  421   3.574   2.540   0.922
   51TCM    cl3  422   3.542   2.702   0.749
   52TCM     c1  423   0.032   1.791   3.097
   52TCM    cl1  424  -0.056   1.776   2.941
   52TCM    cl2  425   0.208   1.782   3.067
   52TCM     h1  426   0.007   1.887   3.144
   52TCM    cl3  427  -0.015   1.657   3.206
   53TCM     c1  428   2.219   3.440   2.233
   53TCM    cl1  429   2.193   3.280   2.156
   53TCM    cl2  430   2.329   3.537   2.129
   53TCM     h1  431   2.123   3.492   2.244
   53TCM    cl3  432   2.294   3.416   2.394
   54TCM     c1  433   0.422   0.071   4.593
   54TCM    cl1  434   0.246   0.094   4.569
   54TCM    cl2  435   0.456   0.057   4.768
   54TCM     h1  436   0.455  -0.020   4.541
   54TCM    cl3  437   0.511   0.213   4.528
   55TCM     c1  438   4.530   0.311   4.412
   55TCM    cl1  439   4.553   0.182   4.535
   55TCM    cl2  440   4.559   0.243   4.248
   55TCM     h1  441   4.428   0.350   4.419
   55TCM    cl3  442   4.647   0.444   4.443
   56TCM     c1  443   3.633   4.622   1.470
   56TCM    cl1  444   3.570   4.568   1.629
   56TCM    cl2  445   3.629   4.485   1.354
   56TCM     h1  446   3.571   4.703   1.432
   56TCM    cl3  447   3.802   4.680   1.488
   57TCM     c1  448   4.545   4.364   4.897
   57TCM    cl1  449   4.566   4.530   4.832
   57TCM    cl2  450   4.603   4.360   5.067
   57TCM     h1  451   4.439   4.337   4.894
   57TCM    cl3  452   4.639   4.249   4.798
   58TCM     c1  453   3.807   4.182   1.538
   58TCM    cl1  454   3.898   4.334   1.571
   58TCM    cl2  455   3.800   4.155   1.360
   58TCM     h1  456   3.858   4.098   1.586
   58TCM    cl3  457   3.640   4.197   1.602
   59TCM     c1  458   3.580   3.920   3.349
   59TCM    cl1  459   3.550   3.888   3.523
   59TCM    cl2  460   3.587   3.764   3.260
   59TCM     h1  461   3.500   3.982   3.308
   59TCM    cl3  462   3.737   4.004   3.331
   60TCM     c1  463   0.080   0.709   3.103
   60TCM    cl1  464   0.015   0.610   2.968
   60TCM    cl2  465   0.246   0.764   3.062
   60TCM     h1  466   0.016   0.796   3.119
   60TCM    cl3  467   0.086   0.609   3.253
   61TCM     c1  468   2.993   2.400   2.850
   61TCM    cl1  469   2.891   2.256   2.881
   61TCM    cl2  470   3.110   2.421   2.985
   61TCM     h1  471   3.047   2.387   2.756
   61TCM    cl3  472   2.888   2.546   2.839
   62TCM     c1  473   3.623   2.247   2.456
   62TCM    cl1  474   3.616   2.332   2.614
   62TCM    cl2  475   3.556   2.082   2.473
   62TCM     h1  476   3.564   2.303   2.382
   62TCM    cl3  477   3.793   2.237   2.401
   63TCM     c1  478   4.997   0.480   2.181
   63TCM    cl1  479   5.115   0.395   2.286
   63TCM    cl2  480   4.954   0.638   2.254
   63TCM     h1  481   5.040   0.496   2.082
   63TCM    cl3  482   4.848   0.381   2.164
   64TCM     c1  483   0.417   0.161   2.964
   64TCM    cl1  484   0.466   0.169   2.792
   64TCM    cl2  485   0.280   0.274   2.992
   64TCM     h1  486   0.387   0.059   2.990
   64TCM    cl3  487   0.557   0.209   3.066
   65TCM     c1  488   0.052   3.627   1.147
   65TCM    cl1  489  -0.016   3.680   1.305
   65TCM    cl2  490   0.209   3.710   1.119
   65TCM     h1  491   0.067   3.519   1.148
   65TCM    cl3  492  -0.062   3.670   1.016
   66TCM     c1  493   1.599   3.382   0.772
   66TCM    cl1  494   1.713   3.504   0.706
   66TCM    cl2  495   1.463   3.359   0.657
   66TCM     h1  496   1.651   3.287   0.787
   66TCM    cl3  497   1.534   3.441   0.929
   67TCM     c1  498   2.736   4.285   4.080
   67TCM    cl1  499   2.599   4.202   4.000
   67TCM    cl2  500   2.705   4.292   4.256
   67TCM     h1  501   2.829   4.230   4.061
   67TCM    cl3  502   2.751   4.452   4.015
   68TCM     c1  503   4.618   1.544   0.454
   68TCM    cl1  504   4.573   1.715   0.423
   68TCM    cl2  505   4.704   1.479   0.311
   68TCM     h1  506   4.682   1.538   0.542
   68TCM    cl3  507   4.469   1.447   0.481
   69TCM     c1  508   2.862   4.651   4.450
   69TCM    cl1  509   2.850   4.738   4.607
   69TCM    cl2  510   2.702   4.648   4.370
   69TCM     h1  511   2.934   4.703   4.386
   69TCM    cl3  512   2.918   4.483   4.478
   70TCM     c1  513   3.686   4.013   2.014
   70TCM    cl1  514   3.581   3.868   2.031
   70TCM    cl2  515   3.584   4.159   1.994
   70TCM     h1  516   3.748   4.023   2.104
   70TCM    cl3  517   3.792   3.994   1.870
   71TCM     c1  518   0.919   0.500   3.225
   71TCM    cl1  519   0.892   0.325   3.190
   71TCM    cl2  520   0.914   0.527   3.402
   71TCM     h1  521   1.016   0.531   3.186
   71TCM    cl3  522   0.789   0.596   3.146
   72TCM     c1  523   0.754   1.460   2.566
   72TCM    cl1  524   0.773   1.312   2.466
   72TCM    cl2  525   0.621   1.560   2.497
   72TCM     h1  526   0.730   1.433   2.669
   72TCM    cl3  527   0.906   1.555   2.562
   73TCM     c1  528   1.035   0.670   2.161
   73TCM    cl1  529   0.892   0.673   2.270
   73TCM    cl2  530   1.095   0.837   2.137
   73TCM     h1  531   1.114   0.609   2.206
   73TCM    cl3  532   0.987   0.602   2.002
   74TCM     c1  533   2.821   1.076   3.553
   74TCM    cl1  534   2.810   1.230   3.462
   74TCM    cl2  535   2.796   1.109   3.728
   74TCM     h1  536   2.744   1.007   3.517
   74TCM    cl3  537   2.983   1.003   3.530
   75TCM     c1  538   4.683   4.921   1.040
   75TCM    cl1  539   4.656   5.074   0.950
   75TCM    cl2  540   4.734   4.962   1.207
   75TCM     h1  541   4.591   4.863   1.043
   75TCM    cl3  542   4.812   4.827   0.959
   76TCM     c1  543   0.546   4.244   0.275
   76TCM    cl1  544   0.450   4.354   0.379
   76TCM    cl2  545   0.539   4.302   0.106
   76TCM     h1  546   0.650   4.243   0.309
   76TCM    cl3  547   0.479   4.078   0.284
   77TCM     c1  548   2.544   3.246   2.052
   77TCM    cl1  549   2.644   3.390   2.013
   77TCM    cl2  550   2.566   3.203   2.225
   77TCM     h1  551   2.439   3.268   2.032
   77TCM    cl3  552   2.597   3.109   1.949
   78TCM     c1  553   0.313   2.952   0.812
   78TCM    cl1  554   0.137   2.956   0.780
   78TCM    cl2  555   0.389   2.827   0.707
   78TCM     h1  556   0.357   3.050   0.791
   78TCM    cl3  557   0.341   2.908   0.984
   79TCM     c1  558   3.267   3.443   0.741
   79TCM    cl1  559   3.208   3.545   0.605
   79TCM    cl2  560   3.197   3.502   0.895
   79TCM     h1  561   3.238   3.339   0.724
   79TCM    cl3  562   3.446   3.455   0.749
   80TCM     c1  563   3.046   2.980   4.917
   80TCM    cl1  564   3.094   3.134   4.839
   80TCM    cl2  565   3.080   2.989   5.093
   80TCM     h1  566   2.939   2.963   4.902
   80TCM    cl3  567   3.139   2.844   4.845
   81TCM     c1  568   0.965   1.497   2.009
   81TCM    cl1  569   0.900   1.496   2.177
   81TCM    cl2  570   0.894   1.636   1.922
   81TCM     h1  571   1.074   1.507   2.012
   81TCM    cl3  572   0.920   1.344   1.926
   82TCM     c1  573   1.653   2.624   4.773
   82TCM    cl1  574   1.589   2.459   4.797
   82TCM    cl2  575   1.818   2.634   4.843
   82TCM     h1  576   1.658   2.647   4.666
   82TCM    cl3  577   1.546   2.742   4.855
   83TCM     c1  578   2.029   4.100   3.961
   83TCM    cl1  579   2.201   4.072   4.001
   83TCM    cl2  580   1.935   4.122   4.112
   83TCM     h1  581   2.019   4.189   3.899
   83TCM    cl3  582   1.964   3.958   3.872
   84TCM     c1  583   0.704   0.182   4.998
   84TCM    cl1  584   0.807   0.173   4.850
   84TCM    cl2  585   0.768   0.311   5.105
   84TCM     h1  586   0.601   0.206   4.970
   84TCM    cl3  587   0.710   0.025   5.084
   85TCM     c1  588   0.843   0.482   2.792
   85TCM    cl1  589   0.839   0.517   2.616
   85TCM    cl2  590   1.001   0.533   2.858
   85TCM     h1  591   0.762   0.536   2.842
   85TCM    cl3  592   0.823   0.305   2.817
   86TCM     c1  593   4.475   2.996   3.211
   86TCM    cl1  594   4.624   3.092   3.181
   86TCM    cl2  595   4.510   2.866   3.330
   86TCM     h1  596   4.397   3.061   3.250
   86TCM    cl3  597   4.420   2.923   3.056
   87TCM     c1  598   3.147   4.752   0.105
   87TCM    cl1  599   3.316   4.742   0.163
   87TCM    cl2  600   3.051   4.851   0.219
   87TCM     h1  601   3.145   4.798   0.005
   87TCM    cl3  602   3.076   4.587   0.095
   88TCM     c1  603   1.776   0.019   3.482
   88TCM    cl1  604   1.651   0.034   3.354
   88TCM    cl2  605   1.803   0.181   3.555
   88TCM     h1  606   1.742  -0.050   3.559
   88TCM    cl3  607   1.928  -0.041   3.408
   89TCM     c1  608   0.873   0.773   3.889
   89TCM    cl1  609   0.900   0.689   4.045
   89TCM    cl2  610   0.697   0.787   3.859
   89TCM     h1  611   0.918   0.873   3.892
   89TCM    cl3  612   0.949   0.678   3.756
   90TCM     c1  613   2.189   0.203   2.124
   90TCM    cl1  614   2.071   0.069   2.112
   90TCM    cl2  615   2.170   0.282   2.284
   90TCM     h1  616   2.291   0.164   2.114
   90TCM    cl3  617   2.156   0.321   1.993
   91TCM     c1  618   1.204   1.209   2.332
   91TCM    cl1  619   1.285   1.054   2.370
   91TCM    cl2  620   1.162   1.295   2.484
   91TCM     h1  621   1.271   1.271   2.272
   91TCM    cl3  622   1.054   1.177   2.239
   92TCM     c1  623   1.703   1.732   0.154
   92TCM    cl1  624   1.623   1.808   0.295
   92TCM    cl2  625   1.579   1.655   0.049
   92TCM     h1  626   1.756   1.808   0.097
   92TCM    cl3  627   1.818   1.607   0.211
   93TCM     c1  628   4.181   3.012   2.266
   93TCM    cl1  629   4.198   2.900   2.127
   93TCM    cl2  630   4.053   3.133   2.229
   93TCM     h1  631   4.154   2.956   2.355
   93TCM    cl3  632   4.337   3.097   2.293
   94TCM     c1  633   2.778   4.678   1.249
   94TCM    cl1  634   2.898   4.600   1.141
   94TCM    cl2  635   2.865   4.779   1.369
   94TCM     h1  636   2.710   4.740   1.191
   94TCM    cl3  637   2.685   4.551   1.335
   95TCM     c1  638   4.397   2.547   3.023
   95TCM    cl1  639   4.494   2.455   2.904
   95TCM    cl2  640   4.448   2.500   3.189
   95TCM     h1  641   4.412   2.654   3.008
   95TCM    cl3  642   4.223   2.507   3.002
   96TCM     c1  643   4.284   0.649   3.601
   96TCM    cl1  644   4.172   0.580   3.723
   96TCM    cl2  645   4.210   0.634   3.438
   96TCM     h1  646   4.301   0.755   3.623
   96TCM    cl3  647   4.440   0.560   3.606
   97TCM     c1  648   4.141   0.975   3.131
   97TCM    cl1  649   4.192   1.131   3.204
   97TCM    cl2  650   4.003   0.909   3.226
   97TCM     h1  651   4.110   0.991   3.028
   97TCM    cl3  652   4.277   0.859   3.137
   98TCM     c1  653   2.121   0.289   3.038
   98TCM    cl1  654   2.021   0.194   3.152
   98TCM    cl2  655   2.285   0.216   3.028
   98TCM     h1  656   2.075   0.289   2.939
   98TCM    cl3  657   2.135   0.458   3.097
   99TCM     c1  658   0.250   4.340   3.381
   99TCM    cl1  659   0.101   4.402   3.302
   99TCM    cl2  660   0.209   4.195   3.478
   99TCM     h1  661   0.324   4.314   3.306
   99TCM    cl3  662   0.317   4.466   3.490
  100TCM     c1  663   0.475   1.867   4.569
  100TCM    cl1  664   0.434   2.036   4.613
  100TCM    cl2  665   0.505   1.857   4.392
  100TCM     h1  666   0.565   1.836   4.624
  100TCM    cl3  667   0.338   1.758   4.610
  101TCM     c1  668   1.070   4.946   0.152
  101TCM    cl1  669   1.076   5.122   0.122
  101TCM    cl2  670   1.110   4.912   0.323
  101TCM     h1  671   0.970   4.907   0.129
  101TCM    cl3  672   1.191   4.865   0.048
  102TCM     c1  673   0.683   2.110   1.191
  102TCM    cl1  674   0.582   2.206   1.303
  102TCM    cl2  675   0.578   2.025   1.074
  102TCM     h1  676   0.752   2.176   1.137
  102TCM    cl3  677   0.778   1.990   1.284
  103TCM     c1  678   4.533   1.619   2.222
  103TCM    cl1  679   4.694   1.599   2.297
  103TCM    cl2  680   4.552   1.680   2.054
  103TCM     h1  681   4.482   1.522   2.220
  103TCM    cl3  682   4.435   1.736   2.316
  104TCM     c1  683   2.848   1.241   2.517
  104TCM    cl1  684   2.897   1.306   2.357
  104TCM    cl2  685   2.869   1.063   2.516
  104TCM     h1  686   2.910   1.286   2.595
  104TCM    cl3  687   2.675   1.279   2.547
  105TCM     c1  688   3.187   0.310   2.670
  105TCM    cl1  689   3.301   0.449   2.679
  105TCM    cl2  690   3.192   0.217   2.823
  105TCM     h1  691   3.085   0.347   2.652
  105TCM    cl3  692   3.235   0.203   2.534
  106TCM     c1  693   2.242   4.524   0.905
  106TCM    cl1  694   2.070   4.573   0.891
  106TCM    cl2  695   2.346   4.657   0.844
  106TCM     h1  696   2.266   4.504   1.010
  106TCM    cl3  697   2.272   4.376   0.808
  107TCM     c1  698   0.443   3.304   4.044
  107TCM    cl1  699   0.563   3.197   4.124
  107TCM    cl2  700   0.288   3.297   4.134
  107TCM     h1  701   0.481   3.406   4.044
  107TCM    cl3  702   0.417   3.249   3.875
  108TCM     c1  703   2.292   0.058   1.574
  108TCM    cl1  704   2.398   0.125   1.703
  108TCM    cl2  705   2.374   0.071   1.415
  108TCM     h1  706   2.270  -0.047   1.595
  108TCM    cl3  707   2.139   0.152   1.569
  109TCM     c1  708   2.660   4.849   3.727
  109TCM    cl1  709   2.507   4.824   3.816
  109TCM    cl2  710   2.625   4.870   3.552
  109TCM     h1  711   2.711   4.937   3.765
  109TCM    cl3  712   2.765   4.705   3.749
  110TCM     c1  713   3.435   3.627   4.787
  110TCM    cl1  714   3.458   3.487   4.896
  110TCM    cl2  715   3.567   3.631   4.666
  110TCM     h1  716   3.339   3.617   4.735
  110TCM    cl3  717   3.436   3.778   4.883
  111TCM     c1  718   1.853   0.087   4.408
  111TCM    cl1  719   1.773  -0.073   4.404
  111TCM    cl2  720   1.748   0.204   4.494
  111TCM     h1  721   1.949   0.079   4.460
  111TCM    cl3  722   1.881   0.145   4.240
  112TCM     c1  723   3.290   3.916   1.803
  112TCM    cl1  724   3.269   4.094   1.813
  112TCM    cl2  725   3.434   3.879   1.702
  112TCM     h1  726   3.303   3.875   1.903
  112TCM    cl3  727   3.144   3.844   1.726
  113TCM     c1  728   0.097   2.726   2.027
  113TCM    cl1  729  -0.066   2.726   2.103
  113TCM    cl2  730   0.149   2.557   1.999
  113TCM     h1  731   0.093   2.780   1.932
  113TCM    cl3  732   0.214   2.806   2.138
  114TCM     c1  733   1.777   0.778   3.421
  114TCM    cl1  734   1.952   0.747   3.398
  114TCM    cl2  735   1.753   0.950   3.464
  114TCM     h1  736   1.723   0.755   3.328
  114TCM    cl3  737   1.713   0.676   3.553
  115TCM     c1  738   1.632   4.622   3.389
  115TCM    cl1  739   1.560   4.701   3.244
  115TCM    cl2  740   1.587   4.716   3.536
  115TCM     h1  741   1.593   4.521   3.398
  115TCM    cl3  742   1.810   4.617   3.373
  116TCM     c1  743   1.346   2.986   3.730
  116TCM    cl1  744   1.477   3.024   3.614
  116TCM    cl2  745   1.209   2.912   3.641
  116TCM     h1  746   1.383   2.916   3.805
  116TCM    cl3  747   1.292   3.137   3.810
  117TCM     c1  748   4.942   2.344   2.227
  117TCM    cl1  749   4.782   2.425   2.224
  117TCM    cl2  750   4.958   2.237   2.085
  117TCM     h1  751   5.022   2.419   2.225
  117TCM    cl3  752   4.956   2.246   2.377
  118TCM     c1  753   2.289   1.527   1.935
  118TCM    cl1  754   2.248   1.702   1.922
  118TCM    cl2  755   2.458   1.502   1.882
  118TCM     h1  756   2.278   1.495   2.039
  118TCM    cl3  757   2.179   1.432   1.831
  119TCM     c1  758   1.302   0.094   3.548
  119TCM    cl1  759   1.340   0.212   3.419
  119TCM    cl2  760   1.163   0.157   3.644
  119TCM     h1  761   1.275  -0.002   3.504
  119TCM    cl3  762   1.444   0.073   3.655
  120TCM     c1  763   4.326   3.514   2.500
  120TCM    cl1  764   4.407   3.546   2.657
  120TCM    cl2  765   4.242   3.663   2.445
  120TCM     h1  766   4.401   3.485   2.425
  120TCM    cl3  767   4.206   3.382   2.519
  121TCM     c1  768   4.256   1.078   3.714
  121TCM    cl1  769   4.227   0.940   3.825
  121TCM    cl2  770   4.293   1.015   3.550
  121TCM     h1  771   4.167   1.141   3.710
  121TCM    cl3  772   4.395   1.173   3.773
  122TCM     c1  773   3.848   1.843   2.445
  122TCM    cl1  774   3.818   1.893   2.276
  122TCM    cl2  775   4.024   1.849   2.480
  122TCM     h1  776   3.795   1.910   2.513
  122TCM    cl3  777   3.789   1.674   2.467
  123TCM     c1  778   4.868   4.099   3.294
  123TCM    cl1  779   5.012   4.078   3.188
  123TCM    cl2  780   4.889   4.001   3.443
  123TCM     h1  781   4.857   4.204   3.320
  123TCM    cl3  782   4.722   4.042   3.207
  124TCM     c1  783   0.578   1.966   0.558
  124TCM    cl1  784   0.422   1.976   0.469
  124TCM    cl2  785   0.688   1.850   0.474
  124TCM     h1  786   0.625   2.065   0.561
  124TCM    cl3  787   0.547   1.908   0.724
  125TCM     c1  788   3.461   1.678   3.353
  125TCM    cl1  789   3.313   1.597   3.293
  125TCM    cl2  790   3.575   1.701   3.216
  125TCM     h1  791   3.435   1.776   3.395
  125TCM    cl3  792   3.539   1.577   3.478
  126TCM     c1  793   1.389   2.322   2.923
  126TCM    cl1  794   1.549   2.241   2.916
  126TCM    cl2  795   1.320   2.306   3.087
  126TCM     h1  796   1.401   2.428   2.898
  126TCM    cl3  797   1.278   2.245   2.804
  127TCM     c1  798   0.460   2.820   0.149
  127TCM    cl1  799   0.418   2.747   0.307
  127TCM    cl2  800   0.491   2.693   0.027
  127TCM     h1  801   0.377   2.883   0.115
  127TCM    cl3  802   0.607   2.921   0.167
  128TCM     c1  803   0.766   4.667   4.889
  128TCM    cl1  804   0.606   4.741   4.853
  128TCM    cl2  805   0.765   4.607   5.058
  128TCM     h1  806   0.784   4.585   4.819
  128TCM    cl3  807   0.893   4.793   4.871
  129TCM     c1  808   4.755   4.711   0.094
  129TCM    cl1  809   4.752   4.817  -0.051
  129TCM    cl2  810   4.749   4.813   0.242
  129TCM     h1  811   4.669   4.644   0.092
  129TCM    cl3  812   4.906   4.614   0.095
  130TCM     c1  813   0.708   1.541   0.669
  130TCM    cl1  814   0.537   1.542   0.615
  130TCM    cl2  815   0.781   1.381   0.634
  130TCM     h1  816   0.764   1.619   0.616
  130TCM    cl3  817   0.714   1.573   0.845
  131TCM     c1  818   2.288   0.277   3.398
  131TCM    cl1  819   2.321   0.448   3.438
  131TCM    cl2  820   2.167   0.210   3.512
  131TCM     h1  821   2.249   0.270   3.296
  131TCM    cl3  822   2.439   0.181   3.410
  132TCM     c1  823   0.554   1.429   3.257
  132TCM    cl1  824   0.672   1.541   3.332
  132TCM    cl2  825   0.462   1.516   3.130
  132TCM     h1  826   0.607   1.344   3.211
  132TCM    cl3  827   0.442   1.368   3.383
  133TCM     c1  828   0.119   4.279   0.053
  133TCM    cl1  829   0.234   4.190  -0.052
  133TCM    cl2  830   0.134   4.218   0.221
  133TCM     h1  831   0.143   4.386   0.051
  133TCM    cl3  832  -0.048   4.253  -0.006
  134TCM     c1  833   4.314   1.219   2.024
  134TCM    cl1  834   4.309   1.399   2.031
  134TCM    cl2  835   4.228   1.162   1.877
  134TCM     h1  836   4.418   1.186   2.020
  134TCM    cl3  837   4.234   1.151   2.169
  135TCM     c1  838   1.167   0.653   1.518
  135TCM    cl1  839   1.274   0.571   1.399
  135TCM    cl2  840   1.267   0.756   1.626
  135TCM     h1  841   1.093   0.714   1.465
  135TCM    cl3  842   1.084   0.529   1.617
  136TCM     c1  843   4.925   0.193   3.080
  136TCM    cl1  844   4.847   0.345   3.134
  136TCM    cl2  845   4.800   0.085   3.010
  136TCM     h1  846   5.001   0.215   3.004
  136TCM    cl3  847   5.001   0.112   3.220
  137TCM     c1  848   2.087   1.545   3.290
  137TCM    cl1  849   2.101   1.395   3.387
  137TCM    cl2  850   2.102   1.504   3.116
  137TCM     h1  851   1.990   1.592   3.308
  137TCM    cl3  852   2.219   1.658   3.334
  138TCM     c1  853   2.630   3.547   3.727
  138TCM    cl1  854   2.465   3.477   3.725
  138TCM    cl2  855   2.739   3.440   3.822
  138TCM     h1  856   2.668   3.555   3.625
  138TCM    cl3  857   2.625   3.710   3.802
  139TCM     c1  858   0.758   1.244   3.608
  139TCM    cl1  859   0.876   1.376   3.635
  139TCM    cl2  860   0.793   1.108   3.720
  139TCM     h1  861   0.657   1.281   3.626
  139TCM    cl3  862   0.771   1.185   3.439
  140TCM     c1  863   0.676   4.412   1.654
  140TCM    cl1  864   0.628   4.432   1.483
  140TCM    cl2  865   0.755   4.252   1.676
  140TCM     h1  866   0.745   4.491   1.683
  140TCM    cl3  867   0.530   4.420   1.758
  141TCM     c1  868   3.580   4.159   2.477
  141TCM    cl1  869   3.616   4.018   2.373
  141TCM    cl2  870   3.410   4.148   2.535
  141TCM     h1  871   3.647   4.160   2.563
  141TCM    cl3  872   3.601   4.310   2.383
  142TCM     c1  873   0.521   2.391   3.348
  142TCM    cl1  874   0.533   2.376   3.169
  142TCM    cl2  875   0.443   2.244   3.416
  142TCM     h1  876   0.620   2.403   3.391
  142TCM    cl3  877   0.420   2.534   3.388
  143TCM     c1  878   1.768   3.668   1.437
  143TCM    cl1  879   1.849   3.530   1.357
  143TCM    cl2  880   1.821   3.678   1.608
  143TCM     h1  881   1.793   3.761   1.385
  143TCM    cl3  882   1.590   3.642   1.433
  144TCM     c1  883   1.504   1.533   2.476
  144TCM    cl1  884   1.517   1.387   2.373
  144TCM    cl2  885   1.589   1.668   2.394
  144TCM     h1  886   1.399   1.559   2.491
  144TCM    cl3  887   1.581   1.502   2.635
  145TCM     c1  888   3.966   0.024   3.643
  145TCM    cl1  889   3.832   0.017   3.762
  145TCM    cl2  890   3.920  -0.067   3.496
  145TCM     h1  891   3.988   0.128   3.617
  145TCM    cl3  892   4.113  -0.051   3.716
  146TCM     c1  893   4.958   4.500   4.573
  146TCM    cl1  894   5.123   4.436   4.540
  146TCM    cl2  895   4.938   4.523   4.749
  146TCM     h1  896   4.945   4.596   4.521
  146TCM    cl3  897   4.837   4.383   4.512
  147TCM     c1  898   1.151   1.595   0.705
  147TCM    cl1  899   1.223   1.462   0.608
  147TCM    cl2  900   1.069   1.524   0.848
  147TCM     h1  901   1.230   1.663   0.738
  147TCM    cl3  902   1.033   1.684   0.604
  148TCM     c1  903   2.581   2.870   0.135
  148TCM    cl1  904   2.711   2.970   0.063
  148TCM    cl2  905   2.470   2.818   0.003
  148TCM     h1  906   2.625   2.783   0.183
  148TCM    cl3  907   2.490   2.968   0.255
  149TCM     c1  908   3.656   1.338   3.214
  149TCM    cl1  909   3.557   1.348   3.064
  149TCM    cl2  910   3.811   1.256   3.178
  149TCM     h1  911   3.676   1.438   3.252
  149TCM    cl3  912   3.567   1.243   3.338
  150TCM     c1  913   3.296   0.194   1.726
  150TCM    cl1  914   3.159   0.149   1.619
  150TCM    cl2  915   3.425   0.269   1.627
  150TCM     h1  916   3.262   0.265   1.802
  150TCM    cl3  917   3.360   0.046   1.805
  151TCM     c1  918   3.662   2.443   1.335
  151TCM    cl1  919   3.659   2.622   1.337
  151TCM    cl2  920   3.606   2.384   1.175
  151TCM     h1  921   3.764   2.408   1.353
  151TCM    cl3  922   3.554   2.380   1.463
  152TCM     c1  923   2.887   4.167   2.583
  152TCM    cl1  924   2.836   4.290   2.704
  152TCM    cl2  925   2.898   4.006   2.662
  152TCM     h1  926   2.813   4.163   2.502
  152TCM    cl3  927   3.047   4.212   2.517
  153TCM     c1  928   4.355   0.947   2.747
  153TCM    cl1  929   4.225   0.827   2.775
  153TCM    cl2  930   4.509   0.884   2.813
  153TCM     h1  931   4.365   0.966   2.640
  153TCM    cl3  932   4.311   1.100   2.831
  154TCM     c1  933   0.851   1.897   4.977
  154TCM    cl1  934   0.959   2.035   5.018
  154TCM    cl2  935   0.832   1.791   5.121
  154TCM     h1  936   0.753   1.934   4.945
  154TCM    cl3  937   0.926   1.803   4.844
  155TCM     c1  938   2.067   4.619   4.487
  155TCM    cl1  939   2.110   4.771   4.402
  155TCM    cl2  940   1.976   4.658   4.637
  155TCM     h1  941   2.005   4.557   4.421
  155TCM    cl3  942   2.217   4.532   4.530
  156TCM     c1  943   2.252   0.146   4.720
  156TCM    cl1  944   2.418   0.122   4.655
  156TCM    cl2  945   2.261   0.172   4.897
  156TCM     h1  946   2.206   0.233   4.672
  156TCM    cl3  947   2.154  -0.000   4.685
  157TCM     c1  948   1.987   1.197   2.864
  157TCM    cl1  949   2.145   1.278   2.837
  157TCM    cl2  950   1.939   1.112   2.714
  157TCM     h1  951   1.996   1.125   2.945
  157TCM    cl3  952   1.862   1.318   2.905
  158TCM     c1  953   1.791   2.252   0.031
  158TCM    cl1  954   1.754   2.400   0.127
  158TCM    cl2  955   1.835   2.118   0.141
  158TCM     h1  956   1.703   2.224  -0.028
  158TCM    cl3  957   1.929   2.286  -0.079
  159TCM     c1  958   2.155   1.945   1.654
  159TCM    cl1  959   2.279   2.075   1.648
  159TCM    cl2  960   2.074   1.934   1.494
  159TCM     h1  961   2.203   1.850   1.677
  159TCM    cl3  962   2.035   1.984   1.781
  160TCM     c1  963   2.624   2.821   0.635
  160TCM    cl1  964   2.798   2.865   0.648
  160TCM    cl2  965   2.598   2.720   0.490
  160TCM     h1  966   2.594   2.766   0.725
  160TCM    cl3  967   2.527   2.970   0.622
  161TCM     c1  968   2.793   1.820   2.289
  161TCM    cl1  969   2.920   1.763   2.402
  161TCM    cl2  970   2.844   1.975   2.214
  161TCM     h1  971   2.778   1.745   2.210
  161TCM    cl3  972   2.639   1.845   2.378
  162TCM     c1  973   4.677   4.721   2.786
  162TCM    cl1  974   4.575   4.590   2.855
  162TCM    cl2  975   4.703   4.690   2.611
  162TCM     h1  976   4.627   4.817   2.800
  162TCM    cl3  977   4.835   4.724   2.871
  163TCM     c1  978   3.006   0.224   4.528
  163TCM    cl1  979   3.062   0.054   4.529
  163TCM    cl2  980   2.966   0.274   4.360
  163TCM     h1  981   2.917   0.234   4.591
  163TCM    cl3  982   3.137   0.329   4.591
  164TCM     c1  983   3.771   3.866   3.809
  164TCM    cl1  984   3.882   3.741   3.872
  164TCM    cl2  985   3.862   3.978   3.702
  164TCM     h1  986   3.690   3.819   3.752
  164TCM    cl3  987   3.701   3.959   3.946
  165TCM     c1  988   1.979   1.506   2.505
  165TCM    cl1  989   1.865   1.372   2.470
  165TCM    cl2  990   2.145   1.440   2.508
  165TCM     h1  991   1.970   1.583   2.428
  165TCM    cl3  992   1.941   1.578   2.665
  166TCM     c1  993   2.703   0.111   4.962
  166TCM    cl1  994   2.602   0.259   4.970
  166TCM    cl2  995   2.839   0.126   5.077
  166TCM     h1  996   2.643   0.023   4.988
  166TCM    cl3  997   2.768   0.093   4.795
  167TCM     c1  998   2.572   2.820   2.289
  167TCM    cl1  999   2.728   2.842   2.203
  167TCM    cl2 1000   2.605   2.767   2.458
  167TCM     h1 1001   2.517   2.914   2.290
  167TCM    cl3 1002   2.476   2.694   2.205
  168TCM     c1 1003   1.079   4.894   1.553
  168TCM    cl1 1004   0.923   4.966   1.608
  168TCM    cl2 1005   1.052   4.804   1.400
  168TCM     h1 1006   1.151   4.974   1.537
  168TCM    cl3 1007   1.141   4.781   1.678
  169TCM     c1 1008   4.186   2.267   4.809
  169TCM    cl1 1009   4.332   2.371   4.816
  169TCM    cl2 1010   4.224   2.114   4.723
  169TCM     h1 1011   4.152   2.245   4.911
  169TCM    cl3 1012   4.056   2.354   4.721
  170TCM     c1 1013   1.939   4.787   0.081
  170TCM    cl1 1014   1.915   4.765   0.257
  170TCM    cl2 1015   2.015   4.641   0.012
  170TCM     h1 1016   1.843   4.806   0.033
  170TCM    cl3 1017   2.048   4.927   0.055
  171TCM     c1 1018   3.535   3.623   0.429
  171TCM    cl1 1019   3.518   3.628   0.251
  171TCM    cl2 1020   3.528   3.789   0.495
  171TCM     h1 1021   3.454   3.563   0.472
  171TCM    cl3 1022   3.693   3.549   0.470
  172TCM     c1 1023   4.771   0.434   0.717
  172TCM    cl1 1024   4.652   0.308   0.670
  172TCM    cl2 1025   4.845   0.390   0.875
  172TCM     h1 1026   4.849   0.441   0.641
  172TCM    cl3 1027   4.687   0.592   0.732
  173TCM     c1 1028   4.211   1.823   2.030
  173TCM    cl1 1029   4.148   1.944   2.145
  173TCM    cl2 1030   4.306   1.906   1.902
  173TCM     h1 1031   4.275   1.752   2.082
  173TCM    cl3 1032   4.074   1.735   1.955
  174TCM     c1 1033   3.824   1.549   4.956
  174TCM    cl1 1034   3.918   1.452   4.839
  174TCM    cl2 1035   3.908   1.550   5.114
  174TCM     h1 1036   3.814   1.652   4.919
  174TCM    cl3 1037   3.661   1.476   4.975
  175TCM     c1 1038   4.182   3.347   4.850
  175TCM    cl1 1039   4.191   3.195   4.946
  175TCM    cl2 1040   4.018   3.362   4.777
  175TCM     h1 1041   4.201   3.432   4.915
  175TCM    cl3 1042   4.305   3.343   4.719
  176TCM     c1 1043   1.306   0.506   3.682
  176TCM    cl1 1044   1.256   0.586   3.530
  176TCM    cl2 1045   1.301   0.625   3.816
  176TCM     h1 1046   1.238   0.423   3.704
  176TCM    cl3 1047   1.474   0.443   3.665
  177TCM     c1 1048   3.369   0.189   1.171
  177TCM    cl1 1049   3.398   0.024   1.107
  177TCM    cl2 1050   3.507   0.238   1.275
  177TCM     h1 1051   3.360   0.259   1.087
  177TCM    cl3 1052   3.217   0.190   1.267
  178TCM     c1 1053   1.181   0.323   4.049
  178TCM    cl1 1054   1.058   0.367   3.927
  178TCM    cl2 1055   1.224   0.468   4.146
  178TCM     h1 1056   1.142   0.245   4.115
  178TCM    cl3 1057   1.328   0.262   3.966
  179TCM     c1 1058   1.970   0.914   4.170
  179TCM    cl1 1059   2.025   0.995   4.320
  179TCM    cl2 1060   1.836   0.801   4.208
  179TCM     h1 1061   1.936   0.989   4.098
  179TCM    cl3 1062   2.107   0.821   4.099
  180TCM     c1 1063   3.495   0.637   0.271
  180TCM    cl1 1064   3.483   0.627   0.092
  180TCM    cl2 1065   3.361   0.542   0.344
  180TCM     h1 1066   3.591   0.596   0.303
  180TCM    cl3 1067   3.483   0.808   0.322
  181TCM     c1 1068   1.622   1.991   2.652
  181TCM    cl1 1069   1.518   1.863   2.723
  181TCM    cl2 1070   1.528   2.081   2.529
  181TCM     h1 1071   1.655   2.060   2.731
  181TCM    cl3 1072   1.766   1.916   2.575
  182TCM     c1 1073   4.908   3.989   4.711
  182TCM    cl1 1074   5.040   4.097   4.654
  182TCM    cl2 1075   4.976   3.826   4.747
  182TCM     h1 1076   4.863   4.031   4.802
  182TCM    cl3 1077   4.785   3.974   4.582
  183TCM     c1 1078   0.638   0.962   2.741
  183TCM    cl1 1079   0.481   0.972   2.827
  183TCM    cl2 1080   0.734   0.826   2.809
  183TCM     h1 1081   0.621   0.945   2.634
  183TCM    cl3 1082   0.729   1.115   2.764
  184TCM     c1 1083   4.732   0.825   3.440
  184TCM    cl1 1084   4.777   0.654   3.467
  184TCM    cl2 1085   4.561   0.834   3.387
  184TCM     h1 1086   4.745   0.882   3.533
  184TCM    cl3 1087   4.838   0.895   3.313
  185TCM     c1 1088   0.102   4.694   0.461
  185TCM    cl1 1089   0.130   4.796   0.317
  185TCM    cl2 1090   0.082   4.523   0.411
  185TCM     h1 1091   0.188   4.702   0.529
  185TCM    cl3 1092  -0.046   4.749   0.545
  186TCM     c1 1093   0.727   3.249   0.241
  186TCM    cl1 1094   0.783   3.361   0.369
  186TCM    cl2 1095   0.814   3.285   0.088
  186TCM     h1 1096   0.747   3.145   0.271
  186TCM    cl3 1097   0.551   3.271   0.216
  187TCM     c1 1098   1.144   2.236   4.787
  187TCM    cl1 1099   1.253   2.100   4.745
  187TCM    cl2 1100   0.995   2.225   4.689
  187TCM     h1 1101   1.119   2.231   4.893
  187TCM    cl3 1102   1.226   2.392   4.752
  188TCM     c1 1103   1.631   4.287   4.924
  188TCM    cl1 1104   1.703   4.445   4.970
  188TCM    cl2 1105   1.465   4.277   4.990
  188TCM     h1 1106   1.629   4.278   4.816
  188TCM    cl3 1107   1.729   4.153   4.993
  189TCM     c1 1108   0.778   3.089   0.678
  189TCM    cl1 1109   0.667   3.048   0.813
  189TCM    cl2 1110   0.713   3.022   0.525
  189TCM     h1 1111   0.787   3.198   0.670
  189TCM    cl3 1112   0.940   3.018   0.709
  190TCM     c1 1113   4.188   1.510   2.447
  190TCM    cl1 1114   4.074   1.439   2.565
  190TCM    cl2 1115   4.104   1.537   2.291
  190TCM     h1 1116   4.226   1.605   2.486
  190TCM    cl3 1117   4.325   1.397   2.422
  191TCM     c1 1118   2.086   0.470   4.319
  191TCM    cl1 1119   2.108   0.627   4.403
  191TCM    cl2 1120   2.111   0.337   4.437
  191TCM     h1 1121   1.985   0.465   4.277
  191TCM    cl3 1122   2.207   0.456   4.187
  192TCM     c1 1123   0.515   0.129   2.439
  192TCM    cl1 1124   0.608   0.030   2.322
  192TCM    cl2 1125   0.341   0.130   2.393
  192TCM     h1 1126   0.525   0.085   2.539
  192TCM    cl3 1127   0.578   0.297   2.439
  193TCM     c1 1128   1.803   4.292   4.422
  193TCM    cl1 1129   1.979   4.265   4.449
  193TCM    cl2 1130   1.781   4.419   4.298
  193TCM     h1 1131   1.757   4.199   4.389
  193TCM    cl3 1132   1.727   4.346   4.575
  194TCM     c1 1133   4.122   4.538   1.332
  194TCM    cl1 1134   4.189   4.656   1.215
  194TCM    cl2 1135   4.198   4.564   1.493
  194TCM     h1 1136   4.014   4.551   1.340
  194TCM    cl3 1137   4.158   4.372   1.275
  195TCM     c1 1138   0.995   2.408   0.372
  195TCM    cl1 1139   0.907   2.328   0.506
  195TCM    cl2 1140   1.096   2.287   0.286
  195TCM     h1 1141   0.923   2.452   0.302
  195TCM    cl3 1142   1.099   2.537   0.439
  196TCM     c1 1143   1.213   0.837   4.149
  196TCM    cl1 1144   1.388   0.819   4.188
  196TCM    cl2 1145   1.196   0.927   3.995
  196TCM     h1 1146   1.167   0.739   4.141
  196TCM    cl3 1147   1.133   0.930   4.280
  197TCM     c1 1148   1.838   1.489   0.683
  197TCM    cl1 1149   1.890   1.518   0.852
  197TCM    cl2 1150   1.928   1.350   0.615
  197TCM     h1 1151   1.731   1.467   0.682
  197TCM    cl3 1152   1.870   1.636   0.584
  198TCM     c1 1153   1.369   4.535   1.505
  198TCM    cl1 1154   1.376   4.567   1.328
  198TCM    cl2 1155   1.489   4.640   1.587
  198TCM     h1 1156   1.269   4.557   1.543
  198TCM    cl3 1157   1.410   4.364   1.537
  199TCM     c1 1158   4.995   2.663   2.544
  199TCM    cl1 1159   4.842   2.569   2.552
  199TCM    cl2 1160   4.957   2.831   2.493
  199TCM     h1 1161   5.043   2.664   2.642
  199TCM    cl3 1162   5.105   2.588   2.424
  200TCM     c1 1163   0.614   2.258   0.147
  200TCM    cl1 1164   0.702   2.146   0.256
  200TCM    cl2 1165   0.655   2.222  -0.024
  200TCM     h1 1166   0.506   2.246   0.162
  200TCM    cl3 1167   0.662   2.426   0.185
  201TCM     c1 1168   3.629   4.652   3.189
  201TCM    cl1 1169   3.496   4.570   3.276
  201TCM    cl2 1170   3.636   4.824   3.240
  201TCM     h1 1171   3.724   4.604   3.212
  201TCM    cl3 1172   3.598   4.644   3.012
  202TCM     c1 1173   1.968   1.017   2.380
  202TCM    cl1 1174   2.135   1.084   2.386
  202TCM    cl2 1175   1.964   0.857   2.462
  202TCM     h1 1176   1.900   1.086   2.431
  202TCM    cl3 1177   1.916   0.998   2.209
  203TCM     c1 1178   0.608   4.568   4.364
  203TCM    cl1 1179   0.696   4.570   4.520
  203TCM    cl2 1180   0.577   4.736   4.310
  203TCM     h1 1181   0.667   4.515   4.288
  203TCM    cl3 1182   0.450   4.484   4.384
  204TCM     c1 1183   2.118   4.738   3.701
  204TCM    cl1 1184   2.166   4.911   3.715
  204TCM    cl2 1185   1.939   4.727   3.696
  204TCM     h1 1186   2.160   4.696   3.610
  204TCM    cl3 1187   2.179   4.648   3.844
  205TCM     c1 1188   0.969   0.260   1.280
  205TCM    cl1 1189   1.111   0.215   1.380
  205TCM    cl2 1190   0.995   0.205   1.111
  205TCM     h1 1191   0.879   0.212   1.320
  205TCM    cl3 1192   0.947   0.438   1.283
  206TCM     c1 1193   2.590   3.271   0.939
  206TCM    cl1 1194   2.711   3.146   0.894
  206TCM    cl2 1195   2.583   3.283   1.118
  206TCM     h1 1196   2.619   3.367   0.897
  206TCM    cl3 1197   2.429   3.224   0.876
  207TCM     c1 1198   1.128   3.522   0.704
  207TCM    cl1 1199   1.017   3.388   0.657
  207TCM    cl2 1200   1.152   3.519   0.881
  207TCM     h1 1201   1.224   3.509   0.653
  207TCM    cl3 1202   1.054   3.678   0.656
  208TCM     c1 1203   3.646   2.273   2.029
  208TCM    cl1 1204   3.584   2.301   1.863
  208TCM    cl2 1205   3.554   2.139   2.105
  208TCM     h1 1206   3.752   2.247   2.025
  208TCM    cl3 1207   3.624   2.422   2.127
  209TCM     c1 1208   2.684   2.468   0.900
  209TCM    cl1 1209   2.731   2.635   0.943
  209TCM    cl2 1210   2.811   2.354   0.955
  209TCM     h1 1211   2.589   2.442   0.947
  209TCM    cl3 1212   2.668   2.456   0.722
  210TCM     c1 1213   2.651   3.523   4.216
  210TCM    cl1 1214   2.514   3.516   4.100
  210TCM    cl2 1215   2.590   3.579   4.375
  210TCM     h1 1216   2.695   3.423   4.226
  210TCM    cl3 1217   2.776   3.638   4.156
  211TCM     c1 1218   1.226   2.726   4.173
  211TCM    cl1 1219   1.315   2.848   4.077
  211TCM    cl2 1220   1.290   2.562   4.135
  211TCM     h1 1221   1.239   2.746   4.280
  211TCM    cl3 1222   1.051   2.733   4.132
  212TCM     c1 1223   1.418   2.706   3.290
  212TCM    cl1 1224   1.490   2.680   3.452
  212TCM    cl2 1225   1.254   2.633   3.285
  212TCM     h1 1226   1.411   2.814   3.271
  212TCM    cl3 1227   1.521   2.630   3.165
  213TCM     c1 1228   3.729   4.660   3.734
  213TCM    cl1 1229   3.629   4.546   3.830
  213TCM    cl2 1230   3.705   4.628   3.560
  213TCM     h1 1231   3.699   4.763   3.757
  213TCM    cl3 1232   3.902   4.636   3.775
  214TCM     c1 1233   0.354   3.272   0.527
  214TCM    cl1 1234   0.368   3.099   0.482
  214TCM    cl2 1235   0.507   3.325   0.605
  214TCM     h1 1236   0.335   3.332   0.437
  214TCM    cl3 1237   0.219   3.293   0.643
  215TCM     c1 1238   1.406   2.139   0.139
  215TCM    cl1 1239   1.495   2.160   0.293
  215TCM    cl2 1240   1.496   2.027   0.032
  215TCM     h1 1241   1.306   2.098   0.159
  215TCM    cl3 1242   1.391   2.297   0.056
  216TCM     c1 1243   0.388   1.856   2.680
  216TCM    cl1 1244   0.313   1.748   2.558
  216TCM    cl2 1245   0.470   1.757   2.805
  216TCM     h1 1246   0.460   1.921   2.632
  216TCM    cl3 1247   0.260   1.956   2.756
  217TCM     c1 1248   3.686   0.439   4.848
  217TCM    cl1 1249   3.612   0.401   4.689
  217TCM    cl2 1250   3.771   0.596   4.838
  217TCM     h1 1251   3.607   0.444   4.924
  217TCM    cl3 1252   3.802   0.310   4.892
  218TCM     c1 1253   1.836   2.490   1.857
  218TCM    cl1 1254   1.680   2.501   1.769
  218TCM    cl2 1255   1.834   2.345   1.963
  218TCM     h1 1256   1.918   2.481   1.785
  218TCM    cl3 1257   1.860   2.638   1.956
  219TCM     c1 1258   4.242   0.252   4.010
  219TCM    cl1 1259   4.220   0.346   4.161
  219TCM    cl2 1260   4.383   0.315   3.919
  219TCM     h1 1261   4.258   0.146   4.034
  219TCM    cl3 1262   4.094   0.268   3.909
  220TCM     c1 1263   0.269   4.138   1.451
  220TCM    cl1 1264   0.409   4.105   1.559
  220TCM    cl2 1265   0.230   3.990   1.358
  220TCM     h1 1266   0.183   4.167   1.511
  220TCM    cl3 1267   0.313   4.270   1.338
  221TCM     c1 1268   0.399   1.676   0.965
  221TCM    cl1 1269   0.482   1.671   1.124
  221TCM    cl2 1270   0.266   1.796   0.970
  221TCM     h1 1271   0.470   1.704   0.888
  221TCM    cl3 1272   0.331   1.513   0.929
  222TCM     c1 1273   3.519   2.418   2.958
  222TCM    cl1 1274   3.448   2.339   3.103
  222TCM    cl2 1275   3.697   2.396   2.960
  222TCM     h1 1276   3.478   2.373   2.868
  222TCM    cl3 1277   3.481   2.594   2.961
  223TCM     c1 1278   0.240   4.823   2.822
  223TCM    cl1 1279   0.267   4.905   2.665
  223TCM    cl2 1280   0.143   4.930   2.928
  223TCM     h1 1281   0.186   4.729   2.805
  223TCM    cl3 1282   0.398   4.789   2.898
  224TCM     c1 1283   0.191   4.663   1.998
  224TCM    cl1 1284   0.239   4.490   1.990
  224TCM    cl2 1285   0.013   4.676   1.989
  224TCM     h1 1286   0.227   4.706   2.092
  224TCM    cl3 1287   0.265   4.751   1.861
  225TCM     c1 1288   0.389   2.194   2.093
  225TCM    cl1 1289   0.303   2.298   2.211
  225TCM    cl2 1290   0.562   2.241   2.090
  225TCM     h1 1291   0.380   2.089   2.123
  225TCM    cl3 1292   0.318   2.216   1.930
  226TCM     c1 1293   0.422   3.961   3.023
  226TCM    cl1 1294   0.283   3.970   2.910
  226TCM    cl2 1295   0.485   3.793   3.026
  226TCM     h1 1296   0.501   4.029   2.989
  226TCM    cl3 1297   0.369   4.006   3.188
  227TCM     c1 1298   2.365   0.806   3.830
  227TCM    cl1 1299   2.385   0.674   3.950
  227TCM    cl2 1300   2.323   0.736   3.671
  227TCM     h1 1301   2.286   0.874   3.863
  227TCM    cl3 1302   2.520   0.895   3.817
  228TCM     c1 1303   1.781   2.000   2.165
  228TCM    cl1 1304   1.864   1.846   2.208
  228TCM    cl2 1305   1.838   2.129   2.275
  228TCM     h1 1306   1.805   2.026   2.062
  228TCM    cl3 1307   1.604   1.980   2.183
  229TCM     c1 1308   1.181   3.332   2.106
  229TCM    cl1 1309   1.320   3.366   1.998
  229TCM    cl2 1310   1.073   3.475   2.109
  229TCM     h1 1311   1.126   3.245   2.068
  229TCM    cl3 1312   1.240   3.298   2.272
  230TCM     c1 1313   4.512   3.569   3.008
  230TCM    cl1 1314   4.580   3.468   3.140
  230TCM    cl2 1315   4.568   3.738   3.026
  230TCM     h1 1316   4.544   3.529   2.911
  230TCM    cl3 1317   4.333   3.565   3.018
  231TCM     c1 1318   4.392   0.801   4.450
  231TCM    cl1 1319   4.381   0.661   4.338
  231TCM    cl2 1320   4.545   0.791   4.543
  231TCM     h1 1321   4.391   0.894   4.392
  231TCM    cl3 1322   4.253   0.798   4.562
  232TCM     c1 1323   0.430   3.269   4.473
  232TCM    cl1 1324   0.312   3.220   4.599
  232TCM    cl2 1325   0.589   3.195   4.506
  232TCM     h1 1326   0.394   3.236   4.375
  232TCM    cl3 1327   0.445   3.448   4.473
  233TCM     c1 1328   1.174   1.758   0.213
  233TCM    cl1 1329   1.233   1.791   0.047
  233TCM    cl2 1330   1.163   1.912   0.304
  233TCM     h1 1331   1.075   1.711   0.208
  233TCM    cl3 1332   1.287   1.647   0.296
  234TCM     c1 1333   1.786   2.181   1.538
  234TCM    cl1 1334   1.931   2.278   1.581
  234TCM    cl2 1335   1.675   2.282   1.440
  234TCM     h1 1336   1.815   2.092   1.482
  234TCM    cl3 1337   1.701   2.132   1.689
  235TCM     c1 1338   2.495   4.444   3.732
  235TCM    cl1 1339   2.360   4.335   3.777
  235TCM    cl2 1340   2.439   4.555   3.602
  235TCM     h1 1341   2.527   4.502   3.819
  235TCM    cl3 1342   2.634   4.347   3.670
  236TCM     c1 1343   3.215   0.622   1.566
  236TCM    cl1 1344   3.110   0.764   1.536
  236TCM    cl2 1345   3.230   0.525   1.415
  236TCM     h1 1346   3.314   0.655   1.598
  236TCM    cl3 1347   3.143   0.520   1.694
  237TCM     c1 1348   2.361   4.728   4.813
  237TCM    cl1 1349   2.356   4.558   4.873
  237TCM    cl2 1350   2.484   4.742   4.682
  237TCM     h1 1351   2.263   4.756   4.774
  237TCM    cl3 1352   2.407   4.838   4.947
  238TCM     c1 1353   2.598   1.688   3.277
  238TCM    cl1 1354   2.622   1.511   3.280
  238TCM    cl2 1355   2.611   1.747   3.108
  238TCM     h1 1356   2.499   1.714   3.317
  238TCM    cl3 1357   2.725   1.767   3.375
  239TCM     c1 1358   1.073   1.477   4.858
  239TCM    cl1 1359   1.189   1.344   4.824
  239TCM    cl2 1360   1.037   1.481   5.033
  239TCM     h1 1361   1.117   1.572   4.827
  239TCM    cl3 1362   0.921   1.448   4.767
  240TCM     c1 1363   3.007   0.956   2.829
  240TCM    cl1 1364   2.855   0.931   2.922
  240TCM    cl2 1365   3.141   0.869   2.912
  240TCM     h1 1366   2.995   0.916   2.728
  240TCM    cl3 1367   3.045   1.131   2.821
  241TCM     c1 1368   3.682   0.621   1.461
  241TCM    cl1 1369   3.767   0.779   1.466
  241TCM    cl2 1370   3.571   0.618   1.320
  241TCM     h1 1371   3.755   0.540   1.451
  241TCM    cl3 1372   3.587   0.599   1.611
  242TCM     c1 1373   0.427   0.298   0.508
  242TCM    cl1 1374   0.538   0.248   0.376
  242TCM    cl2 1375   0.397   0.475   0.498
  242TCM     h1 1376   0.332   0.245   0.498
  242TCM    cl3 1377   0.500   0.259   0.667
  243TCM     c1 1378   0.339   3.697   3.997
  243TCM    cl1 1379   0.414   3.665   4.156
  243TCM    cl2 1380   0.174   3.627   3.995
  243TCM     h1 1381   0.334   3.805   3.979
  243TCM    cl3 1382   0.438   3.619   3.869
  244TCM     c1 1383   0.116   4.116   4.291
  244TCM    cl1 1384   0.043   4.264   4.222
  244TCM    cl2 1385   0.279   4.156   4.357
  244TCM     h1 1386   0.053   4.078   4.372
  244TCM    cl3 1387   0.134   3.992   4.164
  245TCM     c1 1388   3.400   1.869   0.544
  245TCM    cl1 1389   3.431   1.941   0.705
  245TCM    cl2 1390   3.557   1.834   0.463
  245TCM     h1 1391   3.344   1.776   0.556
  245TCM    cl3 1392   3.306   1.984   0.444
  246TCM     c1 1393   3.475   4.325   3.550
  246TCM    cl1 1394   3.419   4.236   3.404
  246TCM    cl2 1395   3.633   4.256   3.602
  246TCM     h1 1396   3.487   4.431   3.526
  246TCM    cl3 1397   3.355   4.306   3.682
  247TCM     c1 1398   1.915   4.872   3.033
  247TCM    cl1 1399   1.898   4.693   3.023
  247TCM    cl2 1400   1.752   4.947   3.018
  247TCM     h1 1401   1.959   4.899   3.129
  247TCM    cl3 1402   2.019   4.929   2.899
  248TCM     c1 1403   2.737   0.405   2.693
  248TCM    cl1 1404   2.566   0.368   2.732
  248TCM    cl2 1405   2.773   0.356   2.525
  248TCM     h1 1406   2.756   0.513   2.705
  248TCM    cl3 1407   2.844   0.312   2.802
  249TCM     c1 1408   3.313   2.082   4.159
  249TCM    cl1 1409   3.476   2.140   4.207
  249TCM    cl2 1410   3.226   2.214   4.073
  249TCM     h1 1411   3.322   1.995   4.094
  249TCM    cl3 1412   3.221   2.037   4.307
  250TCM     c1 1413   2.969   2.594   0.339
  250TCM    cl1 1414   2.952   2.569   0.515
  250TCM    cl2 1415   3.143   2.602   0.296
  250TCM     h1 1416   2.921   2.512   0.285
  250TCM    cl3 1417   2.890   2.749   0.294
  251TCM     c1 1418   1.336   0.122   4.846
  251TCM    cl1 1419   1.422   0.269   4.790
  251TCM    cl2 1420   1.428  -0.023   4.795
  251TCM     h1 1421   1.326   0.124   4.955
  251TCM    cl3 1422   1.172   0.117   4.772
  252TCM     c1 1423   0.733   1.606   1.538
  252TCM    cl1 1424   0.745   1.648   1.364
  252TCM    cl2 1425   0.720   1.757   1.635
  252TCM     h1 1426   0.645   1.544   1.555
  252TCM    cl3 1427   0.880   1.516   1.587
  253TCM     c1 1428   0.014   3.102   0.297
  253TCM    cl1 1429  -0.019   3.059   0.468
  253TCM    cl2 1430   0.144   2.997   0.234
  253TCM     h1 1431  -0.077   3.088   0.238
  253TCM    cl3 1432   0.067   3.273   0.287
  254TCM     c1 1433   0.556   1.682   3.846
  254TCM    cl1 1434   0.573   1.625   3.676
  254TCM    cl2 1435   0.390   1.644   3.904
  254TCM     h1 1436   0.629   1.630   3.908
  254TCM    cl3 1437   0.584   1.858   3.854
  255TCM     c1 1438   0.814   0.602   0.414
  255TCM    cl1 1439   0.958   0.525   0.340
  255TCM    cl2 1440   0.759   0.506   0.554
  255TCM     h1 1441   0.838   0.704   0.447
  255TCM    cl3 1442   0.684   0.609   0.290
  256TCM     c1 1443   3.588   0.037   4.740
  256TCM    cl1 1444   3.432   0.070   4.658
  256TCM    cl2 1445   3.655  -0.118   4.681
  256TCM     h1 1446   3.658   0.118   4.719
  256TCM    cl3 1447   3.560   0.026   4.917
  257TCM     c1 1448   3.086   3.620   3.487
  257TCM    cl1 1449   2.938   3.663   3.579
  257TCM    cl2 1450   3.119   3.445   3.508
  257TCM     h1 1451   3.071   3.642   3.381
  257TCM    cl3 1452   3.224   3.716   3.550
  258TCM     c1 1453   2.974   4.233   3.102
  258TCM    cl1 1454   3.062   4.189   3.252
  258TCM    cl2 1455   3.051   4.151   2.962
  258TCM     h1 1456   2.870   4.202   3.110
  258TCM    cl3 1457   2.980   4.411   3.079
  259TCM     c1 1458   3.351   1.062   2.565
  259TCM    cl1 1459   3.245   1.192   2.502
  259TCM    cl2 1460   3.257   0.910   2.573
  259TCM     h1 1461   3.437   1.049   2.498
  259TCM    cl3 1462   3.409   1.106   2.729
  260TCM     c1 1463   4.408   1.986   0.118
  260TCM    cl1 1464   4.275   2.107   0.115
  260TCM    cl2 1465   4.520   2.026   0.252
  260TCM     h1 1466   4.366   1.886   0.133
  260TCM    cl3 1467   4.498   1.992  -0.038
  261TCM     c1 1468   2.981   2.226   0.636
  261TCM    cl1 1469   3.109   2.154   0.739
  261TCM    cl2 1470   2.831   2.127   0.649
  261TCM     h1 1471   2.960   2.328   0.671
  261TCM    cl3 1472   3.036   2.230   0.466
  262TCM     c1 1473   4.711   4.639   1.426
  262TCM    cl1 1474   4.546   4.678   1.368
  262TCM    cl2 1475   4.822   4.626   1.285
  262TCM     h1 1476   4.746   4.718   1.493
  262TCM    cl3 1477   4.709   4.482   1.512
  263TCM     c1 1478   4.543   0.526   3.076
  263TCM    cl1 1479   4.410   0.569   2.964
  263TCM    cl2 1480   4.478   0.502   3.241
  263TCM     h1 1481   4.592   0.434   3.042
  263TCM    cl3 1482   4.663   0.660   3.078
  264TCM     c1 1483   3.487   2.291   0.217
  264TCM    cl1 1484   3.571   2.134   0.233
  264TCM    cl2 1485   3.310   2.263   0.206
  264TCM     h1 1486   3.509   2.354   0.303
  264TCM    cl3 1487   3.543   2.372   0.067
  265TCM     c1 1488   1.724   0.166   2.697
  265TCM    cl1 1489   1.559   0.157   2.769
  265TCM    cl2 1490   1.834   0.250   2.811
  265TCM     h1 1491   1.761   0.066   2.677
  265TCM    cl3 1492   1.716   0.259   2.544
  266TCM     c1 1493   1.177   4.468   4.854
  266TCM    cl1 1494   1.112   4.518   5.013
  266TCM    cl2 1495   1.321   4.568   4.815
  266TCM     h1 1496   1.205   4.363   4.857
  266TCM    cl3 1497   1.051   4.493   4.728
  267TCM     c1 1498   4.951   0.270   4.674
  267TCM    cl1 1499   4.926   0.235   4.500
  267TCM    cl2 1500   4.858   0.151   4.771
  267TCM     h1 1501   5.058   0.262   4.698
  267TCM    cl3 1502   4.893   0.435   4.709
  268TCM     c1 1503   4.271   4.661   0.113
  268TCM    cl1 1504   4.305   4.762  -0.031
  268TCM    cl2 1505   4.418   4.651   0.215
  268TCM     h1 1506   4.189   4.705   0.171
  268TCM    cl3 1507   4.225   4.496   0.060
  269TCM     c1 1508   0.574   2.405   3.860
  269TCM    cl1 1509   0.647   2.434   3.698
  269TCM    cl2 1510   0.696   2.437   3.988
  269TCM     h1 1511   0.488   2.471   3.873
  269TCM    cl3 1512   0.520   2.234   3.871
  270TCM     c1 1513   4.126   1.527   1.658
  270TCM    cl1 1514   4.293   1.566   1.711
  270TCM    cl2 1515   4.122   1.361   1.591
  270TCM     h1 1516   4.058   1.534   1.744
  270TCM    cl3 1517   4.074   1.644   1.532
  271TCM     c1 1518   1.465   4.729   0.241
  271TCM    cl1 1519   1.564   4.763   0.095
  271TCM    cl2 1520   1.564   4.754   0.388
  271TCM     h1 1521   1.379   4.797   0.243
  271TCM    cl3 1522   1.407   4.559   0.234
  272TCM     c1 1523   3.301   1.110   3.651
  272TCM    cl1 1524   3.373   1.000   3.529
  272TCM    cl2 1525   3.410   1.251   3.678
  272TCM     h1 1526   3.205   1.146   3.615
  272TCM    cl3 1527   3.278   1.020   3.804
  273TCM     c1 1528   4.273   3.344   3.392
  273TCM    cl1 1529   4.247   3.286   3.225
  273TCM    cl2 1530   4.359   3.217   3.485
  273TCM     h1 1531   4.333   3.436   3.391
  273TCM    cl3 1532   4.114   3.375   3.469
  274TCM     c1 1533   1.227   0.775   0.568
  274TCM    cl1 1534   1.260   0.709   0.404
  274TCM    cl2 1535   1.076   0.703   0.632
  274TCM     h1 1536   1.310   0.750   0.634
  274TCM    cl3 1537   1.210   0.954   0.558
  275TCM     c1 1538   0.997   1.926   1.010
  275TCM    cl1 1539   1.014   2.104   1.016
  275TCM    cl2 1540   1.154   1.852   0.962
  275TCM     h1 1541   0.967   1.888   1.108
  275TCM    cl3 1542   0.873   1.884   0.888
  276TCM     c1 1543   3.338   2.676   2.558
  276TCM    cl1 1544   3.301   2.537   2.664
  276TCM    cl2 1545   3.493   2.647   2.472
  276TCM     h1 1546   3.258   2.689   2.484
  276TCM    cl3 1547   3.353   2.825   2.657
  277TCM     c1 1548   3.066   3.457   2.763
  277TCM    cl1 1549   3.087   3.513   2.593
  277TCM    cl2 1550   2.977   3.582   2.857
  277TCM     h1 1551   3.010   3.363   2.764
  277TCM    cl3 1552   3.228   3.432   2.835
  278TCM     c1 1553   1.269   1.205   0.176
  278TCM    cl1 1554   1.386   1.335   0.134
  278TCM    cl2 1555   1.167   1.259   0.313
  278TCM     h1 1556   1.207   1.183   0.089
  278TCM    cl3 1557   1.360   1.058   0.225
  279TCM     c1 1558   2.967   0.130   0.930
  279TCM    cl1 1559   2.983   0.001   1.055
  279TCM    cl2 1560   2.923   0.056   0.773
  279TCM     h1 1561   2.890   0.201   0.961
  279TCM    cl3 1562   3.124   0.215   0.911
  280TCM     c1 1563   2.012   3.512   0.906
  280TCM    cl1 1564   2.113   3.617   1.011
  280TCM    cl2 1565   1.903   3.413   1.009
  280TCM     h1 1566   1.953   3.574   0.839
  280TCM    cl3 1567   2.117   3.403   0.811
  281TCM     c1 1568   2.740   3.717   1.881
  281TCM    cl1 1569   2.666   3.813   2.013
  281TCM    cl2 1570   2.900   3.655   1.934
  281TCM     h1 1571   2.675   3.633   1.856
  281TCM    cl3 1572   2.762   3.821   1.736
  282TCM     c1 1573   4.746   0.414   3.981
  282TCM    cl1 1574   4.779   0.508   3.831
  282TCM    cl2 1575   4.765   0.522   4.122
  282TCM     h1 1576   4.643   0.376   3.978
  282TCM    cl3 1577   4.861   0.278   3.993
  283TCM     c1 1578   4.584   2.985   4.637
  283TCM    cl1 1579   4.554   2.842   4.534
  283TCM    cl2 1580   4.734   2.959   4.732
  283TCM     h1 1581   4.596   3.074   4.575
  283TCM    cl3 1582   4.446   3.007   4.749
  284TCM     c1 1583   0.834   4.659   1.996
  284TCM    cl1 1584   0.774   4.718   1.838
  284TCM    cl2 1585   1.009   4.698   2.012
  284TCM     h1 1586   0.779   4.707   2.077
  284TCM    cl3 1587   0.812   4.481   2.004
  285TCM     c1 1588   0.181   0.102   0.109
  285TCM    cl1 1589   0.166   0.204  -0.038
  285TCM    cl2 1590   0.166   0.205   0.256
  285TCM     h1 1591   0.103   0.026   0.109
  285TCM    cl3 1592   0.342   0.024   0.111
  286TCM     c1 1593   4.693   0.294   3.513
  286TCM    cl1 1594   4.643   0.217   3.667
  286TCM    cl2 1595   4.635   0.194   3.376
  286TCM     h1 1596   4.650   0.395   3.506
  286TCM    cl3 1597   4.872   0.304   3.506
  287TCM     c1 1598   3.357   4.991   4.309
  287TCM    cl1 1599   3.309   4.860   4.195
  287TCM    cl2 1600   3.291   5.147   4.249
  287TCM     h1 1601   3.316   4.970   4.408
  287TCM    cl3 1602   3.536   5.000   4.316
  288TCM     c1 1603   1.313   2.002   1.353
  288TCM    cl1 1604   1.147   1.935   1.339
  288TCM    cl2 1605   1.328   2.094   1.506
  288TCM     h1 1606   1.386   1.921   1.352
  288TCM    cl3 1607   1.343   2.113   1.215
  289TCM     c1 1608   0.108   0.087   1.492
  289TCM    cl1 1609   0.094   0.252   1.561
  289TCM    cl2 1610  -0.053   0.007   1.495
  289TCM     h1 1611   0.143   0.093   1.389
  289TCM    cl3 1612   0.225  -0.009   1.589
  290TCM     c1 1613   3.299   1.588   2.690
  290TCM    cl1 1614   3.154   1.529   2.602
  290TCM    cl2 1615   3.340   1.754   2.634
  290TCM     h1 1616   3.278   1.590   2.797
  290TCM    cl3 1617   3.438   1.478   2.659
  291TCM     c1 1618   3.549   0.241   0.356
  291TCM    cl1 1619   3.584   0.286   0.185
  291TCM    cl2 1620   3.652   0.340   0.465
  291TCM     h1 1621   3.443   0.260   0.377
  291TCM    cl3 1622   3.585   0.067   0.380
  292TCM     c1 1623   0.412   1.399   1.871
  292TCM    cl1 1624   0.570   1.472   1.829
  292TCM    cl2 1625   0.365   1.282   1.744
  292TCM     h1 1626   0.420   1.348   1.968
  292TCM    cl3 1627   0.288   1.528   1.882
  293TCM     c1 1628   2.715   3.783   1.300
  293TCM    cl1 1629   2.634   3.912   1.206
  293TCM    cl2 1630   2.599   3.711   1.417
  293TCM     h1 1631   2.751   3.705   1.232
  293TCM    cl3 1632   2.854   3.854   1.389
  294TCM     c1 1633   2.417   2.462   4.236
  294TCM    cl1 1634   2.255   2.397   4.196
  294TCM    cl2 1635   2.411   2.540   4.398
  294TCM     h1 1636   2.490   2.380   4.238
  294TCM    cl3 1637   2.466   2.583   4.113
  295TCM     c1 1638   0.549   2.381   0.943
  295TCM    cl1 1639   0.433   2.296   0.835
  295TCM    cl2 1640   0.533   2.558   0.920
  295TCM     h1 1641   0.527   2.356   1.047
  295TCM    cl3 1642   0.716   2.330   0.902
  296TCM     c1 1643   2.470   0.458   1.322
  296TCM    cl1 1644   2.538   0.387   1.473
  296TCM    cl2 1645   2.295   0.421   1.312
  296TCM     h1 1646   2.485   0.567   1.323
  296TCM    cl3 1647   2.554   0.387   1.180
  297TCM     c1 1648   2.394   3.697   0.212
  297TCM    cl1 1649   2.388   3.580   0.076
  297TCM    cl2 1650   2.311   3.625   0.353
  297TCM     h1 1651   2.498   3.719   0.238
  297TCM    cl3 1652   2.310   3.849   0.165
  298TCM     c1 1653   0.196   3.428   4.893
  298TCM    cl1 1654   0.019   3.443   4.919
  298TCM    cl2 1655   0.281   3.441   5.050
  298TCM     h1 1656   0.218   3.332   4.846
  298TCM    cl3 1657   0.250   3.562   4.785
  299TCM     c1 1658   3.887   2.029   1.700
  299TCM    cl1 1659   4.056   1.988   1.656
  299TCM    cl2 1660   3.845   2.189   1.631
  299TCM     h1 1661   3.819   1.953   1.660
  299TCM    cl3 1662   3.872   2.036   1.878
  300TCM     c1 1663   2.201   2.911   2.530
  300TCM    cl1 1664   2.212   2.751   2.448
  300TCM    cl2 1665   2.029   2.961   2.542
  300TCM     h1 1666   2.244   2.904   2.630
  300TCM    cl3 1667   2.291   3.032   2.433
  301TCM     c1 1668   4.608   2.591   0.730
  301TCM    cl1 1669   4.659   2.612   0.900
  301TCM    cl2 1670   4.560   2.750   0.661
  301TCM     h1 1671   4.691   2.549   0.672
  301TCM    cl3 1672   4.469   2.478   0.723
  302TCM     c1 1673   0.107   4.543   1.533
  302TCM    cl1 1674   0.280   4.591   1.524
  302TCM    cl2 1675   0.012   4.674   1.610
  302TCM     h1 1676   0.069   4.525   1.432
  302TCM    cl3 1677   0.091   4.394   1.631
  303TCM     c1 1678   3.043   1.541   3.640
  303TCM    cl1 1679   3.052   1.373   3.703
  303TCM    cl2 1680   2.985   1.538   3.470
  303TCM     h1 1681   2.974   1.599   3.701
  303TCM    cl3 1682   3.206   1.615   3.645
  304TCM     c1 1683   1.113   3.864   2.103
  304TCM    cl1 1684   1.013   3.850   2.251
  304TCM    cl2 1685   1.241   3.987   2.129
  304TCM     h1 1686   1.158   3.768   2.080
  304TCM    cl3 1687   1.009   3.915   1.966
  305TCM     c1 1688   2.955   4.104   2.100
  305TCM    cl1 1689   2.877   4.111   1.939
  305TCM    cl2 1690   3.070   3.966   2.104
  305TCM     h1 1691   3.008   4.198   2.119
  305TCM    cl3 1692   2.830   4.080   2.227
  306TCM     c1 1693   1.569   2.906   2.038
  306TCM    cl1 1694   1.492   2.760   1.967
  306TCM    cl2 1695   1.660   2.859   2.185
  306TCM     h1 1696   1.637   2.950   1.965
  306TCM    cl3 1697   1.442   3.025   2.083
  307TCM     c1 1698   4.774   0.307   0.171
  307TCM    cl1 1699   4.861   0.425   0.067
  307TCM    cl2 1700   4.808   0.346   0.343
  307TCM     h1 1701   4.667   0.313   0.152
  307TCM    cl3 1702   4.833   0.142   0.136
  308TCM     c1 1703   4.067   0.026   2.420
  308TCM    cl1 1704   4.188   0.156   2.392
  308TCM    cl2 1705   4.025   0.020   2.595
  308TCM     h1 1706   3.977   0.046   2.362
  308TCM    cl3 1707   4.137  -0.132   2.371
  309TCM     c1 1708   1.196   0.183   3.037
  309TCM    cl1 1709   1.330   0.068   3.074
  309TCM    cl2 1710   1.173   0.193   2.859
  309TCM     h1 1711   1.104   0.147   3.084
  309TCM    cl3 1712   1.238   0.345   3.100
  310TCM     c1 1713   3.390   4.884   3.687
  310TCM    cl1 1714   3.513   4.951   3.575
  310TCM    cl2 1715   3.459   4.875   3.852
  310TCM     h1 1716   3.302   4.948   3.687
  310TCM    cl3 1717   3.344   4.719   3.632
  311TCM     c1 1718   3.793   2.068   4.957
  311TCM    cl1 1719   3.903   2.188   5.032
  311TCM    cl2 1720   3.817   1.908   5.037
  311TCM     h1 1721   3.689   2.100   4.970
  311TCM    cl3 1722   3.830   2.053   4.783
  312TCM     c1 1723   4.778   4.259   2.865
  312TCM    cl1 1724   4.835   4.361   2.728
  312TCM    cl2 1725   4.810   4.344   3.020
  312TCM     h1 1726   4.671   4.240   2.854
  312TCM    cl3 1727   4.867   4.104   2.862
  313TCM     c1 1728   4.644   2.823   2.304
  313TCM    cl1 1729   4.684   2.981   2.228
  313TCM    cl2 1730   4.525   2.736   2.202
  313TCM     h1 1731   4.735   2.762   2.313
  313TCM    cl3 1732   4.574   2.851   2.466
  314TCM     c1 1733   1.223   2.195   0.724
  314TCM    cl1 1734   1.307   2.275   0.587
  314TCM    cl2 1735   1.346   2.121   0.832
  314TCM     h1 1736   1.165   2.269   0.779
  314TCM    cl3 1737   1.113   2.068   0.659
  315TCM     c1 1738   0.891   1.719   4.093
  315TCM    cl1 1739   0.733   1.668   4.161
  315TCM    cl2 1740   0.904   1.661   3.924
  315TCM     h1 1741   0.899   1.828   4.096
  315TCM    cl3 1742   1.023   1.648   4.191
  316TCM     c1 1743   4.105   3.681   1.249
  316TCM    cl1 1744   4.235   3.692   1.372
  316TCM    cl2 1745   4.180   3.685   1.086
  316TCM     h1 1746   4.051   3.587   1.261
  316TCM    cl3 1747   3.993   3.819   1.266
  317TCM     c1 1748   0.108   0.085   1.930
  317TCM    cl1 1749   0.098   0.264   1.920
  317TCM    cl2 1750  -0.042   0.014   1.862
  317TCM     h1 1751   0.195   0.049   1.875
  317TCM    cl3 1752   0.123   0.037   2.103
  318TCM     c1 1753   1.403   2.257   1.860
  318TCM    cl1 1754   1.242   2.314   1.807
  318TCM    cl2 1755   1.398   2.080   1.888
  318TCM     h1 1756   1.477   2.279   1.783
  318TCM    cl3 1757   1.449   2.339   2.013
  319TCM     c1 1758   0.677   2.192   4.262
  319TCM    cl1 1759   0.730   2.052   4.163
  319TCM    cl2 1760   0.726   2.167   4.433
  319TCM     h1 1761   0.723   2.283   4.224
  319TCM    cl3 1762   0.498   2.209   4.254
  320TCM     c1 1763   1.044   0.479   4.940
  320TCM    cl1 1764   1.187   0.513   5.043
  320TCM    cl2 1765   1.095   0.479   4.768
  320TCM     h1 1766   1.003   0.382   4.966
  320TCM    cl3 1767   0.920   0.606   4.964
  321TCM     c1 1768   3.387   3.046   0.852
  321TCM    cl1 1769   3.242   3.127   0.920
  321TCM    cl2 1770   3.533   3.101   0.940
  321TCM     h1 1771   3.376   2.938   0.862
  321TCM    cl3 1772   3.402   3.090   0.678
  322TCM     c1 1773   3.430   4.882   2.788
  322TCM    cl1 1774   3.443   4.973   2.943
  322TCM    cl2 1775   3.506   4.978   2.657
  322TCM     h1 1776   3.481   4.786   2.798
  322TCM    cl3 1777   3.257   4.856   2.750
  323TCM     c1 1778   4.611   3.264   4.964
  323TCM    cl1 1779   4.747   3.239   5.078
  323TCM    cl2 1780   4.675   3.315   4.804
  323TCM     h1 1781   4.555   3.170   4.952
  323TCM    cl3 1782   4.501   3.390   5.028
  324TCM     c1 1783   4.289   2.593   2.572
  324TCM    cl1 1784   4.224   2.686   2.433
  324TCM    cl2 1785   4.319   2.706   2.708
  324TCM     h1 1786   4.216   2.518   2.602
  324TCM    cl3 1787   4.443   2.514   2.526
  325TCM     c1 1788   2.159   4.365   3.357
  325TCM    cl1 1789   2.149   4.501   3.240
  325TCM    cl2 1790   2.106   4.421   3.519
  325TCM     h1 1791   2.094   4.284   3.323
  325TCM    cl3 1792   2.328   4.305   3.366
  326TCM     c1 1793   3.420   2.298   0.634
  326TCM    cl1 1794   3.339   2.435   0.552
  326TCM    cl2 1795   3.431   2.330   0.810
  326TCM     h1 1796   3.363   2.206   0.617
  326TCM    cl3 1797   3.586   2.278   0.568
  327TCM     c1 1798   2.266   1.939   2.431
  327TCM    cl1 1799   2.339   2.023   2.573
  327TCM    cl2 1800   2.203   2.060   2.315
  327TCM     h1 1801   2.342   1.878   2.383
  327TCM    cl3 1802   2.131   1.835   2.487
  328TCM     c1 1803   2.934   2.527   3.303
  328TCM    cl1 1804   2.926   2.706   3.294
  328TCM    cl2 1805   2.807   2.456   3.198
  328TCM     h1 1806   3.033   2.493   3.270
  328TCM    cl3 1807   2.906   2.474   3.472
  329TCM     c1 1808   4.868   1.743   1.595
  329TCM    cl1 1809   4.929   1.894   1.521
  329TCM    cl2 1810   4.750   1.785   1.724
  329TCM     h1 1811   4.819   1.682   1.519
  329TCM    cl3 1812   5.005   1.652   1.667
  330TCM     c1 1813   1.673   1.280   3.379
  330TCM    cl1 1814   1.613   1.226   3.219
  330TCM    cl2 1815   1.540   1.274   3.500
  330TCM     h1 1816   1.754   1.215   3.412
  330TCM    cl3 1817   1.735   1.448   3.365
  331TCM     c1 1818   3.267   4.411   1.989
  331TCM    cl1 1819   3.265   4.308   2.136
  331TCM    cl2 1820   3.311   4.579   2.033
  331TCM     h1 1821   3.340   4.371   1.918
  331TCM    cl3 1822   3.104   4.411   1.913
  332TCM     c1 1823   1.972   3.578   0.417
  332TCM    cl1 1824   2.010   3.677   0.562
  332TCM    cl2 1825   1.802   3.605   0.368
  332TCM     h1 1826   2.038   3.607   0.335
  332TCM    cl3 1827   1.995   3.404   0.455
  333TCM     c1 1828   4.697   2.211   3.112
  333TCM    cl1 1829   4.696   2.150   2.943
  333TCM    cl2 1830   4.796   2.360   3.121
  333TCM     h1 1831   4.595   2.233   3.144
  333TCM    cl3 1832   4.768   2.086   3.220
  334TCM     c1 1833   2.261   3.841   1.291
  334TCM    cl1 1834   2.273   3.929   1.135
  334TCM    cl2 1835   2.089   3.802   1.324
  334TCM     h1 1836   2.319   3.749   1.285
  334TCM    cl3 1837   2.325   3.944   1.423
  335TCM     c1 1838   0.922   4.964   4.560
  335TCM    cl1 1839   0.958   5.091   4.439
  335TCM    cl2 1840   1.010   4.813   4.518
  335TCM     h1 1841   0.953   4.998   4.659
  335TCM    cl3 1842   0.745   4.931   4.561
  336TCM     c1 1843   3.292   3.032   3.552
  336TCM    cl1 1844   3.462   3.021   3.497
  336TCM    cl2 1845   3.285   3.142   3.694
  336TCM     h1 1846   3.229   3.072   3.472
  336TCM    cl3 1847   3.233   2.869   3.598
  337TCM     c1 1848   3.660   3.868   1.150
  337TCM    cl1 1849   3.604   3.708   1.208
  337TCM    cl2 1850   3.521   3.981   1.139
  337TCM     h1 1851   3.733   3.909   1.221
  337TCM    cl3 1852   3.736   3.850   0.989
  338TCM     c1 1853   2.492   1.279   3.639
  338TCM    cl1 1854   2.466   1.128   3.546
  338TCM    cl2 1855   2.424   1.261   3.803
  338TCM     h1 1856   2.599   1.301   3.646
  338TCM    cl3 1857   2.409   1.413   3.555
  339TCM     c1 1858   1.900   3.848   4.726
  339TCM    cl1 1859   1.857   4.015   4.676
  339TCM    cl2 1860   1.922   3.747   4.580
  339TCM     h1 1861   1.993   3.850   4.785
  339TCM    cl3 1862   1.767   3.781   4.826
  340TCM     c1 1863   4.169   3.882   2.982
  340TCM    cl1 1864   4.277   3.967   3.098
  340TCM    cl2 1865   4.245   3.884   2.820
  340TCM     h1 1866   4.154   3.779   3.015
  340TCM    cl3 1867   4.011   3.966   2.976
  341TCM     c1 1868   3.271   1.976   4.861
  341TCM    cl1 1869   3.177   2.049   4.727
  341TCM    cl2 1870   3.170   1.973   5.010
  341TCM     h1 1871   3.301   1.875   4.835
  341TCM    cl3 1872   3.417   2.076   4.891
  342TCM     c1 1873   0.435   0.684   4.137
  342TCM    cl1 1874   0.548   0.802   4.212
  342TCM    cl2 1875   0.525   0.536   4.090
  342TCM     h1 1876   0.357   0.658   4.209
  342TCM    cl3 1877   0.361   0.757   3.991
  343TCM     c1 1878   3.454   0.665   1.979
  343TCM    cl1 1879   3.437   0.493   1.934
  343TCM    cl2 1880   3.374   0.767   1.855
  343TCM     h1 1881   3.407   0.682   2.076
  343TCM    cl3 1882   3.628   0.709   1.988
  344TCM     c1 1883   2.954   4.914   2.412
  344TCM    cl1 1884   2.931   5.019   2.556
  344TCM    cl2 1885   2.795   4.847   2.364
  344TCM     h1 1886   2.995   4.973   2.330
  344TCM    cl3 1887   3.065   4.780   2.452
  345TCM     c1 1888   2.790   4.497   2.235
  345TCM    cl1 1889   2.963   4.465   2.270
  345TCM    cl2 1890   2.689   4.408   2.354
  345TCM     h1 1891   2.770   4.604   2.243
  345TCM    cl3 1892   2.751   4.441   2.069
  346TCM     c1 1893   0.699   1.090   2.199
  346TCM    cl1 1894   0.577   1.019   2.310
  346TCM    cl2 1895   0.628   1.235   2.119
  346TCM     h1 1896   0.788   1.119   2.256
  346TCM    cl3 1897   0.745   0.970   2.074
  347TCM     c1 1898   2.491   4.404   2.956
  347TCM    cl1 1899   2.342   4.309   2.983
  347TCM    cl2 1900   2.501   4.454   2.784
  347TCM     h1 1901   2.489   4.493   3.019
  347TCM    cl3 1902   2.633   4.304   2.997
  348TCM     c1 1903   4.168   1.717   4.781
  348TCM    cl1 1904   4.329   1.754   4.710
  348TCM    cl2 1905   4.038   1.760   4.665
  348TCM     h1 1906   4.163   1.611   4.804
  348TCM    cl3 1907   4.146   1.812   4.932
  349TCM     c1 1908   0.368   0.566   0.152
  349TCM    cl1 1909   0.192   0.558   0.184
  349TCM    cl2 1910   0.405   0.708   0.049
  349TCM     h1 1911   0.422   0.576   0.247
  349TCM    cl3 1912   0.422   0.417   0.068
  350TCM     c1 1913   3.842   3.552   0.113
  350TCM    cl1 1914   4.019   3.527   0.119
  350TCM    cl2 1915   3.759   3.392   0.103
  350TCM     h1 1916   3.809   3.604   0.203
  350TCM    cl3 1917   3.800   3.649  -0.032
  351TCM     c1 1918   1.989   2.205   2.605
  351TCM    cl1 1919   1.831   2.287   2.618
  351TCM    cl2 1920   2.023   2.120   2.760
  351TCM     h1 1921   1.987   2.133   2.523
  351TCM    cl3 1922   2.118   2.327   2.576
  352TCM     c1 1923   1.953   4.102   1.574
  352TCM    cl1 1924   2.061   4.185   1.457
  352TCM    cl2 1925   2.045   3.974   1.660
  352TCM     h1 1926   1.916   4.175   1.647
  352TCM    cl3 1927   1.816   4.028   1.486
  353TCM     c1 1928   4.070   3.661   1.807
  353TCM    cl1 1929   4.063   3.785   1.679
  353TCM    cl2 1930   4.070   3.741   1.968
  353TCM     h1 1931   3.984   3.594   1.799
  353TCM    cl3 1932   4.221   3.565   1.788
  354TCM     c1 1933   2.598   4.473   0.648
  354TCM    cl1 1934   2.561   4.593   0.521
  354TCM    cl2 1935   2.768   4.494   0.702
  354TCM     h1 1936   2.531   4.487   0.733
  354TCM    cl3 1937   2.576   4.307   0.582
  355TCM     c1 1938   2.869   2.432   4.324
  355TCM    cl1 1939   2.784   2.569   4.404
  355TCM    cl2 1940   2.775   2.381   4.179
  355TCM     h1 1941   2.969   2.464   4.293
  355TCM    cl3 1942   2.881   2.295   4.438
  356TCM     c1 1943   1.741   3.223   2.233
  356TCM    cl1 1944   1.611   3.347   2.238
  356TCM    cl2 1945   1.881   3.281   2.329
  356TCM     h1 1946   1.703   3.129   2.275
  356TCM    cl3 1947   1.791   3.198   2.063
  357TCM     c1 1948   0.573   4.258   4.739
  357TCM    cl1 1949   0.591   4.200   4.570
  357TCM    cl2 1950   0.466   4.402   4.743
  357TCM     h1 1951   0.529   4.179   4.801
  357TCM    cl3 1952   0.735   4.303   4.804
  358TCM     c1 1953   0.044   2.229   1.594
  358TCM    cl1 1954   0.206   2.151   1.588
  358TCM    cl2 1955   0.022   2.331   1.447
  358TCM     h1 1956  -0.034   2.153   1.597
  358TCM    cl3 1957   0.031   2.332   1.740
  359TCM     c1 1958   4.589   0.792   3.956
  359TCM    cl1 1959   4.553   0.928   4.068
  359TCM    cl2 1960   4.599   0.853   3.787
  359TCM     h1 1961   4.685   0.747   3.983
  359TCM    cl3 1962   4.459   0.670   3.967
  360TCM     c1 1963   3.902   0.681   0.256
  360TCM    cl1 1964   3.835   0.690   0.422
  360TCM    cl2 1965   3.819   0.803   0.153
  360TCM     h1 1966   4.009   0.701   0.257
  360TCM    cl3 1967   3.871   0.517   0.190
  361TCM     c1 1968   2.090   1.660   3.694
  361TCM    cl1 1969   2.124   1.499   3.765
  361TCM    cl2 1970   2.083   1.782   3.826
  361TCM     h1 1971   2.169   1.687   3.624
  361TCM    cl3 1972   1.933   1.655   3.609
  362TCM     c1 1973   0.098   1.832   2.005
  362TCM    cl1 1974  -0.054   1.742   2.040
  362TCM    cl2 1975   0.153   1.916   2.154
  362TCM     h1 1976   0.174   1.761   1.972
  362TCM    cl3 1977   0.067   1.952   1.876
  363TCM     c1 1978   1.625   0.383   3.269
  363TCM    cl1 1979   1.795   0.434   3.297
  363TCM    cl2 1980   1.612   0.311   3.105
  363TCM     h1 1981   1.596   0.310   3.345
  363TCM    cl3 1982   1.517   0.525   3.279
  364TCM     c1 1983   1.987   4.166   1.024
  364TCM    cl1 1984   1.864   4.274   0.949
  364TCM    cl2 1985   1.907   4.059   1.144
  364TCM     h1 1986   2.034   4.105   0.947
  364TCM    cl3 1987   2.110   4.266   1.108
  365TCM     c1 1988   3.328   1.657   4.149
  365TCM    cl1 1989   3.286   1.734   3.992
  365TCM    cl2 1990   3.186   1.665   4.258
  365TCM     h1 1991   3.356   1.553   4.132
  365TCM    cl3 1992   3.465   1.745   4.224
  366TCM     c1 1993   2.200   3.680   4.142
  366TCM    cl1 1994   2.222   3.707   3.966
  366TCM    cl2 1995   2.160   3.507   4.171
  366TCM     h1 1996   2.292   3.705   4.195
  366TCM    cl3 1997   2.065   3.782   4.202
  367TCM     c1 1998   3.042   0.560   4.876
  367TCM    cl1 1999   3.104   0.577   5.043
  367TCM    cl2 2000   2.953   0.709   4.828
  367TCM     h1 2001   3.125   0.544   4.807
  367TCM    cl3 2002   2.930   0.420   4.868
  368TCM     c1 2003   2.957   2.645   2.431
  368TCM    cl1 2004   3.062   2.675   2.289
  368TCM    cl2 2005   2.989   2.771   2.556
  368TCM     h1 2006   2.852   2.649   2.401
  368TCM    cl3 2007   2.995   2.484   2.499
  369TCM     c1 2008   4.840   4.167   0.819
  369TCM    cl1 2009   4.685   4.118   0.743
  369TCM    cl2 2010   4.809   4.289   0.946
  369TCM     h1 2011   4.888   4.079   0.864
  369TCM    cl3 2012   4.948   4.237   0.694
  370TCM     c1 2013   1.945   2.502   4.478
  370TCM    cl1 2014   1.868   2.363   4.563
  370TCM    cl2 2015   2.072   2.573   4.583
  370TCM     h1 2016   1.990   2.467   4.384
  370TCM    cl3 2017   1.819   2.625   4.443
  371TCM     c1 2018   2.513   3.976   4.282
  371TCM    cl1 2019   2.502   3.886   4.127
  371TCM    cl2 2020   2.672   3.947   4.358
  371TCM     h1 2021   2.501   4.083   4.263
  371TCM    cl3 2022   2.382   3.919   4.391
  372TCM     c1 2023   4.468   0.025   2.587
  372TCM    cl1 2024   4.556  -0.005   2.433
  372TCM    cl2 2025   4.584   0.076   2.713
  372TCM     h1 2026   4.394   0.104   2.571
  372TCM    cl3 2027   4.386  -0.126   2.639
  373TCM     c1 2028   1.944   3.610   1.948
  373TCM    cl1 2029   2.073   3.733   1.955
  373TCM    cl2 2030   1.869   3.594   2.110
  373TCM     h1 2031   1.868   3.640   1.875
  373TCM    cl3 2032   2.013   3.451   1.901
  374TCM     c1 2033   3.279   0.542   0.836
  374TCM    cl1 2034   3.149   0.664   0.817
  374TCM    cl2 2035   3.322   0.527   1.010
  374TCM     h1 2036   3.245   0.446   0.799
  374TCM    cl3 2037   3.424   0.594   0.742
  375TCM     c1 2038   0.105   3.728   3.131
  375TCM    cl1 2039   0.184   3.575   3.081
  375TCM    cl2 2040   0.127   3.752   3.307
  375TCM     h1 2041   0.150   3.811   3.076
  375TCM    cl3 2042  -0.070   3.721   3.092
  376TCM     c1 2043   2.785   2.648   4.774
  376TCM    cl1 2044   2.774   2.816   4.711
  376TCM    cl2 2045   2.624   2.570   4.767
  376TCM     h1 2046   2.856   2.591   4.714
  376TCM    cl3 2047   2.842   2.654   4.944
  377TCM     c1 2048   1.930   0.222   0.261
  377TCM    cl1 2049   1.911   0.376   0.170
  377TCM    cl2 2050   1.781   0.190   0.356
  377TCM     h1 2051   1.947   0.140   0.190
  377TCM    cl3 2052   2.070   0.234   0.372
  378TCM     c1 2053   2.919   0.318   2.068
  378TCM    cl1 2054   3.085   0.342   2.003
  378TCM    cl2 2055   2.847   0.477   2.109
  378TCM     h1 2056   2.857   0.267   1.993
  378TCM    cl3 2057   2.930   0.217   2.216
  379TCM     c1 2058   1.590   3.697   4.429
  379TCM    cl1 2059   1.522   3.676   4.594
  379TCM    cl2 2060   1.636   3.869   4.403
  379TCM     h1 2061   1.679   3.633   4.417
  379TCM    cl3 2062   1.465   3.650   4.309
  380TCM     c1 2063   0.677   2.663   0.547
  380TCM    cl1 2064   0.770   2.686   0.395
  380TCM    cl2 2065   0.790   2.665   0.686
  380TCM     h1 2066   0.604   2.744   0.558
  380TCM    cl3 2067   0.591   2.505   0.542
  381TCM     c1 2068   2.771   0.142   3.097
  381TCM    cl1 2069   2.689   0.297   3.138
  381TCM    cl2 2070   2.705   0.011   3.200
  381TCM     h1 2071   2.753   0.118   2.992
  381TCM    cl3 2072   2.947   0.158   3.127
  382TCM     c1 2073   2.072   2.964   0.990
  382TCM    cl1 2074   1.968   2.987   1.135
  382TCM    cl2 2075   2.000   3.052   0.851
  382TCM     h1 2076   2.172   3.002   1.010
  382TCM    cl3 2077   2.080   2.788   0.952
  383TCM     c1 2078   3.027   0.198   3.927
  383TCM    cl1 2079   2.999   0.344   3.826
  383TCM    cl2 2080   3.184   0.123   3.883
  383TCM     h1 2081   3.028   0.226   4.032
  383TCM    cl3 2082   2.896   0.080   3.896
  384TCM     c1 2083   2.732   3.424   4.998
  384TCM    cl1 2084   2.758   3.462   4.825
  384TCM    cl2 2085   2.770   3.568   5.097
  384TCM     h1 2086   2.628   3.394   5.015
  384TCM    cl3 2087   2.842   3.290   5.046
  385TCM     c1 2088   0.107   0.442   4.272
  385TCM    cl1 2089   0.050   0.563   4.391
  385TCM    cl2 2090   0.269   0.384   4.321
  385TCM     h1 2091   0.038   0.358   4.268
  385TCM    cl3 2092   0.118   0.518   4.110
  386TCM     c1 2093   2.500   2.449   3.763
  386TCM    cl1 2094   2.564   2.314   3.863
  386TCM    cl2 2095   2.321   2.452   3.774
  386TCM     h1 2096   2.540   2.544   3.799
  386TCM    cl3 2097   2.548   2.424   3.592
  387TCM     c1 2098   0.423   1.266   0.340
  387TCM    cl1 2099   0.353   1.430   0.317
  387TCM    cl2 2100   0.340   1.152   0.229
  387TCM     h1 2101   0.529   1.267   0.318
  387TCM    cl3 2102   0.398   1.217   0.511
  388TCM     c1 2103   4.470   3.120   1.950
  388TCM    cl1 2104   4.304   3.174   1.905
  388TCM    cl2 2105   4.589   3.233   1.878
  388TCM     h1 2106   4.480   3.121   2.059
  388TCM    cl3 2107   4.498   2.955   1.887
  389TCM     c1 2108   2.977   3.209   0.398
  389TCM    cl1 2109   2.828   3.111   0.378
  389TCM    cl2 2110   3.050   3.174   0.558
  389TCM     h1 2111   3.048   3.184   0.319
  389TCM    cl3 2112   2.936   3.384   0.389
  390TCM     c1 2113   2.641   4.679   1.675
  390TCM    cl1 2114   2.545   4.788   1.569
  390TCM    cl2 2115   2.548   4.649   1.825
  390TCM     h1 2116   2.659   4.584   1.623
  390TCM    cl3 2117   2.797   4.756   1.717
  391TCM     c1 2118   2.642   3.911   4.789
  391TCM    cl1 2119   2.495   3.994   4.727
  391TCM    cl2 2120   2.689   3.781   4.676
  391TCM     h1 2121   2.724   3.983   4.799
  391TCM    cl3 2122   2.605   3.839   4.949
  392TCM     c1 2123   4.001   3.937   2.554
  392TCM    cl1 2124   3.973   3.932   2.376
  392TCM    cl2 2125   3.927   3.794   2.631
  392TCM     h1 2126   4.109   3.938   2.574
  392TCM    cl3 2127   3.926   4.086   2.621
  393TCM     c1 2128   2.462   1.470   2.308
  393TCM    cl1 2129   2.352   1.608   2.277
  393TCM    cl2 2130   2.622   1.507   2.237
  393TCM     h1 2131   2.472   1.454   2.416
  393TCM    cl3 2132   2.396   1.322   2.231
  394TCM     c1 2133   4.871   2.245   0.592
  394TCM    cl1 2134   4.695   2.220   0.563
  394TCM    cl2 2135   4.892   2.351   0.735
  394TCM     h1 2136   4.919   2.149   0.610
  394TCM    cl3 2137   4.943   2.323   0.448
  395TCM     c1 2138   4.043   0.558   3.095
  395TCM    cl1 2139   4.101   0.406   3.019
  395TCM    cl2 2140   3.916   0.521   3.216
  395TCM     h1 2141   4.126   0.609   3.144
  395TCM    cl3 2142   3.974   0.663   2.967
  396TCM     c1 2143   4.761   2.310   0.134
  396TCM    cl1 2144   4.854   2.461   0.106
  396TCM    cl2 2145   4.846   2.173   0.057
  396TCM     h1 2146   4.752   2.292   0.242
  396TCM    cl3 2147   4.597   2.328   0.063
  397TCM     c1 2148   3.418   0.918   1.174
  397TCM    cl1 2149   3.578   0.985   1.220
  397TCM    cl2 2150   3.413   0.890   0.997
  397TCM     h1 2151   3.401   0.823   1.227
  397TCM    cl3 2152   3.289   1.034   1.220
  398TCM     c1 2153   2.648   4.320   4.712
  398TCM    cl1 2154   2.772   4.207   4.650
  398TCM    cl2 2155   2.551   4.385   4.575
  398TCM     h1 2156   2.581   4.267   4.780
  398TCM    cl3 2157   2.727   4.454   4.800
  399TCM     c1 2158   1.412   0.199   0.368
  399TCM    cl1 2159   1.422   0.094   0.223
  399TCM    cl2 2160   1.369   0.099   0.511
  399TCM     h1 2161   1.509   0.248   0.385
  399TCM    cl3 2162   1.286   0.324   0.343
  400TCM     c1 2163   1.438   3.284   4.226
  400TCM    cl1 2164   1.549   3.293   4.367
  400TCM    cl2 2165   1.302   3.173   4.263
  400TCM     h1 2166   1.399   3.383   4.203
  400TCM    cl3 2167   1.528   3.221   4.083
  401TCM     c1 2168   1.065   2.172   2.089
  401TCM    cl1 2169   0.922   2.198   2.194
  401TCM    cl2 2170   1.024   2.050   1.964
  401TCM     h1 2171   1.093   2.266   2.040
  401TCM    cl3 2172   1.202   2.113   2.188
  402TCM     c1 2173   1.530   1.293   0.464
  402TCM    cl1 2174   1.565   1.468   0.443
  402TCM    cl2 2175   1.525   1.254   0.639
  402TCM     h1 2176   1.434   1.268   0.418
  402TCM    cl3 2177   1.661   1.198   0.385
  403TCM     c1 2178   0.418   0.414   3.379
  403TCM    cl1 2179   0.438   0.505   3.226
  403TCM    cl2 2180   0.567   0.319   3.411
  403TCM     h1 2181   0.402   0.484   3.461
  403TCM    cl3 2182   0.278   0.303   3.367
  404TCM     c1 2183   2.788   3.806   0.467
  404TCM    cl1 2184   2.738   3.952   0.559
  404TCM    cl2 2185   2.820   3.855   0.298
  404TCM     h1 2186   2.879   3.764   0.511
  404TCM    cl3 2187   2.657   3.685   0.469
  405TCM     c1 2188   4.951   1.846   0.771
  405TCM    cl1 2189   5.077   1.918   0.666
  405TCM    cl2 2190   4.870   1.711   0.683
  405TCM     h1 2191   4.996   1.808   0.863
  405TCM    cl3 2192   4.828   1.970   0.811
  406TCM     c1 2193   3.107   4.593   3.984
  406TCM    cl1 2194   3.058   4.599   4.156
  406TCM    cl2 2195   3.278   4.541   3.972
  406TCM     h1 2196   3.043   4.522   3.931
  406TCM    cl3 2197   3.089   4.756   3.911
  407TCM     c1 2198   0.302   3.060   3.411
  407TCM    cl1 2199   0.285   2.883   3.438
  407TCM    cl2 2200   0.353   3.090   3.241
  407TCM     h1 2201   0.206   3.109   3.429
  407TCM    cl3 2202   0.426   3.124   3.523
  408TCM     c1 2203   2.748   0.605   1.724
  408TCM    cl1 2204   2.796   0.434   1.751
  408TCM    cl2 2205   2.772   0.647   1.551
  408TCM     h1 2206   2.643   0.618   1.750
  408TCM    cl3 2207   2.850   0.712   1.826
  409TCM     c1 2208   4.781   4.901   4.514
  409TCM    cl1 2209   4.952   4.867   4.555
  409TCM    cl2 2210   4.683   4.754   4.546
  409TCM     h1 2211   4.744   4.984   4.574
  409TCM    cl3 2212   4.769   4.942   4.340
  410TCM     c1 2213   4.011   0.897   2.037
  410TCM    cl1 2214   3.892   1.029   2.017
  410TCM    cl2 2215   3.977   0.767   1.918
  410TCM     h1 2216   4.112   0.935   2.020
  410TCM    cl3 2217   4.000   0.831   2.204
  411TCM     c1 2218   2.334   4.801   2.160
  411TCM    cl1 2219   2.465   4.679   2.177
  411TCM    cl2 2220   2.343   4.880   2.000
  411TCM     h1 2221   2.236   4.752   2.171
  411TCM    cl3 2222   2.353   4.924   2.289
  412TCM     c1 2223   2.239   2.673   0.588
  412TCM    cl1 2224   2.196   2.847   0.604
  412TCM    cl2 2225   2.089   2.575   0.580
  412TCM     h1 2226   2.296   2.658   0.496
  412TCM    cl3 2227   2.337   2.621   0.729
  413TCM     c1 2228   2.213   4.526   0.330
  413TCM    cl1 2229   2.186   4.551   0.505
  413TCM    cl2 2230   2.332   4.394   0.307
  413TCM     h1 2231   2.119   4.501   0.281
  413TCM    cl3 2232   2.279   4.677   0.258
  414TCM     c1 2233   3.567   1.048   2.184
  414TCM    cl1 2234   3.656   0.928   2.283
  414TCM    cl2 2235   3.554   1.201   2.277
  414TCM     h1 2236   3.619   1.065   2.090
  414TCM    cl3 2237   3.403   0.985   2.151
  415TCM     c1 2238   3.370   3.997   0.745
  415TCM    cl1 2239   3.364   3.838   0.828
  415TCM    cl2 2240   3.529   4.075   0.775
  415TCM     h1 2241   3.358   3.983   0.637
  415TCM    cl3 2242   3.240   4.103   0.807
  416TCM     c1 2243   1.588   4.019   1.816
  416TCM    cl1 2244   1.641   4.185   1.771
  416TCM    cl2 2245   1.732   3.923   1.865
  416TCM     h1 2246   1.517   4.024   1.898
  416TCM    cl3 2247   1.511   3.940   1.674
  417TCM     c1 2248   4.782   2.679   2.917
  417TCM    cl1 2249   4.956   2.719   2.899
  417TCM    cl2 2250   4.685   2.782   2.807
  417TCM     h1 2251   4.766   2.574   2.893
  417TCM    cl3 2252   4.731   2.711   3.085
  418TCM     c1 2253   1.466   1.315   1.994
  418TCM    cl1 2254   1.534   1.162   2.057
  418TCM    cl2 2255   1.288   1.301   1.981
  418TCM     h1 2256   1.491   1.396   2.063
  418TCM    cl3 2257   1.535   1.351   1.832
  419TCM     c1 2258   1.088   4.250   0.243
  419TCM    cl1 2259   1.127   4.155   0.096
  419TCM    cl2 2260   1.114   4.148   0.389
  419TCM     h1 2261   1.154   4.338   0.248
  419TCM    cl3 2262   0.917   4.303   0.236
  420TCM     c1 2263   3.075   2.704   0.815
  420TCM    cl1 2264   3.189   2.780   0.699
  420TCM    cl2 2265   3.076   2.796   0.968
  420TCM     h1 2266   2.975   2.705   0.772
  420TCM    cl3 2267   3.125   2.534   0.846
  421TCM     c1 2268   0.665   2.029   2.410
  421TCM    cl1 2269   0.496   1.995   2.359
  421TCM    cl2 2270   0.713   1.908   2.533
  421TCM     h1 2271   0.732   2.023   2.323
  421TCM    cl3 2272   0.673   2.193   2.481
  422TCM     c1 2273   2.551   0.462   4.668
  422TCM    cl1 2274   2.698   0.412   4.578
  422TCM    cl2 2275   2.421   0.504   4.551
  422TCM     h1 2276   2.518   0.379   4.731
  422TCM    cl3 2277   2.588   0.604   4.770
  423TCM     c1 2278   0.290   4.335   3.866
  423TCM    cl1 2279   0.439   4.280   3.782
  423TCM    cl2 2280   0.329   4.373   4.036
  423TCM     h1 2281   0.250   4.424   3.816
  423TCM    cl3 2282   0.167   4.203   3.860
  424TCM     c1 2283   4.854   4.140   1.294
  424TCM    cl1 2284   4.863   4.065   1.457
  424TCM    cl2 2285   4.918   4.025   1.172
  424TCM     h1 2286   4.750   4.164   1.271
  424TCM    cl3 2287   4.953   4.289   1.293
  425TCM     c1 2288   2.543   2.380   0.268
  425TCM    cl1 2289   2.405   2.435   0.368
  425TCM    cl2 2290   2.685   2.349   0.373
  425TCM     h1 2291   2.516   2.288   0.215
  425TCM    cl3 2292   2.586   2.507   0.149
  426TCM     c1 2293   0.233   4.841   3.361
  426TCM    cl1 2294   0.278   4.726   3.230
  426TCM    cl2 2295   0.337   4.945   3.257
  426TCM     h1 2296   0.171   4.931   3.356
  426TCM    cl3 2297   0.074   4.767   3.324
  427TCM     c1 2298   3.224   2.291   2.182
  427TCM    cl1 2299   3.258   2.386   2.034
  427TCM    cl2 2300   3.047   2.283   2.208
  427TCM     h1 2301   3.264   2.190   2.170
  427TCM    cl3 2302   3.302   2.370   2.323
  428TCM     c1 2303   4.003   1.012   4.892
  428TCM    cl1 2304   4.090   1.121   5.005
  428TCM    cl2 2305   4.077   0.848   4.898
  428TCM     h1 2306   3.898   1.006   4.920
  428TCM    cl3 2307   4.017   1.077   4.725
  429TCM     c1 2308   1.006   1.900   4.511
  429TCM    cl1 2309   1.136   1.781   4.545
  429TCM    cl2 2310   0.852   1.814   4.483
  429TCM     h1 2311   0.995   1.967   4.596
  429TCM    cl3 2312   1.049   1.996   4.365
  430TCM     c1 2313   0.507   0.182   1.946
  430TCM    cl1 2314   0.432   0.224   1.789
  430TCM    cl2 2315   0.476   0.009   1.983
  430TCM     h1 2316   0.615   0.200   1.941
  430TCM    cl3 2317   0.436   0.283   2.076
  431TCM     c1 2318   3.651   0.267   0.843
  431TCM    cl1 2319   3.654   0.395   0.969
  431TCM    cl2 2320   3.482   0.237   0.792
  431TCM     h1 2321   3.711   0.298   0.757
  431TCM    cl3 2322   3.720   0.116   0.912
  432TCM     c1 2323   2.982   2.050   3.420
  432TCM    cl1 2324   3.048   2.168   3.301
  432TCM    cl2 2325   2.992   2.120   3.585
  432TCM     h1 2326   2.878   2.029   3.396
  432TCM    cl3 2327   3.078   1.899   3.414
  433TCM     c1 2328   3.562   2.737   3.315
  433TCM    cl1 2329   3.571   2.866   3.190
  433TCM    cl2 2330   3.684   2.611   3.278
  433TCM     h1 2331   3.582   2.780   3.414
  433TCM    cl3 2332   3.398   2.664   3.314
  434TCM     c1 2333   3.011   4.299   1.476
  434TCM    cl1 2334   2.952   4.451   1.552
  434TCM    cl2 2335   2.920   4.268   1.325
  434TCM     h1 2336   3.118   4.309   1.454
  434TCM    cl3 2337   2.986   4.163   1.590
  435TCM     c1 2338   0.475   1.279   3.932
  435TCM    cl1 2339   0.488   1.108   3.985
  435TCM    cl2 2340   0.413   1.285   3.764
  435TCM     h1 2341   0.407   1.332   3.999
  435TCM    cl3 2342   0.638   1.355   3.938
  436TCM     c1 2343   0.306   1.788   1.480
  436TCM    cl1 2344   0.372   1.635   1.548
  436TCM    cl2 2345   0.202   1.749   1.339
  436TCM     h1 2346   0.247   1.840   1.556
  436TCM    cl3 2347   0.443   1.892   1.428
  437TCM     c1 2348   0.002   2.599   0.981
  437TCM    cl1 2349   0.169   2.581   0.917
  437TCM    cl2 2350  -0.022   2.766   1.042
  437TCM     h1 2351  -0.070   2.579   0.901
  437TCM    cl3 2352  -0.024   2.483   1.116
  438TCM     c1 2353   0.692   3.489   4.817
  438TCM    cl1 2354   0.558   3.371   4.832
  438TCM    cl2 2355   0.626   3.649   4.768
  438TCM     h1 2356   0.744   3.499   4.913
  438TCM    cl3 2357   0.808   3.433   4.692
  439TCM     c1 2358   3.543   1.061   1.601
  439TCM    cl1 2359   3.637   1.005   1.743
  439TCM    cl2 2360   3.444   1.203   1.648
  439TCM     h1 2361   3.611   1.088   1.520
  439TCM    cl3 2362   3.434   0.929   1.546
  440TCM     c1 2363   3.523   1.800   4.587
  440TCM    cl1 2364   3.355   1.738   4.591
  440TCM    cl2 2365   3.601   1.769   4.745
  440TCM     h1 2366   3.579   1.749   4.508
  440TCM    cl3 2367   3.521   1.976   4.554
  441TCM     c1 2368   0.598   4.091   4.195
  441TCM    cl1 2369   0.490   4.034   4.064
  441TCM    cl2 2370   0.650   4.259   4.162
  441TCM     h1 2371   0.545   4.087   4.291
  441TCM    cl3 2372   0.743   3.985   4.203
  442TCM     c1 2373   3.362   3.303   0.193
  442TCM    cl1 2374   3.412   3.140   0.136
  442TCM    cl2 2375   3.361   3.307   0.372
  442TCM     h1 2376   3.432   3.378   0.154
  442TCM    cl3 2377   3.197   3.339   0.133
  443TCM     c1 2378   0.894   2.393   1.387
  443TCM    cl1 2379   1.027   2.289   1.326
  443TCM    cl2 2380   0.815   2.473   1.247
  443TCM     h1 2381   0.822   2.332   1.441
  443TCM    cl3 2382   0.962   2.517   1.497
  444TCM     c1 2383   4.438   0.013   0.256
  444TCM    cl1 2384   4.258   0.007   0.259
  444TCM    cl2 2385   4.496   0.145   0.363
  444TCM     h1 2386   4.478  -0.083   0.291
  444TCM    cl3 2387   4.493   0.043   0.088
  445TCM     c1 2388   4.475   0.981   0.039
  445TCM    cl1 2389   4.423   0.974  -0.132
  445TCM    cl2 2390   4.355   0.897   0.142
  445TCM     h1 2391   4.573   0.932   0.049
  445TCM    cl3 2392   4.488   1.153   0.090
  446TCM     c1 2393   2.938   0.603   3.202
  446TCM    cl1 2394   2.933   0.583   3.024
  446TCM    cl2 2395   3.007   0.763   3.243
  446TCM     h1 2396   2.836   0.596   3.242
  446TCM    cl3 2397   3.038   0.472   3.273
  447TCM     c1 2398   4.329   1.267   4.690
  447TCM    cl1 2399   4.481   1.340   4.752
  447TCM    cl2 2400   4.367   1.156   4.554
  447TCM     h1 2401   4.281   1.211   4.770
  447TCM    cl3 2402   4.220   1.396   4.632
  448TCM     c1 2403   0.098   2.176   3.463
  448TCM    cl1 2404  -0.044   2.121   3.559
  448TCM    cl2 2405   0.062   2.336   3.391
  448TCM     h1 2406   0.185   2.184   3.528
  448TCM    cl3 2407   0.131   2.057   3.332
  449TCM     c1 2408   4.997   0.026   3.716
  449TCM    cl1 2409   4.893  -0.059   3.597
  449TCM    cl2 2410   5.168   0.018   3.662
  449TCM     h1 2411   4.966   0.131   3.724
  449TCM    cl3 2412   4.981  -0.054   3.876
  450TCM     c1 2413   3.251   0.645   3.595
  450TCM    cl1 2414   3.071   0.650   3.593
  450TCM    cl2 2415   3.313   0.655   3.427
  450TCM     h1 2416   3.289   0.729   3.653
  450TCM    cl3 2417   3.305   0.491   3.670
  451TCM     c1 2418   3.704   3.665   1.572
  451TCM    cl1 2419   3.738   3.833   1.521
  451TCM    cl2 2420   3.720   3.653   1.751
  451TCM     h1 2421   3.603   3.637   1.543
  451TCM    cl3 2422   3.823   3.555   1.494
  452TCM     c1 2423   0.529   0.322   1.329
  452TCM    cl1 2424   0.627   0.205   1.424
  452TCM    cl2 2425   0.364   0.256   1.305
  452TCM     h1 2426   0.524   0.417   1.382
  452TCM    cl3 2427   0.606   0.347   1.168
  453TCM     c1 2428   2.323   3.935   3.669
  453TCM    cl1 2429   2.485   4.007   3.642
  453TCM    cl2 2430   2.310   3.783   3.574
  453TCM     h1 2431   2.309   3.914   3.775
  453TCM    cl3 2432   2.197   4.049   3.612
  454TCM     c1 2433   4.438   3.950   1.184
  454TCM    cl1 2434   4.497   3.986   1.349
  454TCM    cl2 2435   4.569   3.983   1.067
  454TCM     h1 2436   4.408   3.845   1.177
  454TCM    cl3 2437   4.297   4.054   1.146
  455TCM     c1 2438   3.196   4.223   4.370
  455TCM    cl1 2439   3.077   4.226   4.237
  455TCM    cl2 2440   3.116   4.172   4.523
  455TCM     h1 2441   3.275   4.151   4.346
  455TCM    cl3 2442   3.268   4.386   4.391
  456TCM     c1 2443   1.674   1.944   4.693
  456TCM    cl1 2444   1.625   2.117   4.690
  456TCM    cl2 2445   1.529   1.841   4.711
  456TCM     h1 2446   1.725   1.919   4.599
  456TCM    cl3 2447   1.785   1.916   4.831
  457TCM     c1 2448   1.624   3.346   1.711
  457TCM    cl1 2449   1.638   3.461   1.849
  457TCM    cl2 2450   1.547   3.194   1.768
  457TCM     h1 2451   1.563   3.391   1.633
  457TCM    cl3 2452   1.787   3.309   1.648
  458TCM     c1 2453   1.893   4.899   1.299
  458TCM    cl1 2454   1.837   4.826   1.453
  458TCM    cl2 2455   2.072   4.888   1.288
  458TCM     h1 2456   1.848   4.846   1.215
  458TCM    cl3 2457   1.843   5.072   1.294
  459TCM     c1 2458   3.973   4.258   3.474
  459TCM    cl1 2459   3.900   4.375   3.359
  459TCM    cl2 2460   4.081   4.345   3.588
  459TCM     h1 2461   3.894   4.208   3.530
  459TCM    cl3 2462   4.069   4.136   3.383
  460TCM     c1 2463   0.620   0.848   3.488
  460TCM    cl1 2464   0.596   0.873   3.312
  460TCM    cl2 2465   0.600   0.675   3.528
  460TCM     h1 2466   0.721   0.881   3.516
  460TCM    cl3 2467   0.498   0.945   3.578
  461TCM     c1 2468   1.672   4.266   0.336
  461TCM    cl1 2469   1.762   4.421   0.330
  461TCM    cl2 2470   1.555   4.269   0.472
  461TCM     h1 2471   1.617   4.252   0.242
  461TCM    cl3 2472   1.787   4.130   0.358
  462TCM     c1 2473   3.191   0.202   4.999
  462TCM    cl1 2474   3.257   0.142   5.155
  462TCM    cl2 2475   3.153   0.062   4.893
  462TCM     h1 2476   3.100   0.259   5.018
  462TCM    cl3 2477   3.314   0.306   4.920
  463TCM     c1 2478   3.600   0.956   3.037
  463TCM    cl1 2479   3.508   0.822   2.962
  463TCM    cl2 2480   3.755   0.979   2.948
  463TCM     h1 2481   3.541   1.048   3.032
  463TCM    cl3 2482   3.635   0.915   3.208
  464TCM     c1 2483   4.942   4.539   3.731
  464TCM    cl1 2484   4.946   4.395   3.624
  464TCM    cl2 2485   5.091   4.635   3.708
  464TCM     h1 2486   4.854   4.600   3.707
  464TCM    cl3 2487   4.932   4.485   3.902
  465TCM     c1 2488   4.357   1.528   0.131
  465TCM    cl1 2489   4.479   1.624   0.041
  465TCM    cl2 2490   4.249   1.446   0.014
  465TCM     h1 2491   4.407   1.454   0.193
  465TCM    cl3 2492   4.260   1.639   0.234
  466TCM     c1 2493   0.305   0.547   2.752
  466TCM    cl1 2494   0.474   0.547   2.812
  466TCM    cl2 2495   0.292   0.436   2.611
  466TCM     h1 2496   0.238   0.513   2.831
  466TCM    cl3 2497   0.259   0.712   2.700
  467TCM     c1 2498   0.586   1.789   1.993
  467TCM    cl1 2499   0.699   1.916   2.049
  467TCM    cl2 2500   0.444   1.865   1.914
  467TCM     h1 2501   0.636   1.724   1.921
  467TCM    cl3 2502   0.532   1.693   2.134
  468TCM     c1 2503   3.467   2.036   1.577
  468TCM    cl1 2504   3.312   1.960   1.528
  468TCM    cl2 2505   3.591   2.007   1.450
  468TCM     h1 2506   3.453   2.143   1.591
  468TCM    cl3 2507   3.523   1.962   1.731
  469TCM     c1 2508   2.484   0.923   4.196
  469TCM    cl1 2509   2.383   1.052   4.121
  469TCM    cl2 2510   2.398   0.854   4.338
  469TCM     h1 2511   2.503   0.844   4.123
  469TCM    cl3 2512   2.641   0.993   4.249
  470TCM     c1 2513   4.727   2.570   4.735
  470TCM    cl1 2514   4.611   2.630   4.859
  470TCM    cl2 2515   4.727   2.390   4.734
  470TCM     h1 2516   4.698   2.607   4.637
  470TCM    cl3 2517   4.892   2.628   4.776
  471TCM     c1 2518   3.741   0.713   2.696
  471TCM    cl1 2519   3.612   0.809   2.617
  471TCM    cl2 2520   3.894   0.734   2.604
  471TCM     h1 2521   3.755   0.748   2.799
  471TCM    cl3 2522   3.695   0.540   2.698
  472TCM     c1 2523   3.223   1.925   3.081
  472TCM    cl1 2524   3.288   1.786   2.989
  472TCM    cl2 2525   3.173   2.053   2.966
  472TCM     h1 2526   3.138   1.894   3.141
  472TCM    cl3 2527   3.353   1.989   3.188
  473TCM     c1 2528   3.662   1.563   1.671
  473TCM    cl1 2529   3.580   1.638   1.530
  473TCM    cl2 2530   3.776   1.681   1.743
  473TCM     h1 2531   3.587   1.534   1.746
  473TCM    cl3 2532   3.753   1.418   1.617
  474TCM     c1 2533   0.445   3.300   1.161
  474TCM    cl1 2534   0.304   3.376   1.241
  474TCM    cl2 2535   0.412   3.282   0.985
  474TCM     h1 2536   0.534   3.363   1.175
  474TCM    cl3 2537   0.476   3.139   1.233
  475TCM     c1 2538   2.345   3.644   4.655
  475TCM    cl1 2539   2.403   3.492   4.732
  475TCM    cl2 2540   2.251   3.739   4.774
  475TCM     h1 2541   2.431   3.702   4.621
  475TCM    cl3 2542   2.242   3.603   4.514
  476TCM     c1 2543   1.734   1.698   1.729
  476TCM    cl1 2544   1.875   1.594   1.764
  476TCM    cl2 2545   1.760   1.783   1.574
  476TCM     h1 2546   1.643   1.638   1.724
  476TCM    cl3 2547   1.720   1.820   1.860
  477TCM     c1 2548   4.457   2.527   0.368
  477TCM    cl1 2549   4.636   2.528   0.383
  477TCM    cl2 2550   4.398   2.358   0.370
  477TCM     h1 2551   4.414   2.582   0.452
  477TCM    cl3 2552   4.410   2.606   0.214
  478TCM     c1 2553   3.018   4.558   3.502
  478TCM    cl1 2554   2.862   4.532   3.415
  478TCM    cl2 2555   3.155   4.508   3.397
  478TCM     h1 2556   3.028   4.663   3.527
  478TCM    cl3 2557   3.019   4.460   3.652
  479TCM     c1 2558   0.105   3.769   0.084
  479TCM    cl1 2559   0.087   3.676   0.237
  479TCM    cl2 2560   0.276   3.822   0.066
  479TCM     h1 2561   0.077   3.707  -0.001
  479TCM    cl3 2562  -0.002   3.913   0.091
  480TCM     c1 2563   0.947   2.331   3.261
  480TCM    cl1 2564   0.895   2.464   3.370
  480TCM    cl2 2565   0.945   2.390   3.091
  480TCM     h1 2566   1.048   2.298   3.287
  480TCM    cl3 2567   0.833   2.194   3.277
  481TCM     c1 2568   2.449   2.804   1.129
  481TCM    cl1 2569   2.452   2.874   0.963
  481TCM    cl2 2570   2.395   2.633   1.120
  481TCM     h1 2571   2.549   2.808   1.172
  481TCM    cl3 2572   2.335   2.898   1.230
  482TCM     c1 2573   4.847   3.442   3.430
  482TCM    cl1 2574   4.918   3.377   3.278
  482TCM    cl2 2575   4.701   3.347   3.472
  482TCM     h1 2576   4.920   3.434   3.511
  482TCM    cl3 2577   4.803   3.614   3.407
  483TCM     c1 2578   2.417   4.798   3.257
  483TCM    cl1 2579   2.491   4.635   3.259
  483TCM    cl2 2580   2.285   4.807   3.379
  483TCM     h1 2581   2.492   4.873   3.281
  483TCM    cl3 2582   2.349   4.831   3.094
  484TCM     c1 2583   0.141   2.549   4.124
  484TCM    cl1 2584   0.297   2.477   4.074
  484TCM    cl2 2585   0.150   2.728   4.106
  484TCM     h1 2586   0.061   2.510   4.061
  484TCM    cl3 2587   0.109   2.509   4.296
  485TCM     c1 2588   2.550   2.118   3.368
  485TCM    cl1 2589   2.424   1.998   3.325
  485TCM    cl2 2590   2.676   2.117   3.240
  485TCM     h1 2591   2.505   2.218   3.374
  485TCM    cl3 2592   2.623   2.075   3.526
  486TCM     c1 2593   2.027   0.581   3.812
  486TCM    cl1 2594   1.933   0.519   3.952
  486TCM    cl2 2595   1.981   0.751   3.779
  486TCM     h1 2596   2.133   0.576   3.835
  486TCM    cl3 2597   1.992   0.481   3.667
  487TCM     c1 2598   0.980   0.173   0.605
  487TCM    cl1 2599   1.070   0.324   0.638
  487TCM    cl2 2600   0.901   0.183   0.444
  487TCM     h1 2601   1.049   0.088   0.606
  487TCM    cl3 2602   0.854   0.150   0.731
  488TCM     c1 2603   3.844   1.020   3.526
  488TCM    cl1 2604   3.716   1.053   3.646
  488TCM    cl2 2605   3.944   0.882   3.582
  488TCM     h1 2606   3.799   0.996   3.429
  488TCM    cl3 2607   3.948   1.166   3.510
  489TCM     c1 2608   3.160   4.843   3.155
  489TCM    cl1 2609   3.271   4.888   3.288
  489TCM    cl2 2610   2.998   4.807   3.225
  489TCM     h1 2611   3.152   4.926   3.084
  489TCM    cl3 2612   3.221   4.697   3.071
  490TCM     c1 2613   2.030   2.508   2.882
  490TCM    cl1 2614   1.855   2.545   2.894
  490TCM    cl2 2615   2.099   2.489   3.046
  490TCM     h1 2616   2.045   2.416   2.825
  490TCM    cl3 2617   2.114   2.644   2.799
  491TCM     c1 2618   1.590   0.588   0.041
  491TCM    cl1 2619   1.507   0.707   0.147
  491TCM    cl2 2620   1.535   0.610  -0.128
  491TCM     h1 2621   1.698   0.603   0.047
  491TCM    cl3 2622   1.550   0.422   0.097
  492TCM     c1 2623   2.287   4.392   4.137
  492TCM    cl1 2624   2.121   4.455   4.156
  492TCM    cl2 2625   2.328   4.289   4.278
  492TCM     h1 2626   2.293   4.332   4.046
  492TCM    cl3 2627   2.403   4.528   4.126
  493TCM     c1 2628   0.771   3.908   4.994
  493TCM    cl1 2629   0.889   3.971   4.875
  493TCM    cl2 2630   0.607   3.969   4.955
  493TCM     h1 2631   0.770   3.799   4.990
  493TCM    cl3 2632   0.816   3.962   5.159
  494TCM     c1 2633   4.999   2.734   1.587
  494TCM    cl1 2634   4.900   2.823   1.466
  494TCM    cl2 2635   4.893   2.670   1.716
  494TCM     h1 2636   5.052   2.652   1.537
  494TCM    cl3 2637   5.118   2.847   1.660
  495TCM     c1 2638   3.163   1.116   3.251
  495TCM    cl1 2639   3.188   1.261   3.354
  495TCM    cl2 2640   3.288   1.114   3.123
  495TCM     h1 2641   3.170   1.026   3.312
  495TCM    cl3 2642   3.000   1.127   3.177
  496TCM     c1 2643   4.786   1.420   1.979
  496TCM    cl1 2644   4.728   1.426   1.809
  496TCM    cl2 2645   4.955   1.359   1.982
  496TCM     h1 2646   4.783   1.520   2.022
  496TCM    cl3 2647   4.680   1.310   2.072
  497TCM     c1 2648   1.437   4.982   1.244
  497TCM    cl1 2649   1.284   4.964   1.153
  497TCM    cl2 2650   1.554   4.856   1.191
  497TCM     h1 2651   1.479   5.081   1.226
  497TCM    cl3 2652   1.405   4.962   1.420
  498TCM     c1 2653   2.711   2.760   3.607
  498TCM    cl1 2654   2.783   2.682   3.751
  498TCM    cl2 2655   2.797   2.914   3.573
  498TCM     h1 2656   2.720   2.693   3.520
  498TCM    cl3 2657   2.538   2.794   3.639
  499TCM     c1 2658   4.976   3.167   1.138
  499TCM    cl1 2659   5.044   3.250   0.994
  499TCM    cl2 2660   4.916   3.292   1.253
  499TCM     h1 2661   4.893   3.102   1.108
  499TCM    cl3 2662   5.104   3.069   1.217
  500TCM     c1 2663   1.757   0.110   4.841
  500TCM    cl1 2664   1.801  -0.051   4.775
  500TCM    cl2 2665   1.900   0.218   4.834
  500TCM     h1 2666   1.675   0.153   4.782
  500TCM    cl3 2667   1.707   0.091   5.012
  501TCM     c1 2668   0.974   2.027   2.860
  501TCM    cl1 2669   0.956   1.855   2.810
  501TCM    cl2 2670   1.048   2.033   3.024
  501TCM     h1 2671   1.039   2.078   2.789
  501TCM    cl3 2672   0.813   2.106   2.862
  502TCM     c1 2673   2.794   3.598   2.284
  502TCM    cl1 2674   2.895   3.450   2.285
  502TCM    cl2 2675   2.872   3.726   2.382
  502TCM     h1 2676   2.783   3.633   2.181
  502TCM    cl3 2677   2.632   3.560   2.350
  503TCM     c1 2678   1.429   0.490   2.822
  503TCM    cl1 2679   1.338   0.458   2.671
  503TCM    cl2 2680   1.354   0.627   2.910
  503TCM     h1 2681   1.428   0.401   2.885
  503TCM    cl3 2682   1.598   0.533   2.781
  504TCM     c1 2683   4.974   0.147   2.559
  504TCM    cl1 2684   4.923  -0.024   2.582
  504TCM    cl2 2685   5.026   0.215   2.716
  504TCM     h1 2686   5.057   0.151   2.487
  504TCM    cl3 2687   4.836   0.241   2.495
  505TCM     c1 2688   2.663   3.789   2.848
  505TCM    cl1 2689   2.581   3.687   2.971
  505TCM    cl2 2690   2.576   3.946   2.834
  505TCM     h1 2691   2.766   3.807   2.878
  505TCM    cl3 2692   2.660   3.704   2.690
  506TCM     c1 2693   0.259   4.763   4.864
  506TCM    cl1 2694   0.103   4.849   4.883
  506TCM    cl2 2695   0.285   4.724   4.691
  506TCM     h1 2696   0.341   4.827   4.899
  506TCM    cl3 2697   0.257   4.612   4.961
  507TCM     c1 2698   1.473   3.914   0.093
  507TCM    cl1 2699   1.332   3.823   0.027
  507TCM    cl2 2700   1.604   3.800   0.137
  507TCM     h1 2701   1.510   3.983   0.017
  507TCM    cl3 2702   1.424   4.005   0.239
  508TCM     c1 2703   0.551   1.879   3.174
  508TCM    cl1 2704   0.480   2.023   3.094
  508TCM    cl2 2705   0.598   1.921   3.342
  508TCM     h1 2706   0.478   1.798   3.176
  508TCM    cl3 2707   0.697   1.827   3.084
  509TCM     c1 2708   4.533   0.494   4.796
  509TCM    cl1 2709   4.508   0.617   4.923
  509TCM    cl2 2710   4.388   0.484   4.691
  509TCM     h1 2711   4.620   0.521   4.735
  509TCM    cl3 2712   4.561   0.334   4.873
  510TCM     c1 2713   4.185   2.300   2.204
  510TCM    cl1 2714   4.156   2.304   2.381
  510TCM    cl2 2715   4.290   2.437   2.158
  510TCM     h1 2716   4.233   2.206   2.178
  510TCM    cl3 2717   4.027   2.313   2.118
  511TCM     c1 2718   3.216   4.761   1.459
  511TCM    cl1 2719   3.265   4.596   1.411
  511TCM    cl2 2720   3.357   4.872   1.446
  511TCM     h1 2721   3.136   4.796   1.394
  511TCM    cl3 2722   3.159   4.759   1.630
  512TCM     c1 2723   0.040   0.117   0.579
  512TCM    cl1 2724   0.075   0.292   0.594
  512TCM    cl2 2725  -0.070   0.067   0.712
  512TCM     h1 2726  -0.008   0.096   0.483
  512TCM    cl3 2727   0.193   0.025   0.592
  513TCM     c1 2728   3.864   4.987   0.139
  513TCM    cl1 2729   3.921   4.846   0.234
  513TCM    cl2 2730   3.938   4.980  -0.025
  513TCM     h1 2731   3.755   4.985   0.131
  513TCM    cl3 2732   3.915   5.139   0.220
  514TCM     c1 2733   0.922   0.178   2.112
  514TCM    cl1 2734   0.803   0.309   2.138
  514TCM    cl2 2735   1.057   0.240   2.010
  514TCM     h1 2736   0.962   0.144   2.208
  514TCM    cl3 2737   0.843   0.041   2.027
  515TCM     c1 2738   2.762   0.012   4.238
  515TCM    cl1 2739   2.642  -0.072   4.135
  515TCM    cl2 2740   2.920  -0.070   4.224
  515TCM     h1 2741   2.772   0.116   4.204
  515TCM    cl3 2742   2.707   0.011   4.409
  516TCM     c1 2743   4.252   4.100   1.615
  516TCM    cl1 2744   4.144   4.069   1.475
  516TCM    cl2 2745   4.153   4.134   1.760
  516TCM     h1 2746   4.314   4.012   1.633
  516TCM    cl3 2747   4.357   4.241   1.579
  517TCM     c1 2748   3.005   3.743   4.849
  517TCM    cl1 2749   3.101   3.608   4.917
  517TCM    cl2 2750   3.091   3.813   4.708
  517TCM     h1 2751   2.907   3.705   4.818
  517TCM    cl3 2752   2.982   3.870   4.974
  518TCM     c1 2753   2.562   0.404   4.147
  518TCM    cl1 2754   2.517   0.289   4.277
  518TCM    cl2 2755   2.707   0.343   4.063
  518TCM     h1 2756   2.479   0.414   4.077
  518TCM    cl3 2757   2.599   0.564   4.221
  519TCM     c1 2758   3.380   3.440   1.776
  519TCM    cl1 2759   3.358   3.519   1.617
  519TCM    cl2 2760   3.380   3.566   1.904
  519TCM     h1 2761   3.298   3.370   1.794
  519TCM    cl3 2762   3.536   3.351   1.778
  520TCM     c1 2763   4.902   2.910   3.329
  520TCM    cl1 2764   5.000   2.962   3.188
  520TCM    cl2 2765   4.923   3.029   3.462
  520TCM     h1 2766   4.796   2.906   3.301
  520TCM    cl3 2767   4.955   2.748   3.384
  521TCM     c1 2768   1.402   3.687   3.255
  521TCM    cl1 2769   1.539   3.706   3.370
  521TCM    cl2 2770   1.280   3.814   3.287
  521TCM     h1 2771   1.439   3.697   3.152
  521TCM    cl3 2772   1.328   3.525   3.277
  522TCM     c1 2773   2.625   4.152   1.677
  522TCM    cl1 2774   2.464   4.100   1.738
  522TCM    cl2 2775   2.655   4.322   1.727
  522TCM     h1 2776   2.703   4.088   1.718
  522TCM    cl3 2777   2.627   4.142   1.498
  523TCM     c1 2778   0.224   1.475   2.850
  523TCM    cl1 2779   0.096   1.508   2.728
  523TCM    cl2 2780   0.366   1.403   2.768
  523TCM     h1 2781   0.253   1.568   2.899
  523TCM    cl3 2782   0.160   1.360   2.973
  524TCM     c1 2783   4.511   3.125   2.699
  524TCM    cl1 2784   4.342   3.070   2.669
  524TCM    cl2 2785   4.514   3.229   2.845
  524TCM     h1 2786   4.575   3.038   2.715
  524TCM    cl3 2787   4.569   3.219   2.558
  525TCM     c1 2788   2.592   4.929   2.667
  525TCM    cl1 2789   2.480   4.792   2.634
  525TCM    cl2 2790   2.567   4.988   2.834
  525TCM     h1 2791   2.695   4.895   2.654
  525TCM    cl3 2792   2.557   5.061   2.551
  526TCM     c1 2793   3.084   3.139   2.425
  526TCM    cl1 2794   2.913   3.096   2.391
  526TCM    cl2 2795   3.193   3.020   2.345
  526TCM     h1 2796   3.105   3.239   2.386
  526TCM    cl3 2797   3.113   3.136   2.602
  527TCM     c1 2798   1.814   3.430   4.021
  527TCM    cl1 2799   1.893   3.548   3.911
  527TCM    cl2 2800   1.794   3.503   4.184
  527TCM     h1 2801   1.716   3.403   3.981
  527TCM    cl3 2802   1.914   3.281   4.032
  528TCM     c1 2803   4.928   1.848   0.247
  528TCM    cl1 2804   4.799   1.799   0.133
  528TCM    cl2 2805   4.989   1.704   0.334
  528TCM     h1 2806   5.009   1.895   0.191
  528TCM    cl3 2807   4.862   1.965   0.367
  529TCM     c1 2808   2.118   2.902   2.026
  529TCM    cl1 2809   2.016   2.916   2.173
  529TCM    cl2 2810   2.285   2.957   2.064
  529TCM     h1 2811   2.120   2.798   1.993
  529TCM    cl3 2812   2.050   3.005   1.896
  530TCM     c1 2813   1.991   0.612   4.748
  530TCM    cl1 2814   1.861   0.532   4.655
  530TCM    cl2 2815   2.128   0.498   4.771
  530TCM     h1 2816   2.026   0.701   4.695
  530TCM    cl3 2817   1.927   0.660   4.909
  531TCM     c1 2818   0.244   0.053   4.112
  531TCM    cl1 2819   0.387   0.041   4.219
  531TCM    cl2 2820   0.263   0.193   4.002
  531TCM     h1 2821   0.235  -0.038   4.053
  531TCM    cl3 2822   0.096   0.075   4.212
  532TCM     c1 2823   1.758   4.473   1.357
  532TCM    cl1 2824   1.901   4.523   1.259
  532TCM    cl2 2825   1.810   4.440   1.525
  532TCM     h1 2826   1.684   4.554   1.357
  532TCM    cl3 2827   1.686   4.325   1.285
  533TCM     c1 2828   4.972   0.915   4.173
  533TCM    cl1 2829   4.848   0.849   4.284
  533TCM    cl2 2830   4.958   0.833   4.014
  533TCM     h1 2831   4.955   1.022   4.160
  533TCM    cl3 2832   5.136   0.888   4.241
  534TCM     c1 2833   2.280   3.138   0.025
  534TCM    cl1 2834   2.154   3.156  -0.102
  534TCM    cl2 2835   2.235   3.235   0.169
  534TCM     h1 2836   2.289   3.033   0.053
  534TCM    cl3 2837   2.437   3.198  -0.038
  535TCM     c1 2838   2.585   4.258   1.064
  535TCM    cl1 2839   2.592   4.429   1.011
  535TCM    cl2 2840   2.543   4.155   0.923
  535TCM     h1 2841   2.682   4.227   1.105
  535TCM    cl3 2842   2.458   4.242   1.189
  536TCM     c1 2843   1.585   0.899   3.888
  536TCM    cl1 2844   1.632   0.727   3.909
  536TCM    cl2 2845   1.500   0.919   3.731
  536TCM     h1 2846   1.519   0.928   3.969
  536TCM    cl3 2847   1.732   1.002   3.891
  537TCM     c1 2848   1.576   1.047   2.651
  537TCM    cl1 2849   1.634   1.069   2.483
  537TCM    cl2 2850   1.510   0.881   2.670
  537TCM     h1 2851   1.659   1.061   2.720
  537TCM    cl3 2852   1.448   1.167   2.688
  538TCM     c1 2853   1.772   3.019   3.401
  538TCM    cl1 2854   1.645   2.997   3.276
  538TCM    cl2 2855   1.914   3.101   3.328
  538TCM     h1 2856   1.733   3.080   3.483
  538TCM    cl3 2857   1.822   2.859   3.464
  539TCM     c1 2858   3.739   4.230   2.932
  539TCM    cl1 2859   3.673   4.284   3.090
  539TCM    cl2 2860   3.780   4.372   2.831
  539TCM     h1 2861   3.828   4.170   2.949
  539TCM    cl3 2862   3.615   4.131   2.848
  540TCM     c1 2863   2.412   4.925   0.478
  540TCM    cl1 2864   2.545   4.977   0.587
  540TCM    cl2 2865   2.389   5.047   0.348
  540TCM     h1 2866   2.438   4.829   0.433
  540TCM    cl3 2867   2.261   4.909   0.573
  541TCM     c1 2868   1.539   3.748   3.917
  541TCM    cl1 2869   1.659   3.811   4.034
  541TCM    cl2 2870   1.497   3.578   3.958
  541TCM     h1 2871   1.448   3.809   3.921
  541TCM    cl3 2872   1.608   3.753   3.751
  542TCM     c1 2873   2.151   2.163   1.222
  542TCM    cl1 2874   2.205   2.290   1.337
  542TCM    cl2 2875   2.220   2.198   1.060
  542TCM     h1 2876   2.186   2.065   1.256
  542TCM    cl3 2877   1.972   2.163   1.212
  543TCM     c1 2878   3.011   0.076   3.483
  543TCM    cl1 2879   3.149   0.185   3.518
  543TCM    cl2 2880   2.857   0.156   3.526
  543TCM     h1 2881   3.011   0.051   3.377
  543TCM    cl3 2882   3.029  -0.073   3.581
  544TCM     c1 2883   1.875   1.334   2.108
  544TCM    cl1 2884   1.875   1.262   1.943
  544TCM    cl2 2885   1.781   1.486   2.108
  544TCM     h1 2886   1.830   1.263   2.178
  544TCM    cl3 2887   2.044   1.368   2.157
  545TCM     c1 2888   2.119   2.664   0.088
  545TCM    cl1 2889   2.195   2.729   0.237
  545TCM    cl2 2890   2.214   2.523   0.030
  545TCM     h1 2891   2.017   2.633   0.109
  545TCM    cl3 2892   2.119   2.791  -0.038
  546TCM     c1 2893   3.474   2.502   4.104
  546TCM    cl1 2894   3.533   2.589   4.250
  546TCM    cl2 2895   3.613   2.463   3.997
  546TCM     h1 2896   3.425   2.409   4.134
  546TCM    cl3 2897   3.358   2.605   4.015
  547TCM     c1 2898   0.761   0.480   1.746
  547TCM    cl1 2899   0.792   0.303   1.746
  547TCM    cl2 2900   0.639   0.520   1.871
  547TCM     h1 2901   0.854   0.533   1.768
  547TCM    cl3 2902   0.700   0.530   1.585
  548TCM     c1 2903   0.219   2.604   3.677
  548TCM    cl1 2904   0.351   2.692   3.761
  548TCM    cl2 2905   0.061   2.653   3.745
  548TCM     h1 2906   0.222   2.627   3.570
  548TCM    cl3 2907   0.241   2.427   3.701
  549TCM     c1 2908   4.467   4.784   0.671
  549TCM    cl1 2909   4.397   4.853   0.821
  549TCM    cl2 2910   4.606   4.884   0.617
  549TCM     h1 2911   4.500   4.682   0.689
  549TCM    cl3 2912   4.341   4.784   0.542
  550TCM     c1 2913   0.254   4.075   0.976
  550TCM    cl1 2914   0.144   3.973   0.878
  550TCM    cl2 2915   0.179   4.236   1.001
  550TCM     h1 2916   0.272   4.027   1.073
  550TCM    cl3 2917   0.410   4.095   0.889
  551TCM     c1 2918   2.165   2.123   3.603
  551TCM    cl1 2919   2.219   2.247   3.485
  551TCM    cl2 2920   2.301   2.081   3.712
  551TCM     h1 2921   2.081   2.162   3.662
  551TCM    cl3 2922   2.112   1.976   3.514
  552TCM     c1 2923   0.649   4.142   1.271
  552TCM    cl1 2924   0.562   3.998   1.208
  552TCM    cl2 2925   0.682   4.256   1.136
  552TCM     h1 2926   0.588   4.191   1.347
  552TCM    cl3 2927   0.804   4.090   1.344
  553TCM     c1 2928   1.455   3.795   0.549
  553TCM    cl1 2929   1.437   3.664   0.428
  553TCM    cl2 2930   1.622   3.859   0.547
  553TCM     h1 2931   1.384   3.876   0.527
  553TCM    cl3 2932   1.420   3.727   0.712
  554TCM     c1 2933   3.131   2.048   2.557
  554TCM    cl1 2934   3.195   2.008   2.394
  554TCM    cl2 2935   2.960   2.101   2.543
  554TCM     h1 2936   3.137   1.960   2.621
  554TCM    cl3 2937   3.226   2.182   2.628
  555TCM     c1 2938   1.859   2.583   2.324
  555TCM    cl1 2939   1.871   2.623   2.498
  555TCM    cl2 2940   1.712   2.484   2.296
  555TCM     h1 2941   1.852   2.676   2.266
  555TCM    cl3 2942   2.004   2.492   2.272
  556TCM     c1 2943   3.090   4.880   1.980
  556TCM    cl1 2944   2.994   5.005   1.894
  556TCM    cl2 2945   2.979   4.754   2.044
  556TCM     h1 2946   3.162   4.834   1.911
  556TCM    cl3 2947   3.177   4.956   2.117
  557TCM     c1 2948   0.931   2.456   4.399
  557TCM    cl1 2949   1.058   2.563   4.467
  557TCM    cl2 2950   0.994   2.370   4.254
  557TCM     h1 2951   0.900   2.383   4.474
  557TCM    cl3 2952   0.789   2.555   4.351
  558TCM     c1 2953   4.620   3.732   4.945
  558TCM    cl1 2954   4.755   3.652   5.033
  558TCM    cl2 2955   4.622   3.680   4.773
  558TCM     h1 2956   4.525   3.703   4.991
  558TCM    cl3 2957   4.641   3.910   4.954
  559TCM     c1 2958   0.250   1.758   3.570
  559TCM    cl1 2959   0.308   1.719   3.404
  559TCM    cl2 2960   0.071   1.760   3.572
  559TCM     h1 2961   0.287   1.682   3.640
  559TCM    cl3 2962   0.312   1.920   3.618
  560TCM     c1 2963   4.023   2.273   2.778
  560TCM    cl1 2964   4.198   2.246   2.746
  560TCM    cl2 2965   3.929   2.133   2.717
  560TCM     h1 2966   4.007   2.284   2.886
  560TCM    cl3 2967   3.971   2.423   2.694
  561TCM     c1 2968   1.425   2.655   0.183
  561TCM    cl1 2969   1.433   2.826   0.238
  561TCM    cl2 2970   1.267   2.626   0.102
  561TCM     h1 2971   1.507   2.636   0.113
  561TCM    cl3 2972   1.442   2.545   0.324
  562TCM     c1 2973   3.609   1.943   2.910
  562TCM    cl1 2974   3.507   2.071   2.838
  562TCM    cl2 2975   3.731   2.018   3.017
  562TCM     h1 2976   3.546   1.875   2.969
  562TCM    cl3 2977   3.690   1.852   2.779
  563TCM     c1 2978   2.544   4.930   0.955
  563TCM    cl1 2979   2.609   5.097   0.962
  563TCM    cl2 2980   2.483   4.883   1.118
  563TCM     h1 2981   2.462   4.926   0.883
  563TCM    cl3 2982   2.674   4.816   0.907
  564TCM     c1 2983   1.721   3.824   0.900
  564TCM    cl1 2984   1.734   3.743   1.060
  564TCM    cl2 2985   1.886   3.864   0.841
  564TCM     h1 2986   1.672   3.756   0.830
  564TCM    cl3 2987   1.625   3.974   0.916
  565TCM     c1 2988   0.195   2.997   4.851
  565TCM    cl1 2989   0.043   3.090   4.872
  565TCM    cl2 2990   0.175   2.832   4.919
  565TCM     h1 2991   0.218   2.989   4.744
  565TCM    cl3 2992   0.328   3.082   4.936
  566TCM     c1 2993   2.874   4.707   2.877
  566TCM    cl1 2994   2.920   4.880   2.881
  566TCM    cl2 2995   2.830   4.661   2.709
  566TCM     h1 2996   2.957   4.645   2.912
  566TCM    cl3 2997   2.731   4.683   2.984
  567TCM     c1 2998   4.519   3.836   3.441
  567TCM    cl1 2999   4.556   3.794   3.612
  567TCM    cl2 3000   4.422   3.987   3.438
  567TCM     h1 3001   4.612   3.850   3.387
  567TCM    cl3 3002   4.425   3.703   3.366
  568TCM     c1 3003   1.640   0.826   3.016
  568TCM    cl1 3004   1.728   0.975   2.970
  568TCM    cl2 3005   1.533   0.862   3.155
  568TCM     h1 3006   1.580   0.791   2.932
  568TCM    cl3 3007   1.759   0.700   3.062
  569TCM     c1 3008   3.219   2.579   4.448
  569TCM    cl1 3009   3.149   2.678   4.316
  569TCM    cl2 3010   3.243   2.411   4.390
  569TCM     h1 3011   3.316   2.621   4.478
  569TCM    cl3 3012   3.107   2.578   4.588
  570TCM     c1 3013   2.301   4.059   0.631
  570TCM    cl1 3014   2.376   3.924   0.540
  570TCM    cl2 3015   2.224   3.994   0.780
  570TCM     h1 3016   2.378   4.132   0.659
  570TCM    cl3 3017   2.177   4.139   0.529
  571TCM     c1 3018   3.379   1.645   0.117
  571TCM    cl1 3019   3.488   1.787   0.107
  571TCM    cl2 3020   3.299   1.621  -0.042
  571TCM     h1 3021   3.437   1.556   0.142
  571TCM    cl3 3022   3.255   1.673   0.244
  572TCM     c1 3023   2.536   1.733   3.751
  572TCM    cl1 3024   2.674   1.626   3.707
  572TCM    cl2 3025   2.437   1.653   3.877
  572TCM     h1 3026   2.574   1.828   3.789
  572TCM    cl3 3027   2.435   1.763   3.606
  573TCM     c1 3028   1.047   0.839   2.617
  573TCM    cl1 3029   1.157   0.738   2.518
  573TCM    cl2 3030   0.945   0.940   2.509
  573TCM     h1 3031   0.982   0.773   2.677
  573TCM    cl3 3032   1.142   0.944   2.726
  574TCM     c1 3033   2.598   4.215   0.127
  574TCM    cl1 3034   2.566   4.098   0.259
  574TCM    cl2 3035   2.459   4.216   0.014
  574TCM     h1 3036   2.611   4.315   0.169
  574TCM    cl3 3037   2.745   4.166   0.037
  575TCM     c1 3038   2.250   4.498   1.416
  575TCM    cl1 3039   2.387   4.425   1.506
  575TCM    cl2 3040   2.312   4.584   1.271
  575TCM     h1 3041   2.181   4.419   1.385
  575TCM    cl3 3042   2.166   4.614   1.524
  576TCM     c1 3043   0.933   2.584   4.886
  576TCM    cl1 3044   0.873   2.724   4.982
  576TCM    cl2 3045   0.809   2.536   4.765
  576TCM     h1 3046   1.026   2.610   4.836
  576TCM    cl3 3047   0.962   2.446   4.997
  577TCM     c1 3048   1.459   1.021   1.362
  577TCM    cl1 3049   1.489   1.160   1.253
  577TCM    cl2 3050   1.319   0.927   1.302
  577TCM     h1 3051   1.547   0.957   1.365
  577TCM    cl3 3052   1.424   1.082   1.528
  578TCM     c1 3053   0.216   3.437   3.602
  578TCM    cl1 3054   0.124   3.587   3.636
  578TCM    cl2 3055   0.248   3.426   3.426
  578TCM     h1 3056   0.311   3.438   3.657
  578TCM    cl3 3057   0.119   3.295   3.653
  579TCM     c1 3058   0.244   0.515   3.752
  579TCM    cl1 3059   0.222   0.633   3.619
  579TCM    cl2 3060   0.407   0.442   3.742
  579TCM     h1 3061   0.232   0.565   3.849
  579TCM    cl3 3062   0.120   0.386   3.737
  580TCM     c1 3063   4.330   0.047   3.035
  580TCM    cl1 3064   4.431   0.193   3.059
  580TCM    cl2 3065   4.437  -0.095   3.009
  580TCM     h1 3066   4.268   0.030   3.123
  580TCM    cl3 3067   4.224   0.071   2.892
  581TCM     c1 3068   3.207   3.968   1.373
  581TCM    cl1 3069   3.320   4.094   1.433
  581TCM    cl2 3070   3.288   3.808   1.371
  581TCM     h1 3071   3.119   3.964   1.438
  581TCM    cl3 3072   3.156   4.011   1.206
  582TCM     c1 3073   4.564   4.286   3.621
  582TCM    cl1 3074   4.586   4.440   3.712
  582TCM    cl2 3075   4.664   4.157   3.696
  582TCM     h1 3076   4.459   4.257   3.623
  582TCM    cl3 3077   4.617   4.311   3.451
  583TCM     c1 3078   1.021   3.627   0.282
  583TCM    cl1 3079   1.133   3.490   0.313
  583TCM    cl2 3080   0.965   3.622   0.112
  583TCM     h1 3081   0.935   3.620   0.349
  583TCM    cl3 3082   1.107   3.782   0.312
  584TCM     c1 3083   0.194   2.291   0.123
  584TCM    cl1 3084   0.173   2.144   0.224
  584TCM    cl2 3085   0.288   2.249  -0.024
  584TCM     h1 3086   0.097   2.331   0.095
  584TCM    cl3 3087   0.284   2.414   0.218
  585TCM     c1 3088   1.080   0.255   2.507
  585TCM    cl1 3089   0.926   0.166   2.487
  585TCM    cl2 3090   1.093   0.380   2.378
  585TCM     h1 3091   1.083   0.303   2.605
  585TCM    cl3 3092   1.217   0.140   2.491
  586TCM     c1 3093   0.945   1.211   4.137
  586TCM    cl1 3094   0.848   1.320   4.241
  586TCM    cl2 3095   0.999   1.299   3.991
  586TCM     h1 3096   1.033   1.177   4.193
  586TCM    cl3 3097   0.845   1.070   4.089
  587TCM     c1 3098   3.710   2.865   3.817
  587TCM    cl1 3099   3.600   2.764   3.717
  587TCM    cl2 3100   3.675   2.837   3.991
  587TCM     h1 3101   3.814   2.837   3.796
  587TCM    cl3 3102   3.685   3.038   3.779
  588TCM     c1 3103   2.027   3.482   4.996
  588TCM    cl1 3104   1.997   3.482   4.819
  588TCM    cl2 3105   1.900   3.385   5.079
  588TCM     h1 3106   2.126   3.438   5.016
  588TCM    cl3 3107   2.023   3.650   5.058
  589TCM     c1 3108   1.223   0.475   0.950
  589TCM    cl1 3109   1.332   0.509   0.811
  589TCM    cl2 3110   1.178   0.629   1.030
  589TCM     h1 3111   1.133   0.424   0.915
  589TCM    cl3 3112   1.310   0.371   1.068
  590TCM     c1 3113   0.542   3.702   0.291
  590TCM    cl1 3114   0.600   3.628   0.138
  590TCM    cl2 3115   0.680   3.723   0.402
  590TCM     h1 3116   0.495   3.799   0.270
  590TCM    cl3 3117   0.421   3.593   0.366
  591TCM     c1 3118   2.989   1.474   3.091
  591TCM    cl1 3119   2.972   1.650   3.122
  591TCM    cl2 3120   3.139   1.445   2.997
  591TCM     h1 3121   2.993   1.420   3.186
  591TCM    cl3 3122   2.848   1.418   2.996
  592TCM     c1 3123   2.735   4.702   0.144
  592TCM    cl1 3124   2.670   4.836   0.243
  592TCM    cl2 3125   2.776   4.764  -0.019
  592TCM     h1 3126   2.824   4.660   0.192
  592TCM    cl3 3127   2.609   4.575   0.130
  593TCM     c1 3128   3.375   3.384   3.153
  593TCM    cl1 3129   3.334   3.266   3.281
  593TCM    cl2 3130   3.553   3.409   3.149
  593TCM     h1 3131   3.342   3.346   3.056
  593TCM    cl3 3132   3.292   3.540   3.188
  594TCM     c1 3133   3.001   3.864   0.929
  594TCM    cl1 3134   2.893   4.007   0.942
  594TCM    cl2 3135   2.991   3.796   0.763
  594TCM     h1 3136   3.104   3.893   0.951
  594TCM    cl3 3137   2.948   3.738   1.045
  595TCM     c1 3138   4.460   4.431   1.069
  595TCM    cl1 3139   4.554   4.575   1.018
  595TCM    cl2 3140   4.550   4.343   1.197
  595TCM     h1 3141   4.363   4.462   1.108
  595TCM    cl3 3142   4.436   4.323   0.927
  596TCM     c1 3143   4.690   2.825   0.155
  596TCM    cl1 3144   4.707   2.870   0.328
  596TCM    cl2 3145   4.844   2.861   0.071
  596TCM     h1 3146   4.667   2.719   0.146
  596TCM    cl3 3147   4.558   2.922   0.082
  597TCM     c1 3148   3.032   0.868   2.096
  597TCM    cl1 3149   3.124   0.714   2.098
  597TCM    cl2 3150   3.081   0.966   1.954
  597TCM     h1 3151   2.925   0.847   2.090
  597TCM    cl3 3152   3.068   0.961   2.245
  598TCM     c1 3153   3.302   4.393   2.791
  598TCM    cl1 3154   3.153   4.491   2.770
  598TCM    cl2 3155   3.338   4.375   2.966
  598TCM     h1 3156   3.288   4.295   2.746
  598TCM    cl3 3157   3.439   4.478   2.711
  599TCM     c1 3158   3.615   3.350   3.593
  599TCM    cl1 3159   3.713   3.417   3.728
  599TCM    cl2 3160   3.724   3.285   3.466
  599TCM     h1 3161   3.551   3.270   3.631
  599TCM    cl3 3162   3.513   3.480   3.524
  600TCM     c1 3163   4.152   0.334   0.005
  600TCM    cl1 3164   4.276   0.353   0.133
  600TCM    cl2 3165   4.208   0.216  -0.117
  600TCM     h1 3166   4.059   0.299   0.050
  600TCM    cl3 3167   4.124   0.494  -0.072
  601TCM     c1 3168   3.240   2.909   3.032
  601TCM    cl1 3169   3.188   2.944   3.200
  601TCM    cl2 3170   3.270   3.065   2.947
  601TCM     h1 3171   3.332   2.850   3.033
  601TCM    cl3 3172   3.111   2.817   2.947
  602TCM     c1 3173   0.447   2.444   1.676
  602TCM    cl1 3174   0.585   2.459   1.562
  602TCM    cl2 3175   0.304   2.527   1.607
  602TCM     h1 3176   0.424   2.338   1.692
  602TCM    cl3 3177   0.491   2.521   1.832
  603TCM     c1 3178   0.174   4.342   2.937
  603TCM    cl1 3179   0.121   4.512   2.952
  603TCM    cl2 3180   0.330   4.322   3.023
  603TCM     h1 3181   0.099   4.275   2.979
  603TCM    cl3 3182   0.198   4.303   2.763
  604TCM     c1 3183   2.168   3.371   1.286
  604TCM    cl1 3184   2.209   3.254   1.157
  604TCM    cl2 3185   2.310   3.476   1.318
  604TCM     h1 3186   2.083   3.432   1.254
  604TCM    cl3 3187   2.125   3.282   1.436
  605TCM     c1 3188   0.208   1.437   2.380
  605TCM    cl1 3189   0.216   1.543   2.236
  605TCM    cl2 3190   0.357   1.336   2.389
  605TCM     h1 3191   0.200   1.499   2.470
  605TCM    cl3 3192   0.064   1.331   2.368
  606TCM     c1 3193   3.982   3.024   3.462
  606TCM    cl1 3194   3.841   2.913   3.459
  606TCM    cl2 3195   4.112   2.959   3.357
  606TCM     h1 3196   3.951   3.123   3.426
  606TCM    cl3 3197   4.041   3.038   3.631
  607TCM     c1 3198   1.594   3.419   3.589
  607TCM    cl1 3199   1.615   3.341   3.428
  607TCM    cl2 3200   1.673   3.317   3.714
  607TCM     h1 3201   1.640   3.518   3.588
  607TCM    cl3 3202   1.419   3.434   3.626
  608TCM     c1 3203   2.599   3.282   2.592
  608TCM    cl1 3204   2.486   3.352   2.713
  608TCM    cl2 3205   2.604   3.104   2.610
  608TCM     h1 3206   2.566   3.308   2.491
  608TCM    cl3 3207   2.764   3.349   2.620
  609TCM     c1 3208   1.798   2.960   0.148
  609TCM    cl1 3209   1.786   2.783   0.173
  609TCM    cl2 3210   1.803   2.995  -0.028
  609TCM     h1 3211   1.712   3.010   0.193
  609TCM    cl3 3212   1.949   3.020   0.225
  610TCM     c1 3213   4.740   0.572   2.710
  610TCM    cl1 3214   4.722   0.416   2.795
  610TCM    cl2 3215   4.606   0.591   2.592
  610TCM     h1 3216   4.736   0.654   2.782
  610TCM    cl3 3217   4.898   0.576   2.624
  611TCM     c1 3218   0.083   2.131   1.128
  611TCM    cl1 3219   0.115   2.163   0.954
  611TCM    cl2 3220   0.238   2.105   1.213
  611TCM     h1 3221   0.030   2.216   1.171
  611TCM    cl3 3222  -0.019   1.984   1.144
  612TCM     c1 3223   3.169   3.859   0.288
  612TCM    cl1 3224   3.166   3.681   0.266
  612TCM    cl2 3225   3.320   3.927   0.218
  612TCM     h1 3226   3.083   3.903   0.237
  612TCM    cl3 3227   3.161   3.897   0.463
  613TCM     c1 3228   2.688   4.036   3.338
  613TCM    cl1 3229   2.813   3.980   3.454
  613TCM    cl2 3230   2.726   3.973   3.175
  613TCM     h1 3231   2.590   3.999   3.370
  613TCM    cl3 3232   2.686   4.215   3.335
  614TCM     c1 3233   2.263   4.439   1.859
  614TCM    cl1 3234   2.363   4.364   1.988
  614TCM    cl2 3235   2.168   4.574   1.929
  614TCM     h1 3236   2.328   4.477   1.780
  614TCM    cl3 3237   2.150   4.317   1.791
  615TCM     c1 3238   1.545   1.780   0.642
  615TCM    cl1 3239   1.385   1.842   0.590
  615TCM    cl2 3240   1.521   1.646   0.759
  615TCM     h1 3241   1.600   1.743   0.555
  615TCM    cl3 3242   1.638   1.913   0.720
  616TCM     c1 3243   0.508   2.800   4.297
  616TCM    cl1 3244   0.531   2.766   4.122
  616TCM    cl2 3245   0.443   2.654   4.378
  616TCM     h1 3246   0.604   2.828   4.342
  616TCM    cl3 3247   0.391   2.935   4.316
  617TCM     c1 3248   0.485   1.485   4.437
  617TCM    cl1 3249   0.649   1.499   4.508
  617TCM    cl2 3250   0.382   1.389   4.548
  617TCM     h1 3251   0.442   1.584   4.424
  617TCM    cl3 3252   0.493   1.401   4.279
  618TCM     c1 3253   0.088   2.694   0.512
  618TCM    cl1 3254   0.036   2.673   0.341
  618TCM    cl2 3255   0.198   2.559   0.556
  618TCM     h1 3256   0.140   2.789   0.523
  618TCM    cl3 3257  -0.056   2.691   0.618
  619TCM     c1 3258   2.118   4.256   4.936
  619TCM    cl1 3259   2.132   4.079   4.909
  619TCM    cl2 3260   2.049   4.286   5.099
  619TCM     h1 3261   2.217   4.302   4.930
  619TCM    cl3 3262   2.012   4.327   4.811
  620TCM     c1 3263   2.851   3.205   3.035
  620TCM    cl1 3264   2.730   3.332   2.995
  620TCM    cl2 3265   2.997   3.282   3.104
  620TCM     h1 3266   2.808   3.136   3.107
  620TCM    cl3 3267   2.895   3.117   2.885
  621TCM     c1 3268   2.900   4.226   0.382
  621TCM    cl1 3269   2.973   4.223   0.546
  621TCM    cl2 3270   3.022   4.176   0.261
  621TCM     h1 3271   2.815   4.157   0.379
  621TCM    cl3 3272   2.843   4.392   0.344
  622TCM     c1 3273   3.341   4.387   0.374
  622TCM    cl1 3274   3.335   4.360   0.197
  622TCM    cl2 3275   3.343   4.229   0.458
  622TCM     h1 3276   3.432   4.443   0.399
  622TCM    cl3 3277   3.198   4.482   0.426
  623TCM     c1 3278   2.449   3.713   0.885
  623TCM    cl1 3279   2.599   3.804   0.847
  623TCM    cl2 3280   2.475   3.624   1.039
  623TCM     h1 3281   2.365   3.782   0.895
  623TCM    cl3 3282   2.416   3.596   0.753
  624TCM     c1 3283   3.998   3.763   3.448
  624TCM    cl1 3284   4.059   3.718   3.285
  624TCM    cl2 3285   4.129   3.742   3.569
  624TCM     h1 3286   3.966   3.867   3.447
  624TCM    cl3 3287   3.860   3.658   3.491
  625TCM     c1 3288   0.142   4.640   4.223
  625TCM    cl1 3289  -0.037   4.640   4.238
  625TCM    cl2 3290   0.210   4.752   4.345
  625TCM     h1 3291   0.180   4.539   4.240
  625TCM    cl3 3292   0.189   4.696   4.060
  626TCM     c1 3293   4.279   0.192   3.403
  626TCM    cl1 3294   4.319   0.017   3.402
  626TCM    cl2 3295   4.264   0.249   3.572
  626TCM     h1 3296   4.357   0.248   3.351
  626TCM    cl3 3297   4.122   0.215   3.319
  627TCM     c1 3298   2.386   2.593   3.256
  627TCM    cl1 3299   2.533   2.692   3.282
  627TCM    cl2 3300   2.285   2.598   3.404
  627TCM     h1 3301   2.329   2.634   3.172
  627TCM    cl3 3302   2.433   2.424   3.219
  628TCM     c1 3303   0.018   4.647   2.419
  628TCM    cl1 3304   0.130   4.768   2.349
  628TCM    cl2 3305   0.070   4.608   2.586
  628TCM     h1 3306  -0.084   4.688   2.420
  628TCM    cl3 3307   0.022   4.498   2.319
  629TCM     c1 3308   2.212   1.090   1.906
  629TCM    cl1 3309   2.113   0.988   1.796
  629TCM    cl2 3310   2.365   1.135   1.823
  629TCM     h1 3311   2.157   1.180   1.932
  629TCM    cl3 3312   2.251   0.997   2.054
  630TCM     c1 3313   0.420   2.372   2.670
  630TCM    cl1 3314   0.334   2.515   2.735
  630TCM    cl2 3315   0.305   2.273   2.573
  630TCM     h1 3316   0.503   2.405   2.606
  630TCM    cl3 3317   0.483   2.271   2.804
  631TCM     c1 3318   1.252   4.071   0.905
  631TCM    cl1 3319   1.287   4.061   0.729
  631TCM    cl2 3320   1.253   3.907   0.977
  631TCM     h1 3321   1.327   4.133   0.954
  631TCM    cl3 3322   1.089   4.144   0.928
  632TCM     c1 3323   2.528   3.277   0.463
  632TCM    cl1 3324   2.558   3.359   0.306
  632TCM    cl2 3325   2.357   3.300   0.513
  632TCM     h1 3326   2.548   3.170   0.452
  632TCM    cl3 3327   2.636   3.346   0.589
  633TCM     c1 3328   0.801   0.655   0.920
  633TCM    cl1 3329   0.851   0.482   0.918
  633TCM    cl2 3330   0.810   0.718   1.088
  633TCM     h1 3331   0.868   0.712   0.856
  633TCM    cl3 3332   0.632   0.669   0.861
  634TCM     c1 3333   0.128   2.279   2.920
  634TCM    cl1 3334   0.175   2.394   3.050
  634TCM    cl2 3335   0.008   2.357   2.812
  634TCM     h1 3336   0.217   2.251   2.862
  634TCM    cl3 3337   0.057   2.132   2.993
  635TCM     c1 3338   2.516   0.838   3.195
  635TCM    cl1 3339   2.645   0.953   3.241
  635TCM    cl2 3340   2.401   0.819   3.332
  635TCM     h1 3341   2.462   0.876   3.108
  635TCM    cl3 3342   2.588   0.678   3.157
  636TCM     c1 3343   0.279   0.990   2.082
  636TCM    cl1 3344   0.257   1.167   2.089
  636TCM    cl2 3345   0.398   0.950   1.953
  636TCM     h1 3346   0.316   0.953   2.178
  636TCM    cl3 3347   0.121   0.913   2.044
  637TCM     c1 3348   4.018   0.285   4.498
  637TCM    cl1 3349   4.182   0.213   4.508
  637TCM    cl2 3350   4.015   0.441   4.587
  637TCM     h1 3351   3.992   0.303   4.393
  637TCM    cl3 3352   3.898   0.172   4.570
  638TCM     c1 3353   4.996   0.854   4.931
  638TCM    cl1 3354   5.078   0.707   4.870
  638TCM    cl2 3355   5.087   0.920   5.071
  638TCM     h1 3356   4.993   0.929   4.851
  638TCM    cl3 3357   4.829   0.813   4.982
  639TCM     c1 3358   2.847   0.140   1.438
  639TCM    cl1 3359   2.894   0.313   1.427
  639TCM    cl2 3360   2.734   0.101   1.304
  639TCM     h1 3361   2.936   0.078   1.429
  639TCM    cl3 3362   2.767   0.108   1.595
  640TCM     c1 3363   2.088   1.155   3.675
  640TCM    cl1 3364   2.103   1.092   3.843
  640TCM    cl2 3365   1.922   1.215   3.647
  640TCM     h1 3366   2.160   1.236   3.661
  640TCM    cl3 3367   2.124   1.023   3.560
   5.00000   5.00000   5.00000
