FOO
 3367
    1MOP     C1    1   1.649   2.052   3.060
    1MOP     O2    2   1.528   1.973   3.055
    1MOP     C3    3   1.513   1.872   3.150
    1MOP     C4    4   1.608   1.844   3.251
    1MOP     C5    5   1.585   1.738   3.342
    1MOP     C6    6   1.468   1.659   3.335
    1MOP     C7    7   1.456   1.543   3.431
    1MOP     C8    8   1.508   1.555   3.562
    1MOP     C9    9   1.508   1.444   3.652
    1MOP    C10   10   1.565   1.457   3.788
    1MOP    O11   11   1.604   1.567   3.827
    1MOP    C12   12   1.453   1.321   3.608
    1MOP    C13   13   1.400   1.309   3.479
    1MOP    C14   14   1.402   1.418   3.390
    1MOP    C15   15   1.371   1.690   3.235
    1MOP    C16   16   1.242   1.617   3.221
    1MOP    C17   17   1.210   1.555   3.098
    1MOP    C18   18   1.089   1.483   3.083
    1MOP    C19   19   1.064   1.408   2.952
    1MOP    C20   20   1.131   1.269   2.960
    1MOP    N21   21   0.922   1.391   2.918
    1MOP    C22   22   0.999   1.476   3.191
    1MOP    C23   23   1.029   1.540   3.313
    1MOP    C24   24   1.150   1.611   3.328
    1MOP    C25   25   1.396   1.795   3.144
    1MOP    H26   26   1.736   1.987   3.047
    1MOP    H27   27   1.654   2.106   3.155
    1MOP    H28   28   1.646   2.124   2.978
    1MOP    H29   29   1.700   1.900   3.261
    1MOP    H30   30   1.663   1.715   3.414
    1MOP    H31   31   1.549   1.650   3.595
    1MOP    H32   32   1.452   1.235   3.674
    1MOP    H33   33   1.360   1.213   3.445
    1MOP    H34   34   1.366   1.404   3.289
    1MOP    H35   35   1.281   1.560   3.016
    1MOP    H36   36   1.112   1.464   2.871
    1MOP    H37   37   1.114   1.216   2.866
    1MOP    H38   38   1.238   1.282   2.976
    1MOP    H39   39   1.088   1.213   3.043
    1MOP    H40   40   0.890   1.299   2.889
    1MOP    H41   41   0.906   1.420   3.182
    1MOP    H42   42   0.959   1.535   3.396
    1MOP    H43   43   1.174   1.660   3.422
    1MOP    H44   44   1.323   1.819   3.067
    2MOP    C45   45  -0.003   1.103   3.214
    2MOP    O46   46   0.121   1.043   3.167
    2MOP    C47   47   0.206   1.123   3.092
    2MOP    C48   48   0.178   1.258   3.058
    2MOP    C49   49   0.270   1.332   2.981
    2MOP    C50   50   0.388   1.273   2.932
    2MOP    C51   51   0.483   1.356   2.854
    2MOP    C52   52   0.613   1.383   2.904
    2MOP    C53   53   0.702   1.464   2.830
    2MOP    C54   54   0.837   1.495   2.882
    2MOP    O55   55   0.874   1.611   2.891
    2MOP    C56   56   0.662   1.516   2.705
    2MOP    C57   57   0.533   1.488   2.654
    2MOP    C58   58   0.444   1.408   2.729
    2MOP    C59   59   0.417   1.138   2.966
    2MOP    C60   60   0.536   1.070   2.910
    2MOP    C61   61   0.553   1.064   2.770
    2MOP    C62   62   0.672   1.013   2.714
    2MOP    C63   63   0.692   1.028   2.563
    2MOP    C64   64   0.814   1.117   2.534
    2MOP    N65   65   0.698   0.908   2.476
    2MOP    C66   66   0.774   0.966   2.801
    2MOP    C67   67   0.754   0.965   2.940
    2MOP    C68   68   0.635   1.017   2.995
    2MOP    C69   69   0.326   1.065   3.047
    2MOP    H70   70  -0.063   1.137   3.129
    2MOP    H71   71   0.019   1.186   3.282
    2MOP    H72   72  -0.059   1.027   3.269
    2MOP    H73   73   0.088   1.308   3.090
    2MOP    H74   74   0.249   1.436   2.958
    2MOP    H75   75   0.642   1.342   3.000
    2MOP    H76   76   0.730   1.579   2.648
    2MOP    H77   77   0.503   1.527   2.557
    2MOP    H78   78   0.345   1.386   2.690
    2MOP    H79   79   0.475   1.104   2.706
    2MOP    H80   80   0.607   1.085   2.525
    2MOP    H81   81   0.819   1.137   2.426
    2MOP    H82   82   0.801   1.212   2.587
    2MOP    H83   83   0.905   1.067   2.567
    2MOP    H84   84   0.682   0.923   2.377
    2MOP    H85   85   0.870   0.932   2.762
    2MOP    H86   86   0.832   0.926   3.006
    2MOP    H87   87   0.623   1.021   3.103
    2MOP    H88   88   0.348   0.961   3.071
    3MOP    C89   89   1.485   0.259   2.201
    3MOP    O90   90   1.407   0.324   2.098
    3MOP    C91   91   1.285   0.380   2.136
    3MOP    C92   92   1.232   0.375   2.267
    3MOP    C93   93   1.107   0.434   2.295
    3MOP    C94   94   1.033   0.500   2.195
    3MOP    C95   95   0.900   0.558   2.230
    3MOP    C96   96   0.884   0.629   2.351
    3MOP    C97   97   0.762   0.692   2.383
    3MOP    C98   98   0.755   0.784   2.498
    3MOP    O99   99   0.831   0.765   2.593
    3MOP   C100  100   0.651   0.676   2.297
    3MOP   C101  101   0.664   0.601   2.178
    3MOP   C102  102   0.789   0.545   2.143
    3MOP   C103  103   1.090   0.510   2.064
    3MOP   C104  104   1.026   0.587   1.955
    3MOP   C105  105   0.998   0.526   1.831
    3MOP   C106  106   0.931   0.596   1.729
    3MOP   C107  107   0.897   0.526   1.598
    3MOP   C108  108   0.755   0.467   1.609
    3MOP   N109  109   0.899   0.613   1.479
    3MOP   C110  110   0.890   0.730   1.753
    3MOP   C111  111   0.921   0.793   1.875
    3MOP   C112  112   0.990   0.723   1.975
    3MOP   C113  113   1.213   0.447   2.036
    3MOP   H114  114   1.430   0.174   2.243
    3MOP   H115  115   1.511   0.331   2.279
    3MOP   H116  116   1.577   0.221   2.156
    3MOP   H117  117   1.284   0.324   2.348
    3MOP   H118  118   1.067   0.426   2.396
    3MOP   H119  119   0.969   0.640   2.417
    3MOP   H120  120   0.555   0.721   2.321
    3MOP   H121  121   0.579   0.588   2.111
    3MOP   H122  122   0.798   0.491   2.050
    3MOP   H123  123   1.026   0.422   1.816
    3MOP   H124  124   0.967   0.443   1.582
    3MOP   H125  125   0.735   0.407   1.520
    3MOP   H126  126   0.749   0.404   1.698
    3MOP   H127  127   0.682   0.548   1.616
    3MOP   H128  128   0.841   0.586   1.400
    3MOP   H129  129   0.835   0.785   1.677
    3MOP   H130  130   0.892   0.896   1.891
    3MOP   H131  131   1.014   0.772   2.069
    3MOP   H132  132   1.256   0.454   1.937
    4MOP   C133  133   0.470   1.504   1.204
    4MOP   O134  134   0.428   1.366   1.219
    4MOP   C135  135   0.528   1.269   1.225
    4MOP   C136  136   0.666   1.298   1.236
    4MOP   C137  137   0.761   1.194   1.237
    4MOP   C138  138   0.720   1.059   1.227
    4MOP   C139  139   0.826   0.956   1.218
    4MOP   C140  140   0.871   0.891   1.335
    4MOP   C141  141   0.967   0.789   1.327
    4MOP   C142  142   0.994   0.707   1.446
    4MOP   O143  143   1.096   0.722   1.512
    4MOP   C144  144   1.027   0.757   1.203
    4MOP   C145  145   0.986   0.826   1.087
    4MOP   C146  146   0.885   0.924   1.094
    4MOP   C147  147   0.581   1.028   1.220
    4MOP   C148  148   0.531   0.888   1.207
    4MOP   C149  149   0.440   0.855   1.103
    4MOP   C150  150   0.392   0.722   1.088
    4MOP   C151  151   0.291   0.690   0.977
    4MOP   C152  152   0.364   0.633   0.853
    4MOP   N153  153   0.179   0.607   1.029
    4MOP   C154  154   0.440   0.622   1.176
    4MOP   C155  155   0.526   0.655   1.282
    4MOP   C156  156   0.569   0.788   1.299
    4MOP   C157  157   0.487   1.134   1.219
    4MOP   H158  158   0.532   1.515   1.115
    4MOP   H159  159   0.524   1.537   1.293
    4MOP   H160  160   0.381   1.566   1.193
    4MOP   H161  161   0.703   1.400   1.242
    4MOP   H162  162   0.867   1.218   1.243
    4MOP   H163  163   0.826   0.917   1.431
    4MOP   H164  164   1.102   0.679   1.196
    4MOP   H165  165   1.032   0.802   0.991
    4MOP   H166  166   0.852   0.975   1.004
    4MOP   H167  167   0.409   0.932   1.033
    4MOP   H168  168   0.246   0.784   0.946
    4MOP   H169  169   0.289   0.600   0.780
    4MOP   H170  170   0.425   0.712   0.809
    4MOP   H171  171   0.429   0.550   0.881
    4MOP   H172  172   0.108   0.650   1.087
    4MOP   H173  173   0.409   0.518   1.164
    4MOP   H174  174   0.558   0.578   1.352
    4MOP   H175  175   0.630   0.812   1.385
    4MOP   H176  176   0.381   1.113   1.213
    5CAP   C177  177   1.626   1.363   4.001
    5CAP   O178  178   1.570   1.345   3.868
    5CAP   H179  179   1.730   1.398   3.993
    5CAP   H180  180   1.625   1.267   4.052
    5CAP   H181  181   1.566   1.435   4.057
    6CAP   C182  182   0.390   0.198   0.932
    6CAP   C183  183   0.266   0.248   1.010
    6CAP   C184  184   0.141   0.184   0.943
    6CAP   C185  185   0.284   0.204   1.158
    6CAP   O186  186   0.274   0.393   0.994
    6CAP   C187  187   0.173   0.471   1.044
    6CAP   O188  188   0.076   0.432   1.106
    6CAP   H189  189   0.397   0.089   0.938
    6CAP   H190  190   0.381   0.229   0.828
    6CAP   H191  191   0.480   0.243   0.975
    6CAP   H192  192   0.130   0.223   0.842
    6CAP   H193  193   0.051   0.205   1.001
    6CAP   H194  194   0.154   0.075   0.939
    6CAP   H195  195   0.373   0.252   1.199
    6CAP   H196  196   0.197   0.233   1.216
    6CAP   H197  197   0.295   0.096   1.163
    7TCM     c1  198   4.441   0.529   2.736
    7TCM    cl1  199   4.536   0.511   2.585
    7TCM    cl2  200   4.359   0.688   2.736
    7TCM     h1  201   4.367   0.450   2.742
    7TCM    cl3  202   4.553   0.518   2.877
    8TCM     c1  203   1.593   2.366   4.204
    8TCM    cl1  204   1.493   2.329   4.348
    8TCM    cl2  205   1.679   2.522   4.228
    8TCM     h1  206   1.666   2.286   4.190
    8TCM    cl3  207   1.487   2.378   4.060
    9TCM     c1  208   1.754   2.277   0.858
    9TCM    cl1  209   1.781   2.129   0.957
    9TCM    cl2  210   1.895   2.302   0.750
    9TCM     h1  211   1.663   2.265   0.798
    9TCM    cl3  212   1.737   2.418   0.966
   10TCM     c1  213   2.796   0.536   3.556
   10TCM    cl1  214   2.836   0.679   3.656
   10TCM    cl2  215   2.886   0.393   3.617
   10TCM     h1  216   2.689   0.516   3.561
   10TCM    cl3  217   2.845   0.567   3.387
   11TCM     c1  218   2.244   1.746   2.823
   11TCM    cl1  219   2.313   1.672   2.675
   11TCM    cl2  220   2.371   1.750   2.950
   11TCM     h1  221   2.211   1.848   2.801
   11TCM    cl3  222   2.104   1.649   2.880
   12TCM     c1  223   0.042   1.382   0.081
   12TCM    cl1  224   0.120   1.496  -0.034
   12TCM    cl2  225   0.162   1.327   0.202
   12TCM     h1  226  -0.041   1.432   0.132
   12TCM    cl3  227  -0.021   1.241  -0.011
   13TCM     c1  228   2.901   0.687   2.510
   13TCM    cl1  229   2.772   0.783   2.430
   13TCM    cl2  230   2.828   0.548   2.597
   13TCM     h1  231   2.972   0.651   2.435
   13TCM    cl3  232   2.988   0.791   2.628
   14TCM     c1  233   3.477   3.995   4.642
   14TCM    cl1  234   3.453   3.945   4.471
   14TCM    cl2  235   3.443   4.171   4.658
   14TCM     h1  236   3.409   3.939   4.706
   14TCM    cl3  237   3.646   3.963   4.690
   15TCM     c1  238   0.394   3.912   3.294
   15TCM    cl1  239   0.358   3.764   3.200
   15TCM    cl2  240   0.382   4.054   3.185
   15TCM     h1  241   0.322   3.923   3.376
   15TCM    cl3  242   0.560   3.902   3.361
   16TCM     c1  243   4.020   1.105   2.328
   16TCM    cl1  244   4.060   1.189   2.481
   16TCM    cl2  245   4.161   1.114   2.218
   16TCM     h1  246   3.996   1.001   2.349
   16TCM    cl3  247   3.879   1.186   2.251
   17TCM     c1  248   4.998   2.864   4.305
   17TCM    cl1  249   4.838   2.848   4.226
   17TCM    cl2  250   5.009   2.750   4.443
   17TCM     h1  251   5.077   2.842   4.233
   17TCM    cl3  252   5.017   3.032   4.367
   18TCM     c1  253   0.438   2.663   1.221
   18TCM    cl1  254   0.481   2.755   1.369
   18TCM    cl2  255   0.412   2.490   1.263
   18TCM     h1  256   0.347   2.704   1.178
   18TCM    cl3  257   0.572   2.675   1.103
   19TCM     c1  258   1.292   1.717   2.055
   19TCM    cl1  259   1.268   1.603   1.919
   19TCM    cl2  260   1.465   1.719   2.101
   19TCM     h1  261   1.261   1.818   2.025
   19TCM    cl3  262   1.195   1.664   2.196
   20TCM     c1  263   4.572   4.439   0.494
   20TCM    cl1  264   4.640   4.559   0.609
   20TCM    cl2  265   4.673   4.436   0.346
   20TCM     h1  266   4.573   4.340   0.541
   20TCM    cl3  267   4.404   4.484   0.453
   21TCM     c1  268   2.506   0.201   3.744
   21TCM    cl1  269   2.653   0.227   3.844
   21TCM    cl2  270   2.526   0.288   3.589
   21TCM     h1  271   2.493   0.095   3.726
   21TCM    cl3  272   2.364   0.266   3.831
   22TCM     c1  273   2.862   1.579   2.786
   22TCM    cl1  274   3.021   1.650   2.830
   22TCM    cl2  275   2.846   1.417   2.860
   22TCM     h1  276   2.782   1.644   2.823
   22TCM    cl3  277   2.850   1.566   2.608
   23TCM     c1  278   0.742   2.988   4.689
   23TCM    cl1  279   0.897   2.941   4.765
   23TCM    cl2  280   0.737   2.926   4.521
   23TCM     h1  281   0.658   2.946   4.746
   23TCM    cl3  282   0.729   3.166   4.686
   24TCM     c1  283   4.512   3.358   2.016
   24TCM    cl1  284   4.405   3.434   2.138
   24TCM    cl2  285   4.411   3.284   1.887
   24TCM     h1  286   4.577   3.434   1.972
   24TCM    cl3  287   4.612   3.231   2.094
   25TCM     c1  288   0.488   3.818   4.611
   25TCM    cl1  289   0.368   3.690   4.648
   25TCM    cl2  290   0.412   3.980   4.632
   25TCM     h1  291   0.574   3.809   4.678
   25TCM    cl3  292   0.542   3.801   4.441
   26TCM     c1  293   2.087   1.012   3.326
   26TCM    cl1  294   2.234   1.092   3.260
   26TCM    cl2  295   2.130   0.844   3.375
   26TCM     h1  296   2.050   1.067   3.412
   26TCM    cl3  297   1.961   1.007   3.198
   27TCM     c1  298   1.099   1.969   2.495
   27TCM    cl1  299   1.271   1.931   2.462
   27TCM    cl2  300   1.004   1.949   2.344
   27TCM     h1  301   1.060   1.902   2.572
   27TCM    cl3  302   1.085   2.139   2.551
   28TCM     c1  303   3.147   4.655   4.535
   28TCM    cl1  304   3.155   4.659   4.356
   28TCM    cl2  305   3.062   4.506   4.588
   28TCM     h1  306   3.248   4.656   4.575
   28TCM    cl3  307   3.057   4.799   4.594
   29TCM     c1  308   2.652   2.554   2.089
   29TCM    cl1  309   2.490   2.479   2.070
   29TCM    cl2  310   2.641   2.688   2.208
   29TCM     h1  311   2.724   2.479   2.125
   29TCM    cl3  312   2.707   2.618   1.931
   30TCM     c1  313   2.671   2.221   4.898
   30TCM    cl1  314   2.678   2.117   5.043
   30TCM    cl2  315   2.821   2.320   4.889
   30TCM     h1  316   2.663   2.159   4.808
   30TCM    cl3  317   2.528   2.329   4.909
   31TCM     c1  318   4.910   0.231   1.312
   31TCM    cl1  319   4.941   0.068   1.242
   31TCM    cl2  320   4.923   0.222   1.491
   31TCM     h1  321   4.984   0.302   1.274
   31TCM    cl3  322   4.746   0.285   1.266
   32TCM     c1  323   3.080   0.489   1.054
   32TCM    cl1  324   3.068   0.311   1.039
   32TCM    cl2  325   2.942   0.550   1.152
   32TCM     h1  326   3.174   0.516   1.103
   32TCM    cl3  327   3.075   0.562   0.890
   33TCM     c1  328   3.961   3.467   1.826
   33TCM    cl1  329   3.846   3.605   1.831
   33TCM    cl2  330   4.067   3.472   1.971
   33TCM     h1  331   3.905   3.373   1.824
   33TCM    cl3  332   4.062   3.480   1.678
   34TCM     c1  333   1.147   0.795   3.345
   34TCM    cl1  334   0.979   0.761   3.291
   34TCM    cl2  335   1.145   0.850   3.515
   34TCM     h1  336   1.207   0.704   3.337
   34TCM    cl3  337   1.219   0.923   3.241
   35TCM     c1  338   2.798   3.682   3.214
   35TCM    cl1  339   2.939   3.771   3.147
   35TCM    cl2  340   2.694   3.797   3.304
   35TCM     h1  341   2.741   3.637   3.132
   35TCM    cl3  342   2.855   3.554   3.325
   36TCM     c1  343   0.273   1.047   2.364
   36TCM    cl1  344   0.347   0.898   2.430
   36TCM    cl2  345   0.383   1.117   2.241
   36TCM     h1  346   0.176   1.023   2.319
   36TCM    cl3  347   0.251   1.165   2.497
   37TCM     c1  348   4.830   1.855   1.919
   37TCM    cl1  349   4.654   1.888   1.933
   37TCM    cl2  350   4.857   1.719   1.805
   37TCM     h1  351   4.881   1.944   1.882
   37TCM    cl3  352   4.896   1.812   2.080
   38TCM     c1  353   1.499   3.583   1.928
   38TCM    cl1  354   1.522   3.466   2.062
   38TCM    cl2  355   1.450   3.742   1.996
   38TCM     h1  356   1.592   3.595   1.873
   38TCM    cl3  357   1.370   3.523   1.818
   39TCM     c1  358   3.664   1.299   1.970
   39TCM    cl1  359   3.732   1.138   1.929
   39TCM    cl2  360   3.491   1.281   2.013
   39TCM     h1  361   3.719   1.342   2.054
   39TCM    cl3  362   3.679   1.407   1.827
   40TCM     c1  363   0.857   1.992   2.015
   40TCM    cl1  364   0.758   1.974   1.866
   40TCM    cl2  365   0.827   2.152   2.088
   40TCM     h1  366   0.830   1.914   2.086
   40TCM    cl3  367   1.031   1.975   1.973
   41TCM     c1  368   2.425   3.853   1.738
   41TCM    cl1  369   2.405   3.948   1.587
   41TCM    cl2  370   2.421   3.678   1.698
   41TCM     h1  371   2.520   3.878   1.785
   41TCM    cl3  372   2.290   3.891   1.850
   42TCM     c1  373   0.871   4.554   0.996
   42TCM    cl1  374   1.009   4.609   0.895
   42TCM    cl2  375   0.758   4.691   1.023
   42TCM     h1  376   0.818   4.473   0.945
   42TCM    cl3  377   0.933   4.495   1.154
   43TCM     c1  378   0.354   1.036   4.646
   43TCM    cl1  379   0.236   0.909   4.602
   43TCM    cl2  380   0.477   0.967   4.758
   43TCM     h1  381   0.404   1.073   4.556
   43TCM    cl3  382   0.269   1.171   4.727
   44TCM     c1  383   1.284   3.782   4.496
   44TCM    cl1  384   1.137   3.882   4.526
   44TCM    cl2  385   1.428   3.869   4.557
   44TCM     h1  386   1.274   3.687   4.548
   44TCM    cl3  387   1.302   3.754   4.320
   45TCM     c1  388   0.454   0.607   4.653
   45TCM    cl1  389   0.598   0.519   4.713
   45TCM    cl2  390   0.312   0.498   4.657
   45TCM     h1  391   0.435   0.694   4.716
   45TCM    cl3  392   0.483   0.660   4.484
   46TCM     c1  393   1.040   4.331   2.012
   46TCM    cl1  394   1.020   4.214   2.147
   46TCM    cl2  395   1.045   4.242   1.856
   46TCM     h1  396   0.957   4.401   2.012
   46TCM    cl3  397   1.194   4.420   2.033
   47TCM     c1  398   3.565   3.926   0.059
   47TCM    cl1  399   3.543   3.914   0.236
   47TCM    cl2  400   3.505   4.086   0.004
   47TCM     h1  401   3.671   3.915   0.034
   47TCM    cl3  402   3.471   3.797  -0.023
   48TCM     c1  403   1.389   1.462   1.395
   48TCM    cl1  404   1.457   1.297   1.373
   48TCM    cl2  405   1.371   1.495   1.571
   48TCM     h1  406   1.458   1.535   1.351
   48TCM    cl3  407   1.229   1.474   1.315
   49TCM     c1  408   3.458   0.467   2.082
   49TCM    cl1  409   3.520   0.616   2.160
   49TCM    cl2  410   3.510   0.462   1.910
   49TCM     h1  411   3.496   0.380   2.135
   49TCM    cl3  412   3.279   0.468   2.089
   50TCM     c1  413   0.366   0.705   1.917
   50TCM    cl1  414   0.517   0.699   1.820
   50TCM    cl2  415   0.392   0.804   2.063
   50TCM     h1  416   0.285   0.748   1.857
   50TCM    cl3  417   0.320   0.539   1.967
   51TCM     c1  418   3.589   2.416   1.163
   51TCM    cl1  419   3.422   2.472   1.131
   51TCM    cl2  420   3.662   2.515   1.294
   51TCM     h1  421   3.587   2.311   1.194
   51TCM    cl3  422   3.687   2.433   1.014
   52TCM     c1  423   0.058   1.620   3.199
   52TCM    cl1  424  -0.030   1.491   3.287
   52TCM    cl2  425   0.019   1.612   3.024
   52TCM     h1  426   0.028   1.718   3.238
   52TCM    cl3  427   0.235   1.598   3.223
   53TCM     c1  428   2.000   3.504   2.040
   53TCM    cl1  429   1.987   3.340   1.968
   53TCM    cl2  430   1.863   3.605   1.981
   53TCM     h1  431   1.996   3.497   2.149
   53TCM    cl3  432   2.155   3.579   1.990
   54TCM     c1  433   0.522   0.110   4.534
   54TCM    cl1  434   0.383   0.048   4.439
   54TCM    cl2  435   0.461   0.166   4.693
   54TCM     h1  436   0.595   0.031   4.548
   54TCM    cl3  437   0.597   0.249   4.449
   55TCM     c1  438   4.548   0.386   4.373
   55TCM    cl1  439   4.474   0.239   4.446
   55TCM    cl2  440   4.480   0.412   4.210
   55TCM     h1  441   4.526   0.473   4.436
   55TCM    cl3  442   4.725   0.362   4.361
   56TCM     c1  443   3.737   4.785   1.424
   56TCM    cl1  444   3.813   4.739   1.579
   56TCM    cl2  445   3.713   4.638   1.324
   56TCM     h1  446   3.640   4.833   1.443
   56TCM    cl3  447   3.844   4.900   1.337
   57TCM     c1  448   4.686   4.477   4.702
   57TCM    cl1  449   4.842   4.389   4.711
   57TCM    cl2  450   4.598   4.457   4.857
   57TCM     h1  451   4.705   4.583   4.684
   57TCM    cl3  452   4.586   4.410   4.568
   58TCM     c1  453   3.737   4.210   1.479
   58TCM    cl1  454   3.695   4.347   1.587
   58TCM    cl2  455   3.766   4.272   1.313
   58TCM     h1  456   3.827   4.160   1.516
   58TCM    cl3  457   3.600   4.094   1.476
   59TCM     c1  458   3.662   3.896   3.162
   59TCM    cl1  459   3.514   3.917   3.261
   59TCM    cl2  460   3.739   3.739   3.200
   59TCM     h1  461   3.635   3.899   3.056
   59TCM    cl3  462   3.777   4.029   3.198
   60TCM     c1  463   0.143   0.697   3.176
   60TCM    cl1  464   0.026   0.568   3.133
   60TCM    cl2  465   0.289   0.676   3.074
   60TCM     h1  466   0.099   0.795   3.158
   60TCM    cl3  467   0.188   0.682   3.350
   61TCM     c1  468   3.179   2.537   2.733
   61TCM    cl1  469   3.067   2.402   2.695
   61TCM    cl2  470   3.084   2.680   2.786
   61TCM     h1  471   3.247   2.507   2.813
   61TCM    cl3  472   3.273   2.580   2.586
   62TCM     c1  473   3.677   2.330   2.425
   62TCM    cl1  474   3.625   2.488   2.492
   62TCM    cl2  475   3.755   2.235   2.555
   62TCM     h1  476   3.590   2.276   2.387
   62TCM    cl3  477   3.795   2.355   2.293
   63TCM     c1  478   0.175   0.502   2.308
   63TCM    cl1  479   0.325   0.514   2.406
   63TCM    cl2  480   0.122   0.667   2.258
   63TCM     h1  481   0.194   0.442   2.220
   63TCM    cl3  482   0.045   0.426   2.407
   64TCM     c1  483   0.590   0.111   2.672
   64TCM    cl1  484   0.671   0.153   2.826
   64TCM    cl2  485   0.425   0.183   2.670
   64TCM     h1  486   0.648   0.150   2.588
   64TCM    cl3  487   0.577  -0.068   2.658
   65TCM     c1  488   0.042   3.638   0.973
   65TCM    cl1  489   0.066   3.556   1.130
   65TCM    cl2  490   0.155   3.777   0.959
   65TCM     h1  491   0.061   3.568   0.891
   65TCM    cl3  492  -0.127   3.699   0.961
   66TCM     c1  493   1.453   3.463   0.708
   66TCM    cl1  494   1.590   3.522   0.608
   66TCM    cl2  495   1.301   3.469   0.613
   66TCM     h1  496   1.473   3.361   0.739
   66TCM    cl3  497   1.436   3.568   0.853
   67TCM     c1  498   2.937   4.304   3.866
   67TCM    cl1  499   2.788   4.236   3.941
   67TCM    cl2  500   3.078   4.270   3.972
   67TCM     h1  501   2.953   4.258   3.768
   67TCM    cl3  502   2.918   4.481   3.847
   68TCM     c1  503   4.762   1.760   4.994
   68TCM    cl1  504   4.602   1.811   4.931
   68TCM    cl2  505   4.889   1.805   4.875
   68TCM     h1  506   4.781   1.809   5.089
   68TCM    cl3  507   4.761   1.582   5.016
   69TCM     c1  508   2.822   4.602   4.235
   69TCM    cl1  509   2.768   4.652   4.399
   69TCM    cl2  510   2.682   4.601   4.122
   69TCM     h1  511   2.897   4.673   4.199
   69TCM    cl3  512   2.892   4.438   4.243
   70TCM     c1  513   3.832   4.081   1.919
   70TCM    cl1  514   3.773   4.207   2.033
   70TCM    cl2  515   3.941   4.156   1.798
   70TCM     h1  516   3.886   4.004   1.974
   70TCM    cl3  517   3.691   4.008   1.835
   71TCM     c1  518   0.868   0.257   3.247
   71TCM    cl1  519   0.944   0.132   3.144
   71TCM    cl2  520   0.724   0.324   3.163
   71TCM     h1  521   0.837   0.213   3.342
   71TCM    cl3  522   0.985   0.390   3.278
   72TCM     c1  523   1.066   1.453   2.462
   72TCM    cl1  524   0.959   1.379   2.339
   72TCM    cl2  525   1.076   1.343   2.603
   72TCM     h1  526   1.166   1.469   2.420
   72TCM    cl3  527   0.996   1.610   2.515
   73TCM     c1  528   1.544   0.799   2.117
   73TCM    cl1  529   1.391   0.889   2.092
   73TCM    cl2  530   1.605   0.737   1.961
   73TCM     h1  531   1.619   0.866   2.161
   73TCM    cl3  532   1.515   0.662   2.229
   74TCM     c1  533   2.880   1.114   3.338
   74TCM    cl1  534   2.909   1.290   3.354
   74TCM    cl2  535   2.872   1.041   3.502
   74TCM     h1  536   2.785   1.097   3.286
   74TCM    cl3  537   3.013   1.037   3.246
   75TCM     c1  538   4.486   0.005   1.025
   75TCM    cl1  539   4.392   0.134   0.943
   75TCM    cl2  540   4.464   0.019   1.202
   75TCM     h1  541   4.451  -0.093   0.991
   75TCM    cl3  542   4.661   0.023   0.987
   76TCM     c1  543   0.575   4.224   0.029
   76TCM    cl1  544   0.399   4.220   0.065
   76TCM    cl2  545   0.601   4.192  -0.146
   76TCM     h1  546   0.615   4.322   0.055
   76TCM    cl3  547   0.657   4.097   0.126
   77TCM     c1  548   2.422   3.359   1.880
   77TCM    cl1  549   2.532   3.441   1.996
   77TCM    cl2  550   2.326   3.235   1.967
   77TCM     h1  551   2.355   3.433   1.836
   77TCM    cl3  552   2.520   3.280   1.752
   78TCM     c1  553   0.639   3.055   0.898
   78TCM    cl1  554   0.608   3.231   0.877
   78TCM    cl2  555   0.738   2.996   0.761
   78TCM     h1  556   0.692   3.038   0.992
   78TCM    cl3  557   0.483   2.967   0.900
   79TCM     c1  558   3.205   3.695   0.877
   79TCM    cl1  559   3.268   3.856   0.828
   79TCM    cl2  560   3.282   3.647   1.031
   79TCM     h1  561   3.097   3.700   0.890
   79TCM    cl3  562   3.243   3.573   0.751
   80TCM     c1  563   3.098   3.077   4.776
   80TCM    cl1  564   3.159   3.245   4.784
   80TCM    cl2  565   3.083   3.009   4.941
   80TCM     h1  566   2.999   3.077   4.728
   80TCM    cl3  567   3.212   2.977   4.680
   81TCM     c1  568   1.129   1.058   1.554
   81TCM    cl1  569   1.247   1.156   1.648
   81TCM    cl2  570   1.114   1.128   1.389
   81TCM     h1  571   1.163   0.954   1.548
   81TCM    cl3  572   0.970   1.065   1.636
   82TCM     c1  573   1.818   2.512   4.636
   82TCM    cl1  574   1.819   2.368   4.529
   82TCM    cl2  575   1.974   2.519   4.723
   82TCM     h1  576   1.806   2.602   4.575
   82TCM    cl3  577   1.684   2.499   4.754
   83TCM     c1  578   2.167   4.212   3.749
   83TCM    cl1  579   2.068   4.120   3.632
   83TCM    cl2  580   2.098   4.194   3.914
   83TCM     h1  581   2.270   4.174   3.748
   83TCM    cl3  582   2.167   4.385   3.703
   84TCM     c1  583   0.742   0.232   4.897
   84TCM    cl1  584   0.797   0.081   4.817
   84TCM    cl2  585   0.876   0.351   4.903
   84TCM     h1  586   0.658   0.275   4.842
   84TCM    cl3  587   0.690   0.192   5.064
   85TCM     c1  588   0.966   0.565   2.804
   85TCM    cl1  589   1.081   0.536   2.669
   85TCM    cl2  590   1.038   0.683   2.919
   85TCM     h1  591   0.872   0.604   2.765
   85TCM    cl3  592   0.938   0.410   2.889
   86TCM     c1  593   4.422   3.000   2.988
   86TCM    cl1  594   4.595   3.000   2.938
   86TCM    cl2  595   4.402   2.902   3.137
   86TCM     h1  596   4.389   3.102   3.007
   86TCM    cl3  597   4.322   2.928   2.858
   87TCM     c1  598   3.160   4.751   0.038
   87TCM    cl1  599   3.178   4.792   0.212
   87TCM    cl2  600   3.054   4.872  -0.040
   87TCM     h1  601   3.259   4.752  -0.010
   87TCM    cl3  602   3.087   4.589   0.023
   88TCM     c1  603   1.803   0.092   3.422
   88TCM    cl1  604   1.652   0.092   3.326
   88TCM    cl2  605   1.831   0.256   3.489
   88TCM     h1  606   1.795   0.021   3.504
   88TCM    cl3  607   1.941   0.047   3.316
   89TCM     c1  608   0.943   0.712   3.784
   89TCM    cl1  609   0.939   0.615   3.934
   89TCM    cl2  610   0.840   0.858   3.807
   89TCM     h1  611   1.045   0.743   3.762
   89TCM    cl3  612   0.878   0.615   3.647
   90TCM     c1  613   2.124   0.150   2.265
   90TCM    cl1  614   2.087   0.172   2.091
   90TCM    cl2  615   2.070   0.295   2.356
   90TCM     h1  616   2.073   0.062   2.303
   90TCM    cl3  617   2.301   0.131   2.286
   91TCM     c1  618   1.155   1.262   1.982
   91TCM    cl1  619   1.109   1.089   1.983
   91TCM    cl2  620   1.247   1.298   2.132
   91TCM     h1  621   1.216   1.284   1.895
   91TCM    cl3  622   1.006   1.362   1.978
   92TCM     c1  623   1.425   1.659   4.943
   92TCM    cl1  624   1.339   1.566   5.071
   92TCM    cl2  625   1.317   1.680   4.802
   92TCM     h1  626   1.455   1.757   4.982
   92TCM    cl3  627   1.571   1.567   4.893
   93TCM     c1  628   4.324   2.920   2.128
   93TCM    cl1  629   4.340   2.906   1.949
   93TCM    cl2  630   4.268   3.086   2.169
   93TCM     h1  631   4.251   2.847   2.164
   93TCM    cl3  632   4.483   2.890   2.204
   94TCM     c1  633   2.953   4.602   1.312
   94TCM    cl1  634   2.975   4.424   1.300
   94TCM    cl2  635   3.082   4.684   1.218
   94TCM     h1  636   2.855   4.630   1.272
   94TCM    cl3  637   2.966   4.652   1.484
   95TCM     c1  638   4.376   2.565   2.945
   95TCM    cl1  639   4.542   2.620   2.907
   95TCM    cl2  640   4.381   2.445   3.078
   95TCM     h1  641   4.314   2.650   2.975
   95TCM    cl3  642   4.305   2.489   2.799
   96TCM     c1  643   4.339   0.769   3.457
   96TCM    cl1  644   4.188   0.754   3.553
   96TCM    cl2  645   4.341   0.644   3.328
   96TCM     h1  646   4.344   0.869   3.412
   96TCM    cl3  647   4.481   0.744   3.564
   97TCM     c1  648   4.170   1.001   3.104
   97TCM    cl1  649   4.303   1.113   3.146
   97TCM    cl2  650   4.084   0.953   3.253
   97TCM     h1  651   4.101   1.050   3.035
   97TCM    cl3  652   4.238   0.854   3.027
   98TCM     c1  653   1.946   0.291   3.009
   98TCM    cl1  654   1.927   0.392   3.156
   98TCM    cl2  655   1.813   0.171   3.002
   98TCM     h1  656   1.944   0.354   2.920
   98TCM    cl3  657   2.103   0.203   3.017
   99TCM     c1  658   0.430   4.348   3.396
   99TCM    cl1  659   0.295   4.448   3.332
   99TCM    cl2  660   0.365   4.221   3.505
   99TCM     h1  661   0.484   4.302   3.313
   99TCM    cl3  662   0.542   4.453   3.488
  100TCM     c1  663   0.396   1.759   4.747
  100TCM    cl1  664   0.530   1.872   4.708
  100TCM    cl2  665   0.374   1.752   4.925
  100TCM     h1  666   0.303   1.795   4.700
  100TCM    cl3  667   0.435   1.595   4.685
  101TCM     c1  668   1.036   0.104   0.140
  101TCM    cl1  669   1.144   0.114   0.282
  101TCM    cl2  670   0.955  -0.056   0.139
  101TCM     h1  671   0.962   0.184   0.145
  101TCM    cl3  672   1.135   0.123  -0.009
  102TCM     c1  673   0.686   2.171   1.015
  102TCM    cl1  674   0.745   2.324   1.088
  102TCM    cl2  675   0.530   2.125   1.091
  102TCM     h1  676   0.672   2.185   0.908
  102TCM    cl3  677   0.807   2.042   1.043
  103TCM     c1  678   4.696   1.478   2.203
  103TCM    cl1  679   4.827   1.524   2.317
  103TCM    cl2  680   4.767   1.431   2.045
  103TCM     h1  681   4.640   1.393   2.244
  103TCM    cl3  682   4.586   1.618   2.180
  104TCM     c1  683   2.962   1.211   2.461
  104TCM    cl1  684   3.031   1.065   2.383
  104TCM    cl2  685   3.090   1.299   2.550
  104TCM     h1  686   2.920   1.276   2.384
  104TCM    cl3  687   2.833   1.161   2.575
  105TCM     c1  688   3.167   0.406   2.608
  105TCM    cl1  689   3.205   0.499   2.458
  105TCM    cl2  690   3.205   0.507   2.751
  105TCM     h1  691   3.061   0.380   2.609
  105TCM    cl3  692   3.266   0.256   2.611
  106TCM     c1  693   2.316   4.646   0.879
  106TCM    cl1  694   2.148   4.612   0.932
  106TCM    cl2  695   2.313   4.719   0.715
  106TCM     h1  696   2.364   4.715   0.949
  106TCM    cl3  697   2.409   4.493   0.873
  107TCM     c1  698   0.368   3.664   4.165
  107TCM    cl1  699   0.256   3.576   4.274
  107TCM    cl2  700   0.292   3.685   4.004
  107TCM     h1  701   0.391   3.762   4.208
  107TCM    cl3  702   0.519   3.568   4.148
  108TCM     c1  703   2.721   4.905   1.800
  108TCM    cl1  704   2.618   5.029   1.880
  108TCM    cl2  705   2.742   4.950   1.628
  108TCM     h1  706   2.819   4.902   1.850
  108TCM    cl3  707   2.642   4.745   1.811
  109TCM     c1  708   2.523   4.946   3.359
  109TCM    cl1  709   2.445   4.917   3.518
  109TCM    cl2  710   2.408   5.037   3.255
  109TCM     h1  711   2.614   5.004   3.372
  109TCM    cl3  712   2.563   4.789   3.282
  110TCM     c1  713   3.456   3.454   4.743
  110TCM    cl1  714   3.524   3.438   4.908
  110TCM    cl2  715   3.499   3.308   4.648
  110TCM     h1  716   3.348   3.463   4.749
  110TCM    cl3  717   3.526   3.599   4.664
  111TCM     c1  718   1.728   4.887   4.470
  111TCM    cl1  719   1.833   4.771   4.558
  111TCM    cl2  720   1.609   4.795   4.371
  111TCM     h1  721   1.675   4.950   4.542
  111TCM    cl3  722   1.828   4.990   4.363
  112TCM     c1  723   3.365   3.786   1.623
  112TCM    cl1  724   3.346   3.944   1.706
  112TCM    cl2  725   3.537   3.738   1.624
  112TCM     h1  726   3.306   3.710   1.675
  112TCM    cl3  727   3.307   3.801   1.454
  113TCM     c1  728   0.142   2.688   1.939
  113TCM    cl1  729   0.075   2.538   2.011
  113TCM    cl2  730   0.258   2.645   1.808
  113TCM     h1  731   0.061   2.749   1.897
  113TCM    cl3  732   0.228   2.782   2.066
  114TCM     c1  733   1.656   0.857   3.399
  114TCM    cl1  734   1.773   0.725   3.367
  114TCM    cl2  735   1.733   0.980   3.506
  114TCM     h1  736   1.626   0.904   3.305
  114TCM    cl3  737   1.511   0.791   3.481
  115TCM     c1  738   1.964   4.639   3.485
  115TCM    cl1  739   1.909   4.513   3.370
  115TCM    cl2  740   1.824   4.744   3.528
  115TCM     h1  741   2.003   4.591   3.575
  115TCM    cl3  742   2.092   4.739   3.409
  116TCM     c1  743   1.546   2.915   3.777
  116TCM    cl1  744   1.717   2.945   3.820
  116TCM    cl2  745   1.537   2.854   3.608
  116TCM     h1  746   1.503   2.840   3.845
  116TCM    cl3  747   1.453   3.068   3.791
  117TCM     c1  748   4.837   2.273   2.140
  117TCM    cl1  749   4.738   2.420   2.114
  117TCM    cl2  750   4.887   2.206   1.981
  117TCM     h1  751   4.926   2.298   2.199
  117TCM    cl3  752   4.740   2.151   2.229
  118TCM     c1  753   2.187   1.527   1.457
  118TCM    cl1  754   2.206   1.618   1.610
  118TCM    cl2  755   2.164   1.643   1.322
  118TCM     h1  756   2.276   1.467   1.439
  118TCM    cl3  757   2.043   1.420   1.468
  119TCM     c1  758   1.239   0.038   3.407
  119TCM    cl1  759   1.284   0.185   3.315
  119TCM    cl2  760   1.079   0.064   3.485
  119TCM     h1  761   1.234  -0.048   3.340
  119TCM    cl3  762   1.362   0.009   3.534
  120TCM     c1  763   4.284   3.539   2.458
  120TCM    cl1  764   4.205   3.521   2.618
  120TCM    cl2  765   4.457   3.581   2.482
  120TCM     h1  766   4.277   3.445   2.402
  120TCM    cl3  767   4.203   3.671   2.367
  121TCM     c1  768   4.470   1.049   3.891
  121TCM    cl1  769   4.316   0.967   3.849
  121TCM    cl2  770   4.480   1.207   3.806
  121TCM     h1  771   4.475   1.065   3.999
  121TCM    cl3  772   4.608   0.946   3.840
  122TCM     c1  773   3.827   1.891   2.450
  122TCM    cl1  774   3.793   1.981   2.298
  122TCM    cl2  775   4.002   1.851   2.454
  122TCM     h1  776   3.802   1.953   2.536
  122TCM    cl3  777   3.731   1.740   2.453
  123TCM     c1  778   4.964   4.154   3.266
  123TCM    cl1  779   5.066   4.233   3.141
  123TCM    cl2  780   5.061   4.032   3.354
  123TCM     h1  781   4.928   4.230   3.336
  123TCM    cl3  782   4.824   4.073   3.187
  124TCM     c1  783   0.436   1.829   0.297
  124TCM    cl1  784   0.399   1.654   0.284
  124TCM    cl2  785   0.614   1.852   0.304
  124TCM     h1  786   0.396   1.881   0.209
  124TCM    cl3  787   0.363   1.896   0.446
  125TCM     c1  788   3.629   1.532   3.542
  125TCM    cl1  789   3.502   1.503   3.666
  125TCM    cl2  790   3.559   1.514   3.378
  125TCM     h1  791   3.669   1.633   3.554
  125TCM    cl3  792   3.761   1.413   3.563
  126TCM     c1  793   1.450   2.290   2.775
  126TCM    cl1  794   1.343   2.149   2.808
  126TCM    cl2  795   1.488   2.374   2.929
  126TCM     h1  796   1.542   2.255   2.729
  126TCM    cl3  797   1.367   2.403   2.664
  127TCM     c1  798   0.496   2.829   0.063
  127TCM    cl1  799   0.507   2.707   0.194
  127TCM    cl2  800   0.421   2.754  -0.082
  127TCM     h1  801   0.435   2.913   0.096
  127TCM    cl3  802   0.661   2.885   0.023
  128TCM     c1  803   0.793   4.682   4.737
  128TCM    cl1  804   0.667   4.780   4.654
  128TCM    cl2  805   0.761   4.508   4.708
  128TCM     h1  806   0.891   4.708   4.698
  128TCM    cl3  807   0.788   4.714   4.913
  129TCM     c1  808   4.818   4.669   0.041
  129TCM    cl1  809   4.856   4.735  -0.122
  129TCM    cl2  810   4.840   4.798   0.164
  129TCM     h1  811   4.715   4.635   0.043
  129TCM    cl3  812   4.927   4.531   0.076
  130TCM     c1  813   0.759   1.369   0.352
  130TCM    cl1  814   0.582   1.338   0.348
  130TCM    cl2  815   0.846   1.213   0.331
  130TCM     h1  816   0.786   1.437   0.271
  130TCM    cl3  817   0.802   1.442   0.510
  131TCM     c1  818   2.170   0.373   3.436
  131TCM    cl1  819   2.200   0.495   3.563
  131TCM    cl2  820   2.195   0.208   3.504
  131TCM     h1  821   2.068   0.382   3.400
  131TCM    cl3  822   2.284   0.399   3.300
  132TCM     c1  823   0.391   1.263   3.362
  132TCM    cl1  824   0.559   1.237   3.306
  132TCM    cl2  825   0.390   1.391   3.489
  132TCM     h1  826   0.329   1.295   3.278
  132TCM    cl3  827   0.328   1.110   3.432
  133TCM     c1  828   0.329   4.448   4.783
  133TCM    cl1  829   0.442   4.535   4.892
  133TCM    cl2  830   0.388   4.455   4.614
  133TCM     h1  831   0.322   4.343   4.814
  133TCM    cl3  832   0.166   4.522   4.794
  134TCM     c1  833   4.209   1.354   1.921
  134TCM    cl1  834   4.320   1.397   2.055
  134TCM    cl2  835   4.246   1.457   1.779
  134TCM     h1  836   4.223   1.248   1.894
  134TCM    cl3  837   4.039   1.382   1.971
  135TCM     c1  838   1.302   0.488   1.607
  135TCM    cl1  839   1.363   0.517   1.441
  135TCM    cl2  840   1.441   0.493   1.721
  135TCM     h1  841   1.229   0.565   1.634
  135TCM    cl3  842   1.227   0.326   1.614
  136TCM     c1  843   4.972   0.152   3.191
  136TCM    cl1  844   5.044   0.094   3.345
  136TCM    cl2  845   4.793   0.149   3.206
  136TCM     h1  846   5.005   0.254   3.171
  136TCM    cl3  847   5.023   0.044   3.058
  137TCM     c1  848   2.071   1.701   3.280
  137TCM    cl1  849   1.917   1.616   3.246
  137TCM    cl2  850   2.078   1.849   3.179
  137TCM     h1  851   2.076   1.727   3.386
  137TCM    cl3  852   2.209   1.592   3.238
  138TCM     c1  853   2.685   3.633   3.648
  138TCM    cl1  854   2.542   3.524   3.652
  138TCM    cl2  855   2.829   3.546   3.709
  138TCM     h1  856   2.703   3.664   3.545
  138TCM    cl3  857   2.653   3.778   3.749
  139TCM     c1  858   0.896   1.167   3.401
  139TCM    cl1  859   1.064   1.197   3.456
  139TCM    cl2  860   0.828   1.031   3.496
  139TCM     h1  861   0.836   1.256   3.416
  139TCM    cl3  862   0.897   1.121   3.228
  140TCM     c1  863   1.146   4.574   1.701
  140TCM    cl1  864   1.134   4.514   1.532
  140TCM    cl2  865   0.981   4.595   1.769
  140TCM     h1  866   1.202   4.503   1.761
  140TCM    cl3  867   1.229   4.733   1.701
  141TCM     c1  868   3.560   4.153   2.430
  141TCM    cl1  869   3.585   4.018   2.314
  141TCM    cl2  870   3.385   4.176   2.458
  141TCM     h1  871   3.610   4.129   2.524
  141TCM    cl3  872   3.628   4.304   2.361
  142TCM     c1  873   0.750   2.243   3.193
  142TCM    cl1  874   0.767   2.204   3.018
  142TCM    cl2  875   0.850   2.130   3.290
  142TCM     h1  876   0.783   2.345   3.211
  142TCM    cl3  877   0.577   2.226   3.241
  143TCM     c1  878   1.639   3.840   1.592
  143TCM    cl1  879   1.756   3.903   1.472
  143TCM    cl2  880   1.706   3.858   1.757
  143TCM     h1  881   1.545   3.896   1.585
  143TCM    cl3  882   1.608   3.666   1.561
  144TCM     c1  883   1.495   1.613   2.467
  144TCM    cl1  884   1.490   1.471   2.358
  144TCM    cl2  885   1.653   1.617   2.551
  144TCM     h1  886   1.482   1.704   2.409
  144TCM    cl3  887   1.364   1.599   2.588
  145TCM     c1  888   3.987   0.115   3.644
  145TCM    cl1  889   3.835   0.117   3.741
  145TCM    cl2  890   3.969  -0.001   3.508
  145TCM     h1  891   4.006   0.215   3.605
  145TCM    cl3  892   4.123   0.064   3.749
  146TCM     c1  893   4.992   4.673   4.414
  146TCM    cl1  894   5.065   4.511   4.432
  146TCM    cl2  895   5.039   4.777   4.552
  146TCM     h1  896   5.026   4.719   4.321
  146TCM    cl3  897   4.813   4.657   4.411
  147TCM     c1  898   0.768   1.915   0.651
  147TCM    cl1  899   0.884   2.051   0.633
  147TCM    cl2  900   0.617   1.979   0.722
  147TCM     h1  901   0.748   1.871   0.554
  147TCM    cl3  902   0.838   1.791   0.761
  148TCM     c1  903   2.614   2.881   0.221
  148TCM    cl1  904   2.740   2.989   0.152
  148TCM    cl2  905   2.543   2.782   0.090
  148TCM     h1  906   2.657   2.816   0.297
  148TCM    cl3  907   2.483   2.981   0.294
  149TCM     c1  908   3.767   1.263   3.206
  149TCM    cl1  909   3.611   1.251   3.118
  149TCM    cl2  910   3.902   1.245   3.088
  149TCM     h1  911   3.775   1.360   3.255
  149TCM    cl3  912   3.776   1.132   3.328
  150TCM     c1  913   3.513   0.144   1.677
  150TCM    cl1  914   3.350   0.136   1.603
  150TCM    cl2  915   3.630   0.200   1.553
  150TCM     h1  916   3.512   0.213   1.761
  150TCM    cl3  917   3.560  -0.020   1.733
  151TCM     c1  918   3.913   2.205   1.499
  151TCM    cl1  919   3.881   2.357   1.589
  151TCM    cl2  920   3.932   2.241   1.324
  151TCM     h1  921   4.004   2.158   1.537
  151TCM    cl3  922   3.774   2.093   1.520
  152TCM     c1  923   2.982   4.074   2.536
  152TCM    cl1  924   2.957   4.249   2.567
  152TCM    cl2  925   3.087   4.005   2.664
  152TCM     h1  926   2.886   4.022   2.536
  152TCM    cl3  927   3.061   4.053   2.376
  153TCM     c1  928   4.323   1.228   2.737
  153TCM    cl1  929   4.313   1.051   2.707
  153TCM    cl2  930   4.484   1.268   2.807
  153TCM     h1  931   4.311   1.281   2.642
  153TCM    cl3  932   4.194   1.277   2.851
  154TCM     c1  933   0.891   2.003   4.847
  154TCM    cl1  934   0.976   2.129   4.942
  154TCM    cl2  935   0.794   1.900   4.957
  154TCM     h1  936   0.826   2.050   4.772
  154TCM    cl3  937   1.014   1.901   4.765
  155TCM     c1  938   2.241   4.717   4.434
  155TCM    cl1  939   2.183   4.881   4.476
  155TCM    cl2  940   2.182   4.597   4.554
  155TCM     h1  941   2.204   4.690   4.335
  155TCM    cl3  942   2.420   4.716   4.433
  156TCM     c1  943   2.605   0.076   4.723
  156TCM    cl1  944   2.671   0.224   4.647
  156TCM    cl2  945   2.523   0.120   4.876
  156TCM     h1  946   2.534   0.028   4.655
  156TCM    cl3  947   2.741  -0.037   4.757
  157TCM     c1  948   2.162   1.255   2.941
  157TCM    cl1  949   2.032   1.330   3.040
  157TCM    cl2  950   2.309   1.358   2.948
  157TCM     h1  951   2.185   1.156   2.981
  157TCM    cl3  952   2.106   1.240   2.772
  158TCM     c1  953   1.727   2.202   4.997
  158TCM    cl1  954   1.744   2.312   5.137
  158TCM    cl2  955   1.707   2.033   5.054
  158TCM     h1  956   1.640   2.231   4.938
  158TCM    cl3  957   1.875   2.212   4.895
  159TCM     c1  958   1.964   1.889   1.519
  159TCM    cl1  959   2.121   1.975   1.520
  159TCM    cl2  960   1.864   1.950   1.383
  159TCM     h1  961   1.981   1.781   1.507
  159TCM    cl3  962   1.878   1.919   1.673
  160TCM     c1  963   2.499   2.781   0.678
  160TCM    cl1  964   2.652   2.808   0.768
  160TCM    cl2  965   2.537   2.700   0.523
  160TCM     h1  966   2.432   2.718   0.737
  160TCM    cl3  967   2.421   2.938   0.645
  161TCM     c1  968   3.395   1.951   2.082
  161TCM    cl1  969   3.431   1.804   2.179
  161TCM    cl2  970   3.510   2.081   2.126
  161TCM     h1  971   3.404   1.927   1.976
  161TCM    cl3  972   3.228   2.007   2.117
  162TCM     c1  973   4.623   4.738   2.783
  162TCM    cl1  974   4.489   4.622   2.813
  162TCM    cl2  975   4.695   4.704   2.623
  162TCM     h1  976   4.584   4.840   2.785
  162TCM    cl3  977   4.748   4.719   2.911
  163TCM     c1  978   3.055   0.269   4.603
  163TCM    cl1  979   2.979   0.139   4.506
  163TCM    cl2  980   3.156   0.370   4.494
  163TCM     h1  981   2.978   0.330   4.650
  163TCM    cl3  982   3.159   0.194   4.728
  164TCM     c1  983   3.925   3.846   3.683
  164TCM    cl1  984   4.090   3.911   3.710
  164TCM    cl2  985   3.891   3.846   3.507
  164TCM     h1  986   3.919   3.744   3.722
  164TCM    cl3  987   3.804   3.950   3.765
  165TCM     c1  988   1.973   1.468   2.381
  165TCM    cl1  989   2.126   1.419   2.302
  165TCM    cl2  990   1.902   1.608   2.293
  165TCM     h1  991   1.902   1.385   2.380
  165TCM    cl3  992   2.007   1.517   2.550
  166TCM     c1  993   2.783   0.307   0.077
  166TCM    cl1  994   2.704   0.432  -0.027
  166TCM    cl2  995   2.883   0.387   0.203
  166TCM     h1  996   2.706   0.245   0.124
  166TCM    cl3  997   2.889   0.205  -0.025
  167TCM     c1  998   2.354   2.874   1.919
  167TCM    cl1  999   2.357   2.755   1.785
  167TCM    cl2 1000   2.521   2.931   1.951
  167TCM     h1 1001   2.291   2.959   1.890
  167TCM    cl3 1002   2.287   2.797   2.066
  168TCM     c1 1003   1.082   4.842   1.378
  168TCM    cl1 1004   1.158   4.998   1.424
  168TCM    cl2 1005   1.039   4.845   1.204
  168TCM     h1 1006   1.153   4.760   1.396
  168TCM    cl3 1007   0.934   4.817   1.475
  169TCM     c1 1008   4.197   2.306   4.482
  169TCM    cl1 1009   4.195   2.468   4.406
  169TCM    cl2 1010   4.364   2.240   4.476
  169TCM     h1 1011   4.164   2.313   4.586
  169TCM    cl3 1012   4.088   2.195   4.391
  170TCM     c1 1013   1.716   4.816   0.071
  170TCM    cl1 1014   1.632   4.690   0.168
  170TCM    cl2 1015   1.692   4.781  -0.103
  170TCM     h1 1016   1.675   4.914   0.095
  170TCM    cl3 1017   1.891   4.812   0.110
  171TCM     c1 1018   3.238   3.624   0.372
  171TCM    cl1 1019   3.086   3.652   0.282
  171TCM    cl2 1020   3.287   3.777   0.452
  171TCM     h1 1021   3.223   3.547   0.448
  171TCM    cl3 1022   3.367   3.573   0.259
  172TCM     c1 1023   4.816   0.446   0.930
  172TCM    cl1 1024   4.650   0.391   0.890
  172TCM    cl2 1025   4.809   0.614   0.995
  172TCM     h1 1026   4.859   0.380   1.005
  172TCM    cl3 1027   4.917   0.444   0.782
  173TCM     c1 1028   4.181   1.744   2.060
  173TCM    cl1 1029   4.279   1.798   2.200
  173TCM    cl2 1030   4.247   1.816   1.910
  173TCM     h1 1031   4.183   1.635   2.053
  173TCM    cl3 1032   4.011   1.799   2.083
  174TCM     c1 1033   3.906   1.507   4.732
  174TCM    cl1 1034   4.045   1.474   4.624
  174TCM    cl2 1035   3.886   1.685   4.750
  174TCM     h1 1036   3.816   1.464   4.689
  174TCM    cl3 1037   3.939   1.434   4.892
  175TCM     c1 1038   3.841   3.167   4.847
  175TCM    cl1 1039   4.000   3.083   4.840
  175TCM    cl2 1040   3.851   3.320   4.753
  175TCM     h1 1041   3.764   3.103   4.804
  175TCM    cl3 1042   3.800   3.204   5.017
  176TCM     c1 1043   1.263   0.357   3.643
  176TCM    cl1 1044   1.232   0.495   3.533
  176TCM    cl2 1045   1.146   0.362   3.779
  176TCM     h1 1046   1.251   0.264   3.588
  176TCM    cl3 1047   1.430   0.368   3.708
  177TCM     c1 1048   3.477   0.073   1.113
  177TCM    cl1 1049   3.525  -0.098   1.133
  177TCM    cl2 1050   3.602   0.179   1.187
  177TCM     h1 1051   3.466   0.096   1.007
  177TCM    cl3 1052   3.321   0.102   1.197
  178TCM     c1 1053   1.298   4.982   4.163
  178TCM    cl1 1054   1.364   5.068   4.307
  178TCM    cl2 1055   1.286   5.096   4.025
  178TCM     h1 1056   1.364   4.899   4.137
  178TCM    cl3 1057   1.135   4.919   4.202
  179TCM     c1 1058   2.156   0.785   4.206
  179TCM    cl1 1059   2.078   0.859   4.350
  179TCM    cl2 1060   2.331   0.760   4.238
  179TCM     h1 1061   2.108   0.689   4.184
  179TCM    cl3 1062   2.137   0.896   4.066
  180TCM     c1 1063   3.214   0.537   0.331
  180TCM    cl1 1064   3.175   0.659   0.205
  180TCM    cl2 1065   3.163   0.598   0.492
  180TCM     h1 1066   3.161   0.444   0.309
  180TCM    cl3 1067   3.391   0.507   0.332
  181TCM     c1 1068   1.659   2.030   2.494
  181TCM    cl1 1069   1.592   1.958   2.644
  181TCM    cl2 1070   1.582   2.189   2.465
  181TCM     h1 1071   1.767   2.043   2.504
  181TCM    cl3 1072   1.623   1.923   2.355
  182TCM     c1 1073   0.023   4.070   4.697
  182TCM    cl1 1074   0.136   4.144   4.815
  182TCM    cl2 1075   0.051   3.893   4.689
  182TCM     h1 1076  -0.080   4.089   4.728
  182TCM    cl3 1077   0.051   4.142   4.535
  183TCM     c1 1078   1.116   0.888   2.475
  183TCM    cl1 1079   1.124   1.026   2.361
  183TCM    cl2 1080   1.160   0.941   2.641
  183TCM     h1 1081   1.015   0.847   2.476
  183TCM    cl3 1082   1.232   0.762   2.422
  184TCM     c1 1083   4.839   0.941   3.556
  184TCM    cl1 1084   4.852   0.808   3.437
  184TCM    cl2 1085   4.717   1.060   3.500
  184TCM     h1 1086   4.809   0.901   3.653
  184TCM    cl3 1087   4.998   1.022   3.572
  185TCM     c1 1088   0.181   4.656   0.396
  185TCM    cl1 1089   0.153   4.829   0.356
  185TCM    cl2 1090   0.250   4.571   0.253
  185TCM     h1 1091   0.252   4.649   0.479
  185TCM    cl3 1092   0.026   4.579   0.444
  186TCM     c1 1093   0.776   3.274   0.162
  186TCM    cl1 1094   0.787   3.449   0.128
  186TCM    cl2 1095   0.862   3.184   0.033
  186TCM     h1 1096   0.823   3.252   0.259
  186TCM    cl3 1097   0.604   3.225   0.167
  187TCM     c1 1098   1.397   2.703   4.492
  187TCM    cl1 1099   1.367   2.555   4.589
  187TCM    cl2 1100   1.353   2.672   4.321
  187TCM     h1 1101   1.336   2.785   4.530
  187TCM    cl3 1102   1.570   2.747   4.502
  188TCM     c1 1103   1.659   4.280   4.778
  188TCM    cl1 1104   1.585   4.391   4.898
  188TCM    cl2 1105   1.549   4.268   4.636
  188TCM     h1 1106   1.756   4.319   4.746
  188TCM    cl3 1107   1.679   4.118   4.851
  189TCM     c1 1108   0.846   3.395   0.579
  189TCM    cl1 1109   0.935   3.316   0.714
  189TCM    cl2 1110   0.712   3.289   0.524
  189TCM     h1 1111   0.806   3.491   0.613
  189TCM    cl3 1112   0.960   3.422   0.443
  190TCM     c1 1113   4.183   1.554   2.446
  190TCM    cl1 1114   4.108   1.528   2.607
  190TCM    cl2 1115   4.063   1.514   2.319
  190TCM     h1 1116   4.213   1.658   2.436
  190TCM    cl3 1117   4.326   1.447   2.427
  191TCM     c1 1118   2.196   0.249   4.411
  191TCM    cl1 1119   2.243   0.376   4.292
  191TCM    cl2 1120   2.039   0.293   4.486
  191TCM     h1 1121   2.186   0.153   4.360
  191TCM    cl3 1122   2.322   0.237   4.538
  192TCM     c1 1123   0.357   0.042   2.176
  192TCM    cl1 1124   0.457  -0.022   2.041
  192TCM    cl2 1125   0.347   0.221   2.164
  192TCM     h1 1126   0.257  -0.001   2.171
  192TCM    cl3 1127   0.433  -0.003   2.332
  193TCM     c1 1128   1.832   4.529   4.238
  193TCM    cl1 1129   1.858   4.413   4.103
  193TCM    cl2 1130   1.943   4.668   4.217
  193TCM     h1 1131   1.729   4.564   4.237
  193TCM    cl3 1132   1.866   4.448   4.394
  194TCM     c1 1133   4.083   4.630   1.214
  194TCM    cl1 1134   4.224   4.737   1.185
  194TCM    cl2 1135   4.090   4.565   1.382
  194TCM     h1 1136   3.991   4.687   1.201
  194TCM    cl3 1137   4.089   4.494   1.097
  195TCM     c1 1138   1.150   2.479   0.354
  195TCM    cl1 1139   1.068   2.389   0.485
  195TCM    cl2 1140   1.095   2.416   0.195
  195TCM     h1 1141   1.126   2.586   0.361
  195TCM    cl3 1142   1.328   2.459   0.368
  196TCM     c1 1143   1.265   1.016   3.989
  196TCM    cl1 1144   1.300   1.155   4.096
  196TCM    cl2 1145   1.247   1.074   3.820
  196TCM     h1 1146   1.346   0.944   3.995
  196TCM    cl3 1147   1.112   0.938   4.042
  197TCM     c1 1148   1.718   1.361   0.372
  197TCM    cl1 1149   1.710   1.185   0.340
  197TCM    cl2 1150   1.648   1.451   0.234
  197TCM     h1 1151   1.662   1.384   0.463
  197TCM    cl3 1152   1.890   1.411   0.394
  198TCM     c1 1153   1.297   4.444   1.125
  198TCM    cl1 1154   1.432   4.417   1.010
  198TCM    cl2 1155   1.321   4.598   1.213
  198TCM     h1 1156   1.203   4.447   1.070
  198TCM    cl3 1157   1.292   4.308   1.242
  199TCM     c1 1158   0.117   2.606   2.367
  199TCM    cl1 1159   0.015   2.465   2.411
  199TCM    cl2 1160   0.290   2.560   2.373
  199TCM     h1 1161   0.091   2.640   2.266
  199TCM    cl3 1162   0.087   2.740   2.483
  200TCM     c1 1163   0.738   2.279   0.382
  200TCM    cl1 1164   0.779   2.203   0.224
  200TCM    cl2 1165   0.585   2.208   0.442
  200TCM     h1 1166   0.819   2.261   0.453
  200TCM    cl3 1167   0.717   2.456   0.359
  201TCM     c1 1168   3.717   4.513   3.123
  201TCM    cl1 1169   3.580   4.528   3.009
  201TCM    cl2 1170   3.802   4.671   3.137
  201TCM     h1 1171   3.680   4.483   3.221
  201TCM    cl3 1172   3.832   4.390   3.062
  202TCM     c1 1173   1.958   0.942   2.276
  202TCM    cl1 1174   1.967   0.908   2.100
  202TCM    cl2 1175   1.828   0.842   2.350
  202TCM     h1 1176   2.054   0.918   2.322
  202TCM    cl3 1177   1.920   1.116   2.301
  203TCM     c1 1178   0.762   4.669   4.283
  203TCM    cl1 1179   0.904   4.668   4.393
  203TCM    cl2 1180   0.689   4.833   4.281
  203TCM     h1 1181   0.794   4.641   4.182
  203TCM    cl3 1182   0.640   4.550   4.341
  204TCM     c1 1183   2.140   4.869   3.755
  204TCM    cl1 1184   2.255   4.937   3.874
  204TCM    cl2 1185   2.009   4.988   3.723
  204TCM     h1 1186   2.193   4.847   3.662
  204TCM    cl3 1187   2.068   4.718   3.821
  205TCM     c1 1188   1.170   0.290   1.202
  205TCM    cl1 1189   1.267   0.410   1.111
  205TCM    cl2 1190   1.095   0.175   1.086
  205TCM     h1 1191   1.234   0.236   1.272
  205TCM    cl3 1192   1.040   0.375   1.291
  206TCM     c1 1193   2.517   3.218   0.976
  206TCM    cl1 1194   2.664   3.140   0.910
  206TCM    cl2 1195   2.463   3.126   1.120
  206TCM     h1 1196   2.540   3.321   1.005
  206TCM    cl3 1197   2.388   3.218   0.852
  207TCM     c1 1198   1.031   3.668   0.790
  207TCM    cl1 1199   0.874   3.634   0.873
  207TCM    cl2 1200   1.124   3.787   0.886
  207TCM     h1 1201   1.088   3.575   0.781
  207TCM    cl3 1202   0.998   3.734   0.627
  208TCM     c1 1203   3.856   2.091   1.941
  208TCM    cl1 1204   4.004   2.097   1.839
  208TCM    cl2 1205   3.741   1.973   1.869
  208TCM     h1 1206   3.882   2.060   2.042
  208TCM    cl3 1207   3.779   2.253   1.943
  209TCM     c1 1208   2.646   2.395   0.930
  209TCM    cl1 1209   2.755   2.527   0.985
  209TCM    cl2 1210   2.740   2.278   0.831
  209TCM     h1 1211   2.604   2.344   1.016
  209TCM    cl3 1212   2.515   2.465   0.830
  210TCM     c1 1213   2.640   3.329   4.022
  210TCM    cl1 1214   2.488   3.299   3.931
  210TCM    cl2 1215   2.671   3.505   4.032
  210TCM     h1 1216   2.629   3.288   4.123
  210TCM    cl3 1217   2.777   3.248   3.939
  211TCM     c1 1218   1.144   2.764   3.949
  211TCM    cl1 1219   1.237   2.881   4.050
  211TCM    cl2 1220   1.164   2.598   4.015
  211TCM     h1 1221   1.038   2.791   3.950
  211TCM    cl3 1222   1.207   2.769   3.781
  212TCM     c1 1223   1.603   2.583   3.323
  212TCM    cl1 1224   1.628   2.485   3.471
  212TCM    cl2 1225   1.439   2.548   3.256
  212TCM     h1 1226   1.611   2.689   3.347
  212TCM    cl3 1227   1.728   2.539   3.201
  213TCM     c1 1228   3.626   4.651   3.635
  213TCM    cl1 1229   3.596   4.502   3.730
  213TCM    cl2 1230   3.588   4.618   3.463
  213TCM     h1 1231   3.562   4.732   3.672
  213TCM    cl3 1232   3.798   4.698   3.649
  214TCM     c1 1233   0.400   3.052   0.557
  214TCM    cl1 1234   0.436   2.992   0.392
  214TCM    cl2 1235   0.268   2.953   0.626
  214TCM     h1 1236   0.489   3.043   0.619
  214TCM    cl3 1237   0.349   3.224   0.548
  215TCM     c1 1238   1.319   2.175   0.049
  215TCM    cl1 1239   1.402   2.152   0.206
  215TCM    cl2 1240   1.353   2.035  -0.057
  215TCM     h1 1241   1.212   2.184   0.065
  215TCM    cl3 1242   1.381   2.325  -0.028
  216TCM     c1 1243   0.453   1.811   2.778
  216TCM    cl1 1244   0.357   1.796   2.627
  216TCM    cl2 1245   0.367   1.725   2.910
  216TCM     h1 1246   0.552   1.766   2.763
  216TCM    cl3 1247   0.470   1.985   2.817
  217TCM     c1 1248   3.583   0.254   4.828
  217TCM    cl1 1249   3.515   0.233   4.663
  217TCM    cl2 1250   3.682   0.403   4.835
  217TCM     h1 1251   3.501   0.261   4.900
  217TCM    cl3 1252   3.686   0.112   4.868
  218TCM     c1 1253   1.824   2.573   1.844
  218TCM    cl1 1254   1.745   2.713   1.764
  218TCM    cl2 1255   1.733   2.529   1.992
  218TCM     h1 1256   1.826   2.488   1.776
  218TCM    cl3 1257   1.992   2.618   1.889
  219TCM     c1 1258   4.218   0.484   3.979
  219TCM    cl1 1259   4.164   0.583   4.119
  219TCM    cl2 1260   4.318   0.584   3.869
  219TCM     h1 1261   4.277   0.399   4.015
  219TCM    cl3 1262   4.074   0.423   3.891
  220TCM     c1 1263   0.532   3.616   1.009
  220TCM    cl1 1264   0.477   3.599   0.839
  220TCM    cl2 1265   0.440   3.503   1.114
  220TCM     h1 1266   0.638   3.593   1.016
  220TCM    cl3 1267   0.503   3.785   1.065
  221TCM     c1 1268   0.436   1.483   0.665
  221TCM    cl1 1269   0.524   1.635   0.627
  221TCM    cl2 1270   0.283   1.478   0.572
  221TCM     h1 1271   0.498   1.397   0.638
  221TCM    cl3 1272   0.400   1.479   0.840
  222TCM     c1 1273   3.640   2.345   2.883
  222TCM    cl1 1274   3.530   2.487   2.879
  222TCM    cl2 1275   3.606   2.248   3.031
  222TCM     h1 1276   3.624   2.283   2.795
  222TCM    cl3 1277   3.811   2.400   2.886
  223TCM     c1 1278   0.338   4.701   2.890
  223TCM    cl1 1279   0.299   4.875   2.881
  223TCM    cl2 1280   0.202   4.613   2.967
  223TCM     h1 1281   0.354   4.662   2.789
  223TCM    cl3 1282   0.487   4.678   2.987
  224TCM     c1 1283   0.288   4.608   2.092
  224TCM    cl1 1284   0.193   4.470   2.157
  224TCM    cl2 1285   0.416   4.650   2.210
  224TCM     h1 1286   0.333   4.580   1.997
  224TCM    cl3 1287   0.178   4.748   2.069
  225TCM     c1 1288   0.400   2.278   2.143
  225TCM    cl1 1289   0.225   2.245   2.166
  225TCM    cl2 1290   0.423   2.436   2.062
  225TCM     h1 1291   0.450   2.279   2.241
  225TCM    cl3 1292   0.472   2.150   2.040
  226TCM     c1 1293   0.573   3.930   2.757
  226TCM    cl1 1294   0.661   3.796   2.675
  226TCM    cl2 1295   0.627   4.087   2.689
  226TCM     h1 1296   0.466   3.918   2.740
  226TCM    cl3 1297   0.608   3.925   2.933
  227TCM     c1 1298   2.393   0.692   3.869
  227TCM    cl1 1299   2.264   0.584   3.930
  227TCM    cl2 1300   2.327   0.798   3.741
  227TCM     h1 1301   2.432   0.754   3.951
  227TCM    cl3 1302   2.526   0.594   3.800
  228TCM     c1 1303   1.785   2.055   1.991
  228TCM    cl1 1304   1.798   1.885   2.048
  228TCM    cl2 1305   1.785   2.167   2.132
  228TCM     h1 1306   1.870   2.078   1.926
  228TCM    cl3 1307   1.632   2.075   1.900
  229TCM     c1 1308   1.247   3.160   2.065
  229TCM    cl1 1309   1.343   3.156   1.914
  229TCM    cl2 1310   1.173   3.323   2.084
  229TCM     h1 1311   1.168   3.085   2.060
  229TCM    cl3 1312   1.354   3.128   2.205
  230TCM     c1 1313   4.485   3.716   2.821
  230TCM    cl1 1314   4.630   3.612   2.809
  230TCM    cl2 1315   4.531   3.877   2.886
  230TCM     h1 1316   4.441   3.729   2.721
  230TCM    cl3 1317   4.364   3.640   2.930
  231TCM     c1 1318   4.195   0.903   4.391
  231TCM    cl1 1319   4.260   0.987   4.246
  231TCM    cl2 1320   4.296   0.760   4.428
  231TCM     h1 1321   4.196   0.972   4.476
  231TCM    cl3 1322   4.027   0.851   4.358
  232TCM     c1 1323   0.478   3.258   4.368
  232TCM    cl1 1324   0.411   3.128   4.471
  232TCM    cl2 1325   0.615   3.192   4.272
  232TCM     h1 1326   0.401   3.295   4.300
  232TCM    cl3 1327   0.537   3.392   4.471
  233TCM     c1 1328   1.005   1.911   0.252
  233TCM    cl1 1329   1.122   1.839   0.137
  233TCM    cl2 1330   1.085   2.047   0.338
  233TCM     h1 1331   0.918   1.948   0.198
  233TCM    cl3 1332   0.955   1.786   0.371
  234TCM     c1 1333   1.926   2.286   1.588
  234TCM    cl1 1334   1.993   2.257   1.752
  234TCM    cl2 1335   1.971   2.451   1.535
  234TCM     h1 1336   1.966   2.212   1.518
  234TCM    cl3 1337   1.747   2.272   1.596
  235TCM     c1 1338   2.585   4.555   3.732
  235TCM    cl1 1339   2.553   4.383   3.692
  235TCM    cl2 1340   2.429   4.642   3.743
  235TCM     h1 1341   2.637   4.561   3.828
  235TCM    cl3 1342   2.686   4.628   3.604
  236TCM     c1 1343   3.365   0.421   1.396
  236TCM    cl1 1344   3.402   0.506   1.550
  236TCM    cl2 1345   3.413   0.524   1.257
  236TCM     h1 1346   3.419   0.327   1.392
  236TCM    cl3 1347   3.188   0.390   1.388
  237TCM     c1 1348   2.262   4.734   4.877
  237TCM    cl1 1349   2.290   4.751   5.054
  237TCM    cl2 1350   2.404   4.794   4.787
  237TCM     h1 1351   2.245   4.628   4.852
  237TCM    cl3 1352   2.117   4.830   4.832
  238TCM     c1 1353   2.588   1.584   3.209
  238TCM    cl1 1354   2.609   1.409   3.176
  238TCM    cl2 1355   2.696   1.678   3.100
  238TCM     h1 1356   2.484   1.613   3.192
  238TCM    cl3 1357   2.633   1.619   3.380
  239TCM     c1 1358   0.977   1.545   4.755
  239TCM    cl1 1359   0.988   1.568   4.933
  239TCM    cl2 1360   0.817   1.600   4.696
  239TCM     h1 1361   1.056   1.603   4.706
  239TCM    cl3 1362   0.997   1.371   4.717
  240TCM     c1 1363   3.203   1.001   2.862
  240TCM    cl1 1364   3.055   1.101   2.872
  240TCM    cl2 1365   3.315   1.048   2.993
  240TCM     h1 1366   3.176   0.895   2.872
  240TCM    cl3 1367   3.283   1.026   2.703
  241TCM     c1 1368   3.696   0.700   1.599
  241TCM    cl1 1369   3.767   0.540   1.637
  241TCM    cl2 1370   3.702   0.728   1.422
  241TCM     h1 1371   3.592   0.703   1.634
  241TCM    cl3 1372   3.789   0.829   1.682
  242TCM     c1 1373   0.627   0.196   0.482
  242TCM    cl1 1374   0.610   0.283   0.638
  242TCM    cl2 1375   0.795   0.216   0.420
  242TCM     h1 1376   0.607   0.089   0.498
  242TCM    cl3 1377   0.510   0.262   0.364
  243TCM     c1 1378   0.672   3.779   3.721
  243TCM    cl1 1379   0.810   3.855   3.807
  243TCM    cl2 1380   0.530   3.889   3.726
  243TCM     h1 1381   0.700   3.760   3.617
  243TCM    cl3 1382   0.629   3.625   3.802
  244TCM     c1 1383   0.343   4.191   4.339
  244TCM    cl1 1384   0.284   4.312   4.220
  244TCM    cl2 1385   0.522   4.200   4.349
  244TCM     h1 1386   0.300   4.213   4.437
  244TCM    cl3 1387   0.294   4.027   4.285
  245TCM     c1 1388   3.667   1.975   0.623
  245TCM    cl1 1389   3.678   1.936   0.798
  245TCM    cl2 1390   3.734   2.139   0.594
  245TCM     h1 1391   3.723   1.902   0.565
  245TCM    cl3 1392   3.495   1.972   0.572
  246TCM     c1 1393   3.443   4.261   3.473
  246TCM    cl1 1394   3.498   4.290   3.305
  246TCM    cl2 1395   3.555   4.145   3.553
  246TCM     h1 1396   3.443   4.355   3.528
  246TCM    cl3 1397   3.278   4.192   3.470
  247TCM     c1 1398   1.873   4.794   3.039
  247TCM    cl1 1399   1.951   4.632   3.033
  247TCM    cl2 1400   1.731   4.786   3.148
  247TCM     h1 1401   1.945   4.867   3.077
  247TCM    cl3 1402   1.820   4.840   2.874
  248TCM     c1 1403   2.501   0.395   2.144
  248TCM    cl1 1404   2.618   0.415   2.009
  248TCM    cl2 1405   2.341   0.456   2.091
  248TCM     h1 1406   2.494   0.290   2.171
  248TCM    cl3 1407   2.556   0.491   2.286
  249TCM     c1 1408   3.299   2.207   4.221
  249TCM    cl1 1409   3.339   2.162   4.390
  249TCM    cl2 1410   3.246   2.378   4.215
  249TCM     h1 1411   3.387   2.194   4.157
  249TCM    cl3 1412   3.167   2.101   4.161
  250TCM     c1 1413   2.939   2.574   0.472
  250TCM    cl1 1414   2.905   2.548   0.646
  250TCM    cl2 1415   3.116   2.556   0.442
  250TCM     h1 1416   2.885   2.499   0.413
  250TCM    cl3 1417   2.887   2.739   0.424
  251TCM     c1 1418   1.440   0.153   4.784
  251TCM    cl1 1419   1.528   0.285   4.700
  251TCM    cl2 1420   1.524   0.116   4.939
  251TCM     h1 1421   1.337   0.184   4.805
  251TCM    cl3 1422   1.441   0.007   4.680
  252TCM     c1 1423   0.915   1.573   1.604
  252TCM    cl1 1424   0.897   1.610   1.429
  252TCM    cl2 1425   0.990   1.712   1.689
  252TCM     h1 1426   0.817   1.552   1.647
  252TCM    cl3 1427   1.021   1.430   1.622
  253TCM     c1 1428   0.091   3.082   0.195
  253TCM    cl1 1429   0.047   3.049   0.366
  253TCM    cl2 1430   0.159   2.933   0.123
  253TCM     h1 1431   0.002   3.112   0.140
  253TCM    cl3 1432   0.214   3.213   0.188
  254TCM     c1 1433   0.741   1.540   3.736
  254TCM    cl1 1434   0.741   1.454   3.578
  254TCM    cl2 1435   0.608   1.476   3.839
  254TCM     h1 1436   0.837   1.524   3.786
  254TCM    cl3 1437   0.716   1.715   3.708
  255TCM     c1 1438   0.905   0.591   0.206
  255TCM    cl1 1439   1.017   0.458   0.248
  255TCM    cl2 1440   0.907   0.717   0.334
  255TCM     h1 1441   0.934   0.636   0.110
  255TCM    cl3 1442   0.738   0.526   0.193
  256TCM     c1 1443   3.513   4.786   4.785
  256TCM    cl1 1444   3.371   4.894   4.769
  256TCM    cl2 1445   3.469   4.623   4.725
  256TCM     h1 1446   3.597   4.826   4.726
  256TCM    cl3 1447   3.559   4.775   4.958
  257TCM     c1 1448   3.144   3.841   3.497
  257TCM    cl1 1449   2.969   3.837   3.536
  257TCM    cl2 1450   3.195   3.681   3.435
  257TCM     h1 1451   3.163   3.918   3.421
  257TCM    cl3 1452   3.235   3.880   3.647
  258TCM     c1 1453   2.996   4.397   3.102
  258TCM    cl1 1454   3.162   4.334   3.126
  258TCM    cl2 1455   2.925   4.320   2.956
  258TCM     h1 1456   2.935   4.372   3.189
  258TCM    cl3 1457   3.000   4.575   3.081
  259TCM     c1 1458   3.596   1.336   2.677
  259TCM    cl1 1459   3.712   1.337   2.540
  259TCM    cl2 1460   3.638   1.469   2.791
  259TCM     h1 1461   3.495   1.350   2.639
  259TCM    cl3 1462   3.606   1.179   2.763
  260TCM     c1 1463   4.390   2.091   4.907
  260TCM    cl1 1464   4.265   2.198   4.837
  260TCM    cl2 1465   4.349   2.056   5.078
  260TCM     h1 1466   4.394   1.998   4.851
  260TCM    cl3 1467   4.550   2.172   4.899
  261TCM     c1 1468   3.121   2.202   0.515
  261TCM    cl1 1469   3.133   2.080   0.646
  261TCM    cl2 1470   2.951   2.212   0.458
  261TCM     h1 1471   3.152   2.300   0.553
  261TCM    cl3 1472   3.226   2.155   0.378
  262TCM     c1 1473   4.728   4.774   1.281
  262TCM    cl1 1474   4.815   4.705   1.140
  262TCM    cl2 1475   4.832   4.763   1.427
  262TCM     h1 1476   4.703   4.878   1.261
  262TCM    cl3 1477   4.577   4.680   1.309
  263TCM     c1 1478   4.640   0.829   3.054
  263TCM    cl1 1479   4.576   0.928   2.919
  263TCM    cl2 1480   4.580   0.893   3.210
  263TCM     h1 1481   4.608   0.725   3.042
  263TCM    cl3 1482   4.819   0.837   3.050
  264TCM     c1 1483   3.557   2.090   0.219
  264TCM    cl1 1484   3.622   1.923   0.233
  264TCM    cl2 1485   3.464   2.105   0.066
  264TCM     h1 1486   3.492   2.111   0.304
  264TCM    cl3 1487   3.693   2.207   0.218
  265TCM     c1 1488   1.754   0.132   2.636
  265TCM    cl1 1489   1.803   0.301   2.667
  265TCM    cl2 1490   1.892   0.042   2.565
  265TCM     h1 1491   1.723   0.084   2.730
  265TCM    cl3 1492   1.616   0.131   2.521
  266TCM     c1 1493   1.268   4.504   4.674
  266TCM    cl1 1494   1.128   4.559   4.772
  266TCM    cl2 1495   1.397   4.629   4.679
  266TCM     h1 1496   1.307   4.410   4.714
  266TCM    cl3 1497   1.215   4.480   4.504
  267TCM     c1 1498   0.086   0.221   4.575
  267TCM    cl1 1499   0.020   0.134   4.433
  267TCM    cl2 1500   0.093   0.109   4.715
  267TCM     h1 1501   0.187   0.258   4.552
  267TCM    cl3 1502  -0.021   0.359   4.616
  268TCM     c1 1503   4.310   4.732   0.079
  268TCM    cl1 1504   4.287   4.661  -0.084
  268TCM    cl2 1505   4.469   4.681   0.144
  268TCM     h1 1506   4.306   4.841   0.073
  268TCM    cl3 1507   4.180   4.673   0.188
  269TCM     c1 1508   0.722   2.545   3.710
  269TCM    cl1 1509   0.772   2.492   3.546
  269TCM    cl2 1510   0.559   2.621   3.702
  269TCM     h1 1511   0.719   2.459   3.777
  269TCM    cl3 1512   0.840   2.665   3.773
  270TCM     c1 1513   3.904   1.188   1.611
  270TCM    cl1 1514   3.955   1.356   1.574
  270TCM    cl2 1515   4.036   1.107   1.703
  270TCM     h1 1516   3.813   1.190   1.671
  270TCM    cl3 1517   3.874   1.100   1.458
  271TCM     c1 1518   1.241   4.710   0.098
  271TCM    cl1 1519   1.311   4.546   0.080
  271TCM    cl2 1520   1.325   4.822  -0.014
  271TCM     h1 1521   1.134   4.708   0.074
  271TCM    cl3 1522   1.264   4.765   0.267
  272TCM     c1 1523   3.038   0.945   3.820
  272TCM    cl1 1524   2.972   1.103   3.875
  272TCM    cl2 1525   3.029   0.827   3.955
  272TCM     h1 1526   2.980   0.908   3.735
  272TCM    cl3 1527   3.209   0.967   3.770
  273TCM     c1 1528   4.482   3.412   3.197
  273TCM    cl1 1529   4.597   3.367   3.067
  273TCM    cl2 1530   4.571   3.427   3.352
  273TCM     h1 1531   4.433   3.507   3.173
  273TCM    cl3 1532   4.358   3.283   3.212
  274TCM     c1 1533   1.248   0.840   0.489
  274TCM    cl1 1534   1.268   0.678   0.415
  274TCM    cl2 1535   1.122   0.833   0.617
  274TCM     h1 1536   1.343   0.872   0.532
  274TCM    cl3 1537   1.198   0.957   0.362
  275TCM     c1 1538   1.173   2.083   0.962
  275TCM    cl1 1539   1.344   2.130   0.993
  275TCM    cl2 1540   1.169   1.946   0.846
  275TCM     h1 1541   1.126   2.052   1.056
  275TCM    cl3 1542   1.084   2.223   0.894
  276TCM     c1 1543   3.243   2.899   2.138
  276TCM    cl1 1544   3.313   2.792   2.264
  276TCM    cl2 1545   3.318   2.863   1.979
  276TCM     h1 1546   3.135   2.882   2.132
  276TCM    cl3 1547   3.274   3.070   2.181
  277TCM     c1 1548   3.013   3.589   2.642
  277TCM    cl1 1549   3.008   3.680   2.487
  277TCM    cl2 1550   2.912   3.674   2.764
  277TCM     h1 1551   2.976   3.488   2.626
  277TCM    cl3 1552   3.183   3.583   2.700
  278TCM     c1 1553   1.262   1.180   4.999
  278TCM    cl1 1554   1.316   1.272   4.854
  278TCM    cl2 1555   1.113   1.255   5.066
  278TCM     h1 1556   1.242   1.076   4.971
  278TCM    cl3 1557   1.391   1.184   5.123
  279TCM     c1 1558   3.165   4.960   0.646
  279TCM    cl1 1559   3.208   4.982   0.819
  279TCM    cl2 1560   3.024   4.850   0.633
  279TCM     h1 1561   3.140   5.057   0.602
  279TCM    cl3 1562   3.304   4.888   0.559
  280TCM     c1 1563   2.069   3.640   0.870
  280TCM    cl1 1564   2.196   3.753   0.929
  280TCM    cl2 1565   1.971   3.583   1.009
  280TCM     h1 1566   2.005   3.692   0.799
  280TCM    cl3 1567   2.147   3.501   0.789
  281TCM     c1 1568   2.904   3.716   1.663
  281TCM    cl1 1569   2.778   3.766   1.781
  281TCM    cl2 1570   3.048   3.657   1.751
  281TCM     h1 1571   2.864   3.636   1.599
  281TCM    cl3 1572   2.950   3.857   1.562
  282TCM     c1 1573   4.687   0.569   3.885
  282TCM    cl1 1574   4.781   0.620   3.741
  282TCM    cl2 1575   4.789   0.588   4.031
  282TCM     h1 1576   4.598   0.631   3.894
  282TCM    cl3 1577   4.640   0.397   3.867
  283TCM     c1 1578   4.547   2.901   4.444
  283TCM    cl1 1579   4.465   2.742   4.431
  283TCM    cl2 1580   4.683   2.888   4.561
  283TCM     h1 1581   4.586   2.930   4.346
  283TCM    cl3 1582   4.430   3.023   4.503
  284TCM     c1 1583   0.953   4.714   2.207
  284TCM    cl1 1584   1.079   4.776   2.095
  284TCM    cl2 1585   1.026   4.594   2.318
  284TCM     h1 1586   0.911   4.796   2.265
  284TCM    cl3 1587   0.823   4.634   2.112
  285TCM     c1 1588   4.995   0.166   0.070
  285TCM    cl1 1589   4.994   0.323  -0.016
  285TCM    cl2 1590   4.862   0.164   0.190
  285TCM     h1 1591   4.981   0.084  -0.002
  285TCM    cl3 1592   5.153   0.146   0.154
  286TCM     c1 1593   4.713   0.486   3.415
  286TCM    cl1 1594   4.601   0.366   3.485
  286TCM    cl2 1595   4.675   0.509   3.241
  286TCM     h1 1596   4.702   0.581   3.467
  286TCM    cl3 1597   4.882   0.428   3.433
  287TCM     c1 1598   3.319   0.059   4.371
  287TCM    cl1 1599   3.196   0.017   4.248
  287TCM    cl2 1600   3.432   0.181   4.303
  287TCM     h1 1601   3.270   0.100   4.460
  287TCM    cl3 1602   3.411  -0.089   4.415
  288TCM     c1 1603   1.384   1.855   1.603
  288TCM    cl1 1604   1.267   1.851   1.467
  288TCM    cl2 1605   1.307   1.927   1.748
  288TCM     h1 1606   1.415   1.753   1.626
  288TCM    cl3 1607   1.527   1.952   1.557
  289TCM     c1 1608   3.272   1.625   2.573
  289TCM    cl1 1609   3.374   1.534   2.457
  289TCM    cl2 1610   3.172   1.745   2.483
  289TCM     h1 1611   3.207   1.556   2.627
  289TCM    cl3 1612   3.378   1.713   2.688
  290TCM     c1 1613   3.660   0.263   0.379
  290TCM    cl1 1614   3.538   0.135   0.407
  290TCM    cl2 1615   3.687   0.282   0.203
  290TCM     h1 1616   3.623   0.358   0.421
  290TCM    cl3 1617   3.814   0.218   0.460
  291TCM     c1 1618   0.542   1.332   1.689
  291TCM    cl1 1619   0.542   1.478   1.584
  291TCM    cl2 1620   0.449   1.364   1.838
  291TCM     h1 1621   0.498   1.248   1.635
  291TCM    cl3 1622   0.712   1.294   1.732
  292TCM     c1 1623   2.810   3.600   1.057
  292TCM    cl1 1624   2.947   3.637   1.167
  292TCM    cl2 1625   2.702   3.483   1.138
  292TCM     h1 1626   2.755   3.692   1.034
  292TCM    cl3 1627   2.873   3.529   0.905
  293TCM     c1 1628   2.443   2.591   4.461
  293TCM    cl1 1629   2.400   2.572   4.288
  293TCM    cl2 1630   2.325   2.501   4.563
  293TCM     h1 1631   2.543   2.552   4.479
  293TCM    cl3 1632   2.438   2.765   4.504
  294TCM     c1 1633   0.627   2.482   0.783
  294TCM    cl1 1634   0.774   2.396   0.727
  294TCM    cl2 1635   0.485   2.374   0.764
  294TCM     h1 1636   0.639   2.509   0.888
  294TCM    cl3 1637   0.606   2.632   0.686
  295TCM     c1 1638   2.477   0.293   1.695
  295TCM    cl1 1639   2.486   0.204   1.540
  295TCM    cl2 1640   2.330   0.241   1.785
  295TCM     h1 1641   2.565   0.271   1.755
  295TCM    cl3 1642   2.468   0.469   1.665
  296TCM     c1 1643   2.513   3.766   4.849
  296TCM    cl1 1644   2.673   3.759   4.768
  296TCM    cl2 1645   2.386   3.723   4.729
  296TCM     h1 1646   2.511   3.696   4.932
  296TCM    cl3 1647   2.484   3.932   4.910
  297TCM     c1 1648   0.374   3.316   4.867
  297TCM    cl1 1649   0.419   3.142   4.875
  297TCM    cl2 1650   0.266   3.342   4.726
  297TCM     h1 1651   0.323   3.345   4.959
  297TCM    cl3 1652   0.523   3.415   4.848
  298TCM     c1 1653   3.956   1.709   1.582
  298TCM    cl1 1654   4.055   1.858   1.561
  298TCM    cl2 1655   3.795   1.733   1.506
  298TCM     h1 1656   4.007   1.625   1.534
  298TCM    cl3 1657   3.935   1.675   1.756
  299TCM     c1 1658   2.267   2.714   2.595
  299TCM    cl1 1659   2.124   2.621   2.649
  299TCM    cl2 1660   2.339   2.636   2.450
  299TCM     h1 1661   2.237   2.816   2.570
  299TCM    cl3 1662   2.387   2.717   2.728
  300TCM     c1 1663   4.678   2.691   0.635
  300TCM    cl1 1664   4.673   2.586   0.490
  300TCM    cl2 1665   4.753   2.849   0.593
  300TCM     h1 1666   4.576   2.708   0.670
  300TCM    cl3 1667   4.772   2.610   0.764
  301TCM     c1 1668   4.962   4.418   1.387
  301TCM    cl1 1669   4.792   4.366   1.364
  301TCM    cl2 1670   5.047   4.415   1.229
  301TCM     h1 1671   4.964   4.519   1.429
  301TCM    cl3 1672   5.043   4.304   1.500
  302TCM     c1 1673   3.106   1.485   3.593
  302TCM    cl1 1674   3.200   1.533   3.448
  302TCM    cl2 1675   3.146   1.594   3.730
  302TCM     h1 1676   2.999   1.492   3.571
  302TCM    cl3 1677   3.148   1.316   3.637
  303TCM     c1 1678   1.158   3.731   2.262
  303TCM    cl1 1679   1.282   3.611   2.310
  303TCM    cl2 1680   1.095   3.691   2.099
  303TCM     h1 1681   1.076   3.729   2.334
  303TCM    cl3 1682   1.231   3.895   2.259
  304TCM     c1 1683   2.999   4.044   2.026
  304TCM    cl1 1684   3.040   4.085   1.856
  304TCM    cl2 1685   3.023   3.868   2.052
  304TCM     h1 1686   3.064   4.100   2.094
  304TCM    cl3 1687   2.828   4.085   2.058
  305TCM     c1 1688   1.745   2.969   2.025
  305TCM    cl1 1689   1.610   2.867   2.086
  305TCM    cl2 1690   1.891   2.942   2.125
  305TCM     h1 1691   1.766   2.944   1.921
  305TCM    cl3 1692   1.697   3.142   2.036
  306TCM     c1 1693   4.628   0.021   4.707
  306TCM    cl1 1694   4.718  -0.020   4.558
  306TCM    cl2 1695   4.742   0.082   4.832
  306TCM     h1 1696   4.554   0.099   4.685
  306TCM    cl3 1697   4.544  -0.125   4.770
  307TCM     c1 1698   4.174   4.906   2.588
  307TCM    cl1 1699   4.139   5.081   2.575
  307TCM    cl2 1700   4.113   4.844   2.745
  307TCM     h1 1701   4.124   4.852   2.506
  307TCM    cl3 1702   4.351   4.878   2.578
  308TCM     c1 1703   1.322   0.090   2.960
  308TCM    cl1 1704   1.476   0.056   2.875
  308TCM    cl2 1705   1.266  -0.059   3.043
  308TCM     h1 1706   1.337   0.169   3.033
  308TCM    cl3 1707   1.198   0.141   2.841
  309TCM     c1 1708   3.419   0.037   3.537
  309TCM    cl1 1709   3.358   0.150   3.412
  309TCM    cl2 1710   3.589  -0.006   3.502
  309TCM     h1 1711   3.413   0.085   3.636
  309TCM    cl3 1712   3.318  -0.111   3.536
  310TCM     c1 1713   3.805   2.068   4.722
  310TCM    cl1 1714   3.782   2.012   4.891
  310TCM    cl2 1715   3.915   2.209   4.721
  310TCM     h1 1716   3.847   1.987   4.662
  310TCM    cl3 1717   3.646   2.117   4.654
  311TCM     c1 1718   4.789   4.366   2.803
  311TCM    cl1 1719   4.688   4.323   2.661
  311TCM    cl2 1720   4.938   4.265   2.802
  311TCM     h1 1721   4.817   4.471   2.797
  311TCM    cl3 1722   4.697   4.336   2.954
  312TCM     c1 1723   4.835   2.962   2.216
  312TCM    cl1 1724   4.862   2.789   2.178
  312TCM    cl2 1725   4.978   3.056   2.163
  312TCM     h1 1726   4.746   2.998   2.163
  312TCM    cl3 1727   4.812   2.982   2.393
  313TCM     c1 1728   1.485   2.092   0.557
  313TCM    cl1 1729   1.338   2.179   0.610
  313TCM    cl2 1730   1.547   1.992   0.692
  313TCM     h1 1731   1.461   2.029   0.471
  313TCM    cl3 1732   1.611   2.212   0.509
  314TCM     c1 1733   1.199   1.579   3.789
  314TCM    cl1 1734   1.243   1.469   3.923
  314TCM    cl2 1735   1.091   1.708   3.851
  314TCM     h1 1736   1.289   1.624   3.746
  314TCM    cl3 1737   1.112   1.486   3.663
  315TCM     c1 1738   4.166   3.702   1.223
  315TCM    cl1 1739   4.231   3.794   1.362
  315TCM    cl2 1740   4.237   3.537   1.223
  315TCM     h1 1741   4.057   3.694   1.232
  315TCM    cl3 1742   4.207   3.785   1.070
  316TCM     c1 1743   4.993   0.162   1.984
  316TCM    cl1 1744   5.123   0.091   1.883
  316TCM    cl2 1745   5.024   0.338   2.007
  316TCM     h1 1746   4.896   0.148   1.934
  316TCM    cl3 1747   4.990   0.081   2.144
  317TCM     c1 1748   1.357   2.278   1.741
  317TCM    cl1 1749   1.453   2.427   1.772
  317TCM    cl2 1750   1.324   2.265   1.565
  317TCM     h1 1751   1.414   2.191   1.774
  317TCM    cl3 1752   1.202   2.286   1.830
  318TCM     c1 1753   0.916   2.336   4.051
  318TCM    cl1 1754   0.947   2.316   3.875
  318TCM    cl2 1755   0.869   2.178   4.121
  318TCM     h1 1756   1.007   2.373   4.099
  318TCM    cl3 1757   0.783   2.454   4.075
  319TCM     c1 1758   0.860   0.946   4.952
  319TCM    cl1 1759   0.897   1.019   4.793
  319TCM    cl2 1760   1.014   0.907   5.036
  319TCM     h1 1761   0.802   1.016   5.012
  319TCM    cl3 1762   0.766   0.794   4.929
  320TCM     c1 1763   3.427   2.804   0.958
  320TCM    cl1 1764   3.571   2.807   1.065
  320TCM    cl2 1765   3.471   2.725   0.802
  320TCM     h1 1766   3.347   2.747   1.006
  320TCM    cl3 1767   3.372   2.972   0.927
  321TCM     c1 1768   3.618   4.811   2.755
  321TCM    cl1 1769   3.490   4.904   2.671
  321TCM    cl2 1770   3.688   4.912   2.886
  321TCM     h1 1771   3.574   4.720   2.798
  321TCM    cl3 1772   3.746   4.765   2.638
  322TCM     c1 1773   4.423   3.033   4.865
  322TCM    cl1 1774   4.361   3.073   5.028
  322TCM    cl2 1775   4.587   3.105   4.843
  322TCM     h1 1776   4.355   3.073   4.789
  322TCM    cl3 1777   4.435   2.855   4.848
  323TCM     c1 1778   4.523   2.652   2.532
  323TCM    cl1 1779   4.523   2.826   2.576
  323TCM    cl2 1780   4.661   2.619   2.422
  323TCM     h1 1781   4.533   2.591   2.622
  323TCM    cl3 1782   4.368   2.615   2.449
  324TCM     c1 1783   2.277   4.431   3.267
  324TCM    cl1 1784   2.363   4.507   3.404
  324TCM    cl2 1785   2.184   4.289   3.327
  324TCM     h1 1786   2.209   4.503   3.220
  324TCM    cl3 1787   2.396   4.375   3.146
  325TCM     c1 1788   3.406   2.375   0.768
  325TCM    cl1 1789   3.439   2.361   0.593
  325TCM    cl2 1790   3.426   2.215   0.847
  325TCM     h1 1791   3.476   2.447   0.813
  325TCM    cl3 1792   3.238   2.433   0.792
  326TCM     c1 1793   2.070   1.893   2.498
  326TCM    cl1 1794   1.947   1.858   2.623
  326TCM    cl2 1795   2.189   2.010   2.566
  326TCM     h1 1796   2.121   1.801   2.469
  326TCM    cl3 1797   1.991   1.966   2.355
  327TCM     c1 1798   2.870   2.926   3.194
  327TCM    cl1 1799   2.937   2.901   3.359
  327TCM    cl2 1800   3.005   2.953   3.079
  327TCM     h1 1801   2.813   2.838   3.164
  327TCM    cl3 1802   2.764   3.070   3.194
  328TCM     c1 1803   4.952   1.846   1.473
  328TCM    cl1 1804   4.889   1.997   1.548
  328TCM    cl2 1805   5.050   1.888   1.329
  328TCM     h1 1806   5.015   1.793   1.546
  328TCM    cl3 1807   4.815   1.741   1.425
  329TCM     c1 1808   1.698   1.282   3.200
  329TCM    cl1 1809   1.637   1.434   3.127
  329TCM    cl2 1810   1.568   1.158   3.198
  329TCM     h1 1811   1.783   1.246   3.142
  329TCM    cl3 1812   1.751   1.313   3.368
  330TCM     c1 1813   3.406   4.228   2.046
  330TCM    cl1 1814   3.440   4.278   1.877
  330TCM    cl2 1815   3.356   4.056   2.048
  330TCM     h1 1816   3.496   4.241   2.106
  330TCM    cl3 1817   3.273   4.329   2.112
  331TCM     c1 1818   2.202   3.713   0.423
  331TCM    cl1 1819   2.047   3.639   0.369
  331TCM    cl2 1820   2.318   3.582   0.462
  331TCM     h1 1821   2.243   3.776   0.344
  331TCM    cl3 1822   2.171   3.811   0.570
  332TCM     c1 1823   4.620   2.188   2.727
  332TCM    cl1 1824   4.484   2.157   2.839
  332TCM    cl2 1825   4.562   2.292   2.592
  332TCM     h1 1826   4.701   2.238   2.780
  332TCM    cl3 1827   4.679   2.032   2.660
  333TCM     c1 1828   2.590   3.859   1.287
  333TCM    cl1 1829   2.472   3.782   1.178
  333TCM    cl2 1830   2.728   3.921   1.191
  333TCM     h1 1831   2.542   3.942   1.340
  333TCM    cl3 1832   2.649   3.738   1.406
  334TCM     c1 1833   1.070   0.041   4.546
  334TCM    cl1 1834   1.106   0.196   4.629
  334TCM    cl2 1835   0.903   0.045   4.479
  334TCM     h1 1836   1.141   0.026   4.465
  334TCM    cl3 1837   1.084  -0.094   4.664
  335TCM     c1 1838   3.658   3.390   3.457
  335TCM    cl1 1839   3.654   3.279   3.599
  335TCM    cl2 1840   3.660   3.293   3.306
  335TCM     h1 1841   3.569   3.454   3.458
  335TCM    cl3 1842   3.806   3.490   3.466
  336TCM     c1 1843   3.578   3.882   1.025
  336TCM    cl1 1844   3.698   4.015   1.015
  336TCM    cl2 1845   3.569   3.822   1.194
  336TCM     h1 1846   3.480   3.919   0.995
  336TCM    cl3 1847   3.628   3.748   0.916
  337TCM     c1 1848   2.538   1.275   3.646
  337TCM    cl1 1849   2.698   1.356   3.654
  337TCM    cl2 1850   2.456   1.320   3.493
  337TCM     h1 1851   2.552   1.166   3.649
  337TCM    cl3 1852   2.438   1.327   3.785
  338TCM     c1 1853   2.045   3.688   4.588
  338TCM    cl1 1854   1.976   3.731   4.748
  338TCM    cl2 1855   1.949   3.767   4.458
  338TCM     h1 1856   2.149   3.722   4.582
  338TCM    cl3 1857   2.039   3.510   4.565
  339TCM     c1 1858   4.090   3.898   2.868
  339TCM    cl1 1859   4.015   4.060   2.883
  339TCM    cl2 1860   4.178   3.887   2.712
  339TCM     h1 1861   4.159   3.882   2.950
  339TCM    cl3 1862   3.961   3.773   2.872
  340TCM     c1 1863   3.387   1.417   4.591
  340TCM    cl1 1864   3.282   1.478   4.723
  340TCM    cl2 1865   3.555   1.400   4.651
  340TCM     h1 1866   3.350   1.319   4.558
  340TCM    cl3 1867   3.384   1.532   4.453
  341TCM     c1 1868   0.555   0.552   3.862
  341TCM    cl1 1869   0.428   0.532   3.737
  341TCM    cl2 1870   0.655   0.403   3.866
  341TCM     h1 1871   0.618   0.638   3.838
  341TCM    cl3 1872   0.477   0.576   4.022
  342TCM     c1 1873   3.330   0.894   1.875
  342TCM    cl1 1874   3.503   0.851   1.890
  342TCM    cl2 1875   3.273   0.970   2.027
  342TCM     h1 1876   3.316   0.964   1.792
  342TCM    cl3 1877   3.236   0.745   1.842
  343TCM     c1 1878   2.770   0.056   2.473
  343TCM    cl1 1879   2.866  -0.057   2.373
  343TCM    cl2 1880   2.649   0.139   2.371
  343TCM     h1 1881   2.719   0.001   2.553
  343TCM    cl3 1882   2.879   0.179   2.547
  344TCM     c1 1883   2.953   4.518   2.111
  344TCM    cl1 1884   2.909   4.396   2.235
  344TCM    cl2 1885   2.836   4.654   2.116
  344TCM     h1 1886   3.054   4.555   2.130
  344TCM    cl3 1887   2.947   4.442   1.948
  345TCM     c1 1888   0.749   1.114   2.046
  345TCM    cl1 1889   0.620   1.040   1.946
  345TCM    cl2 1890   0.801   0.995   2.170
  345TCM     h1 1891   0.834   1.140   1.982
  345TCM    cl3 1892   0.687   1.262   2.126
  346TCM     c1 1893   2.558   4.455   2.835
  346TCM    cl1 1894   2.673   4.584   2.883
  346TCM    cl2 1895   2.629   4.356   2.703
  346TCM     h1 1896   2.538   4.390   2.921
  346TCM    cl3 1897   2.405   4.529   2.779
  347TCM     c1 1898   4.266   1.889   4.519
  347TCM    cl1 1899   4.136   1.928   4.636
  347TCM    cl2 1900   4.233   1.728   4.447
  347TCM     h1 1901   4.268   1.964   4.440
  347TCM    cl3 1902   4.424   1.886   4.603
  348TCM     c1 1903   0.391   0.500   0.104
  348TCM    cl1 1904   0.429   0.652   0.018
  348TCM    cl2 1905   0.380   0.366  -0.014
  348TCM     h1 1906   0.470   0.479   0.177
  348TCM    cl3 1907   0.234   0.517   0.190
  349TCM     c1 1908   3.836   3.570   0.017
  349TCM    cl1 1909   3.752   3.609   0.171
  349TCM    cl2 1910   4.006   3.525   0.051
  349TCM     h1 1911   3.785   3.487  -0.032
  349TCM    cl3 1912   3.832   3.714  -0.090
  350TCM     c1 1913   1.907   2.329   2.682
  350TCM    cl1 1914   1.857   2.180   2.768
  350TCM    cl2 1915   1.779   2.453   2.704
  350TCM     h1 1916   2.001   2.366   2.724
  350TCM    cl3 1917   1.929   2.292   2.508
  351TCM     c1 1918   2.075   3.918   1.294
  351TCM    cl1 1919   1.970   3.932   1.149
  351TCM    cl2 1920   2.217   4.026   1.275
  351TCM     h1 1921   2.018   3.946   1.383
  351TCM    cl3 1922   2.133   3.749   1.310
  352TCM     c1 1923   4.222   3.791   1.785
  352TCM    cl1 1924   4.290   3.937   1.707
  352TCM    cl2 1925   4.124   3.840   1.928
  352TCM     h1 1926   4.158   3.738   1.714
  352TCM    cl3 1927   4.355   3.682   1.838
  353TCM     c1 1928   2.556   4.497   0.535
  353TCM    cl1 1929   2.544   4.542   0.362
  353TCM    cl2 1930   2.653   4.620   0.622
  353TCM     h1 1931   2.457   4.490   0.579
  353TCM    cl3 1932   2.638   4.338   0.548
  354TCM     c1 1933   2.855   2.419   4.535
  354TCM    cl1 1934   2.828   2.560   4.427
  354TCM    cl2 1935   2.986   2.315   4.469
  354TCM     h1 1936   2.884   2.455   4.635
  354TCM    cl3 1937   2.703   2.325   4.547
  355TCM     c1 1938   1.641   3.283   2.353
  355TCM    cl1 1939   1.790   3.374   2.313
  355TCM    cl2 1940   1.553   3.368   2.484
  355TCM     h1 1941   1.577   3.277   2.265
  355TCM    cl3 1942   1.685   3.118   2.407
  356TCM     c1 1943   0.851   4.200   4.563
  356TCM    cl1 1944   0.880   4.277   4.403
  356TCM    cl2 1945   1.004   4.202   4.656
  356TCM     h1 1946   0.774   4.256   4.617
  356TCM    cl3 1947   0.796   4.032   4.539
  357TCM     c1 1948   0.156   2.346   1.626
  357TCM    cl1 1949   0.201   2.279   1.786
  357TCM    cl2 1950  -0.020   2.384   1.625
  357TCM     h1 1951   0.213   2.438   1.607
  357TCM    cl3 1952   0.193   2.225   1.498
  358TCM     c1 1953   4.604   0.846   4.261
  358TCM    cl1 1954   4.739   0.936   4.184
  358TCM    cl2 1955   4.670   0.722   4.373
  358TCM     h1 1956   4.541   0.916   4.317
  358TCM    cl3 1957   4.506   0.766   4.134
  359TCM     c1 1958   4.108   1.041   0.191
  359TCM    cl1 1959   4.236   0.936   0.122
  359TCM    cl2 1960   3.949   0.993   0.123
  359TCM     h1 1961   4.107   1.030   0.300
  359TCM    cl3 1962   4.142   1.212   0.149
  360TCM     c1 1963   1.861   1.744   3.719
  360TCM    cl1 1964   2.018   1.788   3.794
  360TCM    cl2 1965   1.886   1.607   3.606
  360TCM     h1 1966   1.789   1.715   3.796
  360TCM    cl3 1967   1.798   1.884   3.627
  361TCM     c1 1968   0.325   1.885   1.842
  361TCM    cl1 1969   0.395   1.723   1.809
  361TCM    cl2 1970   0.243   1.883   2.001
  361TCM     h1 1971   0.405   1.960   1.842
  361TCM    cl3 1972   0.205   1.923   1.714
  362TCM     c1 1973   1.551   0.498   3.198
  362TCM    cl1 1974   1.527   0.360   3.087
  362TCM    cl2 1975   1.545   0.440   3.368
  362TCM     h1 1976   1.648   0.544   3.179
  362TCM    cl3 1977   1.420   0.617   3.171
  363TCM     c1 1978   2.184   4.113   0.913
  363TCM    cl1 1979   2.056   4.081   0.792
  363TCM    cl2 1980   2.141   4.257   1.010
  363TCM     h1 1981   2.194   4.026   0.979
  363TCM    cl3 1982   2.340   4.142   0.828
  364TCM     c1 1983   3.421   1.778   4.018
  364TCM    cl1 1984   3.489   1.943   4.039
  364TCM    cl2 1985   3.300   1.745   4.146
  364TCM     h1 1986   3.373   1.770   3.920
  364TCM    cl3 1987   3.554   1.658   4.030
  365TCM     c1 1988   2.172   3.716   3.939
  365TCM    cl1 1989   2.164   3.796   3.779
  365TCM    cl2 1990   2.127   3.833   4.067
  365TCM     h1 1991   2.103   3.631   3.942
  365TCM    cl3 1992   2.339   3.656   3.968
  366TCM     c1 1993   3.177   0.641   4.804
  366TCM    cl1 1994   3.326   0.544   4.777
  366TCM    cl2 1995   3.045   0.534   4.861
  366TCM     h1 1996   3.197   0.718   4.880
  366TCM    cl3 1997   3.128   0.720   4.651
  367TCM     c1 1998   3.023   2.553   2.318
  367TCM    cl1 1999   2.921   2.630   2.445
  367TCM    cl2 2000   2.998   2.639   2.163
  367TCM     h1 2001   3.128   2.559   2.347
  367TCM    cl3 2002   2.975   2.382   2.299
  368TCM     c1 2003   4.911   4.350   0.726
  368TCM    cl1 2004   5.054   4.250   0.681
  368TCM    cl2 2005   4.945   4.436   0.880
  368TCM     h1 2006   4.891   4.423   0.647
  368TCM    cl3 2007   4.769   4.242   0.747
  369TCM     c1 2008   2.051   2.812   4.398
  369TCM    cl1 2009   2.026   2.638   4.359
  369TCM    cl2 2010   2.087   2.829   4.573
  369TCM     h1 2011   2.135   2.851   4.339
  369TCM    cl3 2012   1.902   2.904   4.359
  370TCM     c1 2013   2.507   4.035   4.082
  370TCM    cl1 2014   2.375   4.065   4.200
  370TCM    cl2 2015   2.439   4.033   3.916
  370TCM     h1 2016   2.582   4.114   4.090
  370TCM    cl3 2017   2.583   3.876   4.116
  371TCM     c1 2018   4.633   0.174   2.714
  371TCM    cl1 2019   4.675   0.079   2.568
  371TCM    cl2 2020   4.697   0.093   2.860
  371TCM     h1 2021   4.677   0.274   2.706
  371TCM    cl3 2022   4.455   0.187   2.727
  372TCM     c1 2023   1.995   3.533   1.633
  372TCM    cl1 2024   1.925   3.504   1.471
  372TCM    cl2 2025   2.030   3.708   1.653
  372TCM     h1 2026   1.925   3.501   1.710
  372TCM    cl3 2027   2.148   3.440   1.648
  373TCM     c1 2028   3.380   0.421   0.744
  373TCM    cl1 2029   3.537   0.464   0.668
  373TCM    cl2 2030   3.408   0.357   0.909
  373TCM     h1 2031   3.317   0.509   0.749
  373TCM    cl3 2032   3.300   0.295   0.644
  374TCM     c1 2033   0.116   3.725   2.935
  374TCM    cl1 2034  -0.001   3.632   2.835
  374TCM    cl2 2035   0.048   3.886   2.973
  374TCM     h1 2036   0.135   3.671   3.028
  374TCM    cl3 2037   0.270   3.744   2.844
  375TCM     c1 2038   2.762   2.764   4.818
  375TCM    cl1 2039   2.853   2.834   4.681
  375TCM    cl2 2040   2.878   2.699   4.939
  375TCM     h1 2041   2.700   2.841   4.864
  375TCM    cl3 2042   2.659   2.630   4.758
  376TCM     c1 2043   2.281   0.257   0.122
  376TCM    cl1 2044   2.157   0.384   0.149
  376TCM    cl2 2045   2.221   0.101   0.187
  376TCM     h1 2046   2.301   0.247   0.015
  376TCM    cl3 2047   2.433   0.304   0.206
  377TCM     c1 2048   2.991   0.279   2.156
  377TCM    cl1 2049   2.874   0.162   2.087
  377TCM    cl2 2050   3.108   0.193   2.260
  377TCM     h1 2051   3.044   0.329   2.074
  377TCM    cl3 2052   2.904   0.401   2.254
  378TCM     c1 2053   1.697   3.510   4.384
  378TCM    cl1 2054   1.541   3.510   4.474
  378TCM    cl2 2055   1.681   3.613   4.237
  378TCM     h1 2056   1.776   3.550   4.448
  378TCM    cl3 2057   1.737   3.342   4.335
  379TCM     c1 2058   0.851   2.796   0.340
  379TCM    cl1 2059   0.919   2.736   0.494
  379TCM    cl2 2060   0.974   2.781   0.210
  379TCM     h1 2061   0.762   2.738   0.314
  379TCM    cl3 2062   0.806   2.969   0.360
  380TCM     c1 2063   2.840   0.200   3.184
  380TCM    cl1 2064   2.698   0.267   3.269
  380TCM    cl2 2065   2.803   0.032   3.131
  380TCM     h1 2066   2.863   0.261   3.097
  380TCM    cl3 2067   2.981   0.198   3.295
  381TCM     c1 2068   2.101   3.039   0.995
  381TCM    cl1 2069   2.097   2.965   0.831
  381TCM    cl2 2070   2.014   2.933   1.111
  381TCM     h1 2071   2.205   3.051   1.027
  381TCM    cl3 2072   2.021   3.200   0.989
  382TCM     c1 2073   3.072   0.250   3.888
  382TCM    cl1 2074   3.186   0.308   4.015
  382TCM    cl2 2075   2.971   0.117   3.955
  382TCM     h1 2076   3.008   0.332   3.856
  382TCM    cl3 2077   3.165   0.187   3.748
  383TCM     c1 2078   2.783   3.322   0.018
  383TCM    cl1 2079   2.732   3.492  -0.010
  383TCM    cl2 2080   2.945   3.322   0.094
  383TCM     h1 2081   2.711   3.272   0.083
  383TCM    cl3 2082   2.790   3.236  -0.140
  384TCM     c1 2083   0.168   0.490   4.235
  384TCM    cl1 2084   0.293   0.386   4.311
  384TCM    cl2 2085   0.098   0.599   4.359
  384TCM     h1 2086   0.212   0.549   4.155
  384TCM    cl3 2087   0.038   0.385   4.170
  385TCM     c1 2088   2.549   2.573   3.446
  385TCM    cl1 2089   2.613   2.591   3.613
  385TCM    cl2 2090   2.494   2.404   3.421
  385TCM     h1 2091   2.466   2.642   3.431
  385TCM    cl3 2092   2.680   2.611   3.329
  386TCM     c1 2093   0.625   1.424   4.954
  386TCM    cl1 2094   0.658   1.567   5.057
  386TCM    cl2 2095   0.460   1.362   4.987
  386TCM     h1 2096   0.633   1.452   4.848
  386TCM    cl3 2097   0.744   1.295   4.990
  387TCM     c1 2098   4.663   2.784   1.803
  387TCM    cl1 2099   4.791   2.661   1.827
  387TCM    cl2 2100   4.637   2.808   1.627
  387TCM     h1 2101   4.570   2.750   1.850
  387TCM    cl3 2102   4.714   2.940   1.877
  388TCM     c1 2103   3.103   3.208   0.491
  388TCM    cl1 2104   3.006   3.357   0.468
  388TCM    cl2 2105   3.278   3.250   0.486
  388TCM     h1 2106   3.080   3.164   0.588
  388TCM    cl3 2107   3.065   3.091   0.360
  389TCM     c1 2108   2.498   4.793   1.407
  389TCM    cl1 2109   2.460   4.786   1.231
  389TCM    cl2 2110   2.606   4.656   1.448
  389TCM     h1 2111   2.548   4.888   1.430
  389TCM    cl3 2112   2.348   4.780   1.503
  390TCM     c1 2113   2.772   3.994   4.453
  390TCM    cl1 2114   2.795   4.088   4.301
  390TCM    cl2 2115   2.854   3.835   4.436
  390TCM     h1 2116   2.817   4.049   4.537
  390TCM    cl3 2117   2.597   3.971   4.483
  391TCM     c1 2118   3.961   3.941   2.429
  391TCM    cl1 2119   3.917   4.097   2.508
  391TCM    cl2 2120   3.943   3.956   2.251
  391TCM     h1 2121   4.065   3.917   2.453
  391TCM    cl3 2122   3.853   3.812   2.490
  392TCM     c1 2123   2.156   1.687   2.040
  392TCM    cl1 2124   2.230   1.750   2.190
  392TCM    cl2 2125   2.263   1.563   1.968
  392TCM     h1 2126   2.058   1.643   2.062
  392TCM    cl3 2127   2.134   1.822   1.923
  393TCM     c1 2128   0.069   2.246   0.564
  393TCM    cl1 2129  -0.066   2.301   0.459
  393TCM    cl2 2130   0.092   2.364   0.698
  393TCM     h1 2131   0.045   2.148   0.606
  393TCM    cl3 2132   0.219   2.235   0.467
  394TCM     c1 2133   4.037   0.514   3.039
  394TCM    cl1 2134   3.996   0.605   3.188
  394TCM    cl2 2135   4.215   0.495   3.026
  394TCM     h1 2136   3.990   0.416   3.042
  394TCM    cl3 2137   3.976   0.605   2.896
  395TCM     c1 2138   4.957   2.221   0.102
  395TCM    cl1 2139   5.127   2.167   0.119
  395TCM    cl2 2140   4.847   2.086   0.146
  395TCM     h1 2141   4.939   2.307   0.167
  395TCM    cl3 2142   4.927   2.269  -0.069
  396TCM     c1 2143   3.371   0.868   1.049
  396TCM    cl1 2144   3.233   0.827   1.157
  396TCM    cl2 2145   3.392   0.737   0.928
  396TCM     h1 2146   3.350   0.962   0.998
  396TCM    cl3 2147   3.521   0.884   1.146
  397TCM     c1 2148   2.575   4.393   4.536
  397TCM    cl1 2149   2.732   4.317   4.576
  397TCM    cl2 2150   2.448   4.330   4.646
  397TCM     h1 2151   2.583   4.502   4.548
  397TCM    cl3 2152   2.531   4.354   4.367
  398TCM     c1 2153   1.454   0.096   0.458
  398TCM    cl1 2154   1.464  -0.040   0.576
  398TCM    cl2 2155   1.512   0.041   0.298
  398TCM     h1 2156   1.350   0.130   0.450
  398TCM    cl3 2157   1.557   0.231   0.515
  399TCM     c1 2158   1.386   3.204   4.169
  399TCM    cl1 2159   1.422   3.373   4.120
  399TCM    cl2 2160   1.336   3.201   4.341
  399TCM     h1 2161   1.305   3.165   4.107
  399TCM    cl3 2162   1.532   3.102   4.148
  400TCM     c1 2163   1.327   2.219   2.216
  400TCM    cl1 2164   1.348   2.064   2.129
  400TCM    cl2 2165   1.156   2.272   2.203
  400TCM     h1 2166   1.353   2.206   2.321
  400TCM    cl3 2167   1.434   2.343   2.142
  401TCM     c1 2168   1.198   1.308   0.426
  401TCM    cl1 2169   1.134   1.465   0.368
  401TCM    cl2 2170   1.116   1.261   0.578
  401TCM     h1 2171   1.182   1.232   0.350
  401TCM    cl3 2172   1.374   1.325   0.458
  402TCM     c1 2173   0.372   0.301   3.098
  402TCM    cl1 2174   0.254   0.323   2.965
  402TCM    cl2 2175   0.423   0.129   3.103
  402TCM     h1 2176   0.459   0.365   3.080
  402TCM    cl3 2177   0.297   0.345   3.255
  403TCM     c1 2178   2.720   3.864   0.245
  403TCM    cl1 2179   2.686   4.040   0.243
  403TCM    cl2 2180   2.817   3.822   0.101
  403TCM     h1 2181   2.775   3.838   0.336
  403TCM    cl3 2182   2.564   3.775   0.241
  404TCM     c1 2183   0.297   1.862   0.832
  404TCM    cl1 2184   0.299   1.842   1.011
  404TCM    cl2 2185   0.273   2.034   0.791
  404TCM     h1 2186   0.392   1.827   0.791
  404TCM    cl3 2187   0.162   1.766   0.763
  405TCM     c1 2188   3.254   4.743   4.022
  405TCM    cl1 2189   3.075   4.757   4.016
  405TCM    cl2 2190   3.326   4.838   3.888
  405TCM     h1 2191   3.291   4.781   4.117
  405TCM    cl3 2192   3.301   4.571   4.005
  406TCM     c1 2193   0.300   3.367   3.227
  406TCM    cl1 2194   0.470   3.409   3.188
  406TCM    cl2 2195   0.289   3.191   3.262
  406TCM     h1 2196   0.267   3.424   3.314
  406TCM    cl3 2197   0.196   3.405   3.086
  407TCM     c1 2198   3.011   0.254   1.701
  407TCM    cl1 2199   3.127   0.368   1.778
  407TCM    cl2 2200   2.843   0.311   1.731
  407TCM     h1 2201   3.029   0.249   1.594
  407TCM    cl3 2202   3.032   0.092   1.775
  408TCM     c1 2203   4.837   0.084   4.110
  408TCM    cl1 2204   4.659   0.097   4.113
  408TCM    cl2 2205   4.896   0.125   3.945
  408TCM     h1 2206   4.881   0.154   4.182
  408TCM    cl3 2207   4.886  -0.084   4.151
  409TCM     c1 2208   3.844   0.790   2.064
  409TCM    cl1 2209   3.867   0.771   2.241
  409TCM    cl2 2210   3.841   0.628   1.988
  409TCM     h1 2211   3.750   0.842   2.044
  409TCM    cl3 2212   3.981   0.885   1.998
  410TCM     c1 2213   2.372   4.775   2.124
  410TCM    cl1 2214   2.529   4.849   2.170
  410TCM    cl2 2215   2.295   4.876   1.997
  410TCM     h1 2216   2.388   4.674   2.086
  410TCM    cl3 2217   2.265   4.769   2.268
  411TCM     c1 2218   2.131   2.553   0.620
  411TCM    cl1 2219   2.250   2.426   0.577
  411TCM    cl2 2220   2.161   2.699   0.520
  411TCM     h1 2221   2.030   2.516   0.601
  411TCM    cl3 2222   2.149   2.594   0.793
  412TCM     c1 2223   2.012   4.492   4.997
  412TCM    cl1 2224   2.157   4.388   4.981
  412TCM    cl2 2225   1.892   4.414   5.105
  412TCM     h1 2226   2.041   4.589   5.039
  412TCM    cl3 2227   1.938   4.516   4.835
  413TCM     c1 2228   3.463   0.999   2.381
  413TCM    cl1 2229   3.339   0.870   2.375
  413TCM    cl2 2230   3.385   1.161   2.373
  413TCM     h1 2231   3.519   0.991   2.474
  413TCM    cl3 2232   3.574   0.982   2.241
  414TCM     c1 2233   3.460   4.148   0.630
  414TCM    cl1 2234   3.443   4.192   0.803
  414TCM    cl2 2235   3.296   4.135   0.556
  414TCM     h1 2236   3.517   4.224   0.578
  414TCM    cl3 2237   3.544   3.990   0.617
  415TCM     c1 2238   1.985   4.183   1.734
  415TCM    cl1 2239   2.073   4.091   1.607
  415TCM    cl2 2240   1.970   4.081   1.881
  415TCM     h1 2241   2.040   4.274   1.758
  415TCM    cl3 2242   1.822   4.225   1.673
  416TCM     c1 2243   4.925   2.640   2.789
  416TCM    cl1 2244   4.836   2.496   2.729
  416TCM    cl2 2245   4.945   2.629   2.967
  416TCM     h1 2246   5.024   2.644   2.742
  416TCM    cl3 2247   4.834   2.789   2.748
  417TCM     c1 2248   1.588   1.270   2.021
  417TCM    cl1 2249   1.684   1.120   2.002
  417TCM    cl2 2250   1.504   1.307   1.868
  417TCM     h1 2251   1.514   1.255   2.101
  417TCM    cl3 2252   1.696   1.406   2.064
  418TCM     c1 2253   0.198   0.654   1.418
  418TCM    cl1 2254   0.222   0.476   1.424
  418TCM    cl2 2255   0.204   0.719   1.585
  418TCM     h1 2256   0.276   0.700   1.358
  418TCM    cl3 2257   0.038   0.690   1.344
  419TCM     c1 2258   1.101   4.256   0.068
  419TCM    cl1 2259   1.222   4.228  -0.062
  419TCM    cl2 2260   1.067   4.102   0.152
  419TCM     h1 2261   1.141   4.328   0.139
  419TCM    cl3 2262   0.949   4.321  -0.003
  420TCM     c1 2263   3.022   2.867   0.764
  420TCM    cl1 2264   3.156   2.861   0.645
  420TCM    cl2 2265   2.999   3.036   0.817
  420TCM     h1 2266   2.930   2.830   0.717
  420TCM    cl3 2267   3.064   2.764   0.905
  421TCM     c1 2268   0.659   2.004   2.420
  421TCM    cl1 2269   0.485   2.023   2.380
  421TCM    cl2 2270   0.688   1.841   2.488
  421TCM     h1 2271   0.718   2.017   2.329
  421TCM    cl3 2272   0.706   2.129   2.540
  422TCM     c1 2273   2.626   0.565   4.616
  422TCM    cl1 2274   2.803   0.559   4.588
  422TCM    cl2 2275   2.542   0.546   4.458
  422TCM     h1 2276   2.596   0.485   4.683
  422TCM    cl3 2277   2.581   0.723   4.689
  423TCM     c1 2278   0.517   4.311   3.845
  423TCM    cl1 2279   0.657   4.226   3.773
  423TCM    cl2 2280   0.570   4.399   3.992
  423TCM     h1 2281   0.476   4.382   3.773
  423TCM    cl3 2282   0.390   4.191   3.890
  424TCM     c1 2283   4.995   4.052   1.223
  424TCM    cl1 2284   4.934   3.889   1.265
  424TCM    cl2 2285   4.954   4.089   1.052
  424TCM     h1 2286   4.950   4.126   1.288
  424TCM    cl3 2287   5.173   4.054   1.243
  425TCM     c1 2288   2.579   2.386   0.278
  425TCM    cl1 2289   2.427   2.478   0.260
  425TCM    cl2 2290   2.614   2.359   0.453
  425TCM     h1 2291   2.570   2.289   0.228
  425TCM    cl3 2292   2.714   2.479   0.205
  426TCM     c1 2293   0.407   4.879   3.370
  426TCM    cl1 2294   0.282   4.815   3.260
  426TCM    cl2 2295   0.570   4.855   3.299
  426TCM     h1 2296   0.390   4.986   3.386
  426TCM    cl3 2297   0.398   4.792   3.527
  427TCM     c1 2298   3.410   2.422   2.099
  427TCM    cl1 2299   3.537   2.548   2.108
  427TCM    cl2 2300   3.272   2.483   2.003
  427TCM     h1 2301   3.451   2.333   2.051
  427TCM    cl3 2302   3.354   2.382   2.265
  428TCM     c1 2303   4.126   1.058   4.793
  428TCM    cl1 2304   4.249   1.188   4.809
  428TCM    cl2 2305   4.207   0.903   4.754
  428TCM     h1 2306   4.071   1.048   4.887
  428TCM    cl3 2307   4.012   1.101   4.661
  429TCM     c1 2308   1.210   2.139   4.510
  429TCM    cl1 2309   1.208   2.230   4.664
  429TCM    cl2 2310   1.041   2.114   4.454
  429TCM     h1 2311   1.265   2.195   4.434
  429TCM    cl3 2312   1.288   1.979   4.535
  430TCM     c1 2313   0.540   0.180   1.661
  430TCM    cl1 2314   0.491   0.234   1.497
  430TCM    cl2 2315   0.519   0.002   1.673
  430TCM     h1 2316   0.645   0.205   1.678
  430TCM    cl3 2317   0.438   0.262   1.782
  431TCM     c1 2318   3.770   0.090   0.804
  431TCM    cl1 2319   3.780   0.261   0.859
  431TCM    cl2 2320   3.599   0.051   0.766
  431TCM     h1 2321   3.832   0.077   0.715
  431TCM    cl3 2322   3.828  -0.018   0.935
  432TCM     c1 2323   2.944   1.859   3.293
  432TCM    cl1 2324   3.001   2.030   3.294
  432TCM    cl2 2325   2.949   1.793   3.459
  432TCM     h1 2326   2.842   1.855   3.255
  432TCM    cl3 2327   3.051   1.763   3.186
  433TCM     c1 2328   3.641   2.929   3.509
  433TCM    cl1 2329   3.743   2.934   3.361
  433TCM    cl2 2330   3.644   2.763   3.577
  433TCM     h1 2331   3.679   3.000   3.583
  433TCM    cl3 2332   3.472   2.973   3.466
  434TCM     c1 2333   3.258   4.277   1.560
  434TCM    cl1 2334   3.167   4.386   1.669
  434TCM    cl2 2335   3.324   4.372   1.423
  434TCM     h1 2336   3.340   4.229   1.614
  434TCM    cl3 2337   3.146   4.153   1.495
  435TCM     c1 2338   0.468   1.103   3.860
  435TCM    cl1 2339   0.497   0.933   3.910
  435TCM    cl2 2340   0.296   1.124   3.816
  435TCM     h1 2341   0.494   1.170   3.943
  435TCM    cl3 2342   0.571   1.141   3.719
  436TCM     c1 2343   0.546   1.874   1.411
  436TCM    cl1 2344   0.641   1.829   1.556
  436TCM    cl2 2345   0.385   1.795   1.419
  436TCM     h1 2346   0.534   1.982   1.406
  436TCM    cl3 2347   0.631   1.816   1.264
  437TCM     c1 2348   0.103   2.659   0.918
  437TCM    cl1 2349   0.278   2.653   0.882
  437TCM    cl2 2350   0.038   2.820   0.871
  437TCM     h1 2351   0.050   2.581   0.863
  437TCM    cl3 2352   0.078   2.635   1.094
  438TCM     c1 2353   0.849   3.494   4.633
  438TCM    cl1 2354   0.931   3.416   4.494
  438TCM    cl2 2355   0.835   3.670   4.603
  438TCM     h1 2356   0.749   3.450   4.646
  438TCM    cl3 2357   0.946   3.467   4.782
  439TCM     c1 2358   3.468   1.022   1.470
  439TCM    cl1 2359   3.381   0.870   1.512
  439TCM    cl2 2360   3.530   1.098   1.620
  439TCM     h1 2361   3.552   0.999   1.404
  439TCM    cl3 2362   3.355   1.134   1.388
  440TCM     c1 2363   3.722   1.787   4.339
  440TCM    cl1 2364   3.567   1.861   4.391
  440TCM    cl2 2365   3.738   1.623   4.409
  440TCM     h1 2366   3.725   1.781   4.230
  440TCM    cl3 2367   3.859   1.888   4.397
  441TCM     c1 2368   0.738   3.966   4.179
  441TCM    cl1 2369   0.587   3.935   4.089
  441TCM    cl2 2370   0.834   4.090   4.092
  441TCM     h1 2371   0.714   4.002   4.279
  441TCM    cl3 2372   0.833   3.814   4.192
  442TCM     c1 2373   3.435   3.130   0.113
  442TCM    cl1 2374   3.465   3.077  -0.056
  442TCM    cl2 2375   3.392   2.987   0.213
  442TCM     h1 2376   3.525   3.176   0.154
  442TCM    cl3 2377   3.300   3.248   0.117
  443TCM     c1 2378   0.951   2.173   1.456
  443TCM    cl1 2379   0.779   2.151   1.410
  443TCM    cl2 2380   1.055   2.131   1.315
  443TCM     h1 2381   0.969   2.277   1.485
  443TCM    cl3 2382   0.990   2.065   1.594
  444TCM     c1 2383   4.494   0.208   0.062
  444TCM    cl1 2384   4.488   0.049   0.146
  444TCM    cl2 2385   4.427   0.335   0.170
  444TCM     h1 2386   4.598   0.232   0.037
  444TCM    cl3 2387   4.396   0.199  -0.087
  445TCM     c1 2388   4.623   1.113   4.969
  445TCM    cl1 2389   4.624   1.238   4.841
  445TCM    cl2 2390   4.547   0.963   4.906
  445TCM     h1 2391   4.726   1.091   5.000
  445TCM    cl3 2392   4.530   1.172   5.111
  446TCM     c1 2393   3.056   0.666   3.117
  446TCM    cl1 2394   2.957   0.759   2.999
  446TCM    cl2 2395   3.228   0.716   3.104
  446TCM     h1 2396   3.020   0.686   3.218
  446TCM    cl3 2397   3.042   0.491   3.081
  447TCM     c1 2398   4.480   1.220   4.494
  447TCM    cl1 2399   4.568   1.231   4.338
  447TCM    cl2 2400   4.487   1.051   4.553
  447TCM     h1 2401   4.525   1.288   4.567
  447TCM    cl3 2402   4.308   1.266   4.467
  448TCM     c1 2403   4.802   2.190   3.136
  448TCM    cl1 2404   4.727   2.184   3.299
  448TCM    cl2 2405   4.735   2.329   3.045
  448TCM     h1 2406   4.910   2.202   3.146
  448TCM    cl3 2407   4.767   2.037   3.048
  449TCM     c1 2408   4.999   4.869   3.691
  449TCM    cl1 2409   5.026   4.771   3.543
  449TCM    cl2 2410   5.153   4.886   3.782
  449TCM     h1 2411   4.962   4.969   3.663
  449TCM    cl3 2412   4.877   4.787   3.795
  450TCM     c1 2413   3.237   0.621   3.543
  450TCM    cl1 2414   3.146   0.763   3.483
  450TCM    cl2 2415   3.204   0.481   3.435
  450TCM     h1 2416   3.344   0.642   3.543
  450TCM    cl3 2417   3.185   0.581   3.710
  451TCM     c1 2418   3.835   3.821   1.444
  451TCM    cl1 2419   3.896   3.917   1.305
  451TCM    cl2 2420   3.931   3.864   1.590
  451TCM     h1 2421   3.729   3.844   1.461
  451TCM    cl3 2422   3.854   3.646   1.411
  452TCM     c1 2423   0.682   0.160   1.203
  452TCM    cl1 2424   0.796   0.117   1.334
  452TCM    cl2 2425   0.733   0.080   1.051
  452TCM     h1 2426   0.582   0.127   1.230
  452TCM    cl3 2427   0.682   0.338   1.180
  453TCM     c1 2428   2.340   3.972   3.425
  453TCM    cl1 2429   2.366   3.800   3.468
  453TCM    cl2 2430   2.398   4.001   3.258
  453TCM     h1 2431   2.233   3.996   3.432
  453TCM    cl3 2432   2.432   4.075   3.539
  454TCM     c1 2433   4.607   3.959   1.119
  454TCM    cl1 2434   4.557   3.794   1.167
  454TCM    cl2 2435   4.613   4.063   1.265
  454TCM     h1 2436   4.706   3.956   1.072
  454TCM    cl3 2437   4.489   4.028   1.003
  455TCM     c1 2438   3.133   4.184   4.352
  455TCM    cl1 2439   3.107   4.134   4.522
  455TCM    cl2 2440   3.167   4.039   4.252
  455TCM     h1 2441   3.043   4.233   4.314
  455TCM    cl3 2442   3.272   4.297   4.343
  456TCM     c1 2443   1.676   2.043   4.627
  456TCM    cl1 2444   1.562   2.171   4.678
  456TCM    cl2 2445   1.663   2.018   4.450
  456TCM     h1 2446   1.779   2.072   4.653
  456TCM    cl3 2447   1.635   1.891   4.713
  457TCM     c1 2448   1.584   3.248   1.652
  457TCM    cl1 2449   1.602   3.280   1.476
  457TCM    cl2 2450   1.698   3.353   1.743
  457TCM     h1 2451   1.482   3.269   1.683
  457TCM    cl3 2452   1.622   3.075   1.685
  458TCM     c1 2453   1.960   4.714   1.229
  458TCM    cl1 2454   1.918   4.660   1.394
  458TCM    cl2 2455   2.095   4.833   1.236
  458TCM     h1 2456   1.990   4.628   1.168
  458TCM    cl3 2457   1.816   4.792   1.155
  459TCM     c1 2458   3.921   4.213   3.498
  459TCM    cl1 2459   3.838   4.353   3.422
  459TCM    cl2 2460   3.972   4.260   3.663
  459TCM     h1 2461   3.852   4.128   3.503
  459TCM    cl3 2462   4.065   4.168   3.400
  460TCM     c1 2463   0.615   0.749   3.413
  460TCM    cl1 2464   0.526   0.831   3.281
  460TCM    cl2 2465   0.591   0.572   3.400
  460TCM     h1 2466   0.722   0.773   3.405
  460TCM    cl3 2467   0.552   0.807   3.570
  461TCM     c1 2468   1.554   4.318   0.269
  461TCM    cl1 2469   1.614   4.407   0.412
  461TCM    cl2 2470   1.385   4.266   0.297
  461TCM     h1 2471   1.559   4.383   0.181
  461TCM    cl3 2472   1.657   4.173   0.242
  462TCM     c1 2473   3.231   0.156   0.109
  462TCM    cl1 2474   3.185   0.162   0.283
  462TCM    cl2 2475   3.381   0.061   0.089
  462TCM     h1 2476   3.150   0.112   0.051
  462TCM    cl3 2477   3.262   0.323   0.052
  463TCM     c1 2478   3.616   0.836   3.033
  463TCM    cl1 2479   3.583   0.819   2.857
  463TCM    cl2 2480   3.785   0.892   3.056
  463TCM     h1 2481   3.547   0.909   3.077
  463TCM    cl3 2482   3.596   0.677   3.113
  464TCM     c1 2483   0.069   4.459   3.728
  464TCM    cl1 2484   0.030   4.367   3.579
  464TCM    cl2 2485   0.240   4.513   3.723
  464TCM     h1 2486   0.003   4.546   3.735
  464TCM    cl3 2487   0.045   4.354   3.871
  465TCM     c1 2488   4.304   1.541   4.883
  465TCM    cl1 2489   4.410   1.529   4.738
  465TCM    cl2 2490   4.240   1.708   4.897
  465TCM     h1 2491   4.221   1.470   4.873
  465TCM    cl3 2492   4.398   1.501   5.030
  466TCM     c1 2493   0.526   0.552   2.762
  466TCM    cl1 2494   0.605   0.564   2.923
  466TCM    cl2 2495   0.638   0.473   2.646
  466TCM     h1 2496   0.434   0.493   2.770
  466TCM    cl3 2497   0.486   0.717   2.704
  467TCM     c1 2498   0.677   1.638   2.096
  467TCM    cl1 2499   0.830   1.662   2.185
  467TCM    cl2 2500   0.716   1.611   1.923
  467TCM     h1 2501   0.624   1.552   2.136
  467TCM    cl3 2502   0.577   1.786   2.115
  468TCM     c1 2503   3.530   2.297   1.684
  468TCM    cl1 2504   3.463   2.290   1.517
  468TCM    cl2 2505   3.427   2.198   1.793
  468TCM     h1 2506   3.632   2.258   1.685
  468TCM    cl3 2507   3.531   2.467   1.740
  469TCM     c1 2508   2.641   0.984   3.985
  469TCM    cl1 2509   2.655   0.957   3.808
  469TCM    cl2 2510   2.674   0.831   4.072
  469TCM     h1 2511   2.713   1.060   4.017
  469TCM    cl3 2512   2.475   1.039   4.022
  470TCM     c1 2513   4.608   2.539   4.700
  470TCM    cl1 2514   4.681   2.579   4.859
  470TCM    cl2 2515   4.433   2.509   4.719
  470TCM     h1 2516   4.624   2.622   4.631
  470TCM    cl3 2517   4.687   2.392   4.633
  471TCM     c1 2518   3.899   0.884   2.667
  471TCM    cl1 2519   3.778   0.946   2.550
  471TCM    cl2 2520   3.951   1.017   2.775
  471TCM     h1 2521   3.855   0.803   2.726
  471TCM    cl3 2522   4.041   0.821   2.577
  472TCM     c1 2523   3.188   2.043   2.969
  472TCM    cl1 2524   3.345   1.960   2.944
  472TCM    cl2 2525   3.083   2.013   2.827
  472TCM     h1 2526   3.140   2.004   3.059
  472TCM    cl3 2527   3.216   2.219   2.987
  473TCM     c1 2528   3.662   1.404   1.266
  473TCM    cl1 2529   3.831   1.462   1.249
  473TCM    cl2 2530   3.617   1.405   1.439
  473TCM     h1 2531   3.595   1.470   1.210
  473TCM    cl3 2532   3.650   1.237   1.202
  474TCM     c1 2533   0.289   3.106   1.253
  474TCM    cl1 2534   0.239   2.964   1.156
  474TCM    cl2 2535   0.463   3.138   1.226
  474TCM     h1 2536   0.230   3.194   1.223
  474TCM    cl3 2537   0.261   3.071   1.427
  475TCM     c1 2538   2.459   3.595   4.310
  475TCM    cl1 2539   2.581   3.585   4.441
  475TCM    cl2 2540   2.325   3.703   4.359
  475TCM     h1 2541   2.505   3.634   4.219
  475TCM    cl3 2542   2.394   3.430   4.278
  476TCM     c1 2543   1.728   1.553   1.703
  476TCM    cl1 2544   1.891   1.566   1.775
  476TCM    cl2 2545   1.732   1.601   1.530
  476TCM     h1 2546   1.692   1.450   1.712
  476TCM    cl3 2547   1.617   1.663   1.791
  477TCM     c1 2548   4.491   2.443   0.224
  477TCM    cl1 2549   4.659   2.403   0.172
  477TCM    cl2 2550   4.428   2.311   0.328
  477TCM     h1 2551   4.492   2.536   0.280
  477TCM    cl3 2552   4.386   2.463   0.080
  478TCM     c1 2553   3.141   4.566   3.511
  478TCM    cl1 2554   3.012   4.445   3.483
  478TCM    cl2 2555   3.246   4.576   3.366
  478TCM     h1 2556   3.096   4.664   3.530
  478TCM    cl3 2557   3.240   4.517   3.653
  479TCM     c1 2558   0.222   3.773   0.063
  479TCM    cl1 2559   0.077   3.879   0.063
  479TCM    cl2 2560   0.359   3.860  -0.014
  479TCM     h1 2561   0.248   3.748   0.166
  479TCM    cl3 2562   0.187   3.623  -0.029
  480TCM     c1 2563   1.144   2.383   3.056
  480TCM    cl1 2564   1.036   2.475   3.166
  480TCM    cl2 2565   1.068   2.372   2.894
  480TCM     h1 2566   1.240   2.434   3.048
  480TCM    cl3 2567   1.169   2.218   3.121
  481TCM     c1 2568   2.435   2.765   1.185
  481TCM    cl1 2569   2.373   2.786   1.018
  481TCM    cl2 2570   2.466   2.591   1.215
  481TCM     h1 2571   2.528   2.821   1.197
  481TCM    cl3 2572   2.314   2.826   1.303
  482TCM     c1 2573   4.862   3.644   3.314
  482TCM    cl1 2574   5.041   3.643   3.311
  482TCM    cl2 2575   4.801   3.666   3.147
  482TCM     h1 2576   4.826   3.549   3.354
  482TCM    cl3 2577   4.804   3.779   3.417
  483TCM     c1 2578   2.305   4.886   2.960
  483TCM    cl1 2579   2.474   4.896   2.899
  483TCM    cl2 2580   2.287   4.740   3.062
  483TCM     h1 2581   2.283   4.975   3.019
  483TCM    cl3 2582   2.191   4.877   2.822
  484TCM     c1 2583   0.150   2.871   3.877
  484TCM    cl1 2584   0.324   2.911   3.863
  484TCM    cl2 2585   0.065   3.005   3.963
  484TCM     h1 2586   0.107   2.858   3.778
  484TCM    cl3 2587   0.130   2.720   3.971
  485TCM     c1 2588   2.489   2.052   3.314
  485TCM    cl1 2589   2.410   1.892   3.293
  485TCM    cl2 2590   2.511   2.128   3.153
  485TCM     h1 2591   2.426   2.116   3.377
  485TCM    cl3 2592   2.648   2.029   3.392
  486TCM     c1 2593   1.938   0.629   3.784
  486TCM    cl1 2594   1.899   0.633   3.959
  486TCM    cl2 2595   1.962   0.797   3.725
  486TCM     h1 2596   2.029   0.571   3.768
  486TCM    cl3 2597   1.802   0.554   3.695
  487TCM     c1 2598   0.960   4.988   0.735
  487TCM    cl1 2599   0.936   5.164   0.762
  487TCM    cl2 2600   1.077   4.964   0.601
  487TCM     h1 2601   0.999   4.942   0.827
  487TCM    cl3 2602   0.803   4.914   0.691
  488TCM     c1 2603   4.112   1.194   3.519
  488TCM    cl1 2604   4.095   1.329   3.402
  488TCM    cl2 2605   4.086   1.255   3.686
  488TCM     h1 2606   4.039   1.117   3.497
  488TCM    cl3 2607   4.278   1.126   3.508
  489TCM     c1 2608   3.333   4.883   3.081
  489TCM    cl1 2609   3.471   4.841   3.188
  489TCM    cl2 2610   3.185   4.902   3.179
  489TCM     h1 2611   3.355   4.976   3.028
  489TCM    cl3 2612   3.309   4.751   2.962
  490TCM     c1 2613   2.226   2.264   2.936
  490TCM    cl1 2614   2.167   2.095   2.932
  490TCM    cl2 2615   2.092   2.374   2.983
  490TCM     h1 2616   2.308   2.272   3.009
  490TCM    cl3 2617   2.286   2.310   2.774
  491TCM     c1 2618   1.564   0.405   0.181
  491TCM    cl1 2619   1.595   0.532   0.304
  491TCM    cl2 2620   1.631   0.458   0.023
  491TCM     h1 2621   1.611   0.311   0.212
  491TCM    cl3 2622   1.386   0.380   0.166
  492TCM     c1 2623   2.268   4.481   4.065
  492TCM    cl1 2624   2.318   4.652   4.087
  492TCM    cl2 2625   2.208   4.417   4.221
  492TCM     h1 2626   2.189   4.475   3.989
  492TCM    cl3 2627   2.410   4.385   4.013
  493TCM     c1 2628   0.851   3.781   4.965
  493TCM    cl1 2629   0.881   3.937   4.881
  493TCM    cl2 2630   0.684   3.727   4.927
  493TCM     h1 2631   0.924   3.706   4.932
  493TCM    cl3 2632   0.866   3.804   5.143
  494TCM     c1 2633   4.987   2.770   1.496
  494TCM    cl1 2634   4.944   2.875   1.357
  494TCM    cl2 2635   5.021   2.872   1.639
  494TCM     h1 2636   4.904   2.702   1.517
  494TCM    cl3 2637   5.134   2.674   1.456
  495TCM     c1 2638   3.363   1.079   3.436
  495TCM    cl1 2639   3.484   1.137   3.556
  495TCM    cl2 2640   3.433   0.943   3.342
  495TCM     h1 2641   3.273   1.046   3.489
  495TCM    cl3 2642   3.321   1.214   3.325
  496TCM     c1 2643   0.211   1.461   1.454
  496TCM    cl1 2644   0.232   1.287   1.492
  496TCM    cl2 2645   0.152   1.547   1.600
  496TCM     h1 2646   0.307   1.503   1.423
  496TCM    cl3 2647   0.092   1.481   1.322
  497TCM     c1 2648   1.424   4.910   0.957
  497TCM    cl1 2649   1.256   4.875   0.906
  497TCM    cl2 2650   1.524   4.762   0.937
  497TCM     h1 2651   1.465   4.990   0.896
  497TCM    cl3 2652   1.423   4.960   1.130
  498TCM     c1 2653   2.677   2.997   3.594
  498TCM    cl1 2654   2.608   2.970   3.758
  498TCM    cl2 2655   2.706   3.173   3.569
  498TCM     h1 2656   2.772   2.943   3.585
  498TCM    cl3 2657   2.561   2.937   3.471
  499TCM     c1 2658   0.103   3.177   0.881
  499TCM    cl1 2659   0.018   3.225   0.729
  499TCM    cl2 2660  -0.009   3.197   1.020
  499TCM     h1 2661   0.135   3.073   0.873
  499TCM    cl3 2662   0.245   3.283   0.905
  500TCM     c1 2663   1.924   0.204   4.852
  500TCM    cl1 2664   1.838   0.089   4.744
  500TCM    cl2 2665   2.101   0.182   4.832
  500TCM     h1 2666   1.896   0.306   4.826
  500TCM    cl3 2667   1.878   0.171   5.022
  501TCM     c1 2668   1.055   1.930   2.898
  501TCM    cl1 2669   1.161   1.810   2.817
  501TCM    cl2 2670   1.025   1.880   3.067
  501TCM     h1 2671   1.103   2.028   2.897
  501TCM    cl3 2672   0.899   1.941   2.808
  502TCM     c1 2673   2.719   3.747   2.230
  502TCM    cl1 2674   2.674   3.593   2.310
  502TCM    cl2 2675   2.724   3.878   2.352
  502TCM     h1 2676   2.817   3.736   2.184
  502TCM    cl3 2677   2.598   3.788   2.104
  503TCM     c1 2678   1.435   0.564   2.656
  503TCM    cl1 2679   1.403   0.683   2.787
  503TCM    cl2 2680   1.442   0.399   2.726
  503TCM     h1 2681   1.354   0.569   2.582
  503TCM    cl3 2682   1.591   0.602   2.578
  504TCM     c1 2683   0.082   0.073   2.669
  504TCM    cl1 2684  -0.021  -0.068   2.706
  504TCM    cl2 2685  -0.001   0.224   2.716
  504TCM     h1 2686   0.177   0.065   2.723
  504TCM    cl3 2687   0.115   0.077   2.492
  505TCM     c1 2688   2.709   3.969   2.926
  505TCM    cl1 2689   2.643   4.109   3.017
  505TCM    cl2 2690   2.710   4.006   2.751
  505TCM     h1 2691   2.811   3.949   2.960
  505TCM    cl3 2692   2.605   3.826   2.955
  506TCM     c1 2693   0.315   4.913   4.910
  506TCM    cl1 2694   0.181   4.829   4.994
  506TCM    cl2 2695   0.337   4.841   4.747
  506TCM     h1 2696   0.291   5.019   4.899
  506TCM    cl3 2697   0.466   4.896   5.005
  507TCM     c1 2698   1.403   3.878   4.921
  507TCM    cl1 2699   1.229   3.853   4.888
  507TCM    cl2 2700   1.488   3.721   4.909
  507TCM     h1 2701   1.445   3.948   4.848
  507TCM    cl3 2702   1.423   3.944   5.087
  508TCM     c1 2703   0.738   1.719   3.180
  508TCM    cl1 2704   0.654   1.850   3.091
  508TCM    cl2 2705   0.629   1.577   3.193
  508TCM     h1 2706   0.830   1.691   3.127
  508TCM    cl3 2707   0.778   1.776   3.345
  509TCM     c1 2708   4.742   0.539   4.818
  509TCM    cl1 2709   4.683   0.558   4.987
  509TCM    cl2 2710   4.733   0.696   4.732
  509TCM     h1 2711   4.845   0.504   4.819
  509TCM    cl3 2712   4.638   0.419   4.734
  510TCM     c1 2713   4.333   2.155   2.181
  510TCM    cl1 2714   4.153   2.141   2.184
  510TCM    cl2 2715   4.382   2.311   2.255
  510TCM     h1 2716   4.377   2.072   2.237
  510TCM    cl3 2717   4.390   2.150   2.011
  511TCM     c1 2718   3.314   4.701   1.579
  511TCM    cl1 2719   3.458   4.627   1.655
  511TCM    cl2 2720   3.365   4.813   1.448
  511TCM     h1 2721   3.250   4.623   1.537
  511TCM    cl3 2722   3.222   4.792   1.703
  512TCM     c1 2723   0.184   0.162   0.526
  512TCM    cl1 2724   0.219   0.332   0.575
  512TCM    cl2 2725   0.019   0.117   0.579
  512TCM     h1 2726   0.191   0.154   0.417
  512TCM    cl3 2727   0.304   0.052   0.602
  513TCM     c1 2728   3.984   0.072   0.088
  513TCM    cl1 2729   3.883  -0.043   0.181
  513TCM    cl2 2730   4.078  -0.017  -0.036
  513TCM     h1 2731   3.921   0.147   0.040
  513TCM    cl3 2732   4.098   0.155   0.200
  514TCM     c1 2733   0.772   0.208   2.198
  514TCM    cl1 2734   0.666   0.274   2.327
  514TCM    cl2 2735   0.697   0.234   2.037
  514TCM     h1 2736   0.869   0.257   2.202
  514TCM    cl3 2737   0.791   0.032   2.223
  515TCM     c1 2738   2.671   0.042   4.177
  515TCM    cl1 2739   2.586  -0.059   4.055
  515TCM    cl2 2740   2.819  -0.043   4.232
  515TCM     h1 2741   2.698   0.138   4.133
  515TCM    cl3 2742   2.562   0.069   4.318
  516TCM     c1 2743   4.243   4.161   1.328
  516TCM    cl1 2744   4.164   4.139   1.169
  516TCM    cl2 2745   4.117   4.179   1.455
  516TCM     h1 2746   4.305   4.074   1.351
  516TCM    cl3 2747   4.346   4.308   1.323
  517TCM     c1 2748   3.072   3.674   4.819
  517TCM    cl1 2749   3.168   3.580   4.939
  517TCM    cl2 2750   2.983   3.561   4.713
  517TCM     h1 2751   3.002   3.739   4.872
  517TCM    cl3 2752   3.184   3.772   4.719
  518TCM     c1 2753   2.751   0.482   4.154
  518TCM    cl1 2754   2.840   0.360   4.251
  518TCM    cl2 2755   2.583   0.425   4.126
  518TCM     h1 2756   2.749   0.577   4.208
  518TCM    cl3 2757   2.834   0.504   3.996
  519TCM     c1 2758   3.310   3.285   1.781
  519TCM    cl1 2759   3.324   3.423   1.668
  519TCM    cl2 2760   3.155   3.297   1.872
  519TCM     h1 2761   3.313   3.192   1.725
  519TCM    cl3 2762   3.447   3.290   1.897
  520TCM     c1 2763   4.837   3.140   3.190
  520TCM    cl1 2764   4.953   3.009   3.152
  520TCM    cl2 2765   4.918   3.268   3.286
  520TCM     h1 2766   4.798   3.182   3.097
  520TCM    cl3 2767   4.701   3.072   3.287
  521TCM     c1 2768   1.772   3.665   3.368
  521TCM    cl1 2769   1.878   3.653   3.512
  521TCM    cl2 2770   1.703   3.831   3.360
  521TCM     h1 2771   1.830   3.646   3.277
  521TCM    cl3 2772   1.639   3.545   3.380
  522TCM     c1 2773   2.794   4.209   1.617
  522TCM    cl1 2774   2.755   4.162   1.448
  522TCM    cl2 2775   2.685   4.121   1.729
  522TCM     h1 2776   2.898   4.184   1.639
  522TCM    cl3 2777   2.768   4.385   1.636
  523TCM     c1 2778   0.093   1.552   2.661
  523TCM    cl1 2779  -0.039   1.673   2.651
  523TCM    cl2 2780   0.164   1.530   2.498
  523TCM     h1 2781   0.170   1.588   2.730
  523TCM    cl3 2782   0.029   1.395   2.719
  524TCM     c1 2783   4.563   3.196   2.613
  524TCM    cl1 2784   4.484   3.202   2.451
  524TCM    cl2 2785   4.452   3.268   2.735
  524TCM     h1 2786   4.585   3.093   2.639
  524TCM    cl3 2787   4.715   3.291   2.609
  525TCM     c1 2788   2.659   4.665   2.434
  525TCM    cl1 2789   2.805   4.611   2.522
  525TCM    cl2 2790   2.559   4.768   2.541
  525TCM     h1 2791   2.690   4.722   2.347
  525TCM    cl3 2792   2.563   4.523   2.380
  526TCM     c1 2793   2.924   2.990   2.461
  526TCM    cl1 2794   3.094   2.957   2.507
  526TCM    cl2 2795   2.907   2.977   2.283
  526TCM     h1 2796   2.858   2.918   2.509
  526TCM    cl3 2797   2.880   3.156   2.513
  527TCM     c1 2798   2.029   3.330   4.117
  527TCM    cl1 2799   2.117   3.337   3.961
  527TCM    cl2 2800   2.037   3.491   4.195
  527TCM     h1 2801   1.925   3.302   4.099
  527TCM    cl3 2802   2.105   3.207   4.224
  528TCM     c1 2803   0.050   1.751   0.356
  528TCM    cl1 2804   0.088   1.798   0.187
  528TCM    cl2 2805  -0.077   1.625   0.353
  528TCM     h1 2806   0.140   1.711   0.404
  528TCM    cl3 2807  -0.008   1.895   0.445
  529TCM     c1 2808   2.072   3.013   1.619
  529TCM    cl1 2809   2.024   2.966   1.786
  529TCM    cl2 2810   2.238   3.079   1.623
  529TCM     h1 2811   2.068   2.926   1.553
  529TCM    cl3 2812   1.958   3.139   1.560
  530TCM     c1 2813   2.215   0.593   4.778
  530TCM    cl1 2814   2.215   0.608   4.599
  530TCM    cl2 2815   2.335   0.470   4.827
  530TCM     h1 2816   2.240   0.689   4.823
  530TCM    cl3 2817   2.051   0.542   4.831
  531TCM     c1 2818   0.336   0.107   4.010
  531TCM    cl1 2819   0.492   0.136   4.094
  531TCM    cl2 2820   0.280   0.259   3.934
  531TCM     h1 2821   0.350   0.030   3.933
  531TCM    cl3 2822   0.214   0.051   4.129
  532TCM     c1 2823   1.762   4.318   1.211
  532TCM    cl1 2824   1.815   4.424   1.076
  532TCM    cl2 2825   1.653   4.409   1.320
  532TCM     h1 2826   1.710   4.231   1.170
  532TCM    cl3 2827   1.907   4.264   1.303
  533TCM     c1 2828   0.138   0.808   3.922
  533TCM    cl1 2829  -0.023   0.887   3.904
  533TCM    cl2 2830   0.122   0.633   3.889
  533TCM     h1 2831   0.208   0.853   3.851
  533TCM    cl3 2832   0.197   0.832   4.089
  534TCM     c1 2833   2.290   3.052   0.003
  534TCM    cl1 2834   2.183   3.039  -0.140
  534TCM    cl2 2835   2.211   3.153   0.129
  534TCM     h1 2836   2.309   2.952   0.044
  534TCM    cl3 2837   2.445   3.128  -0.045
  535TCM     c1 2838   2.660   4.276   1.111
  535TCM    cl1 2839   2.640   4.449   1.153
  535TCM    cl2 2840   2.706   4.261   0.938
  535TCM     h1 2841   2.738   4.232   1.173
  535TCM    cl3 2842   2.505   4.191   1.140
  536TCM     c1 2843   1.503   0.701   3.839
  536TCM    cl1 2844   1.531   0.619   3.996
  536TCM    cl2 2845   1.575   0.865   3.843
  536TCM     h1 2846   1.549   0.643   3.758
  536TCM    cl3 2847   1.327   0.714   3.810
  537TCM     c1 2848   1.724   1.315   2.775
  537TCM    cl1 2849   1.750   1.277   2.602
  537TCM    cl2 2850   1.754   1.167   2.871
  537TCM     h1 2851   1.792   1.394   2.807
  537TCM    cl3 2852   1.554   1.367   2.800
  538TCM     c1 2853   1.892   2.920   3.399
  538TCM    cl1 2854   1.748   2.926   3.292
  538TCM    cl2 2855   2.040   2.926   3.299
  538TCM     h1 2856   1.890   3.005   3.468
  538TCM    cl3 2857   1.889   2.767   3.493
  539TCM     c1 2858   3.658   4.150   2.862
  539TCM    cl1 2859   3.514   4.152   2.969
  539TCM    cl2 2860   3.648   4.286   2.745
  539TCM     h1 2861   3.748   4.161   2.922
  539TCM    cl3 2862   3.662   3.995   2.773
  540TCM     c1 2863   2.704   4.913   0.338
  540TCM    cl1 2864   2.858   4.983   0.280
  540TCM    cl2 2865   2.570   4.971   0.233
  540TCM     h1 2866   2.709   4.804   0.333
  540TCM    cl3 2867   2.675   4.965   0.507
  541TCM     c1 2868   1.681   3.494   3.894
  541TCM    cl1 2869   1.835   3.585   3.882
  541TCM    cl2 2870   1.719   3.320   3.921
  541TCM     h1 2871   1.621   3.532   3.976
  541TCM    cl3 2872   1.590   3.510   3.740
  542TCM     c1 2873   2.085   2.387   1.097
  542TCM    cl1 2874   2.251   2.334   1.053
  542TCM    cl2 2875   2.091   2.550   1.171
  542TCM     h1 2876   2.023   2.390   1.007
  542TCM    cl3 2877   2.015   2.271   1.215
  543TCM     c1 2878   2.948   4.943   3.542
  543TCM    cl1 2879   2.989   4.850   3.689
  543TCM    cl2 2880   2.799   5.038   3.573
  543TCM     h1 2881   3.030   5.010   3.516
  543TCM    cl3 2882   2.918   4.829   3.407
  544TCM     c1 2883   2.050   1.181   1.839
  544TCM    cl1 2884   1.908   1.198   1.730
  544TCM    cl2 2885   2.025   1.283   1.985
  544TCM     h1 2886   2.061   1.077   1.869
  544TCM    cl3 2887   2.197   1.236   1.753
  545TCM     c1 2888   2.144   2.638   0.002
  545TCM    cl1 2889   2.175   2.733   0.151
  545TCM    cl2 2890   2.136   2.463   0.043
  545TCM     h1 2891   2.049   2.669  -0.042
  545TCM    cl3 2892   2.277   2.667  -0.115
  546TCM     c1 2893   3.652   2.349   4.359
  546TCM    cl1 2894   3.796   2.413   4.444
  546TCM    cl2 2895   3.694   2.196   4.275
  546TCM     h1 2896   3.572   2.331   4.431
  546TCM    cl3 2897   3.597   2.470   4.237
  547TCM     c1 2898   0.977   0.036   1.810
  547TCM    cl1 2899   0.917   0.147   1.682
  547TCM    cl2 2900   0.841  -0.067   1.865
  547TCM     h1 2901   1.057  -0.027   1.770
  547TCM    cl3 2902   1.040   0.132   1.948
  548TCM     c1 2903   0.086   2.997   3.501
  548TCM    cl1 2904   0.151   3.132   3.599
  548TCM    cl2 2905  -0.072   2.945   3.569
  548TCM     h1 2906   0.072   3.031   3.397
  548TCM    cl3 2907   0.200   2.859   3.504
  549TCM     c1 2908   4.359   4.802   0.641
  549TCM    cl1 2909   4.238   4.828   0.771
  549TCM    cl2 2910   4.507   4.896   0.677
  549TCM     h1 2911   4.383   4.695   0.635
  549TCM    cl3 2912   4.292   4.856   0.484
  550TCM     c1 2913   0.308   4.278   0.977
  550TCM    cl1 2914   0.341   4.116   0.907
  550TCM    cl2 2915   0.342   4.405   0.854
  550TCM     h1 2916   0.204   4.284   1.009
  550TCM    cl3 2917   0.416   4.304   1.119
  551TCM     c1 2918   2.056   2.173   3.413
  551TCM    cl1 2919   1.905   2.137   3.322
  551TCM    cl2 2920   2.181   2.232   3.300
  551TCM     h1 2921   2.035   2.250   3.488
  551TCM    cl3 2922   2.115   2.024   3.494
  552TCM     c1 2923   0.703   4.046   0.930
  552TCM    cl1 2924   0.718   4.220   0.889
  552TCM    cl2 2925   0.843   3.996   1.030
  552TCM     h1 2926   0.611   4.029   0.985
  552TCM    cl3 2927   0.701   3.949   0.778
  553TCM     c1 2928   1.490   3.940   0.497
  553TCM    cl1 2929   1.639   3.857   0.443
  553TCM    cl2 2930   1.534   4.088   0.589
  553TCM     h1 2931   1.430   3.967   0.410
  553TCM    cl3 2932   1.396   3.831   0.604
  554TCM     c1 2933   3.334   2.075   2.575
  554TCM    cl1 2934   3.468   2.012   2.474
  554TCM    cl2 2935   3.195   2.116   2.470
  554TCM     h1 2936   3.304   1.999   2.648
  554TCM    cl3 2937   3.389   2.223   2.660
  555TCM     c1 2938   1.805   2.659   2.334
  555TCM    cl1 2939   1.819   2.760   2.482
  555TCM    cl2 2940   1.687   2.526   2.363
  555TCM     h1 2941   1.769   2.720   2.251
  555TCM    cl3 2942   1.965   2.590   2.293
  556TCM     c1 2943   3.311   4.923   2.036
  556TCM    cl1 2944   3.324   5.096   1.990
  556TCM    cl2 2945   3.138   4.876   2.053
  556TCM     h1 2946   3.358   4.861   1.959
  556TCM    cl3 2947   3.395   4.897   2.192
  557TCM     c1 2948   0.950   2.621   4.411
  557TCM    cl1 2949   1.040   2.707   4.540
  557TCM    cl2 2950   1.039   2.472   4.366
  557TCM     h1 2951   0.850   2.595   4.446
  557TCM    cl3 2952   0.937   2.728   4.268
  558TCM     c1 2953   4.677   4.031   4.914
  558TCM    cl1 2954   4.746   3.866   4.910
  558TCM    cl2 2955   4.641   4.084   4.746
  558TCM     h1 2956   4.585   4.031   4.973
  558TCM    cl3 2957   4.796   4.144   4.987
  559TCM     c1 2958   4.972   1.916   3.448
  559TCM    cl1 2959   5.081   1.794   3.519
  559TCM    cl2 2960   4.822   1.836   3.391
  559TCM     h1 2961   4.947   1.992   3.523
  559TCM    cl3 2962   5.053   1.994   3.308
  560TCM     c1 2963   4.188   2.175   2.629
  560TCM    cl1 2964   4.283   2.056   2.534
  560TCM    cl2 2965   4.058   2.091   2.719
  560TCM     h1 2966   4.254   2.225   2.700
  560TCM    cl3 2967   4.116   2.296   2.519
  561TCM     c1 2968   1.371   2.681   4.920
  561TCM    cl1 2969   1.428   2.830   4.836
  561TCM    cl2 2970   1.193   2.667   4.902
  561TCM     h1 2971   1.419   2.594   4.876
  561TCM    cl3 2972   1.413   2.692   5.094
  562TCM     c1 2973   3.698   1.826   2.868
  562TCM    cl1 2974   3.662   1.978   2.780
  562TCM    cl2 2975   3.705   1.859   3.044
  562TCM     h1 2976   3.620   1.752   2.847
  562TCM    cl3 2977   3.857   1.764   2.812
  563TCM     c1 2978   2.756   4.862   0.876
  563TCM    cl1 2979   2.853   5.006   0.921
  563TCM    cl2 2980   2.582   4.900   0.898
  563TCM     h1 2981   2.775   4.837   0.771
  563TCM    cl3 2982   2.800   4.724   0.981
  564TCM     c1 2983   1.647   3.915   0.896
  564TCM    cl1 2984   1.625   3.827   1.052
  564TCM    cl2 2985   1.769   3.830   0.797
  564TCM     h1 2986   1.552   3.919   0.842
  564TCM    cl3 2987   1.704   4.082   0.930
  565TCM     c1 2988   4.985   3.004   4.756
  565TCM    cl1 2989   4.983   3.151   4.860
  565TCM    cl2 2990   4.909   2.868   4.845
  565TCM     h1 2991   4.930   3.023   4.664
  565TCM    cl3 2992   5.155   2.961   4.717
  566TCM     c1 2993   3.025   4.910   2.805
  566TCM    cl1 2994   3.063   5.070   2.877
  566TCM    cl2 2995   3.109   4.898   2.646
  566TCM     h1 2996   3.060   4.830   2.871
  566TCM    cl3 2997   2.848   4.895   2.780
  567TCM     c1 2998   4.481   3.948   3.304
  567TCM    cl1 2999   4.389   3.955   3.458
  567TCM    cl2 3000   4.406   4.058   3.184
  567TCM     h1 3001   4.585   3.979   3.322
  567TCM    cl3 3002   4.478   3.780   3.242
  568TCM     c1 3003   1.738   0.769   2.883
  568TCM    cl1 3004   1.752   0.592   2.908
  568TCM    cl2 3005   1.901   0.836   2.850
  568TCM     h1 3006   1.671   0.789   2.798
  568TCM    cl3 3007   1.671   0.843   3.031
  569TCM     c1 3008   3.258   2.632   4.586
  569TCM    cl1 3009   3.176   2.684   4.435
  569TCM    cl2 3010   3.371   2.498   4.550
  569TCM     h1 3011   3.313   2.716   4.628
  569TCM    cl3 3012   3.135   2.576   4.705
  570TCM     c1 3013   2.384   4.143   0.399
  570TCM    cl1 3014   2.298   4.059   0.266
  570TCM    cl2 3015   2.450   4.020   0.511
  570TCM     h1 3016   2.465   4.203   0.358
  570TCM    cl3 3017   2.269   4.250   0.487
  571TCM     c1 3018   3.513   1.761   4.917
  571TCM    cl1 3019   3.522   1.773   4.738
  571TCM    cl2 3020   3.593   1.610   4.970
  571TCM     h1 3021   3.564   1.847   4.961
  571TCM    cl3 3022   3.341   1.760   4.968
  572TCM     c1 3023   2.426   1.723   3.683
  572TCM    cl1 3024   2.393   1.682   3.854
  572TCM    cl2 3025   2.423   1.901   3.663
  572TCM     h1 3026   2.524   1.684   3.654
  572TCM    cl3 3027   2.298   1.650   3.579
  573TCM     c1 3028   1.463   1.048   2.477
  573TCM    cl1 3029   1.567   0.965   2.597
  573TCM    cl2 3030   1.561   1.100   2.336
  573TCM     h1 3031   1.385   0.980   2.443
  573TCM    cl3 3032   1.389   1.193   2.552
  574TCM     c1 3033   2.897   4.138   4.919
  574TCM    cl1 3034   2.915   4.009   4.797
  574TCM    cl2 3035   2.727   4.196   4.918
  574TCM     h1 3036   2.922   4.100   5.018
  574TCM    cl3 3037   3.005   4.274   4.877
  575TCM     c1 3038   2.257   4.367   1.409
  575TCM    cl1 3039   2.422   4.329   1.467
  575TCM    cl2 3040   2.266   4.483   1.272
  575TCM     h1 3041   2.207   4.276   1.375
  575TCM    cl3 3042   2.162   4.440   1.542
  576TCM     c1 3043   0.847   2.576   4.837
  576TCM    cl1 3044   0.705   2.620   4.737
  576TCM    cl2 3045   0.930   2.436   4.761
  576TCM     h1 3046   0.916   2.660   4.843
  576TCM    cl3 3047   0.794   2.531   5.002
  577TCM     c1 3048   1.474   0.847   1.628
  577TCM    cl1 3049   1.576   0.984   1.683
  577TCM    cl2 3050   1.419   0.879   1.460
  577TCM     h1 3051   1.533   0.755   1.631
  577TCM    cl3 3052   1.332   0.830   1.737
  578TCM     c1 3053   0.278   3.632   3.640
  578TCM    cl1 3054   0.207   3.792   3.601
  578TCM    cl2 3055   0.398   3.588   3.514
  578TCM     h1 3056   0.327   3.636   3.737
  578TCM    cl3 3057   0.148   3.508   3.642
  579TCM     c1 3058   0.485   0.186   3.626
  579TCM    cl1 3059   0.578   0.192   3.473
  579TCM    cl2 3060   0.548   0.054   3.729
  579TCM     h1 3061   0.496   0.282   3.679
  579TCM    cl3 3062   0.312   0.157   3.590
  580TCM     c1 3063   4.314   0.076   3.075
  580TCM    cl1 3064   4.432   0.209   3.099
  580TCM    cl2 3065   4.395  -0.061   2.991
  580TCM     h1 3066   4.277   0.042   3.171
  580TCM    cl3 3067   4.178   0.135   2.975
  581TCM     c1 3068   3.172   4.130   1.144
  581TCM    cl1 3069   3.351   4.125   1.149
  581TCM    cl2 3070   3.108   3.964   1.168
  581TCM     h1 3071   3.135   4.195   1.223
  581TCM    cl3 3072   3.117   4.192   0.985
  582TCM     c1 3073   4.679   4.461   3.392
  582TCM    cl1 3074   4.713   4.551   3.544
  582TCM    cl2 3075   4.662   4.286   3.431
  582TCM     h1 3076   4.586   4.497   3.348
  582TCM    cl3 3077   4.814   4.484   3.277
  583TCM     c1 3078   1.227   3.627   0.280
  583TCM    cl1 3079   1.405   3.613   0.270
  583TCM    cl2 3080   1.153   3.576   0.124
  583TCM     h1 3081   1.190   3.564   0.360
  583TCM    cl3 3082   1.183   3.798   0.314
  584TCM     c1 3083   0.470   2.236   4.961
  584TCM    cl1 3084   0.477   2.079   5.047
  584TCM    cl2 3085   0.612   2.248   4.852
  584TCM     h1 3086   0.378   2.240   4.902
  584TCM    cl3 3087   0.471   2.369   5.080
  585TCM     c1 3088   1.039   0.049   2.526
  585TCM    cl1 3089   0.946   0.200   2.548
  585TCM    cl2 3090   1.120   0.050   2.366
  585TCM     h1 3091   1.114   0.039   2.605
  585TCM    cl3 3092   0.927  -0.091   2.534
  586TCM     c1 3093   0.917   1.243   3.996
  586TCM    cl1 3094   0.902   1.416   4.043
  586TCM    cl2 3095   0.919   1.229   3.818
  586TCM     h1 3096   1.009   1.202   4.038
  586TCM    cl3 3097   0.776   1.152   4.060
  587TCM     c1 3098   3.956   2.567   4.055
  587TCM    cl1 3099   3.963   2.393   4.097
  587TCM    cl2 3100   3.940   2.664   4.205
  587TCM     h1 3101   4.047   2.596   4.003
  587TCM    cl3 3102   3.814   2.597   3.949
  588TCM     c1 3103   2.240   3.519   0.065
  588TCM    cl1 3104   2.403   3.470   0.122
  588TCM    cl2 3105   2.213   3.453  -0.100
  588TCM     h1 3106   2.164   3.480   0.133
  588TCM    cl3 3107   2.230   3.699   0.061
  589TCM     c1 3108   1.222   0.370   0.735
  589TCM    cl1 3109   1.190   0.347   0.560
  589TCM    cl2 3110   1.318   0.520   0.759
  589TCM     h1 3111   1.128   0.378   0.789
  589TCM    cl3 3112   1.314   0.228   0.796
  590TCM     c1 3113   0.549   3.711   0.295
  590TCM    cl1 3114   0.459   3.568   0.233
  590TCM    cl2 3115   0.660   3.659   0.426
  590TCM     h1 3116   0.606   3.756   0.214
  590TCM    cl3 3117   0.432   3.831   0.361
  591TCM     c1 3118   3.292   1.418   3.021
  591TCM    cl1 3119   3.366   1.579   3.051
  591TCM    cl2 3120   3.284   1.389   2.845
  591TCM     h1 3121   3.353   1.340   3.069
  591TCM    cl3 3122   3.126   1.413   3.090
  592TCM     c1 3123   2.709   4.556   4.947
  592TCM    cl1 3124   2.732   4.697   5.055
  592TCM    cl2 3125   2.745   4.605   4.778
  592TCM     h1 3126   2.778   4.476   4.976
  592TCM    cl3 3127   2.540   4.499   4.959
  593TCM     c1 3128   3.448   3.555   3.006
  593TCM    cl1 3129   3.611   3.492   2.965
  593TCM    cl2 3130   3.433   3.724   2.949
  593TCM     h1 3131   3.372   3.493   2.957
  593TCM    cl3 3132   3.425   3.550   3.184
  594TCM     c1 3133   2.948   3.936   0.685
  594TCM    cl1 3134   2.814   4.024   0.605
  594TCM    cl2 3135   2.965   3.774   0.608
  594TCM     h1 3136   3.041   3.992   0.673
  594TCM    cl3 3137   2.911   3.915   0.859
  595TCM     c1 3138   4.462   4.462   0.996
  595TCM    cl1 3139   4.499   4.632   0.952
  595TCM    cl2 3140   4.614   4.381   1.049
  595TCM     h1 3141   4.389   4.460   1.077
  595TCM    cl3 3142   4.397   4.377   0.852
  596TCM     c1 3143   4.696   2.846   0.131
  596TCM    cl1 3144   4.545   2.801   0.218
  596TCM    cl2 3145   4.831   2.744   0.190
  596TCM     h1 3146   4.683   2.831   0.024
  596TCM    cl3 3147   4.734   3.019   0.164
  597TCM     c1 3148   2.907   0.744   2.082
  597TCM    cl1 3149   2.910   0.619   1.953
  597TCM    cl2 3150   2.907   0.907   2.007
  597TCM     h1 3151   2.818   0.732   2.143
  597TCM    cl3 3152   3.053   0.727   2.184
  598TCM     c1 3153   3.232   4.451   2.661
  598TCM    cl1 3154   3.105   4.556   2.733
  598TCM    cl2 3155   3.267   4.316   2.775
  598TCM     h1 3156   3.196   4.410   2.566
  598TCM    cl3 3157   3.381   4.546   2.633
  599TCM     c1 3158   3.519   3.670   3.729
  599TCM    cl1 3159   3.671   3.609   3.801
  599TCM    cl2 3160   3.398   3.537   3.724
  599TCM     h1 3161   3.480   3.753   3.788
  599TCM    cl3 3162   3.551   3.726   3.561
  600TCM     c1 3163   4.152   0.493   4.972
  600TCM    cl1 3164   4.286   0.550   4.868
  600TCM    cl2 3165   4.061   0.363   4.888
  600TCM     h1 3166   4.193   0.453   5.066
  600TCM    cl3 3167   4.041   0.629   5.009
  601TCM     c1 3168   3.213   3.197   3.358
  601TCM    cl1 3169   3.306   3.317   3.453
  601TCM    cl2 3170   3.281   3.187   3.192
  601TCM     h1 3171   3.220   3.099   3.406
  601TCM    cl3 3172   3.042   3.249   3.349
  602TCM     c1 3173   0.564   2.317   1.725
  602TCM    cl1 3174   0.743   2.326   1.741
  602TCM    cl2 3175   0.517   2.156   1.663
  602TCM     h1 3176   0.518   2.334   1.823
  602TCM    cl3 3177   0.508   2.444   1.611
  603TCM     c1 3178   0.306   4.292   2.856
  603TCM    cl1 3179   0.334   4.377   2.700
  603TCM    cl2 3180   0.449   4.316   2.962
  603TCM     h1 3181   0.217   4.333   2.904
  603TCM    cl3 3182   0.282   4.117   2.825
  604TCM     c1 3183   2.268   3.415   1.305
  604TCM    cl1 3184   2.302   3.460   1.135
  604TCM    cl2 3185   2.423   3.409   1.396
  604TCM     h1 3186   2.202   3.489   1.350
  604TCM    cl3 3187   2.190   3.254   1.309
  605TCM     c1 3188   0.161   1.501   2.141
  605TCM    cl1 3189   0.129   1.535   1.968
  605TCM    cl2 3190   0.337   1.512   2.171
  605TCM     h1 3191   0.108   1.574   2.203
  605TCM    cl3 3192   0.105   1.335   2.180
  606TCM     c1 3193   4.073   3.069   3.459
  606TCM    cl1 3194   3.978   3.059   3.611
  606TCM    cl2 3195   4.248   3.068   3.498
  606TCM     h1 3196   4.049   2.983   3.396
  606TCM    cl3 3197   4.031   3.221   3.374
  607TCM     c1 3198   1.840   3.288   3.553
  607TCM    cl1 3199   1.916   3.299   3.391
  607TCM    cl2 3200   1.948   3.196   3.662
  607TCM     h1 3201   1.823   3.388   3.594
  607TCM    cl3 3202   1.683   3.201   3.539
  608TCM     c1 3203   2.487   2.996   2.316
  608TCM    cl1 3204   2.313   3.022   2.350
  608TCM    cl2 3205   2.568   2.940   2.467
  608TCM     h1 3206   2.499   2.921   2.238
  608TCM    cl3 3207   2.562   3.150   2.262
  609TCM     c1 3208   1.776   2.847   4.990
  609TCM    cl1 3209   1.786   2.681   5.056
  609TCM    cl2 3210   1.812   2.843   4.814
  609TCM     h1 3211   1.676   2.887   5.005
  609TCM    cl3 3212   1.896   2.951   5.073
  610TCM     c1 3213   0.062   0.750   2.744
  610TCM    cl1 3214   0.152   0.595   2.738
  610TCM    cl2 3215  -0.014   0.780   2.584
  610TCM     h1 3216  -0.016   0.744   2.820
  610TCM    cl3 3217   0.173   0.885   2.782
  611TCM     c1 3218   0.088   2.196   1.131
  611TCM    cl1 3219  -0.007   2.099   1.013
  611TCM    cl2 3220  -0.023   2.303   1.222
  611TCM     h1 3221   0.140   2.129   1.200
  611TCM    cl3 3222   0.208   2.296   1.042
  612TCM     c1 3223   3.183   4.039   0.220
  612TCM    cl1 3224   3.039   4.016   0.324
  612TCM    cl2 3225   3.200   4.213   0.183
  612TCM     h1 3226   3.273   4.003   0.273
  612TCM    cl3 3227   3.161   3.947   0.068
  613TCM     c1 3228   2.756   4.151   3.393
  613TCM    cl1 3229   2.797   4.152   3.568
  613TCM    cl2 3230   2.903   4.111   3.298
  613TCM     h1 3231   2.679   4.077   3.374
  613TCM    cl3 3232   2.697   4.313   3.345
  614TCM     c1 3233   2.447   4.408   1.827
  614TCM    cl1 3234   2.558   4.411   1.968
  614TCM    cl2 3235   2.333   4.546   1.840
  614TCM     h1 3236   2.504   4.417   1.735
  614TCM    cl3 3237   2.353   4.255   1.826
  615TCM     c1 3238   1.417   1.702   0.412
  615TCM    cl1 3239   1.289   1.788   0.504
  615TCM    cl2 3240   1.545   1.648   0.526
  615TCM     h1 3241   1.374   1.616   0.361
  615TCM    cl3 3242   1.489   1.813   0.291
  616TCM     c1 3243   0.539   2.821   4.243
  616TCM    cl1 3244   0.611   2.809   4.079
  616TCM    cl2 3245   0.569   2.668   4.332
  616TCM     h1 3246   0.585   2.904   4.297
  616TCM    cl3 3247   0.362   2.849   4.230
  617TCM     c1 3248   0.657   1.342   4.462
  617TCM    cl1 3249   0.821   1.306   4.399
  617TCM    cl2 3250   0.640   1.273   4.627
  617TCM     h1 3251   0.641   1.450   4.465
  617TCM    cl3 3252   0.534   1.266   4.355
  618TCM     c1 3253   0.182   2.654   0.383
  618TCM    cl1 3254   0.041   2.667   0.492
  618TCM    cl2 3255   0.144   2.541   0.249
  618TCM     h1 3256   0.206   2.753   0.342
  618TCM    cl3 3257   0.322   2.592   0.476
  619TCM     c1 3258   2.155   4.155   4.485
  619TCM    cl1 3259   2.229   4.005   4.550
  619TCM    cl2 3260   2.070   4.240   4.618
  619TCM     h1 3261   2.233   4.220   4.443
  619TCM    cl3 3262   2.037   4.113   4.356
  620TCM     c1 3263   2.984   3.327   2.997
  620TCM    cl1 3264   2.816   3.387   2.986
  620TCM    cl2 3265   3.093   3.463   3.040
  620TCM     h1 3266   2.991   3.249   3.073
  620TCM    cl3 3267   3.034   3.261   2.838
  621TCM     c1 3268   2.979   4.453   0.339
  621TCM    cl1 3269   3.002   4.361   0.491
  621TCM    cl2 3270   2.912   4.615   0.376
  621TCM     h1 3271   3.075   4.464   0.288
  621TCM    cl3 3272   2.865   4.365   0.233
  622TCM     c1 3273   3.484   4.467   0.262
  622TCM    cl1 3274   3.430   4.470   0.091
  622TCM    cl2 3275   3.545   4.304   0.304
  622TCM     h1 3276   3.563   4.541   0.277
  622TCM    cl3 3277   3.345   4.507   0.369
  623TCM     c1 3278   2.508   3.726   0.745
  623TCM    cl1 3279   2.564   3.864   0.845
  623TCM    cl2 3280   2.508   3.577   0.844
  623TCM     h1 3281   2.407   3.747   0.708
  623TCM    cl3 3282   2.619   3.705   0.606
  624TCM     c1 3283   4.080   3.642   3.275
  624TCM    cl1 3284   4.087   3.526   3.137
  624TCM    cl2 3285   4.117   3.807   3.215
  624TCM     h1 3286   3.981   3.640   3.319
  624TCM    cl3 3287   4.201   3.594   3.398
  625TCM     c1 3288   0.329   4.656   4.127
  625TCM    cl1 3289   0.160   4.649   4.067
  625TCM    cl2 3290   0.329   4.728   4.291
  625TCM     h1 3291   0.370   4.554   4.132
  625TCM    cl3 3292   0.429   4.755   4.016
  626TCM     c1 3293   4.262   0.294   3.407
  626TCM    cl1 3294   4.232   0.379   3.562
  626TCM    cl2 3295   4.108   0.282   3.316
  626TCM     h1 3296   4.335   0.349   3.348
  626TCM    cl3 3297   4.323   0.129   3.441
  627TCM     c1 3298   2.309   2.659   3.124
  627TCM    cl1 3299   2.419   2.529   3.070
  627TCM    cl2 3300   2.406   2.805   3.164
  627TCM     h1 3301   2.238   2.684   3.044
  627TCM    cl3 3302   2.219   2.605   3.269
  628TCM     c1 3303   0.122   4.635   2.489
  628TCM    cl1 3304   0.009   4.732   2.390
  628TCM    cl2 3305   0.038   4.578   2.637
  628TCM     h1 3306   0.157   4.549   2.431
  628TCM    cl3 3307   0.263   4.735   2.536
  629TCM     c1 3308   2.485   0.752   1.907
  629TCM    cl1 3309   2.336   0.850   1.878
  629TCM    cl2 3310   2.547   0.787   2.071
  629TCM     h1 3311   2.461   0.646   1.898
  629TCM    cl3 3312   2.610   0.796   1.786
  630TCM     c1 3313   0.408   2.415   2.735
  630TCM    cl1 3314   0.265   2.521   2.744
  630TCM    cl2 3315   0.383   2.292   2.607
  630TCM     h1 3316   0.497   2.474   2.711
  630TCM    cl3 3317   0.431   2.333   2.893
  631TCM     c1 3318   1.224   4.189   0.793
  631TCM    cl1 3319   1.156   4.096   0.656
  631TCM    cl2 3320   1.327   4.083   0.894
  631TCM     h1 3321   1.283   4.273   0.755
  631TCM    cl3 3322   1.089   4.252   0.894
  632TCM     c1 3323   2.636   3.230   0.517
  632TCM    cl1 3324   2.646   3.299   0.352
  632TCM    cl2 3325   2.690   3.354   0.635
  632TCM     h1 3326   2.533   3.201   0.539
  632TCM    cl3 3327   2.743   3.086   0.529
  633TCM     c1 3328   0.809   0.524   0.830
  633TCM    cl1 3329   0.887   0.536   0.669
  633TCM    cl2 3330   0.729   0.680   0.869
  633TCM     h1 3331   0.735   0.444   0.829
  633TCM    cl3 3332   0.934   0.489   0.953
  634TCM     c1 3333   0.122   2.128   2.796
  634TCM    cl1 3334   0.071   2.253   2.914
  634TCM    cl2 3335   0.036   2.156   2.640
  634TCM     h1 3336   0.230   2.135   2.780
  634TCM    cl3 3337   0.080   1.966   2.859
  635TCM     c1 3338   2.505   0.829   3.344
  635TCM    cl1 3339   2.653   0.837   3.243
  635TCM    cl2 3340   2.511   0.960   3.466
  635TCM     h1 3341   2.417   0.842   3.280
  635TCM    cl3 3342   2.497   0.671   3.427
  636TCM     c1 3343   0.187   1.121   1.902
  636TCM    cl1 3344   0.064   1.217   1.812
  636TCM    cl2 3345   0.292   1.036   1.784
  636TCM     h1 3346   0.247   1.188   1.964
  636TCM    cl3 3347   0.103   1.002   2.006
  637TCM     c1 3348   4.005   0.499   4.508
  637TCM    cl1 3349   4.172   0.434   4.520
  637TCM    cl2 3350   3.979   0.622   4.636
  637TCM     h1 3351   3.992   0.545   4.409
  637TCM    cl3 3352   3.887   0.365   4.527
  638TCM     c1 3353   0.054   0.866   4.917
  638TCM    cl1 3354   0.087   0.694   4.874
  638TCM    cl2 3355   0.191   0.932   5.012
  638TCM     h1 3356   0.041   0.924   4.825
  638TCM    cl3 3357  -0.097   0.874   5.014
  639TCM     c1 3358   2.928   0.074   1.297
  639TCM    cl1 3359   3.049   0.015   1.416
  639TCM    cl2 3360   2.852   0.224   1.360
  639TCM     h1 3361   2.977   0.094   1.202
  639TCM    cl3 3362   2.802  -0.052   1.275
  640TCM     c1 3363   2.083   1.270   3.660
  640TCM    cl1 3364   1.912   1.244   3.707
  640TCM    cl2 3365   2.091   1.336   3.494
  640TCM     h1 3366   2.130   1.340   3.730
  640TCM    cl3 3367   2.171   1.113   3.665
   5.00000   5.00000   5.00000
