FOO
 3367
    1MOP     C1    1   2.251   2.277   4.523
    1MOP     O2    2   2.148   2.252   4.422
    1MOP     C3    3   2.126   2.120   4.384
    1MOP     C4    4   2.196   2.010   4.438
    1MOP     C5    5   2.171   1.880   4.391
    1MOP     C6    6   2.076   1.856   4.289
    1MOP     C7    7   2.066   1.718   4.236
    1MOP     C8    8   2.035   1.611   4.323
    1MOP     C9    9   2.028   1.478   4.275
    1MOP    C10   10   1.996   1.365   4.367
    1MOP    O11   11   1.968   1.391   4.484
    1MOP    C12   12   2.054   1.453   4.138
    1MOP    C13   13   2.084   1.559   4.050
    1MOP    C14   14   2.090   1.691   4.099
    1MOP    C15   15   2.003   1.967   4.235
    1MOP    C16   16   1.899   1.951   4.127
    1MOP    C17   17   1.892   2.044   4.021
    1MOP    C18   18   1.799   2.029   3.915
    1MOP    C19   19   1.800   2.131   3.800
    1MOP    C20   20   1.932   2.118   3.721
    1MOP    N21   21   1.691   2.121   3.699
    1MOP    C22   22   1.714   1.916   3.916
    1MOP    C23   23   1.717   1.824   4.023
    1MOP    C24   24   1.808   1.843   4.129
    1MOP    C25   25   2.029   2.097   4.284
    1MOP    H26   26   2.348   2.242   4.486
    1MOP    H27   27   2.224   2.226   4.616
    1MOP    H28   28   2.256   2.384   4.541
    1MOP    H29   29   2.271   2.022   4.515
    1MOP    H30   30   2.227   1.797   4.432
    1MOP    H31   31   2.016   1.632   4.428
    1MOP    H32   32   2.051   1.351   4.099
    1MOP    H33   33   2.103   1.539   3.945
    1MOP    H34   34   2.114   1.773   4.031
    1MOP    H35   35   1.961   2.128   4.019
    1MOP    H36   36   1.796   2.232   3.843
    1MOP    H37   37   1.933   2.192   3.641
    1MOP    H38   38   2.016   2.136   3.788
    1MOP    H39   39   1.938   2.017   3.679
    1MOP    H40   40   1.716   2.132   3.601
    1MOP    H41   41   1.644   1.898   3.834
    1MOP    H42   42   1.650   1.739   4.024
    1MOP    H43   43   1.808   1.771   4.211
    1MOP    H44   44   1.974   2.182   4.246
    2MOP    C45   45   0.780   1.612   3.447
    2MOP    O46   46   0.901   1.614   3.368
    2MOP    C47   47   0.997   1.708   3.400
    2MOP    C48   48   0.985   1.800   3.507
    2MOP    C49   49   1.085   1.896   3.530
    2MOP    C50   50   1.201   1.901   3.449
    2MOP    C51   51   1.294   2.014   3.470
    2MOP    C52   52   1.373   2.020   3.587
    2MOP    C53   53   1.464   2.126   3.606
    2MOP    C54   54   1.555   2.126   3.722
    2MOP    O55   55   1.511   2.145   3.835
    2MOP    C56   56   1.471   2.230   3.510
    2MOP    C57   57   1.389   2.226   3.396
    2MOP    C58   58   1.302   2.118   3.375
    2MOP    C59   59   1.215   1.809   3.341
    2MOP    C60   60   1.330   1.812   3.246
    2MOP    C61   61   1.307   1.794   3.108
    2MOP    C62   62   1.412   1.802   3.013
    2MOP    C63   63   1.376   1.797   2.864
    2MOP    C64   64   1.311   1.932   2.826
    2MOP    N65   65   1.484   1.776   2.766
    2MOP    C66   66   1.543   1.827   3.059
    2MOP    C67   67   1.569   1.840   3.197
    2MOP    C68   68   1.463   1.832   3.290
    2MOP    C69   69   1.112   1.713   3.320
    2MOP    H70   70   0.730   1.709   3.442
    2MOP    H71   71   0.804   1.585   3.550
    2MOP    H72   72   0.713   1.535   3.405
    2MOP    H73   73   0.898   1.801   3.572
    2MOP    H74   74   1.072   1.970   3.609
    2MOP    H75   75   1.366   1.940   3.661
    2MOP    H76   76   1.539   2.314   3.525
    2MOP    H77   77   1.394   2.306   3.322
    2MOP    H78   78   1.239   2.114   3.286
    2MOP    H79   79   1.205   1.780   3.072
    2MOP    H80   80   1.302   1.718   2.849
    2MOP    H81   81   1.281   1.929   2.722
    2MOP    H82   82   1.222   1.949   2.888
    2MOP    H83   83   1.383   2.012   2.842
    2MOP    H84   84   1.471   1.817   2.674
    2MOP    H85   85   1.625   1.837   2.988
    2MOP    H86   86   1.671   1.857   3.232
    2MOP    H87   87   1.485   1.842   3.396
    2MOP    H88   88   1.119   1.642   3.239
    3MOP    C89   89   2.461   1.327   2.607
    3MOP    O90   90   2.422   1.447   2.535
    3MOP    C91   91   2.288   1.485   2.539
    3MOP    C92   92   2.188   1.413   2.609
    3MOP    C93   93   2.054   1.458   2.607
    3MOP    C94   94   2.018   1.575   2.537
    3MOP    C95   95   1.874   1.611   2.530
    3MOP    C96   96   1.797   1.624   2.648
    3MOP    C97   97   1.659   1.657   2.641
    3MOP    C98   98   1.580   1.677   2.766
    3MOP    O99   99   1.585   1.594   2.856
    3MOP   C100  100   1.599   1.676   2.515
    3MOP   C101  101   1.675   1.662   2.397
    3MOP   C102  102   1.811   1.630   2.404
    3MOP   C103  103   2.119   1.648   2.466
    3MOP   C104  104   2.089   1.773   2.393
    3MOP   C105  105   2.118   1.782   2.255
    3MOP   C106  106   2.083   1.898   2.182
    3MOP   C107  107   2.100   1.896   2.029
    3MOP   C108  108   1.980   1.821   1.969
    3MOP   N109  109   2.105   2.028   1.963
    3MOP   C110  110   2.020   2.006   2.248
    3MOP   C111  111   1.996   1.999   2.387
    3MOP   C112  112   2.029   1.883   2.459
    3MOP   C113  113   2.252   1.600   2.467
    3MOP   H114  114   2.407   1.241   2.566
    3MOP   H115  115   2.440   1.340   2.713
    3MOP   H116  116   2.568   1.312   2.593
    3MOP   H117  117   2.209   1.323   2.664
    3MOP   H118  118   1.977   1.401   2.658
    3MOP   H119  119   1.843   1.609   2.745
    3MOP   H120  120   1.493   1.700   2.506
    3MOP   H121  121   1.628   1.676   2.300
    3MOP   H122  122   1.869   1.619   2.313
    3MOP   H123  123   2.163   1.697   2.205
    3MOP   H124  124   2.191   1.841   2.004
    3MOP   H125  125   1.991   1.817   1.861
    3MOP   H126  126   1.977   1.720   2.010
    3MOP   H127  127   1.888   1.874   1.995
    3MOP   H128  128   2.069   2.035   1.869
    3MOP   H129  129   1.988   2.093   2.193
    3MOP   H130  130   1.950   2.083   2.438
    3MOP   H131  131   2.006   1.877   2.565
    3MOP   H132  132   2.329   1.655   2.413
    4MOP   C133  133   1.839   3.033   2.084
    4MOP   O134  134   1.802   2.947   1.974
    4MOP   C135  135   1.877   2.832   1.953
    4MOP   C136  136   1.995   2.800   2.026
    4MOP   C137  137   2.066   2.682   1.998
    4MOP   C138  138   2.020   2.592   1.899
    4MOP   C139  139   2.105   2.476   1.863
    4MOP   C140  140   2.116   2.367   1.951
    4MOP   C141  141   2.189   2.252   1.912
    4MOP   C142  142   2.188   2.133   1.997
    4MOP   O143  143   2.275   2.119   2.083
    4MOP   C144  144   2.255   2.250   1.787
    4MOP   C145  145   2.247   2.361   1.701
    4MOP   C146  146   2.170   2.473   1.738
    4MOP   C147  147   1.900   2.622   1.827
    4MOP   C148  148   1.841   2.526   1.730
    4MOP   C149  149   1.790   2.572   1.606
    4MOP   C150  150   1.729   2.482   1.515
    4MOP   C151  151   1.677   2.535   1.381
    4MOP   C152  152   1.789   2.527   1.274
    4MOP   N153  153   1.548   2.471   1.343
    4MOP   C154  154   1.721   2.344   1.548
    4MOP   C155  155   1.769   2.299   1.672
    4MOP   C156  156   1.827   2.389   1.763
    4MOP   C157  157   1.833   2.743   1.853
    4MOP   H158  158   1.939   3.074   2.066
    4MOP   H159  159   1.836   2.977   2.178
    4MOP   H160  160   1.767   3.115   2.089
    4MOP   H161  161   2.034   2.865   2.103
    4MOP   H162  162   2.158   2.659   2.052
    4MOP   H163  163   2.064   2.369   2.046
    4MOP   H164  164   2.312   2.162   1.756
    4MOP   H165  165   2.297   2.359   1.604
    4MOP   H166  166   2.162   2.558   1.670
    4MOP   H167  167   1.800   2.677   1.579
    4MOP   H168  168   1.654   2.641   1.395
    4MOP   H169  169   1.747   2.554   1.177
    4MOP   H170  170   1.868   2.598   1.301
    4MOP   H171  171   1.831   2.427   1.271
    4MOP   H172  172   1.467   2.493   1.400
    4MOP   H173  173   1.679   2.272   1.479
    4MOP   H174  174   1.760   2.193   1.698
    4MOP   H175  175   1.862   2.352   1.859
    4MOP   H176  176   1.742   2.769   1.799
    5CAP   C177  177   1.966   1.132   4.416
    5CAP   O178  178   2.000   1.236   4.319
    5CAP   H179  179   2.037   1.135   4.499
    5CAP   H180  180   1.974   1.035   4.367
    5CAP   H181  181   1.864   1.147   4.452
    6CAP   C182  182   1.750   2.124   1.097
    6CAP   C183  183   1.610   2.161   1.151
    6CAP   C184  184   1.517   2.180   1.027
    6CAP   C185  185   1.564   2.045   1.243
    6CAP   O186  186   1.634   2.285   1.224
    6CAP   C187  187   1.528   2.352   1.279
    6CAP   O188  188   1.413   2.313   1.284
    6CAP   H189  189   1.745   2.031   1.040
    6CAP   H190  190   1.787   2.205   1.033
    6CAP   H191  191   1.819   2.111   1.181
    6CAP   H192  192   1.552   2.265   0.969
    6CAP   H193  193   1.414   2.196   1.059
    6CAP   H194  194   1.521   2.089   0.965
    6CAP   H195  195   1.631   2.039   1.329
    6CAP   H196  196   1.462   2.063   1.276
    6CAP   H197  197   1.567   1.951   1.187
    7TCM     c1  198   4.082   0.367   2.626
    7TCM    cl1  199   4.054   0.191   2.618
    7TCM    cl2  200   4.077   0.437   2.461
    7TCM     h1  201   4.005   0.414   2.688
    7TCM    cl3  202   4.244   0.397   2.699
    8TCM     c1  203   1.582   2.213   4.143
    8TCM    cl1  204   1.574   2.102   4.283
    8TCM    cl2  205   1.725   2.321   4.160
    8TCM     h1  206   1.591   2.155   4.051
    8TCM    cl3  207   1.433   2.313   4.138
    9TCM     c1  208   1.770   2.113   0.697
    9TCM    cl1  209   1.693   1.951   0.702
    9TCM    cl2  210   1.791   2.165   0.526
    9TCM     h1  211   1.706   2.185   0.749
    9TCM    cl3  212   1.930   2.106   0.776
   10TCM     c1  213   2.587   0.345   3.410
   10TCM    cl1  214   2.701   0.392   3.280
   10TCM    cl2  215   2.660   0.378   3.570
   10TCM     h1  216   2.494   0.403   3.400
   10TCM    cl3  217   2.550   0.170   3.397
   11TCM     c1  218   2.200   1.709   2.822
   11TCM    cl1  219   2.332   1.825   2.858
   11TCM    cl2  220   2.042   1.782   2.866
   11TCM     h1  221   2.200   1.684   2.716
   11TCM    cl3  222   2.226   1.560   2.919
   12TCM     c1  223   0.217   1.287   0.063
   12TCM    cl1  224   0.286   1.125   0.100
   12TCM    cl2  225   0.197   1.379   0.216
   12TCM     h1  226   0.283   1.341  -0.004
   12TCM    cl3  227   0.056   1.265  -0.015
   13TCM     c1  228   2.933   0.686   2.565
   13TCM    cl1  229   2.812   0.776   2.664
   13TCM    cl2  230   2.938   0.515   2.620
   13TCM     h1  231   2.904   0.690   2.460
   13TCM    cl3  232   3.094   0.762   2.586
   14TCM     c1  233   3.600   3.994   4.548
   14TCM    cl1  234   3.470   4.115   4.522
   14TCM    cl2  235   3.615   3.960   4.724
   14TCM     h1  236   3.576   3.902   4.495
   14TCM    cl3  237   3.756   4.058   4.487
   15TCM     c1  238   0.479   3.792   3.309
   15TCM    cl1  239   0.610   3.672   3.285
   15TCM    cl2  240   0.494   3.920   3.184
   15TCM     h1  241   0.382   3.743   3.300
   15TCM    cl3  242   0.494   3.867   3.471
   16TCM     c1  243   3.857   1.065   2.522
   16TCM    cl1  244   3.859   1.022   2.696
   16TCM    cl2  245   4.024   1.099   2.467
   16TCM     h1  246   3.815   0.983   2.464
   16TCM    cl3  247   3.755   1.212   2.500
   17TCM     c1  248   4.883   2.735   4.307
   17TCM    cl1  249   4.704   2.718   4.301
   17TCM    cl2  250   4.951   2.607   4.412
   17TCM     h1  251   4.924   2.726   4.206
   17TCM    cl3  252   4.924   2.896   4.375
   18TCM     c1  253   0.496   2.583   1.176
   18TCM    cl1  254   0.494   2.708   1.305
   18TCM    cl2  255   0.387   2.448   1.222
   18TCM     h1  256   0.461   2.627   1.082
   18TCM    cl3  257   0.663   2.520   1.156
   19TCM     c1  258   1.190   1.574   2.059
   19TCM    cl1  259   1.039   1.655   2.009
   19TCM    cl2  260   1.293   1.542   1.915
   19TCM     h1  261   1.244   1.638   2.129
   19TCM    cl3  262   1.149   1.419   2.139
   20TCM     c1  263   4.427   4.300   0.492
   20TCM    cl1  264   4.573   4.391   0.443
   20TCM    cl2  265   4.373   4.194   0.357
   20TCM     h1  266   4.449   4.238   0.580
   20TCM    cl3  267   4.295   4.415   0.533
   21TCM     c1  268   2.347   0.105   3.690
   21TCM    cl1  269   2.201   0.036   3.768
   21TCM    cl2  270   2.495   0.030   3.759
   21TCM     h1  271   2.343   0.086   3.582
   21TCM    cl3  272   2.353   0.281   3.720
   22TCM     c1  273   2.668   1.657   2.580
   22TCM    cl1  274   2.745   1.547   2.699
   22TCM    cl2  275   2.699   1.596   2.414
   22TCM     h1  276   2.561   1.661   2.598
   22TCM    cl3  277   2.739   1.821   2.596
   23TCM     c1  278   0.659   2.885   4.698
   23TCM    cl1  279   0.809   2.977   4.657
   23TCM    cl2  280   0.622   2.770   4.565
   23TCM     h1  281   0.675   2.831   4.791
   23TCM    cl3  282   0.523   3.000   4.717
   24TCM     c1  283   4.503   3.436   2.011
   24TCM    cl1  284   4.533   3.589   1.923
   24TCM    cl2  285   4.349   3.363   1.954
   24TCM     h1  286   4.586   3.366   1.991
   24TCM    cl3  287   4.493   3.469   2.187
   25TCM     c1  288   0.184   3.696   4.467
   25TCM    cl1  289   0.058   3.757   4.354
   25TCM    cl2  290   0.306   3.825   4.496
   25TCM     h1  291   0.138   3.668   4.562
   25TCM    cl3  292   0.266   3.554   4.394
   26TCM     c1  293   1.979   1.113   3.274
   26TCM    cl1  294   2.133   1.205   3.269
   26TCM    cl2  295   1.979   0.990   3.143
   26TCM     h1  296   1.968   1.063   3.371
   26TCM    cl3  297   1.843   1.226   3.248
   27TCM     c1  298   1.063   1.718   2.486
   27TCM    cl1  299   1.218   1.718   2.395
   27TCM    cl2  300   0.928   1.689   2.371
   27TCM     h1  301   1.065   1.639   2.561
   27TCM    cl3  302   1.040   1.877   2.565
   28TCM     c1  303   3.231   4.606   4.621
   28TCM    cl1  304   3.220   4.647   4.446
   28TCM    cl2  305   3.239   4.428   4.641
   28TCM     h1  306   3.321   4.652   4.663
   28TCM    cl3  307   3.087   4.670   4.705
   29TCM     c1  308   2.579   2.249   1.993
   29TCM    cl1  309   2.595   2.317   1.827
   29TCM    cl2  310   2.674   2.351   2.106
   29TCM     h1  311   2.474   2.249   2.023
   29TCM    cl3  312   2.644   2.082   1.993
   30TCM     c1  313   2.648   2.018   4.697
   30TCM    cl1  314   2.761   2.103   4.808
   30TCM    cl2  315   2.674   2.078   4.530
   30TCM     h1  316   2.668   1.911   4.701
   30TCM    cl3  317   2.479   2.051   4.747
   31TCM     c1  318   0.037   0.069   0.950
   31TCM    cl1  319   0.155   0.154   0.845
   31TCM    cl2  320  -0.021   0.180   1.078
   31TCM     h1  321  -0.048   0.035   0.890
   31TCM    cl3  322   0.117  -0.073   1.027
   32TCM     c1  323   2.992   0.516   1.055
   32TCM    cl1  324   2.999   0.350   0.988
   32TCM    cl2  325   2.824   0.553   1.105
   32TCM     h1  326   3.059   0.524   1.141
   32TCM    cl3  327   3.045   0.633   0.929
   33TCM     c1  328   4.058   3.240   1.750
   33TCM    cl1  329   3.928   3.118   1.773
   33TCM    cl2  330   4.003   3.398   1.815
   33TCM     h1  331   4.148   3.208   1.804
   33TCM    cl3  332   4.094   3.257   1.575
   34TCM     c1  333   1.175   0.942   3.473
   34TCM    cl1  334   1.054   0.845   3.382
   34TCM    cl2  335   1.103   0.992   3.630
   34TCM     h1  336   1.264   0.882   3.491
   34TCM    cl3  337   1.219   1.088   3.377
   35TCM     c1  338   2.654   3.497   3.098
   35TCM    cl1  339   2.794   3.573   3.015
   35TCM    cl2  340   2.564   3.622   3.190
   35TCM     h1  341   2.588   3.451   3.024
   35TCM    cl3  342   2.713   3.372   3.212
   36TCM     c1  343   0.430   0.676   2.281
   36TCM    cl1  344   0.534   0.595   2.402
   36TCM    cl2  345   0.466   0.612   2.118
   36TCM     h1  346   0.325   0.658   2.305
   36TCM    cl3  347   0.463   0.853   2.283
   37TCM     c1  348   4.731   1.964   2.049
   37TCM    cl1  349   4.635   1.838   1.964
   37TCM    cl2  350   4.845   2.041   1.934
   37TCM     h1  351   4.663   2.040   2.090
   37TCM    cl3  352   4.823   1.890   2.184
   38TCM     c1  353   1.322   3.632   1.944
   38TCM    cl1  354   1.357   3.794   2.010
   38TCM    cl2  355   1.225   3.649   1.794
   38TCM     h1  356   1.415   3.579   1.921
   38TCM    cl3  357   1.228   3.538   2.065
   39TCM     c1  358   3.751   1.405   2.052
   39TCM    cl1  359   3.746   1.248   2.140
   39TCM    cl2  360   3.589   1.442   1.987
   39TCM     h1  361   3.783   1.484   2.121
   39TCM    cl3  362   3.868   1.392   1.917
   40TCM     c1  363   0.823   2.067   1.837
   40TCM    cl1  364   0.779   2.095   1.666
   40TCM    cl2  365   0.861   2.223   1.918
   40TCM     h1  366   0.739   2.020   1.888
   40TCM    cl3  367   0.966   1.959   1.846
   41TCM     c1  368   2.337   3.666   1.600
   41TCM    cl1  369   2.312   3.757   1.752
   41TCM    cl2  370   2.179   3.639   1.519
   41TCM     h1  371   2.402   3.724   1.534
   41TCM    cl3  372   2.413   3.508   1.636
   42TCM     c1  373   0.868   4.279   1.024
   42TCM    cl1  374   1.008   4.328   0.923
   42TCM    cl2  375   0.732   4.394   0.999
   42TCM     h1  376   0.836   4.178   0.997
   42TCM    cl3  377   0.916   4.282   1.197
   43TCM     c1  378   0.436   1.069   4.666
   43TCM    cl1  379   0.425   1.007   4.498
   43TCM    cl2  380   0.454   0.931   4.779
   43TCM     h1  381   0.523   1.135   4.675
   43TCM    cl3  382   0.287   1.160   4.706
   44TCM     c1  383   1.135   3.997   4.503
   44TCM    cl1  384   1.004   4.098   4.434
   44TCM    cl2  385   1.282   4.097   4.527
   44TCM     h1  386   1.103   3.955   4.598
   44TCM    cl3  387   1.174   3.864   4.389
   45TCM     c1  388   0.342   0.629   4.463
   45TCM    cl1  389   0.495   0.545   4.422
   45TCM    cl2  390   0.220   0.509   4.516
   45TCM     h1  391   0.361   0.701   4.544
   45TCM    cl3  392   0.281   0.716   4.319
   46TCM     c1  393   1.156   4.245   1.820
   46TCM    cl1  394   1.232   4.084   1.797
   46TCM    cl2  395   1.013   4.259   1.713
   46TCM     h1  396   1.125   4.256   1.924
   46TCM    cl3  397   1.275   4.373   1.779
   47TCM     c1  398   3.219   4.109   4.799
   47TCM    cl1  399   3.342   4.164   4.917
   47TCM    cl2  400   3.054   4.139   4.862
   47TCM     h1  401   3.232   4.164   4.705
   47TCM    cl3  402   3.241   3.934   4.768
   48TCM     c1  403   1.519   1.504   1.260
   48TCM    cl1  404   1.504   1.456   1.087
   48TCM    cl2  405   1.688   1.481   1.314
   48TCM     h1  406   1.490   1.609   1.271
   48TCM    cl3  407   1.412   1.401   1.360
   49TCM     c1  408   3.284   0.407   1.950
   49TCM    cl1  409   3.412   0.484   2.047
   49TCM    cl2  410   3.343   0.385   1.781
   49TCM     h1  411   3.258   0.310   1.993
   49TCM    cl3  412   3.139   0.512   1.948
   50TCM     c1  413   0.119   0.526   1.728
   50TCM    cl1  414   0.123   0.404   1.596
   50TCM    cl2  415   0.262   0.505   1.834
   50TCM     h1  416   0.119   0.626   1.684
   50TCM    cl3  417  -0.030   0.504   1.825
   51TCM     c1  418   3.525   2.571   0.818
   51TCM    cl1  419   3.376   2.618   0.905
   51TCM    cl2  420   3.659   2.681   0.866
   51TCM     h1  421   3.552   2.468   0.843
   51TCM    cl3  422   3.498   2.586   0.641
   52TCM     c1  423   0.031   1.700   3.174
   52TCM    cl1  424  -0.139   1.657   3.212
   52TCM    cl2  425   0.053   1.705   2.997
   52TCM     h1  426   0.054   1.798   3.217
   52TCM    cl3  427   0.141   1.577   3.244
   53TCM     c1  428   2.214   3.445   2.111
   53TCM    cl1  429   2.146   3.282   2.078
   53TCM    cl2  430   2.359   3.471   2.009
   53TCM     h1  431   2.138   3.521   2.088
   53TCM    cl3  432   2.258   3.457   2.285
   54TCM     c1  433   0.396   4.993   4.508
   54TCM    cl1  434   0.237   4.912   4.491
   54TCM    cl2  435   0.482   4.922   4.648
   54TCM     h1  436   0.455   4.978   4.417
   54TCM    cl3  437   0.370   5.169   4.536
   55TCM     c1  438   4.516   0.193   4.314
   55TCM    cl1  439   4.559   0.052   4.417
   55TCM    cl2  440   4.456   0.133   4.156
   55TCM     h1  441   4.439   0.252   4.363
   55TCM    cl3  442   4.662   0.294   4.287
   56TCM     c1  443   3.663   4.620   1.274
   56TCM    cl1  444   3.642   4.578   1.448
   56TCM    cl2  445   3.750   4.487   1.191
   56TCM     h1  446   3.564   4.634   1.228
   56TCM    cl3  447   3.757   4.772   1.261
   57TCM     c1  448   4.493   4.268   4.939
   57TCM    cl1  449   4.585   4.228   4.790
   57TCM    cl2  450   4.600   4.247   5.081
   57TCM     h1  451   4.459   4.372   4.934
   57TCM    cl3  452   4.351   4.160   4.954
   58TCM     c1  453   3.836   4.174   1.433
   58TCM    cl1  454   3.925   4.319   1.491
   58TCM    cl2  455   3.877   4.145   1.261
   58TCM     h1  456   3.865   4.088   1.493
   58TCM    cl3  457   3.660   4.201   1.450
   59TCM     c1  458   3.677   3.844   3.164
   59TCM    cl1  459   3.590   3.948   3.281
   59TCM    cl2  460   3.786   3.732   3.252
   59TCM     h1  461   3.604   3.787   3.105
   59TCM    cl3  462   3.775   3.947   3.054
   60TCM     c1  463   0.050   0.611   3.133
   60TCM    cl1  464   0.074   0.545   2.967
   60TCM    cl2  465   0.210   0.656   3.202
   60TCM     h1  466  -0.014   0.699   3.128
   60TCM    cl3  467  -0.027   0.486   3.236
   61TCM     c1  468   3.021   2.583   2.724
   61TCM    cl1  469   2.952   2.419   2.741
   61TCM    cl2  470   3.093   2.633   2.880
   61TCM     h1  471   3.098   2.583   2.647
   61TCM    cl3  472   2.889   2.697   2.678
   62TCM     c1  473   3.543   2.323   2.270
   62TCM    cl1  474   3.395   2.401   2.336
   62TCM    cl2  475   3.559   2.158   2.339
   62TCM     h1  476   3.535   2.318   2.161
   62TCM    cl3  477   3.686   2.421   2.315
   63TCM     c1  478   0.068   0.340   2.153
   63TCM    cl1  479   0.117   0.511   2.176
   63TCM    cl2  480  -0.111   0.329   2.147
   63TCM     h1  481   0.111   0.302   2.060
   63TCM    cl3  482   0.127   0.243   2.292
   64TCM     c1  483   0.417   0.243   2.729
   64TCM    cl1  484   0.549   0.345   2.662
   64TCM    cl2  485   0.357   0.319   2.879
   64TCM     h1  486   0.335   0.236   2.656
   64TCM    cl3  487   0.480   0.079   2.764
   65TCM     c1  488   0.103   3.666   1.115
   65TCM    cl1  489  -0.068   3.653   1.169
   65TCM    cl2  490   0.157   3.837   1.120
   65TCM     h1  491   0.166   3.605   1.181
   65TCM    cl3  492   0.117   3.605   0.947
   66TCM     c1  493   1.458   3.343   0.743
   66TCM    cl1  494   1.603   3.386   0.646
   66TCM    cl2  495   1.313   3.345   0.637
   66TCM     h1  496   1.471   3.244   0.786
   66TCM    cl3  497   1.437   3.463   0.875
   67TCM     c1  498   2.731   4.362   4.006
   67TCM    cl1  499   2.830   4.263   3.894
   67TCM    cl2  500   2.581   4.273   4.046
   67TCM     h1  501   2.787   4.382   4.098
   67TCM    cl3  502   2.690   4.517   3.926
   68TCM     c1  503   4.763   1.551   0.196
   68TCM    cl1  504   4.585   1.559   0.180
   68TCM    cl2  505   4.840   1.582   0.037
   68TCM     h1  506   4.796   1.627   0.268
   68TCM    cl3  507   4.811   1.388   0.255
   69TCM     c1  508   2.840   4.604   4.415
   69TCM    cl1  509   2.756   4.660   4.564
   69TCM    cl2  510   2.720   4.585   4.283
   69TCM     h1  511   2.915   4.678   4.386
   69TCM    cl3  512   2.918   4.446   4.446
   70TCM     c1  513   3.666   3.907   1.913
   70TCM    cl1  514   3.531   3.801   1.967
   70TCM    cl2  515   3.598   4.055   1.837
   70TCM     h1  516   3.727   3.935   2.000
   70TCM    cl3  517   3.767   3.820   1.794
   71TCM     c1  518   0.916   0.233   3.121
   71TCM    cl1  519   0.964   0.065   3.162
   71TCM    cl2  520   0.818   0.233   2.971
   71TCM     h1  521   0.858   0.276   3.204
   71TCM    cl3  522   1.065   0.331   3.095
   72TCM     c1  523   0.900   1.289   2.524
   72TCM    cl1  524   0.786   1.375   2.415
   72TCM    cl2  525   0.842   1.305   2.693
   72TCM     h1  526   0.904   1.183   2.497
   72TCM    cl3  527   1.062   1.362   2.507
   73TCM     c1  528   0.988   0.615   2.135
   73TCM    cl1  529   0.831   0.673   2.201
   73TCM    cl2  530   0.966   0.577   1.961
   73TCM     h1  531   1.064   0.693   2.146
   73TCM    cl3  532   1.041   0.467   2.221
   74TCM     c1  533   2.713   0.926   3.417
   74TCM    cl1  534   2.825   1.026   3.515
   74TCM    cl2  535   2.560   1.018   3.391
   74TCM     h1  536   2.758   0.904   3.320
   74TCM    cl3  537   2.676   0.774   3.505
   75TCM     c1  538   4.690   4.859   0.978
   75TCM    cl1  539   4.667   5.021   0.904
   75TCM    cl2  540   4.765   4.880   1.140
   75TCM     h1  541   4.593   4.809   0.988
   75TCM    cl3  542   4.799   4.762   0.874
   76TCM     c1  543   0.666   4.156   0.053
   76TCM    cl1  544   0.692   4.241   0.209
   76TCM    cl2  545   0.496   4.180  -0.000
   76TCM     h1  546   0.734   4.197  -0.023
   76TCM    cl3  547   0.699   3.981   0.073
   77TCM     c1  548   2.486   3.185   1.829
   77TCM    cl1  549   2.637   3.269   1.878
   77TCM    cl2  550   2.433   3.074   1.960
   77TCM     h1  551   2.407   3.259   1.810
   77TCM    cl3  552   2.517   3.089   1.681
   78TCM     c1  553   0.385   2.936   0.787
   78TCM    cl1  554   0.207   2.920   0.798
   78TCM    cl2  555   0.447   2.826   0.659
   78TCM     h1  556   0.411   3.039   0.763
   78TCM    cl3  557   0.459   2.890   0.944
   79TCM     c1  558   3.313   3.433   0.735
   79TCM    cl1  559   3.245   3.504   0.585
   79TCM    cl2  560   3.304   3.553   0.868
   79TCM     h1  561   3.256   3.344   0.762
   79TCM    cl3  562   3.485   3.387   0.707
   80TCM     c1  563   3.083   3.071   4.834
   80TCM    cl1  564   3.065   3.248   4.810
   80TCM    cl2  565   3.197   3.040   4.969
   80TCM     h1  566   2.985   3.028   4.857
   80TCM    cl3  567   3.147   2.997   4.683
   81TCM     c1  568   0.973   1.140   1.721
   81TCM    cl1  569   1.063   1.238   1.842
   81TCM    cl2  570   1.047   1.160   1.559
   81TCM     h1  571   0.976   1.035   1.750
   81TCM    cl3  572   0.802   1.196   1.716
   82TCM     c1  573   1.842   2.349   4.667
   82TCM    cl1  574   1.820   2.263   4.511
   82TCM    cl2  575   1.963   2.263   4.767
   82TCM     h1  576   1.875   2.452   4.648
   82TCM    cl3  577   1.686   2.352   4.754
   83TCM     c1  578   2.107   4.118   3.862
   83TCM    cl1  579   2.270   4.067   3.916
   83TCM    cl2  580   1.997   4.120   4.003
   83TCM     h1  581   2.112   4.218   3.818
   83TCM    cl3  582   2.044   4.002   3.741
   84TCM     c1  583   0.711   0.243   4.738
   84TCM    cl1  584   0.740   0.172   4.576
   84TCM    cl2  585   0.847   0.352   4.779
   84TCM     h1  586   0.617   0.300   4.737
   84TCM    cl3  587   0.701   0.112   4.860
   85TCM     c1  588   0.885   0.472   2.707
   85TCM    cl1  589   0.873   0.517   2.534
   85TCM    cl2  590   0.842   0.613   2.809
   85TCM     h1  591   0.817   0.389   2.728
   85TCM    cl3  592   1.053   0.423   2.742
   86TCM     c1  593   4.480   2.934   3.112
   86TCM    cl1  594   4.616   3.041   3.064
   86TCM    cl2  595   4.529   2.840   3.257
   86TCM     h1  596   4.392   2.994   3.135
   86TCM    cl3  597   4.443   2.821   2.977
   87TCM     c1  598   3.098   4.652   0.059
   87TCM    cl1  599   3.270   4.704   0.066
   87TCM    cl2  600   3.019   4.683   0.217
   87TCM     h1  601   3.046   4.707  -0.019
   87TCM    cl3  602   3.092   4.476   0.022
   88TCM     c1  603   1.732   0.015   3.456
   88TCM    cl1  604   1.646   0.010   3.298
   88TCM    cl2  605   1.691   0.168   3.540
   88TCM     h1  606   1.701  -0.070   3.517
   88TCM    cl3  607   1.908   0.007   3.425
   89TCM     c1  608   0.886   0.661   3.710
   89TCM    cl1  609   0.954   0.632   3.874
   89TCM    cl2  610   0.717   0.718   3.726
   89TCM     h1  611   0.945   0.737   3.659
   89TCM    cl3  612   0.889   0.508   3.617
   90TCM     c1  613   2.149   0.136   2.368
   90TCM    cl1  614   2.124   0.007   2.246
   90TCM    cl2  615   2.022   0.262   2.350
   90TCM     h1  616   2.144   0.093   2.468
   90TCM    cl3  617   2.310   0.211   2.342
   91TCM     c1  618   0.990   1.087   2.163
   91TCM    cl1  619   1.011   0.954   2.044
   91TCM    cl2  620   1.131   1.089   2.274
   91TCM     h1  621   0.982   1.182   2.110
   91TCM    cl3  622   0.841   1.056   2.257
   92TCM     c1  623   1.449   1.613   4.785
   92TCM    cl1  624   1.487   1.580   4.958
   92TCM    cl2  625   1.361   1.769   4.772
   92TCM     h1  626   1.542   1.619   4.728
   92TCM    cl3  627   1.346   1.481   4.722
   93TCM     c1  628   4.285   2.980   2.166
   93TCM    cl1  629   4.408   2.874   2.090
   93TCM    cl2  630   4.174   3.042   2.038
   93TCM     h1  631   4.228   2.924   2.240
   93TCM    cl3  632   4.367   3.119   2.245
   94TCM     c1  633   2.868   4.628   1.167
   94TCM    cl1  634   2.966   4.555   1.035
   94TCM    cl2  635   2.967   4.748   1.256
   94TCM     h1  636   2.780   4.677   1.124
   94TCM    cl3  637   2.816   4.499   1.280
   95TCM     c1  638   4.390   2.436   2.956
   95TCM    cl1  639   4.529   2.444   2.843
   95TCM    cl2  640   4.446   2.468   3.123
   95TCM     h1  641   4.315   2.510   2.927
   95TCM    cl3  642   4.318   2.272   2.947
   96TCM     c1  643   4.246   0.691   3.520
   96TCM    cl1  644   4.090   0.717   3.605
   96TCM    cl2  645   4.214   0.622   3.357
   96TCM     h1  646   4.298   0.786   3.510
   96TCM    cl3  647   4.347   0.576   3.614
   97TCM     c1  648   4.093   0.957   2.953
   97TCM    cl1  649   4.130   1.130   2.979
   97TCM    cl2  650   3.950   0.912   3.053
   97TCM     h1  651   4.071   0.940   2.848
   97TCM    cl3  652   4.233   0.857   3.003
   98TCM     c1  653   1.991   0.307   2.974
   98TCM    cl1  654   1.962   0.192   3.108
   98TCM    cl2  655   2.104   0.233   2.856
   98TCM     h1  656   1.896   0.330   2.924
   98TCM    cl3  657   2.062   0.458   3.038
   99TCM     c1  658   0.250   4.137   3.373
   99TCM    cl1  659   0.165   4.249   3.262
   99TCM    cl2  660   0.132   4.024   3.448
   99TCM     h1  661   0.323   4.079   3.317
   99TCM    cl3  662   0.333   4.229   3.502
  100TCM     c1  663   0.252   1.836   4.666
  100TCM    cl1  664   0.221   1.761   4.506
  100TCM    cl2  665   0.427   1.873   4.681
  100TCM     h1  666   0.194   1.928   4.675
  100TCM    cl3  667   0.205   1.721   4.795
  101TCM     c1  668   1.048   0.078   4.914
  101TCM    cl1  669   1.190   0.184   4.946
  101TCM    cl2  670   1.055  -0.066   5.021
  101TCM     h1  671   0.957   0.134   4.935
  101TCM    cl3  672   1.051   0.025   4.743
  102TCM     c1  673   0.814   2.236   0.826
  102TCM    cl1  674   0.805   2.414   0.815
  102TCM    cl2  675   0.795   2.163   0.663
  102TCM     h1  676   0.912   2.207   0.867
  102TCM    cl3  677   0.684   2.176   0.935
  103TCM     c1  678   4.724   1.491   2.268
  103TCM    cl1  679   4.876   1.558   2.336
  103TCM    cl2  680   4.737   1.482   2.090
  103TCM     h1  681   4.707   1.391   2.309
  103TCM    cl3  682   4.587   1.598   2.312
  104TCM     c1  683   2.879   1.203   2.365
  104TCM    cl1  684   2.987   1.223   2.223
  104TCM    cl2  685   2.879   1.031   2.414
  104TCM     h1  686   2.914   1.265   2.447
  104TCM    cl3  687   2.712   1.251   2.320
  105TCM     c1  688   3.218   0.376   2.439
  105TCM    cl1  689   3.197   0.524   2.340
  105TCM    cl2  690   3.289   0.419   2.598
  105TCM     h1  691   3.120   0.328   2.454
  105TCM    cl3  692   3.328   0.263   2.353
  106TCM     c1  693   2.292   4.427   0.922
  106TCM    cl1  694   2.117   4.468   0.915
  106TCM    cl2  695   2.389   4.576   0.898
  106TCM     h1  696   2.316   4.383   1.019
  106TCM    cl3  697   2.331   4.310   0.792
  107TCM     c1  698   0.583   3.297   3.886
  107TCM    cl1  699   0.594   3.193   4.031
  107TCM    cl2  700   0.413   3.351   3.865
  107TCM     h1  701   0.648   3.384   3.898
  107TCM    cl3  702   0.634   3.204   3.741
  108TCM     c1  703   2.373   4.970   1.609
  108TCM    cl1  704   2.491   5.067   1.515
  108TCM    cl2  705   2.224   4.946   1.511
  108TCM     h1  706   2.417   4.873   1.634
  108TCM    cl3  707   2.331   5.058   1.760
  109TCM     c1  708   2.673   4.824   3.500
  109TCM    cl1  709   2.495   4.805   3.502
  109TCM    cl2  710   2.731   4.802   3.331
  109TCM     h1  711   2.701   4.923   3.536
  109TCM    cl3  712   2.746   4.698   3.604
  110TCM     c1  713   3.381   3.618   4.621
  110TCM    cl1  714   3.301   3.461   4.588
  110TCM    cl2  715   3.349   3.731   4.485
  110TCM     h1  716   3.343   3.660   4.714
  110TCM    cl3  717   3.558   3.592   4.634
  111TCM     c1  718   1.703   4.977   4.393
  111TCM    cl1  719   1.655   4.859   4.519
  111TCM    cl2  720   1.556   5.033   4.306
  111TCM     h1  721   1.753   5.062   4.440
  111TCM    cl3  722   1.815   4.898   4.277
  112TCM     c1  723   3.280   3.806   1.691
  112TCM    cl1  724   3.236   3.980   1.690
  112TCM    cl2  725   3.442   3.785   1.618
  112TCM     h1  726   3.281   3.769   1.794
  112TCM    cl3  727   3.160   3.714   1.594
  113TCM     c1  728   0.050   2.655   1.965
  113TCM    cl1  729  -0.002   2.541   2.093
  113TCM    cl2  730  -0.029   2.612   1.810
  113TCM     h1  731   0.022   2.757   1.993
  113TCM    cl3  732   0.228   2.646   1.946
  114TCM     c1  733   1.626   0.847   3.322
  114TCM    cl1  734   1.768   0.743   3.289
  114TCM    cl2  735   1.673   0.979   3.433
  114TCM     h1  736   1.589   0.889   3.228
  114TCM    cl3  737   1.496   0.750   3.398
  115TCM     c1  738   1.588   4.631   3.370
  115TCM    cl1  739   1.517   4.682   3.213
  115TCM    cl2  740   1.513   4.726   3.503
  115TCM     h1  741   1.569   4.524   3.385
  115TCM    cl3  742   1.765   4.661   3.368
  116TCM     c1  743   1.098   3.085   3.729
  116TCM    cl1  744   1.046   3.111   3.560
  116TCM    cl2  745   0.974   2.988   3.815
  116TCM     h1  746   1.194   3.031   3.731
  116TCM    cl3  747   1.117   3.243   3.811
  117TCM     c1  748   4.966   2.239   2.323
  117TCM    cl1  749   4.806   2.266   2.247
  117TCM    cl2  750   5.077   2.163   2.204
  117TCM     h1  751   5.008   2.334   2.355
  117TCM    cl3  752   4.948   2.130   2.464
  118TCM     c1  753   2.248   1.291   1.752
  118TCM    cl1  754   2.147   1.398   1.855
  118TCM    cl2  755   2.418   1.347   1.758
  118TCM     h1  756   2.241   1.189   1.789
  118TCM    cl3  757   2.188   1.300   1.583
  119TCM     c1  758   1.205   0.071   3.492
  119TCM    cl1  759   1.295   0.141   3.354
  119TCM    cl2  760   1.059   0.170   3.525
  119TCM     h1  761   1.175  -0.032   3.468
  119TCM    cl3  762   1.312   0.069   3.636
  120TCM     c1  763   4.328   3.513   2.611
  120TCM    cl1  764   4.257   3.502   2.776
  120TCM    cl2  765   4.262   3.658   2.528
  120TCM     h1  766   4.437   3.522   2.619
  120TCM    cl3  767   4.286   3.366   2.518
  121TCM     c1  768   4.401   1.160   3.625
  121TCM    cl1  769   4.275   1.046   3.682
  121TCM    cl2  770   4.507   1.076   3.507
  121TCM     h1  771   4.353   1.246   3.577
  121TCM    cl3  772   4.500   1.215   3.764
  122TCM     c1  773   3.801   1.881   2.272
  122TCM    cl1  774   3.864   1.989   2.144
  122TCM    cl2  775   3.938   1.807   2.362
  122TCM     h1  776   3.739   1.938   2.342
  122TCM    cl3  777   3.702   1.751   2.197
  123TCM     c1  778   4.764   3.951   3.030
  123TCM    cl1  779   4.878   4.068   3.104
  123TCM    cl2  780   4.597   4.017   3.042
  123TCM     h1  781   4.790   3.936   2.925
  123TCM    cl3  782   4.773   3.795   3.118
  124TCM     c1  783   0.477   1.776   0.066
  124TCM    cl1  784   0.330   1.862   0.123
  124TCM    cl2  785   0.441   1.602   0.048
  124TCM     h1  786   0.510   1.818  -0.030
  124TCM    cl3  787   0.606   1.796   0.189
  125TCM     c1  788   3.487   1.659   3.141
  125TCM    cl1  789   3.310   1.661   3.172
  125TCM    cl2  790   3.515   1.624   2.967
  125TCM     h1  791   3.529   1.757   3.166
  125TCM    cl3  792   3.563   1.532   3.241
  126TCM     c1  793   1.313   2.265   2.689
  126TCM    cl1  794   1.229   2.324   2.836
  126TCM    cl2  795   1.488   2.305   2.700
  126TCM     h1  796   1.301   2.156   2.682
  126TCM    cl3  797   1.243   2.341   2.543
  127TCM     c1  798   0.328   2.720   4.923
  127TCM    cl1  799   0.234   2.619   5.037
  127TCM    cl2  800   0.350   2.630   4.770
  127TCM     h1  801   0.274   2.813   4.904
  127TCM    cl3  802   0.488   2.756   4.996
  128TCM     c1  803   0.833   4.521   4.700
  128TCM    cl1  804   0.776   4.422   4.562
  128TCM    cl2  805   0.781   4.445   4.855
  128TCM     h1  806   0.942   4.526   4.697
  128TCM    cl3  807   0.765   4.687   4.690
  129TCM     c1  808   4.765   4.575   0.023
  129TCM    cl1  809   4.633   4.595  -0.097
  129TCM    cl2  810   4.728   4.672   0.169
  129TCM     h1  811   4.774   4.469   0.050
  129TCM    cl3  812   4.919   4.631  -0.050
  130TCM     c1  813   0.698   1.477   0.340
  130TCM    cl1  814   0.584   1.346   0.293
  130TCM    cl2  815   0.836   1.479   0.226
  130TCM     h1  816   0.647   1.573   0.337
  130TCM    cl3  817   0.758   1.447   0.507
  131TCM     c1  818   2.050   0.340   3.423
  131TCM    cl1  819   2.039   0.516   3.391
  131TCM    cl2  820   2.025   0.309   3.598
  131TCM     h1  821   1.973   0.288   3.366
  131TCM    cl3  822   2.212   0.281   3.375
  132TCM     c1  823   0.492   1.366   3.080
  132TCM    cl1  824   0.630   1.287   2.997
  132TCM    cl2  825   0.479   1.536   3.024
  132TCM     h1  826   0.400   1.312   3.056
  132TCM    cl3  827   0.518   1.363   3.257
  133TCM     c1  828   0.116   4.222   4.920
  133TCM    cl1  829   0.159   4.284   4.758
  133TCM    cl2  830   0.162   4.049   4.933
  133TCM     h1  831   0.170   4.280   4.996
  133TCM    cl3  832  -0.061   4.240   4.944
  134TCM     c1  833   4.260   1.219   2.003
  134TCM    cl1  834   4.411   1.184   2.094
  134TCM    cl2  835   4.241   1.397   1.987
  134TCM     h1  836   4.266   1.174   1.903
  134TCM    cl3  837   4.119   1.152   2.091
  135TCM     c1  838   1.299   0.711   1.796
  135TCM    cl1  839   1.258   0.550   1.730
  135TCM    cl2  840   1.312   0.701   1.975
  135TCM     h1  841   1.394   0.745   1.754
  135TCM    cl3  842   1.170   0.828   1.752
  136TCM     c1  843   4.641   4.916   3.015
  136TCM    cl1  844   4.799   4.997   2.993
  136TCM    cl2  845   4.627   4.859   3.184
  136TCM     h1  846   4.561   4.987   2.993
  136TCM    cl3  847   4.630   4.776   2.903
  137TCM     c1  848   2.034   1.591   3.254
  137TCM    cl1  849   2.212   1.590   3.279
  137TCM    cl2  850   1.978   1.759   3.225
  137TCM     h1  851   2.009   1.528   3.169
  137TCM    cl3  852   1.956   1.528   3.403
  138TCM     c1  853   2.560   3.484   3.560
  138TCM    cl1  854   2.393   3.418   3.576
  138TCM    cl2  855   2.678   3.360   3.613
  138TCM     h1  856   2.579   3.510   3.455
  138TCM    cl3  857   2.577   3.629   3.663
  139TCM     c1  858   0.780   1.184   3.454
  139TCM    cl1  859   0.909   1.286   3.525
  139TCM    cl2  860   0.755   1.040   3.558
  139TCM     h1  861   0.687   1.241   3.447
  139TCM    cl3  862   0.830   1.131   3.290
  140TCM     c1  863   0.645   4.187   1.750
  140TCM    cl1  864   0.536   4.078   1.659
  140TCM    cl2  865   0.615   4.169   1.926
  140TCM     h1  866   0.749   4.163   1.728
  140TCM    cl3  867   0.613   4.358   1.703
  141TCM     c1  868   3.576   4.151   2.391
  141TCM    cl1  869   3.615   4.060   2.241
  141TCM    cl2  870   3.399   4.143   2.421
  141TCM     h1  871   3.629   4.106   2.476
  141TCM    cl3  872   3.627   4.322   2.372
  142TCM     c1  873   0.544   2.453   3.138
  142TCM    cl1  874   0.661   2.583   3.177
  142TCM    cl2  875   0.632   2.309   3.080
  142TCM     h1  876   0.487   2.427   3.228
  142TCM    cl3  877   0.431   2.510   3.010
  143TCM     c1  878   1.733   3.629   1.320
  143TCM    cl1  879   1.792   3.484   1.233
  143TCM    cl2  880   1.819   3.644   1.477
  143TCM     h1  881   1.751   3.718   1.259
  143TCM    cl3  882   1.557   3.611   1.351
  144TCM     c1  883   1.478   1.347   2.506
  144TCM    cl1  884   1.453   1.170   2.495
  144TCM    cl2  885   1.383   1.413   2.643
  144TCM     h1  886   1.584   1.369   2.521
  144TCM    cl3  887   1.421   1.422   2.355
  145TCM     c1  888   3.828   0.090   3.665
  145TCM    cl1  889   3.662   0.106   3.731
  145TCM    cl2  890   3.850  -0.073   3.594
  145TCM     h1  891   3.845   0.166   3.589
  145TCM    cl3  892   3.946   0.111   3.799
  146TCM     c1  893   4.949   4.522   4.468
  146TCM    cl1  894   5.126   4.497   4.451
  146TCM    cl2  895   4.917   4.679   4.549
  146TCM     h1  896   4.903   4.523   4.369
  146TCM    cl3  897   4.877   4.389   4.565
  147TCM     c1  898   1.010   1.782   0.446
  147TCM    cl1  899   0.834   1.814   0.460
  147TCM    cl2  900   1.068   1.699   0.594
  147TCM     h1  901   1.030   1.719   0.359
  147TCM    cl3  902   1.097   1.938   0.428
  148TCM     c1  903   2.575   2.745   4.973
  148TCM    cl1  904   2.472   2.839   4.860
  148TCM    cl2  905   2.524   2.572   4.968
  148TCM     h1  906   2.679   2.753   4.943
  148TCM    cl3  907   2.554   2.809   5.139
  149TCM     c1  908   3.665   1.267   3.006
  149TCM    cl1  909   3.599   1.118   2.932
  149TCM    cl2  910   3.771   1.350   2.888
  149TCM     h1  911   3.582   1.333   3.035
  149TCM    cl3  912   3.760   1.223   3.152
  150TCM     c1  913   3.373   0.063   1.540
  150TCM    cl1  914   3.221   0.013   1.459
  150TCM    cl2  915   3.449   0.197   1.448
  150TCM     h1  916   3.350   0.097   1.642
  150TCM    cl3  917   3.485  -0.076   1.547
  151TCM     c1  918   3.644   2.385   1.231
  151TCM    cl1  919   3.616   2.562   1.215
  151TCM    cl2  920   3.597   2.303   1.079
  151TCM     h1  921   3.749   2.366   1.253
  151TCM    cl3  922   3.543   2.322   1.366
  152TCM     c1  923   2.925   4.159   2.415
  152TCM    cl1  924   2.904   4.268   2.556
  152TCM    cl2  925   3.021   4.016   2.464
  152TCM     h1  926   2.827   4.127   2.378
  152TCM    cl3  927   3.013   4.247   2.286
  153TCM     c1  928   4.332   0.819   2.618
  153TCM    cl1  929   4.159   0.772   2.626
  153TCM    cl2  930   4.428   0.711   2.724
  153TCM     h1  931   4.367   0.811   2.515
  153TCM    cl3  932   4.349   0.989   2.674
  154TCM     c1  933   0.820   1.782   4.671
  154TCM    cl1  934   0.810   1.961   4.674
  154TCM    cl2  935   0.726   1.716   4.808
  154TCM     h1  936   0.779   1.744   4.577
  154TCM    cl3  937   0.991   1.732   4.686
  155TCM     c1  938   1.994   4.508   4.491
  155TCM    cl1  939   2.041   4.618   4.358
  155TCM    cl2  940   1.902   4.599   4.616
  155TCM     h1  941   1.932   4.427   4.452
  155TCM    cl3  942   2.141   4.439   4.567
  156TCM     c1  943   2.161   0.082   4.555
  156TCM    cl1  944   2.296   0.106   4.440
  156TCM    cl2  945   2.217   0.120   4.721
  156TCM     h1  946   2.078   0.148   4.528
  156TCM    cl3  947   2.105  -0.088   4.548
  157TCM     c1  948   1.837   1.257   2.888
  157TCM    cl1  949   1.889   1.417   2.950
  157TCM    cl2  950   1.981   1.166   2.832
  157TCM     h1  951   1.786   1.201   2.967
  157TCM    cl3  952   1.725   1.279   2.749
  158TCM     c1  953   1.719   2.063   4.978
  158TCM    cl1  954   1.675   2.198   5.088
  158TCM    cl2  955   1.601   1.929   4.997
  158TCM     h1  956   1.718   2.098   4.874
  158TCM    cl3  957   1.883   2.004   5.020
  159TCM     c1  958   1.989   1.643   1.467
  159TCM    cl1  959   2.076   1.679   1.619
  159TCM    cl2  960   2.106   1.641   1.331
  159TCM     h1  961   1.941   1.545   1.474
  159TCM    cl3  962   1.866   1.769   1.436
  160TCM     c1  963   2.521   2.730   0.579
  160TCM    cl1  964   2.680   2.712   0.498
  160TCM    cl2  965   2.456   2.568   0.623
  160TCM     h1  966   2.532   2.790   0.670
  160TCM    cl3  967   2.405   2.810   0.468
  161TCM     c1  968   2.877   1.809   2.110
  161TCM    cl1  969   2.956   1.654   2.157
  161TCM    cl2  970   2.992   1.906   2.011
  161TCM     h1  971   2.787   1.788   2.052
  161TCM    cl3  972   2.835   1.901   2.257
  162TCM     c1  973   4.490   4.643   2.577
  162TCM    cl1  974   4.446   4.518   2.697
  162TCM    cl2  975   4.360   4.653   2.453
  162TCM     h1  976   4.501   4.740   2.626
  162TCM    cl3  977   4.644   4.597   2.498
  163TCM     c1  978   2.959   0.137   4.525
  163TCM    cl1  979   2.976  -0.039   4.498
  163TCM    cl2  980   2.873   0.211   4.386
  163TCM     h1  981   2.902   0.155   4.617
  163TCM    cl3  982   3.122   0.210   4.539
  164TCM     c1  983   3.826   3.833   3.776
  164TCM    cl1  984   3.954   3.955   3.807
  164TCM    cl2  985   3.780   3.840   3.603
  164TCM     h1  986   3.864   3.734   3.801
  164TCM    cl3  987   3.682   3.870   3.878
  165TCM     c1  988   1.894   1.108   2.390
  165TCM    cl1  989   1.797   1.009   2.503
  165TCM    cl2  990   2.062   1.123   2.453
  165TCM     h1  991   1.897   1.060   2.292
  165TCM    cl3  992   1.820   1.271   2.374
  166TCM     c1  993   2.652   0.075   4.840
  166TCM    cl1  994   2.669   0.176   4.987
  166TCM    cl2  995   2.799  -0.024   4.818
  166TCM     h1  996   2.565   0.010   4.851
  166TCM    cl3  997   2.629   0.181   4.697
  167TCM     c1  998   2.495   2.732   1.823
  167TCM    cl1  999   2.667   2.774   1.852
  167TCM    cl2 1000   2.438   2.623   1.954
  167TCM     h1 1001   2.435   2.823   1.823
  167TCM    cl3 1002   2.478   2.650   1.665
  168TCM     c1 1003   0.961   4.687   1.278
  168TCM    cl1 1004   0.984   4.860   1.316
  168TCM    cl2 1005   1.004   4.659   1.106
  168TCM     h1 1006   1.025   4.626   1.342
  168TCM    cl3 1007   0.789   4.642   1.305
  169TCM     c1 1008   4.279   2.256   4.536
  169TCM    cl1 1009   4.274   2.404   4.435
  169TCM    cl2 1010   4.366   2.126   4.447
  169TCM     h1 1011   4.331   2.277   4.629
  169TCM    cl3 1012   4.112   2.201   4.570
  170TCM     c1 1013   2.036   4.668   4.948
  170TCM    cl1 1014   1.985   4.701   5.117
  170TCM    cl2 1015   2.116   4.507   4.940
  170TCM     h1 1016   1.949   4.669   4.882
  170TCM    cl3 1017   2.152   4.794   4.895
  171TCM     c1 1018   3.487   3.721   0.153
  171TCM    cl1 1019   3.483   3.724  -0.027
  171TCM    cl2 1020   3.544   3.880   0.214
  171TCM     h1 1021   3.387   3.700   0.191
  171TCM    cl3 1022   3.600   3.592   0.207
  172TCM     c1 1023   4.729   0.264   0.557
  172TCM    cl1 1024   4.587   0.155   0.573
  172TCM    cl2 1025   4.798   0.299   0.718
  172TCM     h1 1026   4.805   0.216   0.494
  172TCM    cl3 1027   4.677   0.418   0.479
  173TCM     c1 1028   4.207   1.753   2.025
  173TCM    cl1 1029   4.271   1.740   2.192
  173TCM    cl2 1030   4.214   1.925   1.972
  173TCM     h1 1031   4.266   1.691   1.958
  173TCM    cl3 1032   4.036   1.698   2.023
  174TCM     c1 1033   3.824   1.506   4.800
  174TCM    cl1 1034   3.907   1.514   4.641
  174TCM    cl2 1035   3.933   1.569   4.928
  174TCM     h1 1036   3.732   1.566   4.797
  174TCM    cl3 1037   3.783   1.335   4.836
  175TCM     c1 1038   4.028   3.200   4.702
  175TCM    cl1 1039   4.027   3.206   4.882
  175TCM    cl2 1040   3.872   3.265   4.640
  175TCM     h1 1041   4.111   3.261   4.664
  175TCM    cl3 1042   4.048   3.031   4.648
  176TCM     c1 1043   1.250   0.481   3.571
  176TCM    cl1 1044   1.187   0.505   3.405
  176TCM    cl2 1045   1.245   0.637   3.659
  176TCM     h1 1046   1.188   0.407   3.623
  176TCM    cl3 1047   1.419   0.421   3.562
  177TCM     c1 1048   3.312   0.058   1.051
  177TCM    cl1 1049   3.422  -0.034   1.160
  177TCM    cl2 1050   3.352   0.233   1.061
  177TCM     h1 1051   3.325   0.023   0.949
  177TCM    cl3 1052   3.142   0.033   1.104
  178TCM     c1 1053   1.254   0.338   4.009
  178TCM    cl1 1054   1.165   0.419   4.142
  178TCM    cl2 1055   1.385   0.445   3.951
  178TCM     h1 1056   1.296   0.244   4.045
  178TCM    cl3 1057   1.140   0.305   3.874
  179TCM     c1 1058   2.045   0.951   4.091
  179TCM    cl1 1059   2.161   0.857   4.190
  179TCM    cl2 1060   1.878   0.892   4.123
  179TCM     h1 1061   2.051   1.057   4.116
  179TCM    cl3 1062   2.085   0.927   3.917
  180TCM     c1 1063   3.410   0.610   0.213
  180TCM    cl1 1064   3.434   0.575   0.039
  180TCM    cl2 1065   3.302   0.485   0.286
  180TCM     h1 1066   3.506   0.609   0.265
  180TCM    cl3 1067   3.334   0.772   0.231
  181TCM     c1 1068   1.586   2.067   2.439
  181TCM    cl1 1069   1.423   1.998   2.468
  181TCM    cl2 1070   1.652   2.000   2.286
  181TCM     h1 1071   1.579   2.176   2.432
  181TCM    cl3 1072   1.693   2.022   2.576
  182TCM     c1 1073   4.800   3.961   4.613
  182TCM    cl1 1074   4.975   3.996   4.619
  182TCM    cl2 1075   4.775   3.784   4.599
  182TCM     h1 1076   4.751   3.998   4.704
  182TCM    cl3 1077   4.730   4.042   4.469
  183TCM     c1 1078   0.606   0.939   2.605
  183TCM    cl1 1079   0.632   0.960   2.781
  183TCM    cl2 1080   0.751   0.860   2.534
  183TCM     h1 1081   0.518   0.877   2.587
  183TCM    cl3 1082   0.583   1.100   2.529
  184TCM     c1 1083   4.677   0.766   3.419
  184TCM    cl1 1084   4.714   0.597   3.468
  184TCM    cl2 1085   4.538   0.765   3.305
  184TCM     h1 1086   4.652   0.825   3.507
  184TCM    cl3 1087   4.821   0.837   3.338
  185TCM     c1 1088   0.077   4.571   0.353
  185TCM    cl1 1089   0.096   4.720   0.254
  185TCM    cl2 1090   0.036   4.434   0.244
  185TCM     h1 1091   0.170   4.550   0.405
  185TCM    cl3 1092  -0.055   4.596   0.471
  186TCM     c1 1093   0.621   3.089   0.157
  186TCM    cl1 1094   0.690   3.244   0.218
  186TCM    cl2 1095   0.734   3.019   0.037
  186TCM     h1 1096   0.608   3.020   0.240
  186TCM    cl3 1097   0.462   3.122   0.080
  187TCM     c1 1098   1.088   2.157   4.522
  187TCM    cl1 1099   1.184   2.006   4.513
  187TCM    cl2 1100   0.955   2.152   4.402
  187TCM     h1 1101   1.046   2.168   4.622
  187TCM    cl3 1102   1.195   2.297   4.486
  188TCM     c1 1103   1.614   4.140   4.805
  188TCM    cl1 1104   1.677   4.080   4.962
  188TCM    cl2 1105   1.449   4.207   4.830
  188TCM     h1 1106   1.679   4.219   4.767
  188TCM    cl3 1107   1.608   4.005   4.688
  189TCM     c1 1108   0.762   3.164   0.574
  189TCM    cl1 1109   0.656   3.178   0.719
  189TCM    cl2 1110   0.731   3.006   0.494
  189TCM     h1 1111   0.740   3.246   0.505
  189TCM    cl3 1112   0.934   3.173   0.625
  190TCM     c1 1113   4.134   1.484   2.417
  190TCM    cl1 1114   4.063   1.449   2.579
  190TCM    cl2 1115   4.011   1.452   2.291
  190TCM     h1 1116   4.164   1.589   2.413
  190TCM    cl3 1117   4.276   1.379   2.389
  191TCM     c1 1118   2.011   0.397   4.222
  191TCM    cl1 1119   1.910   0.539   4.265
  191TCM    cl2 1120   1.942   0.250   4.297
  191TCM     h1 1121   2.014   0.386   4.113
  191TCM    cl3 1122   2.177   0.423   4.285
  192TCM     c1 1123   0.405   4.957   2.423
  192TCM    cl1 1124   0.411   4.859   2.272
  192TCM    cl2 1125   0.238   4.960   2.487
  192TCM     h1 1126   0.472   4.912   2.497
  192TCM    cl3 1127   0.458   5.125   2.388
  193TCM     c1 1128   1.647   4.373   4.336
  193TCM    cl1 1129   1.790   4.310   4.247
  193TCM    cl2 1130   1.642   4.552   4.323
  193TCM     h1 1131   1.556   4.330   4.294
  193TCM    cl3 1132   1.662   4.327   4.509
  194TCM     c1 1133   4.121   4.438   1.198
  194TCM    cl1 1134   4.125   4.439   1.019
  194TCM    cl2 1135   4.107   4.607   1.258
  194TCM     h1 1136   4.035   4.380   1.232
  194TCM    cl3 1137   4.273   4.366   1.260
  195TCM     c1 1138   1.061   2.446   0.289
  195TCM    cl1 1139   1.195   2.340   0.347
  195TCM    cl2 1140   1.076   2.469   0.111
  195TCM     h1 1141   0.965   2.399   0.312
  195TCM    cl3 1142   1.071   2.605   0.371
  196TCM     c1 1143   1.220   0.775   4.083
  196TCM    cl1 1144   1.383   0.769   4.158
  196TCM    cl2 1145   1.215   0.911   3.965
  196TCM     h1 1146   1.200   0.681   4.031
  196TCM    cl3 1147   1.096   0.803   4.209
  197TCM     c1 1148   1.618   1.429   0.546
  197TCM    cl1 1149   1.639   1.274   0.635
  197TCM    cl2 1150   1.578   1.395   0.374
  197TCM     h1 1151   1.537   1.487   0.592
  197TCM    cl3 1152   1.771   1.524   0.555
  198TCM     c1 1153   1.316   4.372   1.148
  198TCM    cl1 1154   1.493   4.401   1.154
  198TCM    cl2 1155   1.239   4.436   1.297
  198TCM     h1 1156   1.274   4.421   1.060
  198TCM    cl3 1157   1.287   4.195   1.139
  199TCM     c1 1158   0.059   2.641   2.487
  199TCM    cl1 1159  -0.092   2.545   2.505
  199TCM    cl2 1160   0.028   2.781   2.380
  199TCM     h1 1161   0.091   2.677   2.585
  199TCM    cl3 1162   0.187   2.538   2.415
  200TCM     c1 1163   0.758   2.155   0.150
  200TCM    cl1 1164   0.935   2.130   0.170
  200TCM    cl2 1165   0.703   2.075  -0.000
  200TCM     h1 1166   0.706   2.113   0.236
  200TCM    cl3 1167   0.726   2.332   0.140
  201TCM     c1 1168   3.736   4.642   3.205
  201TCM    cl1 1169   3.557   4.629   3.217
  201TCM    cl2 1170   3.787   4.810   3.244
  201TCM     h1 1171   3.782   4.573   3.276
  201TCM    cl3 1172   3.788   4.602   3.039
  202TCM     c1 1173   2.247   0.762   2.258
  202TCM    cl1 1174   2.275   0.585   2.264
  202TCM    cl2 1175   2.328   0.841   2.398
  202TCM     h1 1176   2.287   0.803   2.165
  202TCM    cl3 1177   2.070   0.793   2.268
  203TCM     c1 1178   0.524   4.519   4.238
  203TCM    cl1 1179   0.702   4.536   4.220
  203TCM    cl2 1180   0.459   4.660   4.327
  203TCM     h1 1181   0.479   4.513   4.139
  203TCM    cl3 1182   0.488   4.369   4.329
  204TCM     c1 1183   2.110   4.651   3.625
  204TCM    cl1 1184   1.967   4.748   3.675
  204TCM    cl2 1185   2.067   4.476   3.629
  204TCM     h1 1186   2.140   4.679   3.524
  204TCM    cl3 1187   2.245   4.682   3.739
  205TCM     c1 1188   1.029   0.040   0.963
  205TCM    cl1 1189   1.181   0.053   1.059
  205TCM    cl2 1190   1.055  -0.074   0.827
  205TCM     h1 1191   0.948   0.004   1.027
  205TCM    cl3 1192   0.987   0.202   0.897
  206TCM     c1 1193   2.433   3.098   0.809
  206TCM    cl1 1194   2.594   3.023   0.824
  206TCM    cl2 1195   2.389   3.181   0.962
  206TCM     h1 1196   2.434   3.171   0.727
  206TCM    cl3 1197   2.312   2.971   0.774
  207TCM     c1 1198   1.004   3.555   0.640
  207TCM    cl1 1199   0.830   3.518   0.612
  207TCM    cl2 1200   1.042   3.534   0.814
  207TCM     h1 1201   1.066   3.487   0.580
  207TCM    cl3 1202   1.036   3.724   0.590
  208TCM     c1 1203   3.637   2.099   1.894
  208TCM    cl1 1204   3.581   2.112   1.724
  208TCM    cl2 1205   3.500   2.049   1.998
  208TCM     h1 1206   3.717   2.026   1.901
  208TCM    cl3 1207   3.698   2.259   1.948
  209TCM     c1 1208   2.663   2.347   0.857
  209TCM    cl1 1209   2.657   2.513   0.926
  209TCM    cl2 1210   2.730   2.353   0.691
  209TCM     h1 1211   2.726   2.284   0.920
  209TCM    cl3 1212   2.497   2.280   0.851
  210TCM     c1 1213   2.635   3.406   4.028
  210TCM    cl1 1214   2.474   3.416   3.950
  210TCM    cl2 1215   2.616   3.410   4.206
  210TCM     h1 1216   2.685   3.314   3.998
  210TCM    cl3 1217   2.735   3.546   3.977
  211TCM     c1 1218   1.226   2.602   3.836
  211TCM    cl1 1219   1.290   2.768   3.858
  211TCM    cl2 1220   1.324   2.515   3.712
  211TCM     h1 1221   1.232   2.548   3.931
  211TCM    cl3 1222   1.055   2.611   3.781
  212TCM     c1 1223   1.333   2.789   3.414
  212TCM    cl1 1224   1.444   2.846   3.544
  212TCM    cl2 1225   1.167   2.773   3.480
  212TCM     h1 1226   1.334   2.860   3.332
  212TCM    cl3 1227   1.390   2.629   3.356
  213TCM     c1 1228   3.762   4.596   3.732
  213TCM    cl1 1229   3.668   4.479   3.830
  213TCM    cl2 1230   3.719   4.574   3.559
  213TCM     h1 1231   3.739   4.698   3.763
  213TCM    cl3 1232   3.938   4.565   3.753
  214TCM     c1 1233   0.256   3.035   0.357
  214TCM    cl1 1234   0.326   2.880   0.300
  214TCM    cl2 1235   0.379   3.121   0.456
  214TCM     h1 1236   0.227   3.096   0.271
  214TCM    cl3 1237   0.112   3.000   0.457
  215TCM     c1 1238   1.235   2.165   4.922
  215TCM    cl1 1239   1.295   2.119   5.084
  215TCM    cl2 1240   1.115   2.043   4.866
  215TCM     h1 1241   1.187   2.263   4.927
  215TCM    cl3 1242   1.372   2.170   4.807
  216TCM     c1 1243   0.202   1.874   2.664
  216TCM    cl1 1244   0.101   1.746   2.590
  216TCM    cl2 1245   0.324   1.799   2.772
  216TCM     h1 1246   0.252   1.931   2.586
  216TCM    cl3 1247   0.097   1.984   2.761
  217TCM     c1 1248   3.632   0.376   4.788
  217TCM    cl1 1249   3.460   0.347   4.747
  217TCM    cl2 1250   3.705   0.485   4.666
  217TCM     h1 1251   3.639   0.422   4.887
  217TCM    cl3 1252   3.719   0.219   4.788
  218TCM     c1 1253   1.477   2.490   1.778
  218TCM    cl1 1254   1.372   2.518   1.635
  218TCM    cl2 1255   1.402   2.368   1.886
  218TCM     h1 1256   1.575   2.455   1.745
  218TCM    cl3 1257   1.496   2.643   1.869
  219TCM     c1 1258   4.214   0.347   3.949
  219TCM    cl1 1259   4.339   0.442   4.036
  219TCM    cl2 1260   4.291   0.261   3.812
  219TCM     h1 1261   4.169   0.275   4.018
  219TCM    cl3 1262   4.088   0.459   3.888
  220TCM     c1 1263   0.283   3.844   1.494
  220TCM    cl1 1264   0.423   3.794   1.393
  220TCM    cl2 1265   0.151   3.724   1.475
  220TCM     h1 1266   0.313   3.849   1.599
  220TCM    cl3 1267   0.226   4.005   1.441
  221TCM     c1 1268   0.394   1.495   0.578
  221TCM    cl1 1269   0.395   1.624   0.453
  221TCM    cl2 1270   0.227   1.434   0.602
  221TCM     h1 1271   0.459   1.412   0.547
  221TCM    cl3 1272   0.455   1.562   0.733
  222TCM     c1 1273   3.437   2.350   2.687
  222TCM    cl1 1274   3.386   2.285   2.846
  222TCM    cl2 1275   3.616   2.347   2.676
  222TCM     h1 1276   3.394   2.290   2.607
  222TCM    cl3 1277   3.379   2.520   2.672
  223TCM     c1 1278   0.254   4.706   2.843
  223TCM    cl1 1279   0.376   4.717   2.711
  223TCM    cl2 1280   0.166   4.861   2.857
  223TCM     h1 1281   0.183   4.626   2.820
  223TCM    cl3 1282   0.338   4.669   2.997
  224TCM     c1 1283   0.294   4.619   2.005
  224TCM    cl1 1284   0.419   4.502   2.059
  224TCM    cl2 1285   0.131   4.553   2.039
  224TCM     h1 1286   0.307   4.713   2.058
  224TCM    cl3 1287   0.312   4.646   1.828
  225TCM     c1 1288   0.499   2.222   2.090
  225TCM    cl1 1289   0.453   2.081   2.192
  225TCM    cl2 1290   0.387   2.358   2.124
  225TCM     h1 1291   0.601   2.252   2.113
  225TCM    cl3 1292   0.487   2.176   1.917
  226TCM     c1 1293   0.445   3.910   2.694
  226TCM    cl1 1294   0.287   3.833   2.658
  226TCM    cl2 1295   0.551   3.899   2.550
  226TCM     h1 1296   0.429   4.015   2.720
  226TCM    cl3 1297   0.522   3.825   2.832
  227TCM     c1 1298   2.313   0.648   3.829
  227TCM    cl1 1299   2.219   0.548   3.944
  227TCM    cl2 1300   2.253   0.620   3.663
  227TCM     h1 1301   2.303   0.754   3.854
  227TCM    cl3 1302   2.487   0.601   3.836
  228TCM     c1 1303   1.581   1.910   1.858
  228TCM    cl1 1304   1.605   2.070   1.935
  228TCM    cl2 1305   1.588   1.781   1.983
  228TCM     h1 1306   1.485   1.907   1.807
  228TCM    cl3 1307   1.713   1.884   1.739
  229TCM     c1 1308   1.050   3.251   1.907
  229TCM    cl1 1309   1.220   3.246   1.847
  229TCM    cl2 1310   0.969   3.097   1.866
  229TCM     h1 1311   1.050   3.265   2.015
  229TCM    cl3 1312   0.964   3.388   1.829
  230TCM     c1 1313   4.561   3.466   2.994
  230TCM    cl1 1314   4.697   3.419   3.100
  230TCM    cl2 1315   4.624   3.546   2.846
  230TCM     h1 1316   4.504   3.377   2.967
  230TCM    cl3 1317   4.454   3.580   3.082
  231TCM     c1 1318   4.363   0.771   4.327
  231TCM    cl1 1319   4.212   0.687   4.279
  231TCM    cl2 1320   4.504   0.670   4.281
  231TCM     h1 1321   4.368   0.868   4.276
  231TCM    cl3 1322   4.363   0.798   4.504
  232TCM     c1 1323   0.460   3.212   4.385
  232TCM    cl1 1324   0.304   3.170   4.463
  232TCM    cl2 1325   0.558   3.064   4.362
  232TCM     h1 1326   0.441   3.260   4.289
  232TCM    cl3 1327   0.550   3.325   4.492
  233TCM     c1 1328   1.112   1.731   0.021
  233TCM    cl1 1329   1.110   1.554  -0.009
  233TCM    cl2 1330   1.238   1.769   0.143
  233TCM     h1 1331   1.135   1.783  -0.072
  233TCM    cl3 1332   0.952   1.783   0.083
  234TCM     c1 1333   2.061   2.079   1.465
  234TCM    cl1 1334   2.233   2.032   1.445
  234TCM    cl2 1335   2.042   2.253   1.427
  234TCM     h1 1336   1.999   2.019   1.398
  234TCM    cl3 1337   2.013   2.048   1.635
  235TCM     c1 1338   2.496   4.437   3.629
  235TCM    cl1 1339   2.388   4.356   3.747
  235TCM    cl2 1340   2.410   4.461   3.474
  235TCM     h1 1341   2.528   4.533   3.669
  235TCM    cl3 1342   2.639   4.333   3.600
  236TCM     c1 1343   3.105   0.441   1.489
  236TCM    cl1 1344   2.990   0.572   1.445
  236TCM    cl2 1345   3.138   0.343   1.343
  236TCM     h1 1346   3.198   0.485   1.526
  236TCM    cl3 1347   3.031   0.337   1.615
  237TCM     c1 1348   2.375   4.692   4.635
  237TCM    cl1 1349   2.441   4.560   4.737
  237TCM    cl2 1350   2.406   4.659   4.462
  237TCM     h1 1351   2.267   4.700   4.652
  237TCM    cl3 1352   2.454   4.846   4.679
  238TCM     c1 1353   2.635   1.759   3.104
  238TCM    cl1 1354   2.562   1.599   3.066
  238TCM    cl2 1355   2.700   1.832   2.953
  238TCM     h1 1356   2.558   1.825   3.146
  238TCM    cl3 1357   2.768   1.738   3.222
  239TCM     c1 1358   0.910   1.270   4.492
  239TCM    cl1 1359   1.043   1.244   4.610
  239TCM    cl2 1360   0.872   1.446   4.484
  239TCM     h1 1361   0.942   1.235   4.394
  239TCM    cl3 1362   0.764   1.180   4.544
  240TCM     c1 1363   3.038   1.026   2.836
  240TCM    cl1 1364   2.936   1.026   2.984
  240TCM    cl2 1365   3.211   1.036   2.883
  240TCM     h1 1366   3.022   0.934   2.781
  240TCM    cl3 1367   2.994   1.167   2.734
  241TCM     c1 1368   3.447   0.563   1.271
  241TCM    cl1 1369   3.470   0.560   1.449
  241TCM    cl2 1370   3.584   0.651   1.195
  241TCM     h1 1371   3.443   0.461   1.232
  241TCM    cl3 1372   3.294   0.649   1.233
  242TCM     c1 1373   0.421   0.184   0.325
  242TCM    cl1 1374   0.556   0.131   0.219
  242TCM    cl2 1375   0.352   0.338   0.264
  242TCM     h1 1376   0.343   0.107   0.325
  242TCM    cl3 1377   0.482   0.207   0.492
  243TCM     c1 1378   0.691   3.666   3.730
  243TCM    cl1 1379   0.797   3.617   3.867
  243TCM    cl2 1380   0.522   3.684   3.788
  243TCM     h1 1381   0.726   3.761   3.688
  243TCM    cl3 1382   0.697   3.538   3.605
  244TCM     c1 1383   0.042   4.112   4.249
  244TCM    cl1 1384  -0.036   4.270   4.213
  244TCM    cl2 1385   0.197   4.140   4.335
  244TCM     h1 1386  -0.024   4.052   4.313
  244TCM    cl3 1387   0.072   4.025   4.095
  245TCM     c1 1388   3.363   1.792   0.607
  245TCM    cl1 1389   3.347   1.894   0.754
  245TCM    cl2 1390   3.509   1.840   0.516
  245TCM     h1 1391   3.371   1.687   0.636
  245TCM    cl3 1392   3.218   1.815   0.504
  246TCM     c1 1393   3.473   4.289   3.571
  246TCM    cl1 1394   3.501   4.306   3.395
  246TCM    cl2 1395   3.576   4.156   3.635
  246TCM     h1 1396   3.499   4.383   3.622
  246TCM    cl3 1397   3.301   4.250   3.601
  247TCM     c1 1398   1.856   4.830   3.029
  247TCM    cl1 1399   1.819   4.656   3.002
  247TCM    cl2 1400   1.734   4.931   2.945
  247TCM     h1 1401   1.855   4.852   3.136
  247TCM    cl3 1402   2.019   4.866   2.962
  248TCM     c1 1403   2.556   0.454   2.434
  248TCM    cl1 1404   2.667   0.320   2.479
  248TCM    cl2 1405   2.649   0.593   2.370
  248TCM     h1 1406   2.486   0.419   2.357
  248TCM    cl3 1407   2.464   0.505   2.579
  249TCM     c1 1408   3.210   1.971   4.152
  249TCM    cl1 1409   3.386   1.948   4.180
  249TCM    cl2 1410   3.159   2.129   4.220
  249TCM     h1 1411   3.189   1.968   4.045
  249TCM    cl3 1412   3.119   1.839   4.234
  250TCM     c1 1413   2.976   2.490   0.235
  250TCM    cl1 1414   2.906   2.433   0.391
  250TCM    cl2 1415   3.098   2.617   0.268
  250TCM     h1 1416   3.023   2.406   0.183
  250TCM    cl3 1417   2.845   2.559   0.134
  251TCM     c1 1418   1.475   0.285   4.631
  251TCM    cl1 1419   1.629   0.308   4.541
  251TCM    cl2 1420   1.468   0.402   4.767
  251TCM     h1 1421   1.390   0.302   4.564
  251TCM    cl3 1422   1.468   0.118   4.697
  252TCM     c1 1423   0.891   1.597   1.593
  252TCM    cl1 1424   0.913   1.768   1.544
  252TCM    cl2 1425   0.789   1.591   1.741
  252TCM     h1 1426   0.842   1.542   1.512
  252TCM    cl3 1427   1.050   1.523   1.629
  253TCM     c1 1428   4.886   3.025   0.131
  253TCM    cl1 1429   4.783   2.984   0.272
  253TCM    cl2 1430   5.008   2.896   0.106
  253TCM     h1 1431   4.823   3.035   0.042
  253TCM    cl3 1432   4.971   3.180   0.161
  254TCM     c1 1433   0.605   1.519   3.800
  254TCM    cl1 1434   0.577   1.407   3.662
  254TCM    cl2 1435   0.481   1.489   3.926
  254TCM     h1 1436   0.704   1.501   3.842
  254TCM    cl3 1437   0.592   1.689   3.744
  255TCM     c1 1438   1.050   0.668   0.172
  255TCM    cl1 1439   1.022   0.511   0.090
  255TCM    cl2 1440   1.004   0.654   0.345
  255TCM     h1 1441   1.156   0.694   0.165
  255TCM    cl3 1442   0.951   0.795   0.094
  256TCM     c1 1443   3.455   4.973   4.777
  256TCM    cl1 1444   3.277   4.964   4.759
  256TCM    cl2 1445   3.530   4.828   4.703
  256TCM     h1 1446   3.492   5.063   4.727
  256TCM    cl3 1447   3.498   4.979   4.951
  257TCM     c1 1448   2.999   3.656   3.301
  257TCM    cl1 1449   2.862   3.649   3.416
  257TCM    cl2 1450   3.066   3.490   3.278
  257TCM     h1 1451   2.965   3.695   3.205
  257TCM    cl3 1452   3.126   3.764   3.367
  258TCM     c1 1453   2.902   4.188   2.997
  258TCM    cl1 1454   3.033   4.167   3.119
  258TCM    cl2 1455   2.928   4.070   2.864
  258TCM     h1 1456   2.805   4.169   3.044
  258TCM    cl3 1457   2.907   4.355   2.933
  259TCM     c1 1458   3.402   1.129   2.538
  259TCM    cl1 1459   3.391   1.265   2.655
  259TCM    cl2 1460   3.238   1.088   2.478
  259TCM     h1 1461   3.466   1.159   2.454
  259TCM    cl3 1462   3.473   0.985   2.619
  260TCM     c1 1463   4.511   1.955   4.828
  260TCM    cl1 1464   4.392   2.090   4.828
  260TCM    cl2 1465   4.581   1.938   4.992
  260TCM     h1 1466   4.460   1.862   4.800
  260TCM    cl3 1467   4.642   1.989   4.710
  261TCM     c1 1468   2.917   2.084   0.504
  261TCM    cl1 1469   3.019   2.112   0.649
  261TCM    cl2 1470   2.843   1.921   0.514
  261TCM     h1 1471   2.838   2.160   0.499
  261TCM    cl3 1472   3.018   2.093   0.356
  262TCM     c1 1473   4.700   4.543   1.278
  262TCM    cl1 1474   4.552   4.593   1.189
  262TCM    cl2 1475   4.834   4.517   1.162
  262TCM     h1 1476   4.728   4.620   1.350
  262TCM    cl3 1477   4.667   4.389   1.365
  263TCM     c1 1478   4.688   0.468   2.992
  263TCM    cl1 1479   4.749   0.417   2.831
  263TCM    cl2 1480   4.513   0.430   3.005
  263TCM     h1 1481   4.743   0.415   3.070
  263TCM    cl3 1482   4.712   0.644   3.011
  264TCM     c1 1483   3.403   2.165   0.122
  264TCM    cl1 1484   3.357   2.039   0.241
  264TCM    cl2 1485   3.262   2.274   0.095
  264TCM     h1 1486   3.487   2.223   0.162
  264TCM    cl3 1487   3.450   2.088  -0.032
  265TCM     c1 1488   1.747   0.109   2.623
  265TCM    cl1 1489   1.774   0.276   2.682
  265TCM    cl2 1490   1.904   0.022   2.614
  265TCM     h1 1491   1.680   0.056   2.691
  265TCM    cl3 1492   1.673   0.118   2.459
  266TCM     c1 1493   1.313   4.516   4.658
  266TCM    cl1 1494   1.190   4.639   4.705
  266TCM    cl2 1495   1.478   4.581   4.691
  266TCM     h1 1496   1.298   4.425   4.717
  266TCM    cl3 1497   1.297   4.478   4.484
  267TCM     c1 1498   4.979   0.170   4.543
  267TCM    cl1 1499   4.993   0.146   4.366
  267TCM    cl2 1500   4.871   0.045   4.612
  267TCM     h1 1501   5.078   0.163   4.589
  267TCM    cl3 1502   4.909   0.332   4.575
  268TCM     c1 1503   4.216   4.540   0.099
  268TCM    cl1 1504   4.236   4.561  -0.078
  268TCM    cl2 1505   4.378   4.532   0.175
  268TCM     h1 1506   4.160   4.624   0.140
  268TCM    cl3 1507   4.127   4.387   0.132
  269TCM     c1 1508   0.521   2.467   3.656
  269TCM    cl1 1509   0.477   2.541   3.499
  269TCM    cl2 1510   0.401   2.513   3.781
  269TCM     h1 1511   0.523   2.358   3.646
  269TCM    cl3 1512   0.684   2.525   3.706
  270TCM     c1 1513   4.023   1.279   1.622
  270TCM    cl1 1514   4.184   1.359   1.615
  270TCM    cl2 1515   4.035   1.131   1.722
  270TCM     h1 1516   3.950   1.348   1.666
  270TCM    cl3 1517   3.970   1.234   1.456
  271TCM     c1 1518   1.277   4.657   0.077
  271TCM    cl1 1519   1.389   4.770  -0.006
  271TCM    cl2 1520   1.299   4.670   0.255
  271TCM     h1 1521   1.174   4.683   0.052
  271TCM    cl3 1522   1.312   4.489   0.025
  272TCM     c1 1523   3.039   1.155   3.771
  272TCM    cl1 1524   2.992   1.320   3.721
  272TCM    cl2 1525   3.090   1.158   3.943
  272TCM     h1 1526   2.954   1.087   3.759
  272TCM    cl3 1527   3.176   1.099   3.669
  273TCM     c1 1528   4.340   3.312   3.317
  273TCM    cl1 1529   4.282   3.260   3.155
  273TCM    cl2 1530   4.483   3.213   3.362
  273TCM     h1 1531   4.368   3.417   3.314
  273TCM    cl3 1532   4.210   3.288   3.438
  274TCM     c1 1533   1.329   0.894   0.398
  274TCM    cl1 1534   1.461   1.011   0.433
  274TCM    cl2 1535   1.399   0.732   0.363
  274TCM     h1 1536   1.262   0.887   0.484
  274TCM    cl3 1537   1.238   0.951   0.255
  275TCM     c1 1538   1.097   1.998   1.081
  275TCM    cl1 1539   1.114   2.177   1.070
  275TCM    cl2 1540   1.259   1.921   1.080
  275TCM     h1 1541   1.045   1.972   1.174
  275TCM    cl3 1542   1.003   1.939   0.940
  276TCM     c1 1543   3.268   2.884   2.422
  276TCM    cl1 1544   3.401   2.771   2.380
  276TCM    cl2 1545   3.327   3.053   2.411
  276TCM     h1 1546   3.185   2.870   2.352
  276TCM    cl3 1547   3.213   2.852   2.589
  277TCM     c1 1548   2.996   3.362   2.567
  277TCM    cl1 1549   3.106   3.372   2.426
  277TCM    cl2 1550   2.831   3.321   2.510
  277TCM     h1 1551   3.032   3.284   2.636
  277TCM    cl3 1552   2.992   3.520   2.653
  278TCM     c1 1553   1.200   1.198   4.956
  278TCM    cl1 1554   1.065   1.210   5.073
  278TCM    cl2 1555   1.202   1.032   4.887
  278TCM     h1 1556   1.187   1.271   4.876
  278TCM    cl3 1557   1.354   1.230   5.043
  279TCM     c1 1558   3.053   0.228   0.647
  279TCM    cl1 1559   3.137   0.097   0.737
  279TCM    cl2 1560   3.012   0.171   0.482
  279TCM     h1 1561   2.962   0.257   0.700
  279TCM    cl3 1562   3.162   0.370   0.634
  280TCM     c1 1563   2.028   3.403   0.831
  280TCM    cl1 1564   2.142   3.466   0.955
  280TCM    cl2 1565   1.889   3.325   0.912
  280TCM     h1 1566   1.993   3.485   0.768
  280TCM    cl3 1567   2.114   3.282   0.731
  281TCM     c1 1568   2.741   3.637   1.738
  281TCM    cl1 1569   2.648   3.701   1.879
  281TCM    cl2 1570   2.887   3.552   1.797
  281TCM     h1 1571   2.679   3.568   1.682
  281TCM    cl3 1572   2.789   3.774   1.633
  282TCM     c1 1573   4.663   0.357   3.917
  282TCM    cl1 1574   4.627   0.383   3.744
  282TCM    cl2 1575   4.702   0.514   3.993
  282TCM     h1 1576   4.576   0.312   3.967
  282TCM    cl3 1577   4.804   0.247   3.933
  283TCM     c1 1578   4.484   2.965   4.468
  283TCM    cl1 1579   4.381   2.819   4.481
  283TCM    cl2 1580   4.624   2.950   4.580
  283TCM     h1 1581   4.520   2.975   4.365
  283TCM    cl3 1582   4.388   3.110   4.512
  284TCM     c1 1583   0.782   4.536   1.975
  284TCM    cl1 1584   0.871   4.603   1.834
  284TCM    cl2 1585   0.759   4.665   2.098
  284TCM     h1 1586   0.684   4.500   1.943
  284TCM    cl3 1587   0.877   4.401   2.046
  285TCM     c1 1588   0.179   4.952   4.989
  285TCM    cl1 1589   0.155   5.032   4.831
  285TCM    cl2 1590   0.142   5.068   5.121
  285TCM     h1 1591   0.114   4.865   4.997
  285TCM    cl3 1592   0.351   4.902   5.006
  286TCM     c1 1593   4.626   0.251   3.412
  286TCM    cl1 1594   4.474   0.335   3.368
  286TCM    cl2 1595   4.721   0.219   3.264
  286TCM     h1 1596   4.684   0.314   3.480
  286TCM    cl3 1597   4.588   0.096   3.493
  287TCM     c1 1598   3.220   4.947   4.239
  287TCM    cl1 1599   3.283   4.847   4.105
  287TCM    cl2 1600   3.166   5.106   4.176
  287TCM     h1 1601   3.135   4.896   4.286
  287TCM    cl3 1602   3.349   4.973   4.361
  288TCM     c1 1603   1.341   1.718   1.530
  288TCM    cl1 1604   1.269   1.813   1.664
  288TCM    cl2 1605   1.495   1.794   1.478
  288TCM     h1 1606   1.359   1.616   1.564
  288TCM    cl3 1607   1.230   1.714   1.389
  289TCM     c1 1608   0.166   4.956   1.401
  289TCM    cl1 1609   0.226   5.123   1.374
  289TCM    cl2 1610  -0.009   4.960   1.439
  289TCM     h1 1611   0.183   4.896   1.311
  289TCM    cl3 1612   0.255   4.883   1.539
  290TCM     c1 1613   3.103   1.647   2.608
  290TCM    cl1 1614   3.074   1.491   2.526
  290TCM    cl2 1615   3.100   1.780   2.488
  290TCM     h1 1616   3.025   1.664   2.683
  290TCM    cl3 1617   3.264   1.644   2.688
  291TCM     c1 1618   3.575   0.250   0.316
  291TCM    cl1 1619   3.616   0.280   0.144
  291TCM    cl2 1620   3.632   0.389   0.414
  291TCM     h1 1621   3.467   0.239   0.326
  291TCM    cl3 1622   3.657   0.100   0.372
  292TCM     c1 1623   0.627   1.304   2.014
  292TCM    cl1 1624   0.784   1.385   2.044
  292TCM    cl2 1625   0.518   1.415   1.923
  292TCM     h1 1626   0.643   1.213   1.955
  292TCM    cl3 1627   0.553   1.262   2.171
  293TCM     c1 1628   2.738   3.674   1.212
  293TCM    cl1 1629   2.725   3.834   1.131
  293TCM    cl2 1630   2.606   3.660   1.334
  293TCM     h1 1631   2.728   3.594   1.138
  293TCM    cl3 1632   2.897   3.660   1.294
  294TCM     c1 1633   2.263   2.332   4.117
  294TCM    cl1 1634   2.103   2.376   4.049
  294TCM    cl2 1635   2.326   2.468   4.216
  294TCM     h1 1636   2.253   2.243   4.180
  294TCM    cl3 1637   2.377   2.297   3.983
  295TCM     c1 1638   0.381   2.222   0.464
  295TCM    cl1 1639   0.498   2.099   0.405
  295TCM    cl2 1640   0.447   2.305   0.609
  295TCM     h1 1641   0.363   2.296   0.385
  295TCM    cl3 1642   0.227   2.142   0.507
  296TCM     c1 1643   2.234   0.327   1.495
  296TCM    cl1 1644   2.354   0.385   1.376
  296TCM    cl2 1645   2.069   0.344   1.427
  296TCM     h1 1646   2.253   0.222   1.518
  296TCM    cl3 1647   2.246   0.424   1.646
  297TCM     c1 1648   2.333   3.685   4.948
  297TCM    cl1 1649   2.369   3.509   4.952
  297TCM    cl2 1650   2.239   3.728   5.094
  297TCM     h1 1651   2.426   3.742   4.945
  297TCM    cl3 1652   2.235   3.722   4.802
  298TCM     c1 1653   0.258   3.389   4.776
  298TCM    cl1 1654   0.113   3.387   4.671
  298TCM    cl2 1655   0.206   3.378   4.947
  298TCM     h1 1656   0.323   3.304   4.752
  298TCM    cl3 1657   0.349   3.542   4.752
  299TCM     c1 1658   3.839   1.786   1.688
  299TCM    cl1 1659   3.962   1.656   1.673
  299TCM    cl2 1660   3.922   1.942   1.720
  299TCM     h1 1661   3.783   1.793   1.595
  299TCM    cl3 1662   3.728   1.751   1.824
  300TCM     c1 1663   2.603   2.661   2.462
  300TCM    cl1 1664   2.641   2.486   2.451
  300TCM    cl2 1665   2.504   2.691   2.609
  300TCM     h1 1666   2.696   2.719   2.469
  300TCM    cl3 1667   2.512   2.714   2.316
  301TCM     c1 1668   4.623   2.552   0.550
  301TCM    cl1 1669   4.674   2.591   0.717
  301TCM    cl2 1670   4.550   2.698   0.474
  301TCM     h1 1671   4.711   2.521   0.492
  301TCM    cl3 1672   4.503   2.419   0.552
  302TCM     c1 1673   0.124   4.346   1.514
  302TCM    cl1 1674   0.251   4.332   1.640
  302TCM    cl2 1675   0.100   4.519   1.471
  302TCM     h1 1676   0.155   4.290   1.425
  302TCM    cl3 1677  -0.030   4.278   1.576
  303TCM     c1 1678   3.216   1.537   3.537
  303TCM    cl1 1679   3.314   1.395   3.487
  303TCM    cl2 1680   3.076   1.554   3.426
  303TCM     h1 1681   3.180   1.522   3.639
  303TCM    cl3 1682   3.318   1.684   3.531
  304TCM     c1 1683   0.973   3.878   1.934
  304TCM    cl1 1684   0.883   3.909   1.782
  304TCM    cl2 1685   0.907   3.732   2.014
  304TCM     h1 1686   1.079   3.862   1.911
  304TCM    cl3 1687   0.956   4.019   2.043
  305TCM     c1 1688   2.911   4.004   2.003
  305TCM    cl1 1689   2.834   4.061   1.852
  305TCM    cl2 1690   2.997   3.850   1.971
  305TCM     h1 1691   2.982   4.079   2.039
  305TCM    cl3 1692   2.785   3.977   2.128
  306TCM     c1 1693   1.396   2.989   2.066
  306TCM    cl1 1694   1.271   2.895   1.979
  306TCM    cl2 1695   1.504   2.878   2.156
  306TCM     h1 1696   1.455   3.047   1.994
  306TCM    cl3 1697   1.315   3.100   2.182
  307TCM     c1 1698   4.766   0.136   0.042
  307TCM    cl1 1699   4.861   0.264  -0.041
  307TCM    cl2 1700   4.805   0.140   0.218
  307TCM     h1 1701   4.660   0.154   0.027
  307TCM    cl3 1702   4.812  -0.024  -0.024
  308TCM     c1 1703   4.027   4.886   2.366
  308TCM    cl1 1704   4.181   4.977   2.349
  308TCM    cl2 1705   3.889   4.998   2.337
  308TCM     h1 1706   4.024   4.806   2.292
  308TCM    cl3 1707   4.015   4.817   2.531
  309TCM     c1 1708   1.275   0.135   2.862
  309TCM    cl1 1709   1.328   0.050   3.010
  309TCM    cl2 1710   1.119   0.066   2.806
  309TCM     h1 1711   1.262   0.242   2.883
  309TCM    cl3 1712   1.398   0.113   2.733
  310TCM     c1 1713   3.380   4.800   3.619
  310TCM    cl1 1714   3.487   4.878   3.498
  310TCM    cl2 1715   3.465   4.792   3.777
  310TCM     h1 1716   3.288   4.859   3.630
  310TCM    cl3 1717   3.340   4.634   3.564
  311TCM     c1 1718   3.711   1.998   4.719
  311TCM    cl1 1719   3.812   2.127   4.793
  311TCM    cl2 1720   3.714   1.853   4.824
  311TCM     h1 1721   3.608   2.034   4.710
  311TCM    cl3 1722   3.775   1.956   4.557
  312TCM     c1 1723   4.738   4.281   2.679
  312TCM    cl1 1724   4.872   4.296   2.560
  312TCM    cl2 1725   4.792   4.346   2.837
  312TCM     h1 1726   4.652   4.337   2.644
  312TCM    cl3 1727   4.694   4.108   2.698
  313TCM     c1 1728   4.780   2.987   2.208
  313TCM    cl1 1729   4.712   3.140   2.144
  313TCM    cl2 1730   4.780   2.863   2.078
  313TCM     h1 1731   4.882   3.004   2.242
  313TCM    cl3 1732   4.680   2.928   2.345
  314TCM     c1 1733   1.303   2.146   0.637
  314TCM    cl1 1734   1.443   2.256   0.660
  314TCM    cl2 1735   1.155   2.224   0.703
  314TCM     h1 1736   1.289   2.126   0.531
  314TCM    cl3 1737   1.332   1.993   0.725
  315TCM     c1 1738   1.169   1.575   3.718
  315TCM    cl1 1739   1.270   1.543   3.862
  315TCM    cl2 1740   0.996   1.554   3.764
  315TCM     h1 1741   1.185   1.677   3.683
  315TCM    cl3 1742   1.213   1.459   3.589
  316TCM     c1 1743   4.106   3.570   1.127
  316TCM    cl1 1744   4.103   3.446   1.257
  316TCM    cl2 1745   4.274   3.588   1.066
  316TCM     h1 1746   4.041   3.539   1.045
  316TCM    cl3 1747   4.051   3.727   1.192
  317TCM     c1 1748   0.108   4.961   1.877
  317TCM    cl1 1749   0.055   5.129   1.840
  317TCM    cl2 1750  -0.015   4.845   1.817
  317TCM     h1 1751   0.203   4.941   1.827
  317TCM    cl3 1752   0.126   4.943   2.054
  318TCM     c1 1753   1.269   2.187   1.534
  318TCM    cl1 1754   1.195   2.066   1.424
  318TCM    cl2 1755   1.431   2.131   1.588
  318TCM     h1 1756   1.279   2.282   1.481
  318TCM    cl3 1757   1.164   2.206   1.678
  319TCM     c1 1758   0.768   2.136   3.859
  319TCM    cl1 1759   0.780   2.022   3.721
  319TCM    cl2 1760   0.811   2.050   4.011
  319TCM     h1 1761   0.836   2.220   3.844
  319TCM    cl3 1762   0.599   2.195   3.872
  320TCM     c1 1763   0.958   0.788   4.736
  320TCM    cl1 1764   0.970   0.873   4.579
  320TCM    cl2 1765   1.076   0.653   4.741
  320TCM     h1 1766   0.980   0.859   4.817
  320TCM    cl3 1767   0.791   0.724   4.757
  321TCM     c1 1768   3.403   2.968   0.748
  321TCM    cl1 1769   3.264   3.071   0.698
  321TCM    cl2 1770   3.474   3.034   0.899
  321TCM     h1 1771   3.368   2.866   0.766
  321TCM    cl3 1772   3.527   2.968   0.618
  322TCM     c1 1773   3.509   4.755   2.786
  322TCM    cl1 1774   3.559   4.869   2.916
  322TCM    cl2 1775   3.637   4.749   2.660
  322TCM     h1 1776   3.495   4.655   2.828
  322TCM    cl3 1777   3.356   4.813   2.713
  323TCM     c1 1778   4.551   3.231   4.819
  323TCM    cl1 1779   4.632   3.236   4.979
  323TCM    cl2 1780   4.643   3.331   4.702
  323TCM     h1 1781   4.547   3.128   4.783
  323TCM    cl3 1782   4.384   3.295   4.835
  324TCM     c1 1783   4.349   2.590   2.522
  324TCM    cl1 1784   4.272   2.678   2.385
  324TCM    cl2 1785   4.275   2.643   2.676
  324TCM     h1 1786   4.335   2.483   2.509
  324TCM    cl3 1787   4.525   2.627   2.525
  325TCM     c1 1788   2.217   4.436   3.168
  325TCM    cl1 1789   2.167   4.269   3.207
  325TCM    cl2 1790   2.119   4.553   3.263
  325TCM     h1 1791   2.323   4.449   3.192
  325TCM    cl3 1792   2.191   4.466   2.993
  326TCM     c1 1793   3.352   2.222   0.569
  326TCM    cl1 1794   3.263   2.345   0.474
  326TCM    cl2 1795   3.346   2.265   0.743
  326TCM     h1 1796   3.306   2.124   0.554
  326TCM    cl3 1797   3.523   2.217   0.515
  327TCM     c1 1798   2.414   1.981   2.340
  327TCM    cl1 1799   2.390   1.928   2.509
  327TCM    cl2 1800   2.477   1.845   2.242
  327TCM     h1 1801   2.319   2.016   2.298
  327TCM    cl3 1802   2.534   2.115   2.340
  328TCM     c1 1803   2.789   2.506   3.060
  328TCM    cl1 1804   2.764   2.680   3.027
  328TCM    cl2 1805   2.665   2.410   2.973
  328TCM     h1 1806   2.889   2.476   3.026
  328TCM    cl3 1807   2.775   2.477   3.237
  329TCM     c1 1808   4.905   1.820   1.537
  329TCM    cl1 1809   4.902   1.990   1.478
  329TCM    cl2 1810   4.737   1.762   1.556
  329TCM     h1 1811   4.958   1.757   1.465
  329TCM    cl3 1812   4.989   1.815   1.695
  330TCM     c1 1813   1.487   1.461   3.143
  330TCM    cl1 1814   1.318   1.437   3.197
  330TCM    cl2 1815   1.543   1.309   3.066
  330TCM     h1 1816   1.492   1.543   3.071
  330TCM    cl3 1817   1.591   1.496   3.285
  331TCM     c1 1818   3.297   4.223   1.980
  331TCM    cl1 1819   3.277   4.063   2.059
  331TCM    cl2 1820   3.355   4.342   2.101
  331TCM     h1 1821   3.370   4.215   1.899
  331TCM    cl3 1822   3.140   4.277   1.913
  332TCM     c1 1823   2.113   3.608   0.434
  332TCM    cl1 1824   2.181   3.640   0.597
  332TCM    cl2 1825   2.016   3.749   0.381
  332TCM     h1 1826   2.194   3.590   0.363
  332TCM    cl3 1827   2.007   3.463   0.442
  333TCM     c1 1828   4.693   2.120   2.955
  333TCM    cl1 1829   4.803   2.208   2.843
  333TCM    cl2 1830   4.702   2.193   3.118
  333TCM     h1 1831   4.590   2.127   2.918
  333TCM    cl3 1832   4.741   1.947   2.962
  334TCM     c1 1833   2.256   3.756   1.182
  334TCM    cl1 1834   2.316   3.788   1.016
  334TCM    cl2 1835   2.077   3.743   1.180
  334TCM     h1 1836   2.298   3.662   1.218
  334TCM    cl3 1837   2.306   3.890   1.290
  335TCM     c1 1838   0.919   4.882   4.423
  335TCM    cl1 1839   1.022   5.005   4.343
  335TCM    cl2 1840   0.991   4.719   4.399
  335TCM     h1 1841   0.913   4.903   4.530
  335TCM    cl3 1842   0.754   4.885   4.352
  336TCM     c1 1843   3.439   3.099   3.585
  336TCM    cl1 1844   3.493   3.187   3.438
  336TCM    cl2 1845   3.518   3.172   3.728
  336TCM     h1 1846   3.330   3.107   3.595
  336TCM    cl3 1847   3.486   2.927   3.571
  337TCM     c1 1848   3.706   3.856   1.042
  337TCM    cl1 1849   3.640   3.715   0.952
  337TCM    cl2 1850   3.584   3.987   1.047
  337TCM     h1 1851   3.731   3.826   1.144
  337TCM    cl3 1852   3.854   3.916   0.959
  338TCM     c1 1853   2.385   1.152   3.719
  338TCM    cl1 1854   2.396   0.973   3.717
  338TCM    cl2 1855   2.551   1.221   3.710
  338TCM     h1 1856   2.327   1.186   3.633
  338TCM    cl3 1857   2.306   1.206   3.871
  339TCM     c1 1858   1.897   3.570   4.459
  339TCM    cl1 1859   1.875   3.710   4.570
  339TCM    cl2 1860   1.870   3.625   4.290
  339TCM     h1 1861   1.998   3.531   4.469
  339TCM    cl3 1862   1.777   3.443   4.499
  340TCM     c1 1863   4.251   3.873   3.033
  340TCM    cl1 1864   4.209   4.044   3.070
  340TCM    cl2 1865   4.313   3.862   2.864
  340TCM     h1 1866   4.328   3.839   3.102
  340TCM    cl3 1867   4.105   3.771   3.049
  341TCM     c1 1868   3.085   1.861   4.742
  341TCM    cl1 1869   3.018   1.918   4.585
  341TCM    cl2 1870   2.966   1.753   4.821
  341TCM     h1 1871   3.179   1.806   4.724
  341TCM    cl3 1872   3.118   2.002   4.848
  342TCM     c1 1873   0.468   0.574   4.000
  342TCM    cl1 1874   0.521   0.740   4.041
  342TCM    cl2 1875   0.610   0.463   4.008
  342TCM     h1 1876   0.392   0.541   4.070
  342TCM    cl3 1877   0.402   0.572   3.833
  343TCM     c1 1878   3.325   0.801   1.810
  343TCM    cl1 1879   3.240   0.738   1.665
  343TCM    cl2 1880   3.319   0.980   1.810
  343TCM     h1 1881   3.276   0.762   1.900
  343TCM    cl3 1882   3.496   0.747   1.807
  344TCM     c1 1883   2.908   4.949   2.418
  344TCM    cl1 1884   3.044   4.838   2.382
  344TCM    cl2 1885   2.828   4.998   2.265
  344TCM     h1 1886   2.835   4.897   2.482
  344TCM    cl3 1887   2.970   5.095   2.503
  345TCM     c1 1888   2.673   4.481   2.168
  345TCM    cl1 1889   2.775   4.620   2.218
  345TCM    cl2 1890   2.636   4.380   2.311
  345TCM     h1 1891   2.580   4.518   2.124
  345TCM    cl3 1892   2.761   4.382   2.047
  346TCM     c1 1893   0.656   0.797   1.872
  346TCM    cl1 1894   0.793   0.818   1.759
  346TCM    cl2 1895   0.503   0.781   1.779
  346TCM     h1 1896   0.672   0.708   1.934
  346TCM    cl3 1897   0.645   0.942   1.978
  347TCM     c1 1898   2.478   4.250   2.891
  347TCM    cl1 1899   2.438   4.099   2.980
  347TCM    cl2 1900   2.598   4.214   2.763
  347TCM     h1 1901   2.388   4.291   2.847
  347TCM    cl3 1902   2.549   4.369   3.006
  348TCM     c1 1903   4.163   1.763   4.568
  348TCM    cl1 1904   4.342   1.773   4.565
  348TCM    cl2 1905   4.097   1.835   4.418
  348TCM     h1 1906   4.133   1.659   4.576
  348TCM    cl3 1907   4.101   1.854   4.710
  349TCM     c1 1908   0.326   0.444   4.916
  349TCM    cl1 1909   0.155   0.445   4.860
  349TCM    cl2 1910   0.424   0.552   4.812
  349TCM     h1 1911   0.331   0.478   5.020
  349TCM    cl3 1912   0.391   0.278   4.904
  350TCM     c1 1913   3.918   3.602   0.009
  350TCM    cl1 1914   4.087   3.581  -0.046
  350TCM    cl2 1915   3.807   3.521  -0.106
  350TCM     h1 1916   3.906   3.558   0.109
  350TCM    cl3 1917   3.878   3.777   0.016
  351TCM     c1 1918   2.210   2.307   2.341
  351TCM    cl1 1919   2.040   2.364   2.340
  351TCM    cl2 1920   2.267   2.297   2.511
  351TCM     h1 1921   2.217   2.209   2.295
  351TCM    cl3 1922   2.313   2.423   2.250
  352TCM     c1 1923   1.792   4.048   1.299
  352TCM    cl1 1924   1.945   4.005   1.383
  352TCM    cl2 1925   1.653   3.984   1.392
  352TCM     h1 1926   1.784   4.157   1.291
  352TCM    cl3 1927   1.791   3.975   1.136
  353TCM     c1 1928   4.286   3.570   1.555
  353TCM    cl1 1929   4.355   3.682   1.432
  353TCM    cl2 1930   4.241   3.664   1.701
  353TCM     h1 1931   4.198   3.521   1.514
  353TCM    cl3 1932   4.409   3.447   1.598
  354TCM     c1 1933   2.589   4.480   0.574
  354TCM    cl1 1934   2.620   4.605   0.449
  354TCM    cl2 1935   2.739   4.457   0.671
  354TCM     h1 1936   2.508   4.512   0.639
  354TCM    cl3 1937   2.545   4.326   0.494
  355TCM     c1 1938   3.027   2.280   4.630
  355TCM    cl1 1939   2.932   2.360   4.500
  355TCM    cl2 1940   3.030   2.383   4.776
  355TCM     h1 1941   2.980   2.184   4.654
  355TCM    cl3 1942   3.195   2.252   4.573
  356TCM     c1 1943   1.599   3.398   2.219
  356TCM    cl1 1944   1.557   3.572   2.235
  356TCM    cl2 1945   1.777   3.379   2.228
  356TCM     h1 1946   1.551   3.341   2.299
  356TCM    cl3 1947   1.540   3.338   2.060
  357TCM     c1 1948   0.594   4.026   4.611
  357TCM    cl1 1949   0.636   4.019   4.437
  357TCM    cl2 1950   0.459   4.141   4.635
  357TCM     h1 1951   0.564   3.927   4.646
  357TCM    cl3 1952   0.736   4.082   4.705
  358TCM     c1 1953   0.098   2.203   1.704
  358TCM    cl1 1954   0.245   2.125   1.636
  358TCM    cl2 1955   0.036   2.324   1.587
  358TCM     h1 1956   0.022   2.127   1.723
  358TCM    cl3 1957   0.140   2.285   1.858
  359TCM     c1 1958   4.486   0.805   3.940
  359TCM    cl1 1959   4.511   0.956   4.034
  359TCM    cl2 1960   4.563   0.822   3.779
  359TCM     h1 1961   4.531   0.721   3.994
  359TCM    cl3 1962   4.310   0.778   3.921
  360TCM     c1 1963   3.858   0.727   0.143
  360TCM    cl1 1964   3.749   0.736   0.286
  360TCM    cl2 1965   3.848   0.881   0.052
  360TCM     h1 1966   3.961   0.710   0.176
  360TCM    cl3 1967   3.805   0.592   0.037
  361TCM     c1 1968   1.688   1.661   3.601
  361TCM    cl1 1969   1.759   1.813   3.535
  361TCM    cl2 1970   1.517   1.691   3.646
  361TCM     h1 1971   1.693   1.582   3.526
  361TCM    cl3 1972   1.780   1.612   3.747
  362TCM     c1 1973   0.205   1.763   2.058
  362TCM    cl1 1974   0.055   1.675   2.016
  362TCM    cl2 1975   0.203   1.804   2.233
  362TCM     h1 1976   0.292   1.700   2.037
  362TCM    cl3 1977   0.215   1.914   1.961
  363TCM     c1 1978   1.562   0.327   3.172
  363TCM    cl1 1979   1.700   0.398   3.261
  363TCM    cl2 1980   1.618   0.272   3.010
  363TCM     h1 1981   1.522   0.242   3.227
  363TCM    cl3 1982   1.433   0.450   3.151
  364TCM     c1 1983   2.055   4.077   0.863
  364TCM    cl1 1984   1.904   4.172   0.848
  364TCM    cl2 1985   2.020   3.903   0.835
  364TCM     h1 1986   2.127   4.112   0.789
  364TCM    cl3 1987   2.123   4.098   1.027
  365TCM     c1 1988   3.244   1.506   3.985
  365TCM    cl1 1989   3.344   1.422   3.861
  365TCM    cl2 1990   3.151   1.637   3.905
  365TCM     h1 1991   3.175   1.434   4.031
  365TCM    cl3 1992   3.350   1.576   4.111
  366TCM     c1 1993   2.174   3.624   3.951
  366TCM    cl1 1994   2.236   3.689   3.795
  366TCM    cl2 1995   2.044   3.504   3.918
  366TCM     h1 1996   2.255   3.575   4.005
  366TCM    cl3 1997   2.108   3.759   4.050
  367TCM     c1 1998   3.068   0.463   4.802
  367TCM    cl1 1999   3.074   0.576   4.941
  367TCM    cl2 2000   3.000   0.546   4.659
  367TCM     h1 2001   3.169   0.427   4.780
  367TCM    cl3 2002   2.963   0.323   4.844
  368TCM     c1 2003   3.020   2.593   2.197
  368TCM    cl1 2004   3.129   2.710   2.116
  368TCM    cl2 2005   2.852   2.654   2.190
  368TCM     h1 2006   3.026   2.496   2.147
  368TCM    cl3 2007   3.069   2.576   2.369
  369TCM     c1 2008   4.794   4.061   0.533
  369TCM    cl1 2009   4.702   4.019   0.385
  369TCM    cl2 2010   4.680   4.099   0.666
  369TCM     h1 2011   4.858   3.977   0.562
  369TCM    cl3 2012   4.897   4.204   0.500
  370TCM     c1 2013   1.959   2.575   4.360
  370TCM    cl1 2014   2.059   2.602   4.507
  370TCM    cl2 2015   2.009   2.691   4.233
  370TCM     h1 2016   1.972   2.473   4.325
  370TCM    cl3 2017   1.786   2.604   4.401
  371TCM     c1 2018   2.532   3.926   4.124
  371TCM    cl1 2019   2.470   3.759   4.102
  371TCM    cl2 2020   2.707   3.920   4.163
  371TCM     h1 2021   2.516   3.983   4.032
  371TCM    cl3 2022   2.443   4.004   4.259
  372TCM     c1 2023   4.415   0.066   2.634
  372TCM    cl1 2024   4.517   0.001   2.502
  372TCM    cl2 2025   4.519   0.141   2.759
  372TCM     h1 2026   4.345   0.140   2.594
  372TCM    cl3 2027   4.323  -0.070   2.708
  373TCM     c1 2028   1.854   3.492   1.811
  373TCM    cl1 2029   2.022   3.550   1.831
  373TCM    cl2 2030   1.745   3.595   1.910
  373TCM     h1 2031   1.825   3.497   1.706
  373TCM    cl3 2032   1.844   3.322   1.868
  374TCM     c1 2033   3.451   0.576   0.703
  374TCM    cl1 2034   3.349   0.695   0.615
  374TCM    cl2 2035   3.399   0.566   0.874
  374TCM     h1 2036   3.441   0.478   0.656
  374TCM    cl3 2037   3.623   0.629   0.695
  375TCM     c1 2038   0.195   3.728   3.002
  375TCM    cl1 2039   0.311   3.601   3.052
  375TCM    cl2 2040   0.145   3.823   3.146
  375TCM     h1 2041   0.242   3.794   2.929
  375TCM    cl3 2042   0.050   3.651   2.928
  376TCM     c1 2043   2.863   2.742   4.681
  376TCM    cl1 2044   2.791   2.904   4.653
  376TCM    cl2 2045   2.734   2.617   4.674
  376TCM     h1 2046   2.938   2.722   4.604
  376TCM    cl3 2047   2.940   2.739   4.843
  377TCM     c1 2048   2.317   0.260   0.044
  377TCM    cl1 2049   2.313   0.082   0.068
  377TCM    cl2 2050   2.390   0.337   0.189
  377TCM     h1 2051   2.377   0.283  -0.044
  377TCM    cl3 2052   2.150   0.322   0.021
  378TCM     c1 2053   2.807   0.367   2.065
  378TCM    cl1 2054   2.908   0.353   2.213
  378TCM    cl2 2055   2.637   0.323   2.104
  378TCM     h1 2056   2.810   0.470   2.028
  378TCM    cl3 2057   2.870   0.255   1.941
  379TCM     c1 2058   1.503   3.623   4.311
  379TCM    cl1 2059   1.505   3.693   4.476
  379TCM    cl2 2060   1.473   3.753   4.191
  379TCM     h1 2061   1.600   3.576   4.290
  379TCM    cl3 2062   1.374   3.500   4.298
  380TCM     c1 2063   0.635   2.619   0.402
  380TCM    cl1 2064   0.723   2.706   0.271
  380TCM    cl2 2065   0.735   2.483   0.461
  380TCM     h1 2066   0.615   2.688   0.485
  380TCM    cl3 2067   0.480   2.556   0.337
  381TCM     c1 2068   2.847   0.123   2.958
  381TCM    cl1 2069   2.805   0.292   2.916
  381TCM    cl2 2070   2.730   0.061   3.079
  381TCM     h1 2071   2.843   0.061   2.868
  381TCM    cl3 2072   3.013   0.118   3.028
  382TCM     c1 2073   2.023   2.883   0.950
  382TCM    cl1 2074   2.073   3.008   1.069
  382TCM    cl2 2075   1.920   2.959   0.825
  382TCM     h1 2076   2.112   2.840   0.903
  382TCM    cl3 2077   1.931   2.754   1.034
  383TCM     c1 2078   2.981   0.095   3.855
  383TCM    cl1 2079   2.956   0.262   3.796
  383TCM    cl2 2080   3.142   0.037   3.802
  383TCM     h1 2081   2.976   0.094   3.964
  383TCM    cl3 2082   2.853  -0.011   3.788
  384TCM     c1 2083   2.665   3.282   4.885
  384TCM    cl1 2084   2.711   3.304   4.713
  384TCM    cl2 2085   2.753   3.401   4.987
  384TCM     h1 2086   2.557   3.297   4.897
  384TCM    cl3 2087   2.709   3.116   4.938
  385TCM     c1 2088   0.065   0.397   4.131
  385TCM    cl1 2089  -0.018   0.517   4.235
  385TCM    cl2 2090   0.228   0.361   4.197
  385TCM     h1 2091   0.006   0.305   4.127
  385TCM    cl3 2092   0.084   0.463   3.966
  386TCM     c1 2093   2.505   2.490   3.626
  386TCM    cl1 2094   2.586   2.348   3.550
  386TCM    cl2 2095   2.329   2.457   3.640
  386TCM     h1 2096   2.547   2.507   3.725
  386TCM    cl3 2097   2.531   2.634   3.522
  387TCM     c1 2098   0.734   1.253   4.951
  387TCM    cl1 2099   0.823   1.377   4.857
  387TCM    cl2 2100   0.778   1.089   4.891
  387TCM     h1 2101   0.759   1.261   5.057
  387TCM    cl3 2102   0.558   1.279   4.928
  388TCM     c1 2103   4.568   3.044   1.806
  388TCM    cl1 2104   4.403   3.070   1.739
  388TCM    cl2 2105   4.667   3.191   1.776
  388TCM     h1 2106   4.561   3.026   1.914
  388TCM    cl3 2107   4.644   2.902   1.727
  389TCM     c1 2108   2.992   3.037   0.281
  389TCM    cl1 2109   2.903   2.924   0.173
  389TCM    cl2 2110   2.967   2.987   0.452
  389TCM     h1 2111   3.099   3.033   0.258
  389TCM    cl3 2112   2.931   3.203   0.257
  390TCM     c1 2113   2.528   4.626   1.422
  390TCM    cl1 2114   2.501   4.702   1.262
  390TCM    cl2 2115   2.372   4.616   1.510
  390TCM     h1 2116   2.569   4.526   1.409
  390TCM    cl3 2117   2.643   4.726   1.518
  391TCM     c1 2118   2.648   3.774   4.608
  391TCM    cl1 2119   2.497   3.871   4.596
  391TCM    cl2 2120   2.677   3.692   4.451
  391TCM     h1 2121   2.732   3.840   4.632
  391TCM    cl3 2122   2.628   3.652   4.737
  392TCM     c1 2123   3.994   3.923   2.642
  392TCM    cl1 2124   3.883   3.973   2.511
  392TCM    cl2 2125   3.933   3.773   2.720
  392TCM     h1 2126   4.094   3.905   2.601
  392TCM    cl3 2127   4.002   4.054   2.765
  393TCM     c1 2128   2.348   1.373   2.202
  393TCM    cl1 2129   2.403   1.516   2.108
  393TCM    cl2 2130   2.408   1.224   2.123
  393TCM     h1 2131   2.388   1.379   2.303
  393TCM    cl3 2132   2.169   1.370   2.207
  394TCM     c1 2133   4.846   2.197   0.482
  394TCM    cl1 2134   4.713   2.100   0.552
  394TCM    cl2 2135   4.902   2.318   0.602
  394TCM     h1 2136   4.929   2.131   0.455
  394TCM    cl3 2137   4.787   2.282   0.336
  395TCM     c1 2138   4.032   0.557   3.058
  395TCM    cl1 2139   4.137   0.411   3.060
  395TCM    cl2 2140   3.890   0.531   3.164
  395TCM     h1 2141   4.089   0.643   3.093
  395TCM    cl3 2142   3.976   0.587   2.890
  396TCM     c1 2143   4.856   2.286   4.931
  396TCM    cl1 2144   4.921   2.436   5.005
  396TCM    cl2 2145   4.935   2.259   4.772
  396TCM     h1 2146   4.876   2.201   4.997
  396TCM    cl3 2147   4.679   2.301   4.908
  397TCM     c1 2148   3.414   0.912   1.002
  397TCM    cl1 2149   3.569   0.929   0.913
  397TCM    cl2 2150   3.277   0.943   0.890
  397TCM     h1 2151   3.407   0.810   1.042
  397TCM    cl3 2152   3.410   1.030   1.137
  398TCM     c1 2153   2.630   4.215   4.585
  398TCM    cl1 2154   2.745   4.106   4.500
  398TCM    cl2 2155   2.551   4.322   4.464
  398TCM     h1 2156   2.554   4.155   4.635
  398TCM    cl3 2157   2.719   4.313   4.706
  399TCM     c1 2158   1.484   0.092   0.252
  399TCM    cl1 2159   1.591  -0.051   0.240
  399TCM    cl2 2160   1.312   0.039   0.260
  399TCM     h1 2161   1.508   0.148   0.343
  399TCM    cl3 2162   1.509   0.197   0.108
  400TCM     c1 2163   1.359   3.128   4.124
  400TCM    cl1 2164   1.461   3.063   4.256
  400TCM    cl2 2165   1.198   3.048   4.127
  400TCM     h1 2166   1.347   3.236   4.135
  400TCM    cl3 2167   1.438   3.092   3.967
  401TCM     c1 2168   1.199   2.086   2.102
  401TCM    cl1 2169   1.321   2.188   2.185
  401TCM    cl2 2170   1.065   2.048   2.216
  401TCM     h1 2171   1.159   2.139   2.015
  401TCM    cl3 2172   1.276   1.933   2.050
  402TCM     c1 2173   1.213   1.309   0.417
  402TCM    cl1 2174   1.189   1.467   0.335
  402TCM    cl2 2175   1.056   1.223   0.428
  402TCM     h1 2176   1.285   1.250   0.360
  402TCM    cl3 2177   1.275   1.338   0.583
  403TCM     c1 2178   0.229   0.142   3.200
  403TCM    cl1 2179   0.097   0.171   3.082
  403TCM    cl2 2180   0.312   0.296   3.237
  403TCM     h1 2181   0.186   0.101   3.292
  403TCM    cl3 2182   0.347   0.025   3.132
  404TCM     c1 2183   2.656   3.679   0.303
  404TCM    cl1 2184   2.684   3.830   0.396
  404TCM    cl2 2185   2.645   3.720   0.129
  404TCM     h1 2186   2.739   3.610   0.320
  404TCM    cl3 2187   2.502   3.603   0.356
  405TCM     c1 2188   4.984   1.704   0.545
  405TCM    cl1 2189   5.007   1.878   0.581
  405TCM    cl2 2190   5.049   1.668   0.382
  405TCM     h1 2191   5.036   1.643   0.620
  405TCM    cl3 2192   4.808   1.666   0.548
  406TCM     c1 2193   3.089   4.534   3.908
  406TCM    cl1 2194   3.033   4.560   4.077
  406TCM    cl2 2195   3.263   4.492   3.909
  406TCM     h1 2196   3.032   4.453   3.862
  406TCM    cl3 2197   3.063   4.685   3.814
  407TCM     c1 2198   0.458   2.966   3.307
  407TCM    cl1 2199   0.365   2.814   3.287
  407TCM    cl2 2200   0.566   2.988   3.166
  407TCM     h1 2201   0.389   3.051   3.314
  407TCM    cl3 2202   0.556   2.958   3.457
  408TCM     c1 2203   2.695   0.492   1.644
  408TCM    cl1 2204   2.586   0.609   1.563
  408TCM    cl2 2205   2.597   0.364   1.723
  408TCM     h1 2206   2.762   0.447   1.570
  408TCM    cl3 2207   2.791   0.578   1.769
  409TCM     c1 2208   4.666   4.830   4.133
  409TCM    cl1 2209   4.722   4.684   4.222
  409TCM    cl2 2210   4.631   4.787   3.963
  409TCM     h1 2211   4.576   4.869   4.181
  409TCM    cl3 2212   4.794   4.955   4.137
  410TCM     c1 2213   3.865   0.795   2.054
  410TCM    cl1 2214   3.797   0.937   1.969
  410TCM    cl2 2215   3.735   0.675   2.084
  410TCM     h1 2216   3.943   0.749   1.992
  410TCM    cl3 2217   3.936   0.846   2.211
  411TCM     c1 2218   2.412   4.829   2.028
  411TCM    cl1 2219   2.372   4.702   2.148
  411TCM    cl2 2220   2.520   4.760   1.902
  411TCM     h1 2221   2.320   4.866   1.982
  411TCM    cl3 2222   2.496   4.965   2.110
  412TCM     c1 2223   2.028   2.508   0.647
  412TCM    cl1 2224   2.094   2.674   0.659
  412TCM    cl2 2225   1.881   2.495   0.749
  412TCM     h1 2226   2.002   2.487   0.543
  412TCM    cl3 2227   2.151   2.391   0.704
  413TCM     c1 2228   2.188   4.484   0.333
  413TCM    cl1 2229   2.189   4.466   0.511
  413TCM    cl2 2230   2.254   4.336   0.257
  413TCM     h1 2231   2.085   4.500   0.299
  413TCM    cl3 2232   2.289   4.625   0.288
  414TCM     c1 2233   3.465   0.962   2.147
  414TCM    cl1 2234   3.582   0.945   2.282
  414TCM    cl2 2235   3.396   1.128   2.150
  414TCM     h1 2236   3.515   0.945   2.052
  414TCM    cl3 2237   3.332   0.843   2.169
  415TCM     c1 2238   3.504   3.894   0.612
  415TCM    cl1 2239   3.557   3.728   0.572
  415TCM    cl2 2240   3.643   3.991   0.667
  415TCM     h1 2241   3.461   3.941   0.523
  415TCM    cl3 2242   3.379   3.887   0.741
  416TCM     c1 2243   1.661   3.925   1.795
  416TCM    cl1 2244   1.606   4.095   1.790
  416TCM    cl2 2245   1.828   3.913   1.729
  416TCM     h1 2246   1.661   3.890   1.898
  416TCM    cl3 2247   1.550   3.822   1.698
  417TCM     c1 2248   4.833   2.637   2.860
  417TCM    cl1 2249   5.011   2.653   2.856
  417TCM    cl2 2250   4.759   2.777   2.775
  417TCM     h1 2251   4.804   2.544   2.810
  417TCM    cl3 2252   4.776   2.634   3.030
  418TCM     c1 2253   1.462   1.134   2.123
  418TCM    cl1 2254   1.593   1.021   2.172
  418TCM    cl2 2255   1.360   1.057   1.998
  418TCM     h1 2256   1.401   1.159   2.210
  418TCM    cl3 2257   1.535   1.283   2.055
  419TCM     c1 2258   1.105   4.139   4.927
  419TCM    cl1 2259   1.085   4.252   4.789
  419TCM    cl2 2260   1.021   3.986   4.891
  419TCM     h1 2261   1.212   4.120   4.944
  419TCM    cl3 2262   1.035   4.213   5.074
  420TCM     c1 2263   3.011   2.646   0.665
  420TCM    cl1 2264   3.164   2.725   0.614
  420TCM    cl2 2265   2.920   2.755   0.775
  420TCM     h1 2266   2.950   2.623   0.577
  420TCM    cl3 2267   3.050   2.494   0.752
  421TCM     c1 2268   0.580   1.660   2.512
  421TCM    cl1 2269   0.554   1.837   2.492
  421TCM    cl2 2270   0.424   1.574   2.496
  421TCM     h1 2271   0.649   1.625   2.435
  421TCM    cl3 2272   0.652   1.628   2.674
  422TCM     c1 2273   2.409   0.505   4.562
  422TCM    cl1 2274   2.583   0.546   4.550
  422TCM    cl2 2275   2.310   0.653   4.532
  422TCM     h1 2276   2.383   0.429   4.488
  422TCM    cl3 2277   2.373   0.445   4.727
  423TCM     c1 2278   0.381   4.267   3.884
  423TCM    cl1 2279   0.543   4.343   3.901
  423TCM    cl2 2280   0.277   4.320   4.020
  423TCM     h1 2281   0.336   4.298   3.789
  423TCM    cl3 2282   0.398   4.088   3.887
  424TCM     c1 2283   4.833   4.075   1.233
  424TCM    cl1 2284   4.854   3.963   1.372
  424TCM    cl2 2285   4.817   3.980   1.081
  424TCM     h1 2286   4.743   4.136   1.247
  424TCM    cl3 2287   4.977   4.181   1.220
  425TCM     c1 2288   2.552   2.256   0.261
  425TCM    cl1 2289   2.538   2.431   0.297
  425TCM    cl2 2290   2.561   2.165   0.415
  425TCM     h1 2291   2.464   2.223   0.204
  425TCM    cl3 2292   2.701   2.225   0.166
  426TCM     c1 2293   4.936   4.684   3.191
  426TCM    cl1 2294   5.086   4.618   3.264
  426TCM    cl2 2295   5.017   4.835   3.245
  426TCM     h1 2296   4.923   4.746   3.102
  426TCM    cl3 2297   4.985   4.567   3.064
  427TCM     c1 2298   3.152   2.229   1.944
  427TCM    cl1 2299   3.211   2.165   1.787
  427TCM    cl2 2300   2.994   2.311   1.919
  427TCM     h1 2301   3.141   2.147   2.015
  427TCM    cl3 2302   3.271   2.348   2.007
  428TCM     c1 2303   4.058   1.065   4.808
  428TCM    cl1 2304   4.134   1.157   4.942
  428TCM    cl2 2305   4.137   0.905   4.792
  428TCM     h1 2306   3.952   1.051   4.829
  428TCM    cl3 2307   4.077   1.157   4.655
  429TCM     c1 2308   1.265   1.993   3.992
  429TCM    cl1 2309   1.380   1.857   4.003
  429TCM    cl2 2310   1.198   2.025   4.155
  429TCM     h1 2311   1.316   2.083   3.955
  429TCM    cl3 2312   1.133   1.947   3.881
  430TCM     c1 2313   0.479   0.131   1.891
  430TCM    cl1 2314   0.403   0.169   1.733
  430TCM    cl2 2315   0.479  -0.046   1.915
  430TCM     h1 2316   0.582   0.168   1.892
  430TCM    cl3 2317   0.386   0.209   2.023
  431TCM     c1 2318   3.637   0.172   0.767
  431TCM    cl1 2319   3.672   0.310   0.877
  431TCM    cl2 2320   3.480   0.200   0.686
  431TCM     h1 2321   3.716   0.164   0.693
  431TCM    cl3 2322   3.628   0.021   0.863
  432TCM     c1 2323   2.961   1.959   3.457
  432TCM    cl1 2324   2.950   2.136   3.486
  432TCM    cl2 2325   3.018   1.877   3.606
  432TCM     h1 2326   2.862   1.920   3.430
  432TCM    cl3 2327   3.076   1.927   3.322
  433TCM     c1 2328   3.756   2.929   3.311
  433TCM    cl1 2329   3.838   3.087   3.285
  433TCM    cl2 2330   3.866   2.796   3.261
  433TCM     h1 2331   3.731   2.918   3.416
  433TCM    cl3 2332   3.606   2.922   3.212
  434TCM     c1 2333   3.049   4.149   1.364
  434TCM    cl1 2334   2.993   4.268   1.486
  434TCM    cl2 2335   2.986   4.192   1.201
  434TCM     h1 2336   3.158   4.149   1.361
  434TCM    cl3 2337   2.989   3.987   1.410
  435TCM     c1 2338   0.402   1.069   3.960
  435TCM    cl1 2339   0.488   1.059   3.803
  435TCM    cl2 2340   0.261   1.179   3.943
  435TCM     h1 2341   0.367   0.969   3.989
  435TCM    cl3 2342   0.514   1.132   4.085
  436TCM     c1 2343   0.365   1.790   1.599
  436TCM    cl1 2344   0.322   1.644   1.694
  436TCM    cl2 2345   0.262   1.798   1.452
  436TCM     h1 2346   0.349   1.879   1.660
  436TCM    cl3 2347   0.537   1.781   1.550
  437TCM     c1 2348   0.019   2.691   1.178
  437TCM    cl1 2349   0.165   2.696   1.074
  437TCM    cl2 2350  -0.078   2.840   1.152
  437TCM     h1 2351  -0.041   2.603   1.152
  437TCM    cl3 2352   0.069   2.680   1.350
  438TCM     c1 2353   0.765   3.429   4.893
  438TCM    cl1 2354   0.623   3.330   4.848
  438TCM    cl2 2355   0.718   3.602   4.895
  438TCM     h1 2356   0.801   3.400   4.992
  438TCM    cl3 2357   0.895   3.403   4.772
  439TCM     c1 2358   3.678   1.011   1.541
  439TCM    cl1 2359   3.786   0.875   1.587
  439TCM    cl2 2360   3.653   1.117   1.684
  439TCM     h1 2361   3.723   1.068   1.460
  439TCM    cl3 2362   3.520   0.945   1.487
  440TCM     c1 2363   3.425   1.737   4.478
  440TCM    cl1 2364   3.277   1.637   4.500
  440TCM    cl2 2365   3.565   1.652   4.552
  440TCM     h1 2366   3.443   1.752   4.371
  440TCM    cl3 2367   3.400   1.895   4.558
  441TCM     c1 2368   0.519   3.754   4.183
  441TCM    cl1 2369   0.354   3.785   4.120
  441TCM    cl2 2370   0.636   3.855   4.093
  441TCM     h1 2371   0.522   3.779   4.289
  441TCM    cl3 2372   0.559   3.580   4.161
  442TCM     c1 2373   3.552   3.272   4.839
  442TCM    cl1 2374   3.478   3.155   4.725
  442TCM    cl2 2375   3.654   3.184   4.958
  442TCM     h1 2376   3.614   3.343   4.784
  442TCM    cl3 2377   3.423   3.360   4.927
  443TCM     c1 2378   0.919   2.422   1.409
  443TCM    cl1 2379   0.883   2.255   1.355
  443TCM    cl2 2380   1.090   2.461   1.373
  443TCM     h1 2381   0.853   2.492   1.357
  443TCM    cl3 2382   0.891   2.436   1.586
  444TCM     c1 2383   4.407   4.893   0.099
  444TCM    cl1 2384   4.228   4.898   0.111
  444TCM    cl2 2385   4.477   5.014   0.212
  444TCM     h1 2386   4.443   4.793   0.126
  444TCM    cl3 2387   4.455   4.931  -0.069
  445TCM     c1 2388   4.547   1.078   4.900
  445TCM    cl1 2389   4.459   1.104   4.746
  445TCM    cl2 2390   4.455   0.962   5.002
  445TCM     h1 2391   4.647   1.039   4.880
  445TCM    cl3 2392   4.560   1.235   4.986
  446TCM     c1 2393   2.964   0.580   3.086
  446TCM    cl1 2394   3.027   0.673   2.946
  446TCM    cl2 2395   2.914   0.696   3.214
  446TCM     h1 2396   2.879   0.520   3.056
  446TCM    cl3 2397   3.094   0.473   3.149
  447TCM     c1 2398   4.351   1.309   4.476
  447TCM    cl1 2399   4.515   1.383   4.487
  447TCM    cl2 2400   4.357   1.164   4.370
  447TCM     h1 2401   4.319   1.280   4.576
  447TCM    cl3 2402   4.236   1.429   4.409
  448TCM     c1 2403   0.034   2.030   3.501
  448TCM    cl1 2404  -0.116   1.973   3.421
  448TCM    cl2 2405   0.053   2.207   3.474
  448TCM     h1 2406   0.027   2.011   3.608
  448TCM    cl3 2407   0.175   1.944   3.433
  449TCM     c1 2408   4.964   4.875   3.608
  449TCM    cl1 2409   4.880   4.720   3.579
  449TCM    cl2 2410   5.129   4.843   3.671
  449TCM     h1 2411   4.971   4.931   3.514
  449TCM    cl3 2412   4.872   4.970   3.728
  450TCM     c1 2413   3.139   0.576   3.519
  450TCM    cl1 2414   3.081   0.742   3.555
  450TCM    cl2 2415   2.997   0.469   3.493
  450TCM     h1 2416   3.201   0.577   3.429
  450TCM    cl3 2417   3.234   0.514   3.657
  451TCM     c1 2418   3.759   3.659   1.450
  451TCM    cl1 2419   3.746   3.835   1.417
  451TCM    cl2 2420   3.918   3.623   1.524
  451TCM     h1 2421   3.679   3.629   1.518
  451TCM    cl3 2422   3.743   3.570   1.295
  452TCM     c1 2423   0.573   0.041   1.291
  452TCM    cl1 2424   0.619  -0.038   1.445
  452TCM    cl2 2425   0.480  -0.076   1.190
  452TCM     h1 2426   0.511   0.128   1.311
  452TCM    cl3 2427   0.721   0.091   1.202
  453TCM     c1 2428   2.370   3.956   3.575
  453TCM    cl1 2429   2.525   3.990   3.659
  453TCM    cl2 2430   2.399   3.842   3.439
  453TCM     h1 2431   2.300   3.911   3.646
  453TCM    cl3 2432   2.303   4.108   3.510
  454TCM     c1 2433   4.359   3.945   1.161
  454TCM    cl1 2434   4.458   4.033   1.281
  454TCM    cl2 2435   4.459   3.910   1.016
  454TCM     h1 2436   4.324   3.851   1.204
  454TCM    cl3 2437   4.218   4.045   1.113
  455TCM     c1 2438   3.135   4.157   4.291
  455TCM    cl1 2439   2.977   4.184   4.209
  455TCM    cl2 2440   3.106   4.115   4.463
  455TCM     h1 2441   3.188   4.076   4.241
  455TCM    cl3 2442   3.233   4.307   4.280
  456TCM     c1 2443   1.767   1.906   4.536
  456TCM    cl1 2444   1.628   1.981   4.622
  456TCM    cl2 2445   1.725   1.737   4.494
  456TCM     h1 2446   1.789   1.963   4.445
  456TCM    cl3 2447   1.909   1.907   4.645
  457TCM     c1 2448   1.543   3.267   1.619
  457TCM    cl1 2449   1.507   3.423   1.699
  457TCM    cl2 2450   1.557   3.137   1.742
  457TCM     h1 2451   1.463   3.242   1.549
  457TCM    cl3 2452   1.698   3.281   1.530
  458TCM     c1 2453   1.961   4.700   1.320
  458TCM    cl1 2454   1.995   4.632   1.482
  458TCM    cl2 2455   2.112   4.702   1.223
  458TCM     h1 2456   1.885   4.640   1.269
  458TCM    cl3 2457   1.900   4.868   1.338
  459TCM     c1 2458   3.857   4.160   3.395
  459TCM    cl1 2459   3.837   4.271   3.255
  459TCM    cl2 2460   3.918   4.253   3.536
  459TCM     h1 2461   3.761   4.115   3.420
  459TCM    cl3 2462   3.976   4.032   3.353
  460TCM     c1 2463   0.438   0.848   3.511
  460TCM    cl1 2464   0.443   0.973   3.382
  460TCM    cl2 2465   0.487   0.689   3.443
  460TCM     h1 2466   0.506   0.876   3.591
  460TCM    cl3 2467   0.270   0.837   3.576
  461TCM     c1 2468   1.712   4.416   0.099
  461TCM    cl1 2469   1.737   4.457  -0.073
  461TCM    cl2 2470   1.656   4.563   0.186
  461TCM     h1 2471   1.636   4.338   0.108
  461TCM    cl3 2472   1.866   4.358   0.171
  462TCM     c1 2473   3.162   0.139   0.147
  462TCM    cl1 2474   3.276   0.053   0.256
  462TCM    cl2 2475   3.061   0.020   0.059
  462TCM     h1 2476   3.098   0.206   0.205
  462TCM    cl3 2477   3.257   0.235   0.029
  463TCM     c1 2478   3.483   0.782   2.936
  463TCM    cl1 2479   3.375   0.690   2.826
  463TCM    cl2 2480   3.653   0.759   2.884
  463TCM     h1 2481   3.457   0.888   2.932
  463TCM    cl3 2482   3.463   0.722   3.104
  464TCM     c1 2483   0.001   4.388   3.689
  464TCM    cl1 2484  -0.051   4.370   3.518
  464TCM    cl2 2485   0.155   4.480   3.694
  464TCM     h1 2486  -0.076   4.441   3.745
  464TCM    cl3 2487   0.026   4.226   3.761
  465TCM     c1 2488   4.364   1.540   4.900
  465TCM    cl1 2489   4.520   1.576   4.819
  465TCM    cl2 2490   4.251   1.469   4.780
  465TCM     h1 2491   4.380   1.469   4.982
  465TCM    cl3 2492   4.294   1.691   4.966
  466TCM     c1 2493   0.209   0.648   2.638
  466TCM    cl1 2494   0.362   0.673   2.730
  466TCM    cl2 2495   0.218   0.492   2.550
  466TCM     h1 2496   0.125   0.646   2.707
  466TCM    cl3 2497   0.189   0.782   2.521
  467TCM     c1 2498   0.665   1.747   2.050
  467TCM    cl1 2499   0.749   1.882   2.133
  467TCM    cl2 2500   0.566   1.814   1.916
  467TCM     h1 2501   0.738   1.676   2.010
  467TCM    cl3 2502   0.556   1.665   2.166
  468TCM     c1 2503   3.549   1.959   1.384
  468TCM    cl1 2504   3.509   1.906   1.217
  468TCM    cl2 2505   3.724   1.993   1.395
  468TCM     h1 2506   3.492   2.049   1.409
  468TCM    cl3 2507   3.507   1.828   1.500
  469TCM     c1 2508   2.606   0.757   4.126
  469TCM    cl1 2509   2.541   0.905   4.047
  469TCM    cl2 2510   2.470   0.662   4.194
  469TCM     h1 2511   2.660   0.697   4.052
  469TCM    cl3 2512   2.718   0.804   4.258
  470TCM     c1 2513   4.594   2.545   4.617
  470TCM    cl1 2514   4.737   2.607   4.706
  470TCM    cl2 2515   4.454   2.536   4.730
  470TCM     h1 2516   4.570   2.612   4.535
  470TCM    cl3 2517   4.630   2.381   4.553
  471TCM     c1 2518   3.645   0.608   2.555
  471TCM    cl1 2519   3.557   0.591   2.400
  471TCM    cl2 2520   3.793   0.706   2.529
  471TCM     h1 2521   3.581   0.658   2.628
  471TCM    cl3 2522   3.692   0.446   2.616
  472TCM     c1 2523   3.081   2.011   2.953
  472TCM    cl1 2524   3.019   1.990   2.786
  472TCM    cl2 2525   3.079   2.185   2.996
  472TCM     h1 2526   3.018   1.955   3.022
  472TCM    cl3 2527   3.249   1.949   2.961
  473TCM     c1 2528   3.627   1.488   1.426
  473TCM    cl1 2529   3.757   1.591   1.357
  473TCM    cl2 2530   3.653   1.471   1.602
  473TCM     h1 2531   3.529   1.535   1.408
  473TCM    cl3 2532   3.630   1.326   1.349
  474TCM     c1 2533   0.524   3.348   1.222
  474TCM    cl1 2534   0.419   3.484   1.170
  474TCM    cl2 2535   0.532   3.226   1.090
  474TCM     h1 2536   0.624   3.385   1.243
  474TCM    cl3 2537   0.455   3.272   1.369
  475TCM     c1 2538   2.335   3.570   4.381
  475TCM    cl1 2539   2.383   3.479   4.528
  475TCM    cl2 2540   2.228   3.707   4.426
  475TCM     h1 2541   2.424   3.609   4.331
  475TCM    cl3 2542   2.245   3.462   4.270
  476TCM     c1 2543   1.714   1.422   1.771
  476TCM    cl1 2544   1.808   1.511   1.894
  476TCM    cl2 2545   1.825   1.353   1.649
  476TCM     h1 2546   1.658   1.341   1.819
  476TCM    cl3 2547   1.601   1.534   1.690
  477TCM     c1 2548   4.435   2.462   0.193
  477TCM    cl1 2549   4.590   2.543   0.153
  477TCM    cl2 2550   4.457   2.284   0.190
  477TCM     h1 2551   4.402   2.493   0.293
  477TCM    cl3 2552   4.311   2.508   0.072
  478TCM     c1 2553   2.979   4.505   3.392
  478TCM    cl1 2554   2.839   4.441   3.298
  478TCM    cl2 2555   3.132   4.465   3.307
  478TCM     h1 2556   2.969   4.613   3.401
  478TCM    cl3 2557   2.981   4.431   3.556
  479TCM     c1 2558   4.946   3.707   4.987
  479TCM    cl1 2559   4.847   3.857   4.995
  479TCM    cl2 2560   5.063   3.705   5.124
  479TCM     h1 2561   4.881   3.619   4.994
  479TCM    cl3 2562   5.036   3.704   4.833
  480TCM     c1 2563   0.960   2.387   3.498
  480TCM    cl1 2564   0.809   2.314   3.435
  480TCM    cl2 2565   1.073   2.418   3.361
  480TCM     h1 2566   0.937   2.481   3.548
  480TCM    cl3 2567   1.037   2.274   3.614
  481TCM     c1 2568   2.364   2.685   1.130
  481TCM    cl1 2569   2.304   2.638   0.968
  481TCM    cl2 2570   2.231   2.670   1.250
  481TCM     h1 2571   2.447   2.620   1.159
  481TCM    cl3 2572   2.421   2.855   1.125
  482TCM     c1 2573   4.994   3.432   3.395
  482TCM    cl1 2574   5.060   3.409   3.230
  482TCM    cl2 2575   4.853   3.323   3.418
  482TCM     h1 2576   5.070   3.409   3.470
  482TCM    cl3 2577   4.942   3.603   3.414
  483TCM     c1 2578   2.389   4.902   3.180
  483TCM    cl1 2579   2.420   4.729   3.143
  483TCM    cl2 2580   2.240   4.916   3.279
  483TCM     h1 2581   2.474   4.944   3.234
  483TCM    cl3 2582   2.366   4.992   3.027
  484TCM     c1 2583   4.923   2.622   3.918
  484TCM    cl1 2584   5.084   2.689   3.960
  484TCM    cl2 2585   4.800   2.751   3.935
  484TCM     h1 2586   4.924   2.585   3.815
  484TCM    cl3 2587   4.884   2.488   4.031
  485TCM     c1 2588   2.616   2.138   3.243
  485TCM    cl1 2589   2.487   2.097   3.125
  485TCM    cl2 2590   2.776   2.115   3.164
  485TCM     h1 2591   2.606   2.241   3.276
  485TCM    cl3 2592   2.605   2.027   3.383
  486TCM     c1 2593   1.891   0.624   3.696
  486TCM    cl1 2594   1.866   0.628   3.874
  486TCM    cl2 2595   1.918   0.789   3.632
  486TCM     h1 2596   1.978   0.562   3.674
  486TCM    cl3 2597   1.746   0.553   3.617
  487TCM     c1 2598   0.937   0.071   0.389
  487TCM    cl1 2599   0.862   0.143   0.536
  487TCM    cl2 2600   0.933   0.192   0.256
  487TCM     h1 2601   1.041   0.044   0.411
  487TCM    cl3 2602   0.846  -0.076   0.340
  488TCM     c1 2603   4.051   1.102   3.348
  488TCM    cl1 2604   3.933   1.032   3.463
  488TCM    cl2 2605   4.191   0.992   3.332
  488TCM     h1 2606   4.003   1.115   3.250
  488TCM    cl3 2607   4.107   1.261   3.409
  489TCM     c1 2608   3.182   4.779   3.043
  489TCM    cl1 2609   3.282   4.864   3.166
  489TCM    cl2 2610   3.016   4.758   3.109
  489TCM     h1 2611   3.178   4.839   2.952
  489TCM    cl3 2612   3.253   4.619   3.007
  490TCM     c1 2613   2.184   2.160   2.891
  490TCM    cl1 2614   2.055   2.138   2.768
  490TCM    cl2 2615   2.125   2.101   3.050
  490TCM     h1 2616   2.272   2.103   2.861
  490TCM    cl3 2617   2.227   2.334   2.904
  491TCM     c1 2618   1.493   0.742   4.898
  491TCM    cl1 2619   1.548   0.891   4.982
  491TCM    cl2 2620   1.439   0.783   4.732
  491TCM     h1 2621   1.575   0.670   4.893
  491TCM    cl3 2622   1.356   0.672   4.990
  492TCM     c1 2623   2.259   4.420   4.080
  492TCM    cl1 2624   2.101   4.466   4.009
  492TCM    cl2 2625   2.234   4.327   4.231
  492TCM     h1 2626   2.314   4.359   4.009
  492TCM    cl3 2627   2.354   4.568   4.115
  493TCM     c1 2628   0.814   3.649   4.513
  493TCM    cl1 2629   0.855   3.696   4.345
  493TCM    cl2 2630   0.638   3.669   4.539
  493TCM     h1 2631   0.842   3.545   4.530
  493TCM    cl3 2632   0.903   3.755   4.627
  494TCM     c1 2633   0.048   2.921   1.617
  494TCM    cl1 2634  -0.046   3.018   1.498
  494TCM    cl2 2635   0.009   2.976   1.783
  494TCM     h1 2636   0.023   2.816   1.606
  494TCM    cl3 2637   0.224   2.945   1.587
  495TCM     c1 2638   3.225   1.097   3.297
  495TCM    cl1 2639   3.354   1.172   3.196
  495TCM    cl2 2640   3.194   0.930   3.240
  495TCM     h1 2641   3.258   1.095   3.401
  495TCM    cl3 2642   3.075   1.195   3.282
  496TCM     c1 2643   4.991   1.349   1.866
  496TCM    cl1 2644   5.163   1.341   1.817
  496TCM    cl2 2645   4.922   1.184   1.873
  496TCM     h1 2646   4.983   1.396   1.965
  496TCM    cl3 2647   4.900   1.447   1.746
  497TCM     c1 2648   1.432   4.807   1.145
  497TCM    cl1 2649   1.351   4.716   1.013
  497TCM    cl2 2650   1.603   4.753   1.158
  497TCM     h1 2651   1.429   4.914   1.123
  497TCM    cl3 2652   1.348   4.776   1.300
  498TCM     c1 2653   2.696   2.903   3.332
  498TCM    cl1 2654   2.856   2.830   3.366
  498TCM    cl2 2655   2.705   3.004   3.184
  498TCM     h1 2656   2.622   2.824   3.318
  498TCM    cl3 2657   2.647   3.007   3.470
  499TCM     c1 2658   0.111   3.170   1.139
  499TCM    cl1 2659   0.181   3.232   0.985
  499TCM    cl2 2660   0.095   3.306   1.255
  499TCM     h1 2661   0.013   3.127   1.119
  499TCM    cl3 2662   0.220   3.045   1.207
  500TCM     c1 2663   1.771   0.031   4.891
  500TCM    cl1 2664   1.732  -0.144   4.881
  500TCM    cl2 2665   1.844   0.084   4.736
  500TCM     h1 2666   1.680   0.088   4.911
  500TCM    cl3 2667   1.889   0.057   5.023
  501TCM     c1 2668   0.883   1.555   2.962
  501TCM    cl1 2669   1.016   1.608   2.853
  501TCM    cl2 2670   0.810   1.699   3.039
  501TCM     h1 2671   0.808   1.502   2.903
  501TCM    cl3 2672   0.948   1.446   3.088
  502TCM     c1 2673   2.791   3.604   2.194
  502TCM    cl1 2674   2.842   3.437   2.154
  502TCM    cl2 2675   2.897   3.670   2.323
  502TCM     h1 2676   2.798   3.667   2.106
  502TCM    cl3 2677   2.621   3.602   2.252
  503TCM     c1 2678   1.468   0.462   2.603
  503TCM    cl1 2679   1.324   0.452   2.497
  503TCM    cl2 2680   1.417   0.464   2.775
  503TCM     h1 2681   1.532   0.375   2.585
  503TCM    cl3 2682   1.560   0.612   2.567
  504TCM     c1 2683   4.931   0.115   2.572
  504TCM    cl1 2684   4.851  -0.028   2.644
  504TCM    cl2 2685   5.038   0.193   2.693
  504TCM     h1 2686   4.991   0.083   2.486
  504TCM    cl3 2687   4.806   0.232   2.518
  505TCM     c1 2688   2.714   3.775   2.654
  505TCM    cl1 2689   2.655   3.839   2.811
  505TCM    cl2 2690   2.676   3.893   2.523
  505TCM     h1 2691   2.822   3.760   2.658
  505TCM    cl3 2692   2.632   3.619   2.620
  506TCM     c1 2693   0.377   4.613   4.805
  506TCM    cl1 2694   0.214   4.669   4.757
  506TCM    cl2 2695   0.442   4.504   4.678
  506TCM     h1 2696   0.443   4.699   4.816
  506TCM    cl3 2697   0.365   4.525   4.961
  507TCM     c1 2698   1.422   3.784   4.901
  507TCM    cl1 2699   1.306   3.806   4.766
  507TCM    cl2 2700   1.421   3.612   4.954
  507TCM     h1 2701   1.523   3.811   4.869
  507TCM    cl3 2702   1.372   3.888   5.038
  508TCM     c1 2703   0.511   1.844   3.242
  508TCM    cl1 2704   0.380   1.881   3.125
  508TCM    cl2 2705   0.453   1.721   3.359
  508TCM     h1 2706   0.598   1.806   3.189
  508TCM    cl3 2707   0.556   1.994   3.331
  509TCM     c1 2708   4.575   0.411   4.693
  509TCM    cl1 2709   4.541   0.512   4.837
  509TCM    cl2 2710   4.448   0.439   4.569
  509TCM     h1 2711   4.673   0.437   4.652
  509TCM    cl3 2712   4.574   0.237   4.740
  510TCM     c1 2713   4.188   2.221   2.207
  510TCM    cl1 2714   4.186   2.085   2.325
  510TCM    cl2 2715   4.323   2.332   2.249
  510TCM     h1 2716   4.203   2.182   2.106
  510TCM    cl3 2717   4.033   2.310   2.215
  511TCM     c1 2718   3.239   4.527   1.320
  511TCM    cl1 2719   3.329   4.372   1.336
  511TCM    cl2 2720   3.302   4.617   1.178
  511TCM     h1 2721   3.132   4.506   1.306
  511TCM    cl3 2722   3.262   4.624   1.468
  512TCM     c1 2723   0.055   0.014   0.475
  512TCM    cl1 2724   0.078   0.192   0.472
  512TCM    cl2 2725  -0.065  -0.029   0.601
  512TCM     h1 2726   0.020  -0.021   0.377
  512TCM    cl3 2727   0.212  -0.065   0.515
  513TCM     c1 2728   3.860   4.875   4.955
  513TCM    cl1 2729   3.904   4.725   5.042
  513TCM    cl2 2730   3.974   4.902   4.818
  513TCM     h1 2731   3.758   4.867   4.916
  513TCM    cl3 2732   3.871   5.015   5.068
  514TCM     c1 2733   0.816   0.188   2.162
  514TCM    cl1 2734   0.701   0.322   2.193
  514TCM    cl2 2735   0.889   0.209   1.999
  514TCM     h1 2736   0.895   0.189   2.238
  514TCM    cl3 2737   0.729   0.032   2.168
  515TCM     c1 2738   2.679   4.960   4.176
  515TCM    cl1 2739   2.577   4.859   4.069
  515TCM    cl2 2740   2.851   4.910   4.158
  515TCM     h1 2741   2.668   5.065   4.149
  515TCM    cl3 2742   2.628   4.938   4.347
  516TCM     c1 2743   4.186   4.014   1.613
  516TCM    cl1 2744   4.117   3.950   1.461
  516TCM    cl2 2745   4.053   4.040   1.731
  516TCM     h1 2746   4.259   3.944   1.653
  516TCM    cl3 2747   4.266   4.171   1.579
  517TCM     c1 2748   2.978   3.646   4.817
  517TCM    cl1 2749   3.133   3.600   4.896
  517TCM    cl2 2750   3.006   3.679   4.643
  517TCM     h1 2751   2.906   3.564   4.828
  517TCM    cl3 2752   2.914   3.794   4.895
  518TCM     c1 2753   2.485   0.310   4.090
  518TCM    cl1 2754   2.540   0.318   4.260
  518TCM    cl2 2755   2.368   0.175   4.073
  518TCM     h1 2756   2.437   0.404   4.062
  518TCM    cl3 2757   2.627   0.281   3.984
  519TCM     c1 2758   3.579   3.356   1.637
  519TCM    cl1 2759   3.458   3.430   1.528
  519TCM    cl2 2760   3.631   3.477   1.758
  519TCM     h1 2761   3.536   3.269   1.687
  519TCM    cl3 2762   3.721   3.304   1.540
  520TCM     c1 2763   4.943   2.988   3.224
  520TCM    cl1 2764   4.970   2.969   3.047
  520TCM    cl2 2765   5.091   3.057   3.299
  520TCM     h1 2766   4.858   3.054   3.241
  520TCM    cl3 2767   4.910   2.828   3.297
  521TCM     c1 2768   1.601   3.576   3.243
  521TCM    cl1 2769   1.725   3.480   3.331
  521TCM    cl2 2770   1.511   3.678   3.360
  521TCM     h1 2771   1.649   3.639   3.169
  521TCM    cl3 2772   1.487   3.464   3.162
  522TCM     c1 2773   2.643   4.138   1.532
  522TCM    cl1 2774   2.514   4.023   1.580
  522TCM    cl2 2775   2.600   4.303   1.588
  522TCM     h1 2776   2.738   4.107   1.576
  522TCM    cl3 2777   2.657   4.138   1.353
  523TCM     c1 2778   0.211   1.416   2.782
  523TCM    cl1 2779   0.085   1.389   2.657
  523TCM    cl2 2780   0.359   1.323   2.739
  523TCM     h1 2781   0.234   1.522   2.789
  523TCM    cl3 2782   0.150   1.357   2.940
  524TCM     c1 2783   4.505   3.066   2.709
  524TCM    cl1 2784   4.406   2.980   2.586
  524TCM    cl2 2785   4.397   3.162   2.815
  524TCM     h1 2786   4.561   2.993   2.768
  524TCM    cl3 2787   4.619   3.177   2.627
  525TCM     c1 2788   2.512   5.001   2.557
  525TCM    cl1 2789   2.526   4.848   2.465
  525TCM    cl2 2790   2.646   5.010   2.677
  525TCM     h1 2791   2.519   5.085   2.488
  525TCM    cl3 2792   2.355   5.005   2.643
  526TCM     c1 2793   2.896   3.072   2.243
  526TCM    cl1 2794   2.780   3.001   2.125
  526TCM    cl2 2795   3.057   3.088   2.164
  526TCM     h1 2796   2.861   3.170   2.275
  526TCM    cl3 2797   2.911   2.963   2.384
  527TCM     c1 2798   1.770   3.205   4.061
  527TCM    cl1 2799   1.769   3.250   3.888
  527TCM    cl2 2800   1.684   3.330   4.157
  527TCM     h1 2801   1.719   3.109   4.074
  527TCM    cl3 2802   1.939   3.192   4.119
  528TCM     c1 2803   4.987   1.938   0.145
  528TCM    cl1 2804   4.951   1.930  -0.031
  528TCM    cl2 2805   4.835   1.917   0.239
  528TCM     h1 2806   5.058   1.859   0.171
  528TCM    cl3 2807   5.058   2.098   0.183
  529TCM     c1 2808   2.060   3.048   1.731
  529TCM    cl1 2809   2.180   2.914   1.731
  529TCM    cl2 2810   1.946   3.025   1.595
  529TCM     h1 2811   2.004   3.047   1.825
  529TCM    cl3 2812   2.146   3.204   1.713
  530TCM     c1 2813   1.912   0.529   4.737
  530TCM    cl1 2814   1.795   0.623   4.638
  530TCM    cl2 2815   2.003   0.416   4.631
  530TCM     h1 2816   1.982   0.598   4.785
  530TCM    cl3 2817   1.823   0.436   4.862
  531TCM     c1 2818   0.298   0.041   3.979
  531TCM    cl1 2819   0.367   0.018   4.144
  531TCM    cl2 2820   0.370   0.187   3.904
  531TCM     h1 2821   0.320  -0.047   3.918
  531TCM    cl3 2822   0.121   0.063   3.991
  532TCM     c1 2823   1.638   4.397   1.562
  532TCM    cl1 2824   1.636   4.553   1.474
  532TCM    cl2 2825   1.797   4.317   1.537
  532TCM     h1 2826   1.623   4.415   1.669
  532TCM    cl3 2827   1.507   4.292   1.500
  533TCM     c1 2828   4.971   0.841   3.867
  533TCM    cl1 2829   4.862   0.837   4.010
  533TCM    cl2 2830   4.926   0.710   3.753
  533TCM     h1 2831   4.962   0.937   3.817
  533TCM    cl3 2832   5.140   0.817   3.922
  534TCM     c1 2833   2.176   3.107   0.069
  534TCM    cl1 2834   2.306   3.148  -0.048
  534TCM    cl2 2835   2.141   3.250   0.170
  534TCM     h1 2836   2.086   3.077   0.015
  534TCM    cl3 2837   2.231   2.971   0.172
  535TCM     c1 2838   2.646   4.160   0.977
  535TCM    cl1 2839   2.651   4.337   1.007
  535TCM    cl2 2840   2.659   4.128   0.801
  535TCM     h1 2841   2.728   4.111   1.030
  535TCM    cl3 2842   2.489   4.097   1.036
  536TCM     c1 2843   1.545   0.949   3.837
  536TCM    cl1 2844   1.535   0.772   3.814
  536TCM    cl2 2845   1.450   1.031   3.709
  536TCM     h1 2846   1.505   0.976   3.935
  536TCM    cl3 2847   1.716   1.001   3.825
  537TCM     c1 2848   1.246   1.142   2.949
  537TCM    cl1 2849   1.373   1.083   2.837
  537TCM    cl2 2850   1.137   1.007   2.995
  537TCM     h1 2851   1.293   1.183   3.039
  537TCM    cl3 2852   1.151   1.270   2.867
  538TCM     c1 2853   1.736   2.945   3.361
  538TCM    cl1 2854   1.618   2.924   3.228
  538TCM    cl2 2855   1.738   3.117   3.412
  538TCM     h1 2856   1.708   2.882   3.446
  538TCM    cl3 2857   1.900   2.898   3.303
  539TCM     c1 2858   3.692   4.236   2.860
  539TCM    cl1 2859   3.574   4.309   2.973
  539TCM    cl2 2860   3.759   4.362   2.751
  539TCM     h1 2861   3.773   4.190   2.916
  539TCM    cl3 2862   3.609   4.111   2.760
  540TCM     c1 2863   2.610   0.035   0.320
  540TCM    cl1 2864   2.758  -0.061   0.288
  540TCM    cl2 2865   2.652   0.179   0.417
  540TCM     h1 2866   2.565   0.067   0.225
  540TCM    cl3 2867   2.492  -0.065   0.411
  541TCM     c1 2868   1.554   3.586   3.838
  541TCM    cl1 2869   1.698   3.621   3.941
  541TCM    cl2 2870   1.449   3.465   3.919
  541TCM     h1 2871   1.498   3.678   3.822
  541TCM    cl3 2872   1.609   3.521   3.680
  542TCM     c1 2873   2.180   2.265   1.053
  542TCM    cl1 2874   2.311   2.313   1.166
  542TCM    cl2 2875   2.045   2.382   1.066
  542TCM     h1 2876   2.218   2.265   0.950
  542TCM    cl3 2877   2.122   2.101   1.095
  543TCM     c1 2878   3.055   0.029   3.395
  543TCM    cl1 2879   3.195   0.126   3.451
  543TCM    cl2 2880   2.902   0.112   3.441
  543TCM     h1 2881   3.059   0.018   3.286
  543TCM    cl3 2882   3.059  -0.133   3.472
  544TCM     c1 2883   1.972   1.024   1.944
  544TCM    cl1 2884   1.991   1.028   1.766
  544TCM    cl2 2885   1.875   1.165   1.997
  544TCM     h1 2886   1.923   0.932   1.974
  544TCM    cl3 2887   2.134   1.034   2.020
  545TCM     c1 2888   2.150   2.477   0.035
  545TCM    cl1 2889   2.207   2.587   0.164
  545TCM    cl2 2890   2.249   2.327   0.035
  545TCM     h1 2891   2.045   2.451   0.053
  545TCM    cl3 2892   2.164   2.558  -0.125
  546TCM     c1 2893   3.450   2.335   4.319
  546TCM    cl1 2894   3.505   2.496   4.376
  546TCM    cl2 2895   3.534   2.207   4.414
  546TCM     h1 2896   3.342   2.326   4.333
  546TCM    cl3 2897   3.490   2.316   4.145
  547TCM     c1 2898   0.767   0.409   1.707
  547TCM    cl1 2899   0.758   0.237   1.658
  547TCM    cl2 2900   0.650   0.440   1.839
  547TCM     h1 2901   0.868   0.432   1.740
  547TCM    cl3 2902   0.725   0.513   1.566
  548TCM     c1 2903   0.140   2.816   3.580
  548TCM    cl1 2904   0.002   2.910   3.646
  548TCM    cl2 2905   0.102   2.640   3.588
  548TCM     h1 2906   0.157   2.845   3.477
  548TCM    cl3 2907   0.286   2.851   3.678
  549TCM     c1 2908   4.472   4.729   0.568
  549TCM    cl1 2909   4.430   4.803   0.726
  549TCM    cl2 2910   4.629   4.793   0.510
  549TCM     h1 2911   4.479   4.620   0.579
  549TCM    cl3 2912   4.343   4.768   0.448
  550TCM     c1 2913   0.089   4.141   0.866
  550TCM    cl1 2914   0.038   3.987   0.789
  550TCM    cl2 2915  -0.048   4.258   0.864
  550TCM     h1 2916   0.119   4.123   0.970
  550TCM    cl3 2917   0.226   4.211   0.775
  551TCM     c1 2918   2.213   2.045   3.506
  551TCM    cl1 2919   2.209   2.199   3.413
  551TCM    cl2 2920   2.321   2.062   3.648
  551TCM     h1 2921   2.112   2.021   3.539
  551TCM    cl3 2922   2.272   1.914   3.399
  552TCM     c1 2923   0.444   4.090   1.158
  552TCM    cl1 2924   0.523   4.059   1.000
  552TCM    cl2 2925   0.329   4.227   1.142
  552TCM     h1 2926   0.390   4.001   1.190
  552TCM    cl3 2927   0.569   4.132   1.280
  553TCM     c1 2928   1.383   3.695   0.371
  553TCM    cl1 2929   1.275   3.558   0.329
  553TCM    cl2 2930   1.546   3.668   0.302
  553TCM     h1 2931   1.341   3.788   0.332
  553TCM    cl3 2932   1.397   3.707   0.550
  554TCM     c1 2933   3.080   2.127   2.377
  554TCM    cl1 2934   3.216   2.065   2.278
  554TCM    cl2 2935   2.981   2.238   2.276
  554TCM     h1 2936   3.019   2.044   2.412
  554TCM    cl3 2937   3.144   2.217   2.518
  555TCM     c1 2938   1.646   2.499   2.194
  555TCM    cl1 2939   1.767   2.620   2.248
  555TCM    cl2 2940   1.554   2.438   2.336
  555TCM     h1 2941   1.577   2.544   2.123
  555TCM    cl3 2942   1.731   2.361   2.117
  556TCM     c1 2943   3.231   4.990   1.960
  556TCM    cl1 2944   3.132   5.018   1.814
  556TCM    cl2 2945   3.156   5.076   2.099
  556TCM     h1 2946   3.237   4.883   1.982
  556TCM    cl3 2947   3.396   5.055   1.932
  557TCM     c1 2948   1.003   2.383   4.113
  557TCM    cl1 2949   1.099   2.522   4.174
  557TCM    cl2 2950   1.088   2.307   3.975
  557TCM     h1 2951   0.991   2.310   4.193
  557TCM    cl3 2952   0.842   2.440   4.058
  558TCM     c1 2953   4.451   3.702   4.859
  558TCM    cl1 2954   4.577   3.606   4.943
  558TCM    cl2 2955   4.417   3.629   4.698
  558TCM     h1 2956   4.360   3.704   4.919
  558TCM    cl3 2957   4.511   3.869   4.836
  559TCM     c1 2958   0.108   1.628   3.698
  559TCM    cl1 2959   0.254   1.565   3.615
  559TCM    cl2 2960  -0.024   1.648   3.579
  559TCM     h1 2961   0.077   1.557   3.776
  559TCM    cl3 2962   0.145   1.787   3.773
  560TCM     c1 2963   3.960   2.205   2.648
  560TCM    cl1 2964   4.051   2.070   2.723
  560TCM    cl2 2965   3.871   2.143   2.505
  560TCM     h1 2966   3.888   2.246   2.720
  560TCM    cl3 2967   4.075   2.333   2.597
  561TCM     c1 2968   1.415   2.561   4.865
  561TCM    cl1 2969   1.416   2.737   4.900
  561TCM    cl2 2970   1.261   2.517   4.786
  561TCM     h1 2971   1.499   2.537   4.799
  561TCM    cl3 2972   1.432   2.470   5.019
  562TCM     c1 2973   3.530   1.886   2.695
  562TCM    cl1 2974   3.404   1.990   2.622
  562TCM    cl2 2975   3.650   1.988   2.781
  562TCM     h1 2976   3.484   1.816   2.765
  562TCM    cl3 2977   3.613   1.794   2.565
  563TCM     c1 2978   2.732   4.884   0.724
  563TCM    cl1 2979   2.764   5.053   0.776
  563TCM    cl2 2980   2.705   4.781   0.869
  563TCM     h1 2981   2.643   4.881   0.660
  563TCM    cl3 2982   2.873   4.822   0.631
  564TCM     c1 2983   1.669   3.733   0.780
  564TCM    cl1 2984   1.744   3.676   0.933
  564TCM    cl2 2985   1.782   3.701   0.645
  564TCM     h1 2986   1.576   3.680   0.764
  564TCM    cl3 2987   1.637   3.910   0.791
  565TCM     c1 2988   0.047   2.989   4.717
  565TCM    cl1 2989  -0.096   3.083   4.768
  565TCM    cl2 2990   0.020   2.815   4.750
  565TCM     h1 2991   0.065   3.004   4.610
  565TCM    cl3 2992   0.189   3.044   4.811
  566TCM     c1 2993   2.844   4.681   2.782
  566TCM    cl1 2994   2.949   4.825   2.762
  566TCM    cl2 2995   2.778   4.634   2.623
  566TCM     h1 2996   2.903   4.599   2.823
  566TCM    cl3 2997   2.710   4.720   2.895
  567TCM     c1 2998   4.608   3.744   3.440
  567TCM    cl1 2999   4.587   3.795   3.611
  567TCM    cl2 3000   4.496   3.838   3.336
  567TCM     h1 3001   4.711   3.762   3.409
  567TCM    cl3 3002   4.570   3.569   3.426
  568TCM     c1 3003   1.585   0.790   2.909
  568TCM    cl1 3004   1.679   0.937   2.950
  568TCM    cl2 3005   1.443   0.779   3.019
  568TCM     h1 3006   1.550   0.796   2.806
  568TCM    cl3 3007   1.689   0.645   2.931
  569TCM     c1 3008   3.182   2.682   4.375
  569TCM    cl1 3009   3.042   2.794   4.358
  569TCM    cl2 3010   3.154   2.537   4.272
  569TCM     h1 3011   3.274   2.732   4.343
  569TCM    cl3 3012   3.197   2.631   4.546
  570TCM     c1 3013   2.310   4.038   0.516
  570TCM    cl1 3014   2.333   3.915   0.389
  570TCM    cl2 3015   2.351   3.967   0.676
  570TCM     h1 3016   2.374   4.124   0.496
  570TCM    cl3 3017   2.138   4.091   0.516
  571TCM     c1 3018   3.373   1.655   0.047
  571TCM    cl1 3019   3.516   1.725   0.130
  571TCM    cl2 3020   3.384   1.689  -0.129
  571TCM     h1 3021   3.372   1.547   0.063
  571TCM    cl3 3022   3.223   1.727   0.113
  572TCM     c1 3023   2.269   1.658   3.674
  572TCM    cl1 3024   2.363   1.671   3.826
  572TCM    cl2 3025   2.113   1.745   3.692
  572TCM     h1 3026   2.327   1.703   3.592
  572TCM    cl3 3027   2.237   1.486   3.637
  573TCM     c1 3028   1.100   0.813   2.606
  573TCM    cl1 3029   1.240   0.765   2.707
  573TCM    cl2 3030   1.132   0.768   2.435
  573TCM     h1 3031   1.010   0.763   2.641
  573TCM    cl3 3032   1.078   0.991   2.617
  574TCM     c1 3033   2.565   4.154   4.986
  574TCM    cl1 3034   2.513   4.106   5.150
  574TCM    cl2 3035   2.425   4.223   4.898
  574TCM     h1 3036   2.645   4.229   4.992
  574TCM    cl3 3037   2.624   4.010   4.897
  575TCM     c1 3038   2.210   4.257   1.341
  575TCM    cl1 3039   2.358   4.337   1.279
  575TCM    cl2 3040   2.066   4.341   1.276
  575TCM     h1 3041   2.209   4.152   1.310
  575TCM    cl3 3042   2.208   4.267   1.520
  576TCM     c1 3043   0.907   2.504   4.778
  576TCM    cl1 3044   0.758   2.570   4.852
  576TCM    cl2 3045   0.904   2.531   4.601
  576TCM     h1 3046   0.994   2.555   4.821
  576TCM    cl3 3047   0.917   2.328   4.811
  577TCM     c1 3048   1.501   1.135   1.609
  577TCM    cl1 3049   1.391   1.250   1.693
  577TCM    cl2 3050   1.404   1.003   1.536
  577TCM     h1 3051   1.556   1.188   1.531
  577TCM    cl3 3052   1.615   1.066   1.729
  578TCM     c1 3053   0.404   3.359   3.480
  578TCM    cl1 3054   0.329   3.520   3.503
  578TCM    cl2 3055   0.436   3.334   3.305
  578TCM     h1 3056   0.497   3.353   3.536
  578TCM    cl3 3057   0.291   3.232   3.537
  579TCM     c1 3058   0.118   0.328   3.623
  579TCM    cl1 3059   0.178   0.475   3.542
  579TCM    cl2 3060   0.213   0.185   3.569
  579TCM     h1 3061   0.127   0.339   3.732
  579TCM    cl3 3062  -0.054   0.302   3.580
  580TCM     c1 3063   4.206  -0.001   3.094
  580TCM    cl1 3064   4.345   0.110   3.116
  580TCM    cl2 3065   4.267  -0.165   3.054
  580TCM     h1 3066   4.148  -0.006   3.187
  580TCM    cl3 3067   4.101   0.058   2.962
  581TCM     c1 3068   3.279   3.820   1.257
  581TCM    cl1 3069   3.355   3.968   1.325
  581TCM    cl2 3070   3.403   3.690   1.247
  581TCM     h1 3071   3.198   3.787   1.322
  581TCM    cl3 3072   3.215   3.856   1.094
  582TCM     c1 3073   4.626   4.167   3.439
  582TCM    cl1 3074   4.610   4.250   3.598
  582TCM    cl2 3075   4.770   4.060   3.443
  582TCM     h1 3076   4.536   4.108   3.420
  582TCM    cl3 3077   4.647   4.290   3.310
  583TCM     c1 3078   0.954   3.716   0.140
  583TCM    cl1 3079   1.047   3.837   0.234
  583TCM    cl2 3080   0.891   3.589   0.250
  583TCM     h1 3081   0.871   3.765   0.089
  583TCM    cl3 3082   1.063   3.640   0.019
  584TCM     c1 3083   0.339   2.286   4.925
  584TCM    cl1 3084   0.263   2.131   4.875
  584TCM    cl2 3085   0.491   2.309   4.833
  584TCM     h1 3086   0.271   2.369   4.905
  584TCM    cl3 3087   0.375   2.278   5.100
  585TCM     c1 3088   0.881   4.977   2.540
  585TCM    cl1 3089   0.824   5.147   2.540
  585TCM    cl2 3090   1.003   4.956   2.410
  585TCM     h1 3091   0.926   4.953   2.637
  585TCM    cl3 3092   0.742   4.868   2.509
  586TCM     c1 3093   0.924   1.123   3.957
  586TCM    cl1 3094   0.972   1.165   4.125
  586TCM    cl2 3095   0.818   1.251   3.891
  586TCM     h1 3096   1.013   1.113   3.894
  586TCM    cl3 3097   0.835   0.967   3.959
  587TCM     c1 3098   3.787   2.734   3.815
  587TCM    cl1 3099   3.799   2.744   3.636
  587TCM    cl2 3100   3.692   2.589   3.860
  587TCM     h1 3101   3.887   2.727   3.858
  587TCM    cl3 3102   3.705   2.881   3.877
  588TCM     c1 3103   2.016   3.393   4.864
  588TCM    cl1 3104   2.086   3.400   4.699
  588TCM    cl2 3105   1.909   3.249   4.876
  588TCM     h1 3106   2.097   3.384   4.937
  588TCM    cl3 3107   1.922   3.541   4.897
  589TCM     c1 3108   1.172   0.353   0.535
  589TCM    cl1 3109   1.240   0.377   0.371
  589TCM    cl2 3110   1.229   0.486   0.642
  589TCM     h1 3111   1.063   0.354   0.531
  589TCM    cl3 3112   1.229   0.196   0.600
  590TCM     c1 3113   0.384   3.535   0.298
  590TCM    cl1 3114   0.469   3.533   0.140
  590TCM    cl2 3115   0.500   3.490   0.428
  590TCM     h1 3116   0.344   3.635   0.317
  590TCM    cl3 3117   0.250   3.416   0.296
  591TCM     c1 3118   3.034   1.487   3.036
  591TCM    cl1 3119   3.014   1.650   2.964
  591TCM    cl2 3120   3.168   1.401   2.953
  591TCM     h1 3121   3.058   1.497   3.143
  591TCM    cl3 3122   2.882   1.395   3.017
  592TCM     c1 3123   2.654   4.644   0.077
  592TCM    cl1 3124   2.538   4.778   0.045
  592TCM    cl2 3125   2.765   4.628  -0.063
  592TCM     h1 3126   2.712   4.666   0.168
  592TCM    cl3 3127   2.564   4.491   0.099
  593TCM     c1 3128   3.499   3.461   3.099
  593TCM    cl1 3129   3.643   3.382   3.173
  593TCM    cl2 3130   3.550   3.553   2.954
  593TCM     h1 3131   3.426   3.384   3.070
  593TCM    cl3 3132   3.425   3.574   3.217
  594TCM     c1 3133   3.011   3.769   0.795
  594TCM    cl1 3134   2.951   3.929   0.849
  594TCM    cl2 3135   2.958   3.740   0.626
  594TCM     h1 3136   3.120   3.767   0.799
  594TCM    cl3 3137   2.943   3.640   0.900
  595TCM     c1 3138   4.477   4.349   0.936
  595TCM    cl1 3139   4.554   4.465   0.822
  595TCM    cl2 3140   4.604   4.259   1.024
  595TCM     h1 3141   4.414   4.403   1.007
  595TCM    cl3 3142   4.376   4.233   0.843
  596TCM     c1 3143   4.462   2.828   4.964
  596TCM    cl1 3144   4.421   2.883   5.129
  596TCM    cl2 3145   4.635   2.865   4.932
  596TCM     h1 3146   4.445   2.721   4.954
  596TCM    cl3 3147   4.360   2.916   4.845
  597TCM     c1 3148   2.913   0.873   2.092
  597TCM    cl1 3149   2.932   0.719   2.183
  597TCM    cl2 3150   2.739   0.913   2.079
  597TCM     h1 3151   2.966   0.952   2.146
  597TCM    cl3 3152   2.984   0.854   1.929
  598TCM     c1 3153   3.248   4.372   2.661
  598TCM    cl1 3154   3.135   4.509   2.680
  598TCM    cl2 3155   3.239   4.264   2.804
  598TCM     h1 3156   3.223   4.315   2.571
  598TCM    cl3 3157   3.415   4.437   2.646
  599TCM     c1 3158   3.737   3.425   3.573
  599TCM    cl1 3159   3.793   3.462   3.740
  599TCM    cl2 3160   3.873   3.448   3.458
  599TCM     h1 3161   3.703   3.321   3.569
  599TCM    cl3 3162   3.602   3.534   3.531
  600TCM     c1 3163   4.164   0.210   4.910
  600TCM    cl1 3164   4.305   0.268   5.006
  600TCM    cl2 3165   4.216   0.180   4.741
  600TCM     h1 3166   4.126   0.117   4.954
  600TCM    cl3 3167   4.035   0.335   4.913
  601TCM     c1 3168   3.225   2.986   3.183
  601TCM    cl1 3169   3.175   3.022   3.352
  601TCM    cl2 3170   3.297   3.134   3.111
  601TCM     h1 3171   3.299   2.905   3.182
  601TCM    cl3 3172   3.081   2.937   3.088
  602TCM     c1 3173   0.434   2.449   1.679
  602TCM    cl1 3174   0.549   2.531   1.788
  602TCM    cl2 3175   0.525   2.362   1.551
  602TCM     h1 3176   0.374   2.377   1.736
  602TCM    cl3 3177   0.324   2.569   1.603
  603TCM     c1 3178   0.141   4.193   2.896
  603TCM    cl1 3179   0.178   4.339   2.799
  603TCM    cl2 3180   0.294   4.118   2.952
  603TCM     h1 3181   0.080   4.221   2.983
  603TCM    cl3 3182   0.053   4.073   2.796
  604TCM     c1 3183   2.230   3.262   1.283
  604TCM    cl1 3184   2.301   3.125   1.375
  604TCM    cl2 3185   2.348   3.397   1.276
  604TCM     h1 3186   2.205   3.229   1.182
  604TCM    cl3 3187   2.081   3.318   1.366
  605TCM     c1 3188   0.153   1.324   2.304
  605TCM    cl1 3189   0.242   1.421   2.183
  605TCM    cl2 3190   0.261   1.199   2.374
  605TCM     h1 3191   0.116   1.389   2.383
  605TCM    cl3 3192   0.014   1.243   2.224
  606TCM     c1 3193   4.049   3.057   3.664
  606TCM    cl1 3194   3.877   3.105   3.643
  606TCM    cl2 3195   4.097   2.946   3.531
  606TCM     h1 3196   4.112   3.147   3.662
  606TCM    cl3 3197   4.069   2.974   3.822
  607TCM     c1 3198   1.411   3.281   3.473
  607TCM    cl1 3199   1.354   3.163   3.352
  607TCM    cl2 3200   1.440   3.196   3.628
  607TCM     h1 3201   1.504   3.328   3.439
  607TCM    cl3 3202   1.286   3.407   3.498
  608TCM     c1 3203   2.495   3.076   2.327
  608TCM    cl1 3204   2.317   3.077   2.345
  608TCM    cl2 3205   2.572   3.042   2.486
  608TCM     h1 3206   2.524   2.999   2.255
  608TCM    cl3 3207   2.550   3.236   2.268
  609TCM     c1 3208   1.792   2.742   4.945
  609TCM    cl1 3209   1.796   2.585   5.032
  609TCM    cl2 3210   1.783   2.711   4.768
  609TCM     h1 3211   1.704   2.799   4.977
  609TCM    cl3 3212   1.941   2.835   4.982
  610TCM     c1 3213   4.763   0.659   2.553
  610TCM    cl1 3214   4.880   0.580   2.442
  610TCM    cl2 3215   4.669   0.781   2.462
  610TCM     h1 3216   4.696   0.584   2.595
  610TCM    cl3 3217   4.854   0.740   2.685
  611TCM     c1 3218   4.875   1.917   1.093
  611TCM    cl1 3219   4.853   1.873   0.921
  611TCM    cl2 3220   4.961   2.074   1.104
  611TCM     h1 3221   4.777   1.926   1.142
  611TCM    cl3 3222   4.971   1.790   1.175
  612TCM     c1 3223   3.100   3.836   0.279
  612TCM    cl1 3224   3.018   3.677   0.258
  612TCM    cl2 3225   3.174   3.884   0.123
  612TCM     h1 3226   3.028   3.911   0.310
  612TCM    cl3 3227   3.229   3.821   0.402
  613TCM     c1 3228   2.717   4.007   3.341
  613TCM    cl1 3229   2.859   4.069   3.431
  613TCM    cl2 3230   2.772   3.923   3.192
  613TCM     h1 3231   2.662   3.937   3.404
  613TCM    cl3 3232   2.610   4.143   3.295
  614TCM     c1 3233   2.158   4.525   1.774
  614TCM    cl1 3234   2.298   4.449   1.856
  614TCM    cl2 3235   2.157   4.701   1.809
  614TCM     h1 3236   2.166   4.509   1.666
  614TCM    cl3 3237   2.005   4.452   1.833
  615TCM     c1 3238   1.528   1.837   0.335
  615TCM    cl1 3239   1.446   1.735   0.457
  615TCM    cl2 3240   1.706   1.818   0.348
  615TCM     h1 3241   1.496   1.807   0.234
  615TCM    cl3 3242   1.485   2.009   0.363
  616TCM     c1 3243   0.337   2.779   4.313
  616TCM    cl1 3244   0.275   2.898   4.193
  616TCM    cl2 3245   0.291   2.613   4.262
  616TCM     h1 3246   0.446   2.787   4.319
  616TCM    cl3 3247   0.265   2.814   4.473
  617TCM     c1 3248   0.479   1.521   4.442
  617TCM    cl1 3249   0.582   1.664   4.406
  617TCM    cl2 3250   0.496   1.478   4.616
  617TCM     h1 3251   0.375   1.544   4.420
  617TCM    cl3 3252   0.532   1.382   4.342
  618TCM     c1 3253   0.090   2.602   0.370
  618TCM    cl1 3254  -0.085   2.639   0.360
  618TCM    cl2 3255   0.119   2.432   0.321
  618TCM     h1 3256   0.145   2.669   0.304
  618TCM    cl3 3257   0.146   2.624   0.539
  619TCM     c1 3258   2.104   4.157   4.794
  619TCM    cl1 3259   2.190   4.066   4.665
  619TCM    cl2 3260   2.086   4.054   4.940
  619TCM     h1 3261   2.161   4.247   4.819
  619TCM    cl3 3262   1.942   4.205   4.734
  620TCM     c1 3263   2.875   3.151   2.894
  620TCM    cl1 3264   2.721   3.234   2.852
  620TCM    cl2 3265   2.999   3.274   2.936
  620TCM     h1 3266   2.859   3.085   2.980
  620TCM    cl3 3267   2.931   3.055   2.754
  621TCM     c1 3268   2.821   4.173   0.325
  621TCM    cl1 3269   2.922   4.121   0.464
  621TCM    cl2 3270   2.865   4.079   0.179
  621TCM     h1 3271   2.716   4.156   0.349
  621TCM    cl3 3272   2.848   4.348   0.292
  622TCM     c1 3273   3.284   4.296   0.383
  622TCM    cl1 3274   3.202   4.217   0.245
  622TCM    cl2 3275   3.301   4.177   0.517
  622TCM     h1 3276   3.382   4.331   0.352
  622TCM    cl3 3277   3.186   4.435   0.440
  623TCM     c1 3278   2.488   3.577   0.793
  623TCM    cl1 3279   2.605   3.701   0.736
  623TCM    cl2 3280   2.538   3.519   0.955
  623TCM     h1 3281   2.388   3.621   0.798
  623TCM    cl3 3282   2.488   3.438   0.679
  624TCM     c1 3283   4.123   3.737   3.518
  624TCM    cl1 3284   4.196   3.650   3.379
  624TCM    cl2 3285   4.224   3.879   3.560
  624TCM     h1 3286   4.022   3.769   3.492
  624TCM    cl3 3287   4.117   3.627   3.660
  625TCM     c1 3288   0.118   4.640   4.078
  625TCM    cl1 3289  -0.018   4.646   3.961
  625TCM    cl2 3290   0.090   4.762   4.207
  625TCM     h1 3291   0.124   4.541   4.122
  625TCM    cl3 3292   0.272   4.679   3.994
  626TCM     c1 3293   4.109   0.247   3.403
  626TCM    cl1 3294   4.197   0.108   3.473
  626TCM    cl2 3295   4.047   0.352   3.534
  626TCM     h1 3296   4.176   0.305   3.338
  626TCM    cl3 3297   3.971   0.186   3.307
  627TCM     c1 3298   2.310   2.585   3.183
  627TCM    cl1 3299   2.422   2.722   3.158
  627TCM    cl2 3300   2.196   2.624   3.317
  627TCM     h1 3301   2.253   2.566   3.092
  627TCM    cl3 3302   2.404   2.438   3.228
  628TCM     c1 3303   0.019   4.619   2.436
  628TCM    cl1 3304  -0.034   4.769   2.353
  628TCM    cl2 3305  -0.008   4.635   2.613
  628TCM     h1 3306  -0.039   4.534   2.398
  628TCM    cl3 3307   0.193   4.591   2.405
  629TCM     c1 3308   2.374   0.713   1.846
  629TCM    cl1 3309   2.205   0.697   1.903
  629TCM    cl2 3310   2.486   0.645   1.969
  629TCM     h1 3311   2.386   0.660   1.751
  629TCM    cl3 3312   2.411   0.888   1.823
  630TCM     c1 3313   0.331   2.291   2.676
  630TCM    cl1 3314   0.167   2.346   2.725
  630TCM    cl2 3315   0.320   2.200   2.523
  630TCM     h1 3316   0.396   2.378   2.663
  630TCM    cl3 3317   0.399   2.185   2.804
  631TCM     c1 3318   1.207   3.966   0.861
  631TCM    cl1 3319   1.229   4.020   0.691
  631TCM    cl2 3320   1.285   3.807   0.885
  631TCM     h1 3321   1.252   4.039   0.928
  631TCM    cl3 3322   1.031   3.952   0.897
  632TCM     c1 3323   2.488   3.136   0.361
  632TCM    cl1 3324   2.523   3.260   0.235
  632TCM    cl2 3325   2.345   3.186   0.456
  632TCM     h1 3326   2.469   3.040   0.313
  632TCM    cl3 3327   2.629   3.122   0.471
  633TCM     c1 3328   0.660   0.575   0.190
  633TCM    cl1 3329   0.666   0.441   0.071
  633TCM    cl2 3330   0.667   0.508   0.356
  633TCM     h1 3331   0.745   0.642   0.174
  633TCM    cl3 3332   0.507   0.667   0.168
  634TCM     c1 3333   0.138   2.211   3.069
  634TCM    cl1 3334   0.280   2.225   3.178
  634TCM    cl2 3335   0.035   2.357   3.088
  634TCM     h1 3336   0.172   2.203   2.966
  634TCM    cl3 3337   0.045   2.065   3.113
  635TCM     c1 3338   2.259   0.770   3.262
  635TCM    cl1 3339   2.333   0.878   3.139
  635TCM    cl2 3340   2.210   0.867   3.405
  635TCM     h1 3341   2.171   0.721   3.220
  635TCM    cl3 3342   2.379   0.646   3.312
  636TCM     c1 3343   0.229   0.896   1.998
  636TCM    cl1 3344   0.297   1.062   1.997
  636TCM    cl2 3345   0.133   0.870   1.848
  636TCM     h1 3346   0.310   0.823   2.001
  636TCM    cl3 3347   0.123   0.875   2.141
  637TCM     c1 3348   4.027   0.382   4.439
  637TCM    cl1 3349   4.168   0.325   4.344
  637TCM    cl2 3350   4.083   0.486   4.575
  637TCM     h1 3351   3.960   0.440   4.375
  637TCM    cl3 3352   3.939   0.240   4.504
  638TCM     c1 3353   0.078   0.882   4.860
  638TCM    cl1 3354   0.113   0.812   4.699
  638TCM    cl2 3355   0.163   0.786   4.987
  638TCM     h1 3356   0.113   0.985   4.864
  638TCM    cl3 3357  -0.099   0.878   4.890
  639TCM     c1 3358   2.839   0.100   1.334
  639TCM    cl1 3359   2.778   0.269   1.347
  639TCM    cl2 3360   2.723   0.003   1.237
  639TCM     h1 3361   2.937   0.100   1.285
  639TCM    cl3 3362   2.855   0.030   1.498
  640TCM     c1 3363   1.931   1.294   3.675
  640TCM    cl1 3364   1.918   1.287   3.853
  640TCM    cl2 3365   1.768   1.283   3.601
  640TCM     h1 3366   1.978   1.388   3.646
  640TCM    cl3 3367   2.032   1.156   3.618
   5.00000   5.00000   5.00000
