Gromacs Runs On Most of All Computer Systems
 3367
    1MOP     C1    1   2.673   0.064   2.112
    1MOP     O2    2   2.643   0.191   2.056
    1MOP     C3    3   2.614   0.293   2.143
    1MOP     C4    4   2.609   0.285   2.282
    1MOP     C5    5   2.576   0.398   2.357
    1MOP     C6    6   2.548   0.522   2.296
    1MOP     C7    7   2.508   0.637   2.381
    1MOP     C8    8   2.592   0.685   2.484
    1MOP     C9    9   2.555   0.794   2.563
    1MOP    C10   10   2.641   0.829   2.679
    1MOP    O11   11   2.744   0.771   2.706
    1MOP    C12   12   2.433   0.860   2.539
    1MOP    C13   13   2.349   0.814   2.437
    1MOP    C14   14   2.385   0.703   2.361
    1MOP    C15   15   2.557   0.531   2.154
    1MOP    C16   16   2.539   0.659   2.082
    1MOP    C17   17   2.442   0.673   1.981
    1MOP    C18   18   2.417   0.799   1.922
    1MOP    C19   19   2.312   0.814   1.812
    1MOP    C20   20   2.192   0.896   1.859
    1MOP    N21   21   2.362   0.862   1.683
    1MOP    C22   22   2.488   0.908   1.971
    1MOP    C23   23   2.589   0.895   2.062
    1MOP    C24   24   2.616   0.771   2.117
    1MOP    C25   25   2.589   0.415   2.080
    1MOP    H26   26   2.588   0.024   2.168
    1MOP    H27   27   2.763   0.069   2.175
    1MOP    H28   28   2.694  -0.005   2.029
    1MOP    H29   29   2.630   0.192   2.334
    1MOP    H30   30   2.571   0.389   2.465
    1MOP    H31   31   2.686   0.635   2.502
    1MOP    H32   32   2.401   0.944   2.599
    1MOP    H33   33   2.254   0.864   2.419
    1MOP    H34   34   2.317   0.669   2.283
    1MOP    H35   35   2.384   0.587   1.950
    1MOP    H36   36   2.274   0.713   1.789
    1MOP    H37   37   2.115   0.898   1.781
    1MOP    H38   38   2.147   0.856   1.950
    1MOP    H39   39   2.220   1.001   1.878
    1MOP    H40   40   2.305   0.827   1.607
    1MOP    H41   41   2.465   1.009   1.935
    1MOP    H42   42   2.648   0.982   2.092
    1MOP    H43   43   2.696   0.761   2.191
    1MOP    H44   44   2.595   0.421   1.972
    2MOP    C45   45   2.547   1.921   1.502
    2MOP    O46   46   2.414   1.873   1.519
    2MOP    C47   47   2.396   1.738   1.518
    2MOP    C48   48   2.495   1.641   1.503
    2MOP    C49   49   2.461   1.505   1.501
    2MOP    C50   50   2.329   1.462   1.515
    2MOP    C51   51   2.298   1.317   1.505
    2MOP    C52   52   2.363   1.222   1.587
    2MOP    C53   53   2.333   1.084   1.578
    2MOP    C54   54   2.409   0.992   1.666
    2MOP    O55   55   2.511   1.035   1.719
    2MOP    C56   56   2.235   1.041   1.488
    2MOP    C57   57   2.171   1.133   1.406
    2MOP    C58   58   2.204   1.268   1.413
    2MOP    C59   59   2.227   1.561   1.535
    2MOP    C60   60   2.087   1.524   1.561
    2MOP    C61   61   1.982   1.571   1.480
    2MOP    C62   62   1.850   1.526   1.498
    2MOP    C63   63   1.737   1.576   1.409
    2MOP    C64   64   1.682   1.465   1.319
    2MOP    N65   65   1.629   1.648   1.478
    2MOP    C66   66   1.827   1.430   1.597
    2MOP    C67   67   1.927   1.391   1.685
    2MOP    C68   68   2.056   1.439   1.669
    2MOP    C69   69   2.264   1.696   1.535
    2MOP    H70   70   2.587   1.892   1.403
    2MOP    H71   71   2.612   1.887   1.583
    2MOP    H72   72   2.543   2.030   1.505
    2MOP    H73   73   2.600   1.668   1.491
    2MOP    H74   74   2.541   1.431   1.488
    2MOP    H75   75   2.435   1.256   1.662
    2MOP    H76   76   2.205   0.937   1.480
    2MOP    H77   77   2.095   1.099   1.336
    2MOP    H78   78   2.154   1.337   1.346
    2MOP    H79   79   2.005   1.640   1.399
    2MOP    H80   80   1.780   1.652   1.343
    2MOP    H81   81   1.610   1.507   1.248
    2MOP    H82   82   1.761   1.416   1.262
    2MOP    H83   83   1.630   1.388   1.377
    2MOP    H84   84   1.587   1.715   1.415
    2MOP    H85   85   1.729   1.385   1.610
    2MOP    H86   86   1.904   1.323   1.766
    2MOP    H87   87   2.134   1.406   1.736
    2MOP    H88   88   2.188   1.773   1.550
    3MOP    C89   89   0.832   1.113   1.994
    3MOP    O90   90   0.841   1.109   1.852
    3MOP    C91   91   0.929   1.196   1.792
    3MOP    C92   92   1.010   1.287   1.856
    3MOP    C93   93   1.094   1.372   1.781
    3MOP    C94   94   1.097   1.367   1.641
    3MOP    C95   95   1.181   1.465   1.567
    3MOP    C96   96   1.319   1.480   1.594
    3MOP    C97   97   1.398   1.574   1.526
    3MOP    C98   98   1.542   1.583   1.564
    3MOP    O99   99   1.576   1.534   1.670
    3MOP   C100  100   1.341   1.649   1.423
    3MOP   C101  101   1.206   1.635   1.394
    3MOP   C102  102   1.127   1.546   1.467
    3MOP   C103  103   1.017   1.268   1.575
    3MOP   C104  104   1.023   1.246   1.429
    3MOP   C105  105   0.908   1.258   1.349
    3MOP   C106  106   0.916   1.251   1.209
    3MOP   C107  107   0.794   1.261   1.123
    3MOP   C108  108   0.791   1.389   1.039
    3MOP   N109  109   0.764   1.144   1.038
    3MOP   C110  110   1.045   1.238   1.152
    3MOP   C111  111   1.156   1.215   1.230
    3MOP   C112  112   1.146   1.218   1.369
    3MOP   C113  113   0.933   1.185   1.653
    3MOP   H114  114   0.798   1.211   2.029
    3MOP   H115  115   0.928   1.086   2.040
    3MOP   H116  116   0.758   1.039   2.024
    3MOP   H117  117   1.012   1.298   1.964
    3MOP   H118  118   1.155   1.444   1.834
    3MOP   H119  119   1.365   1.417   1.671
    3MOP   H120  120   1.399   1.720   1.364
    3MOP   H121  121   1.161   1.694   1.314
    3MOP   H122  122   1.021   1.539   1.442
    3MOP   H123  123   0.813   1.274   1.396
    3MOP   H124  124   0.707   1.266   1.189
    3MOP   H125  125   0.693   1.398   0.987
    3MOP   H126  126   0.804   1.478   1.102
    3MOP   H127  127   0.868   1.390   0.962
    3MOP   H128  128   0.665   1.138   1.022
    3MOP   H129  129   1.060   1.241   1.044
    3MOP   H130  130   1.253   1.197   1.183
    3MOP   H131  131   1.234   1.204   1.430
    3MOP   H132  132   0.871   1.111   1.604
    4MOP   C133  133   1.274   0.975   0.091
    4MOP   O134  134   1.183   1.083   0.106
    4MOP   C135  135   1.105   1.085   0.219
    4MOP   C136  136   1.106   0.991   0.321
    4MOP   C137  137   1.019   1.004   0.430
    4MOP   C138  138   0.929   1.113   0.440
    4MOP   C139  139   0.834   1.117   0.553
    4MOP   C140  140   0.878   1.114   0.687
    4MOP   C141  141   0.787   1.117   0.794
    4MOP   C142  142   0.845   1.108   0.932
    4MOP   O143  143   0.960   1.069   0.943
    4MOP   C144  144   0.651   1.130   0.768
    4MOP   C145  145   0.605   1.133   0.637
    4MOP   C146  146   0.695   1.124   0.531
    4MOP   C147  147   0.930   1.210   0.336
    4MOP   C148  148   0.846   1.332   0.341
    4MOP   C149  149   0.752   1.360   0.239
    4MOP   C150  150   0.666   1.471   0.247
    4MOP   C151  151   0.564   1.501   0.137
    4MOP   C152  152   0.422   1.458   0.176
    4MOP   N153  153   0.573   1.639   0.090
    4MOP   C154  154   0.679   1.554   0.360
    4MOP   C155  155   0.773   1.529   0.459
    4MOP   C156  156   0.856   1.420   0.450
    4MOP   C157  157   1.018   1.194   0.227
    4MOP   H158  158   1.221   0.878   0.088
    4MOP   H159  159   1.349   0.976   0.170
    4MOP   H160  160   1.324   0.988  -0.005
    4MOP   H161  161   1.173   0.906   0.319
    4MOP   H162  162   1.022   0.929   0.508
    4MOP   H163  163   0.985   1.110   0.706
    4MOP   H164  164   0.577   1.137   0.847
    4MOP   H165  165   0.498   1.142   0.617
    4MOP   H166  166   0.656   1.125   0.430
    4MOP   H167  167   0.744   1.292   0.154
    4MOP   H168  168   0.591   1.441   0.050
    4MOP   H169  169   0.352   1.484   0.098
    4MOP   H170  170   0.417   1.350   0.195
    4MOP   H171  171   0.389   1.505   0.269
    4MOP   H172  172   0.571   1.654  -0.010
    4MOP   H173  173   0.616   1.640   0.371
    4MOP   H174  174   0.780   1.597   0.544
    4MOP   H175  175   0.929   1.401   0.528
    4MOP   H176  176   1.019   1.268   0.148
    5CAP   C177  177   2.606   0.908   2.895
    5CAP   O178  178   2.578   0.921   2.756
    5CAP   H179  179   2.545   0.826   2.933
    5CAP   H180  180   2.574   1.000   2.945
    5CAP   H181  181   2.711   0.890   2.916
    6CAP   C182  182   0.249   1.743   0.386
    6CAP   C183  183   0.371   1.819   0.332
    6CAP   C184  184   0.326   1.945   0.262
    6CAP   C185  185   0.467   1.847   0.448
    6CAP   O186  186   0.432   1.724   0.240
    6CAP   C187  187   0.535   1.751   0.160
    6CAP   O188  188   0.590   1.860   0.145
    6CAP   H189  189   0.194   1.804   0.459
    6CAP   H190  190   0.180   1.715   0.305
    6CAP   H191  191   0.279   1.650   0.434
    6CAP   H192  192   0.264   1.921   0.174
    6CAP   H193  193   0.410   2.005   0.225
    6CAP   H194  194   0.267   2.008   0.329
    6CAP   H195  195   0.494   1.755   0.499
    6CAP   H196  196   0.558   1.895   0.414
    6CAP   H197  197   0.419   1.912   0.524
    1TCM     c1  198   4.336   0.335   2.675
    1TCM    cl1  199   4.461   0.360   2.551
    1TCM    cl2  200   4.240   0.484   2.693
    1TCM     h1  201   4.270   0.252   2.645
    1TCM    cl3  202   4.414   0.296   2.830
    1TCM     c1  203   1.692   2.480   4.345
    1TCM    cl1  204   1.601   2.328   4.354
    1TCM    cl2  205   1.625   2.597   4.462
    1TCM     h1  206   1.799   2.461   4.369
    1TCM    cl3  207   1.679   2.548   4.181
    1TCM     c1  208   1.831   2.322   1.032
    1TCM    cl1  209   1.786   2.151   1.044
    1TCM    cl2  210   1.849   2.368   0.861
    1TCM     h1  211   1.752   2.385   1.078
    1TCM    cl3  212   1.985   2.350   1.117
    1TCM     c1  213   2.696   0.604   3.780
    1TCM    cl1  214   2.771   0.730   3.679
    1TCM    cl2  215   2.821   0.521   3.875
    1TCM     h1  216   2.622   0.650   3.848
    1TCM    cl3  217   2.614   0.486   3.674
    1TCM     c1  218   2.261   1.800   2.933
    1TCM    cl1  219   2.352   1.893   3.054
    1TCM    cl2  220   2.192   1.655   3.009
    1TCM     h1  221   2.179   1.863   2.892
    1TCM    cl3  222   2.370   1.752   2.800
    1TCM     c1  223   5.035   1.289   0.560
    1TCM    cl1  224   5.172   1.234   0.462
    1TCM    cl2  225   5.082   1.290   0.732
    1TCM     h1  226   5.006   1.392   0.530
    1TCM    cl3  227   4.897   1.180   0.537
    1TCM     c1  228   2.980   0.865   2.655
    1TCM    cl1  229   2.840   0.888   2.547
    1TCM    cl2  230   3.078   0.729   2.596
    1TCM     h1  231   3.041   0.957   2.655
    1TCM    cl3  232   2.922   0.831   2.819
    1TCM     c1  233   3.859   4.074   4.703
    1TCM    cl1  234   3.788   4.062   4.540
    1TCM    cl2  235   3.747   4.164   4.809
    1TCM     h1  236   3.875   3.973   4.744
    1TCM    cl3  237   4.014   4.160   4.694
    1TCM     c1  238   0.757   4.171   3.458
    1TCM    cl1  239   0.840   4.024   3.403
    1TCM    cl2  240   0.805   4.308   3.355
    1TCM     h1  241   0.647   4.157   3.451
    1TCM    cl3  242   0.802   4.205   3.626
    1TCM     c1  243   3.885   1.313   2.575
    1TCM    cl1  244   3.864   1.376   2.740
    1TCM    cl2  245   4.059   1.307   2.536
    1TCM     h1  246   3.842   1.212   2.568
    1TCM    cl3  247   3.803   1.421   2.459
    1TCM     c1  248   4.912   3.092   4.465
    1TCM    cl1  249   4.735   3.075   4.466
    1TCM    cl2  250   4.985   2.937   4.415
    1TCM     h1  251   4.941   3.171   4.393
    1TCM    cl3  252   4.969   3.135   4.627
    1TCM     c1  253   0.560   2.836   1.448
    1TCM    cl1  254   0.542   3.010   1.477
    1TCM    cl2  255   0.399   2.760   1.440
    1TCM     h1  256   0.613   2.819   1.352
    1TCM    cl3  257   0.653   2.763   1.581
    1TCM     c1  258   1.540   1.902   2.402
    1TCM    cl1  259   1.397   2.002   2.369
    1TCM    cl2  260   1.586   1.814   2.254
    1TCM     h1  261   1.624   1.967   2.434
    1TCM    cl3  262   1.503   1.786   2.531
    1TCM     c1  263   4.262   4.438   0.717
    1TCM    cl1  264   4.426   4.411   0.781
    1TCM    cl2  265   4.220   4.306   0.606
    1TCM     h1  266   4.190   4.441   0.801
    1TCM    cl3  267   4.259   4.593   0.630
    1TCM     c1  268   2.577   5.244   3.757
    1TCM    cl1  269   2.605   5.204   3.928
    1TCM    cl2  270   2.713   5.340   3.696
    1TCM     h1  271   2.568   5.150   3.699
    1TCM    cl3  272   2.427   5.338   3.743
    1TCM     c1  273   2.853   1.888   3.039
    1TCM    cl1  274   3.017   1.832   3.000
    1TCM    cl2  275   2.776   1.774   3.151
    1TCM     h1  276   2.858   1.989   3.086
    1TCM    cl3  277   2.757   1.898   2.889
    1TCM     c1  278   0.683   3.115   5.017
    1TCM    cl1  279   0.813   3.200   4.931
    1TCM    cl2  280   0.693   2.940   4.984
    1TCM     h1  281   0.693   3.132   5.127
    1TCM    cl3  282   0.525   3.176   4.962
    1TCM     c1  283   4.596   3.537   2.149
    1TCM    cl1  284   4.539   3.649   2.023
    1TCM    cl2  285   4.457   3.457   2.224
    1TCM     h1  286   4.663   3.462   2.103
    1TCM    cl3  287   4.685   3.628   2.273
    1TCM     c1  288   5.258   3.648   4.914
    1TCM    cl1  289   5.089   3.695   4.886
    1TCM    cl2  290   5.340   3.776   5.006
    1TCM     h1  291   5.261   3.553   4.971
    1TCM    cl3  292   5.340   3.626   4.758
    1TCM     c1  293   2.182   1.182   3.482
    1TCM    cl1  294   2.335   1.246   3.546
    1TCM    cl2  295   2.209   1.118   3.318
    1TCM     h1  296   2.145   1.101   3.547
    1TCM    cl3  297   2.062   1.313   3.475
    1TCM     c1  298   1.346   1.964   2.725
    1TCM    cl1  299   1.483   2.042   2.643
    1TCM    cl2  300   1.217   1.932   2.607
    1TCM     h1  301   1.379   1.868   2.770
    1TCM    cl3  302   1.284   2.072   2.852
    1TCM     c1  303   3.131   4.696   4.841
    1TCM    cl1  304   3.218   4.758   4.699
    1TCM    cl2  305   3.176   4.527   4.870
    1TCM     h1  306   3.158   4.757   4.930
    1TCM    cl3  307   2.956   4.707   4.812
    1TCM     c1  308   2.704   2.469   2.026
    1TCM    cl1  309   2.622   2.438   1.871
    1TCM    cl2  310   2.658   2.630   2.086
    1TCM     h1  311   2.673   2.392   2.100
    1TCM    cl3  312   2.880   2.461   2.003
    1TCM     c1  313   2.730   2.027   5.067
    1TCM    cl1  314   2.832   1.934   5.178
    1TCM    cl2  315   2.826   2.078   4.926
    1TCM     h1  316   2.645   1.964   5.032
    1TCM    cl3  317   2.667   2.171   5.150
    1TCM     c1  318   4.919   0.243   1.294
    1TCM    cl1  319   4.765   0.204   1.214
    1TCM    cl2  320   4.891   0.369   1.417
    1TCM     h1  321   4.960   0.152   1.343
    1TCM    cl3  322   5.035   0.303   1.174
    1TCM     c1  323   3.034   0.851   1.258
    1TCM    cl1  324   3.110   0.693   1.232
    1TCM    cl2  325   2.862   0.843   1.212
    1TCM     h1  326   3.041   0.879   1.366
    1TCM    cl3  327   3.116   0.974   1.160
    1TCM     c1  328   3.961   3.292   1.867
    1TCM    cl1  329   3.978   3.119   1.831
    1TCM    cl2  330   3.967   3.317   2.043
    1TCM     h1  331   4.044   3.348   1.818
    1TCM    cl3  332   3.805   3.351   1.804
    1TCM     c1  333   1.087   0.929   3.675
    1TCM    cl1  334   0.962   0.814   3.621
    1TCM    cl2  335   1.016   1.041   3.794
    1TCM     h1  336   1.170   0.873   3.723
    1TCM    cl3  337   1.148   1.020   3.536
    1TCM     c1  338   2.826   3.659   3.457
    1TCM    cl1  339   2.952   3.725   3.351
    1TCM    cl2  340   2.841   3.731   3.619
    1TCM     h1  341   2.726   3.682   3.416
    1TCM    cl3  342   2.846   3.483   3.469
    1TCM     c1  343   0.327   0.905   2.468
    1TCM    cl1  344   0.469   0.841   2.554
    1TCM    cl2  345   0.359   0.902   2.293
    1TCM     h1  346   0.239   0.841   2.490
    1TCM    cl3  347   0.296   1.071   2.520
    1TCM     c1  348   4.936   2.060   2.121
    1TCM    cl1  349   4.781   2.075   2.207
    1TCM    cl2  350   4.905   2.021   1.950
    1TCM     h1  351   4.991   2.156   2.127
    1TCM    cl3  352   5.032   1.931   2.195
    1TCM     c1  353   1.251   3.570   2.284
    1TCM    cl1  354   1.360   3.579   2.423
    1TCM    cl2  355   1.261   3.722   2.191
    1TCM     h1  356   1.280   3.485   2.219
    1TCM    cl3  357   1.084   3.547   2.341
    1TCM     c1  358   3.870   1.439   2.058
    1TCM    cl1  359   3.822   1.270   2.029
    1TCM    cl2  360   3.756   1.547   1.974
    1TCM     h1  361   3.868   1.460   2.167
    1TCM    cl3  362   4.034   1.465   1.995
    1TCM     c1  363   0.856   2.246   2.105
    1TCM    cl1  364   0.704   2.268   2.014
    1TCM    cl2  365   0.856   2.353   2.247
    1TCM     h1  366   0.864   2.140   2.139
    1TCM    cl3  367   0.994   2.286   2.001
    1TCM     c1  368   2.246   3.759   1.816
    1TCM    cl1  369   2.247   3.909   1.911
    1TCM    cl2  370   2.116   3.767   1.695
    1TCM     h1  371   2.343   3.747   1.765
    1TCM    cl3  372   2.217   3.621   1.924
    1TCM     c1  373   1.032   4.553   1.180
    1TCM    cl1  374   1.205   4.518   1.158
    1TCM    cl2  375   0.955   4.571   1.021
    1TCM     h1  376   0.984   4.470   1.235
    1TCM    cl3  377   1.013   4.704   1.273
    1TCM     c1  378   0.242   1.278   4.798
    1TCM    cl1  379   0.116   1.215   4.689
    1TCM    cl2  380   0.320   1.142   4.882
    1TCM     h1  381   0.318   1.333   4.739
    1TCM    cl3  382   0.168   1.387   4.917
    1TCM     c1  383   1.334   3.882   4.786
    1TCM    cl1  384   1.171   3.953   4.800
    1TCM    cl2  385   1.456   4.009   4.811
    1TCM     h1  386   1.346   3.803   4.862
    1TCM    cl3  387   1.354   3.812   4.624
    1TCM     c1  388   0.311   0.753   4.846
    1TCM    cl1  389   0.449   0.866   4.854
    1TCM    cl2  390   0.332   0.625   4.967
    1TCM     h1  391   0.217   0.809   4.867
    1TCM    cl3  392   0.303   0.681   4.684
    1TCM     c1  393   1.099   4.309   2.242
    1TCM    cl1  394   1.077   4.245   2.406
    1TCM    cl2  395   1.088   4.176   2.124
    1TCM     h1  396   1.020   4.384   2.221
    1TCM    cl3  397   1.258   4.386   2.230
    1TCM     c1  398   3.698   4.120   0.181
    1TCM    cl1  399   3.597   4.086   0.324
    1TCM    cl2  400   3.659   4.281   0.117
    1TCM     h1  401   3.805   4.117   0.210
    1TCM    cl3  402   3.667   3.997   0.056
    1TCM     c1  403   1.522   1.692   1.813
    1TCM    cl1  404   1.673   1.735   1.730
    1TCM    cl2  405   1.488   1.812   1.940
    1TCM     h1  406   1.438   1.691   1.740
    1TCM    cl3  407   1.539   1.531   1.887
    1TCM     c1  408   3.475   0.649   2.291
    1TCM    cl1  409   3.616   0.689   2.391
    1TCM    cl2  410   3.527   0.622   2.123
    1TCM     h1  411   3.427   0.557   2.330
    1TCM    cl3  412   3.359   0.784   2.296
    1TCM     c1  413   0.172   0.660   2.010
    1TCM    cl1  414   0.187   0.514   1.909
    1TCM    cl2  415   0.261   0.636   2.162
    1TCM     h1  416   0.213   0.747   1.956
    1TCM    cl3  417   0.000   0.689   2.047
    1TCM     c1  418   3.877   2.592   1.130
    1TCM    cl1  419   3.744   2.636   1.238
    1TCM    cl2  420   3.957   2.739   1.071
    1TCM     h1  421   3.951   2.529   1.185
    1TCM    cl3  422   3.813   2.500   0.992
    1TCM     c1  423   4.943   1.743   3.392
    1TCM    cl1  424   4.964   1.605   3.501
    1TCM    cl2  425   5.040   1.718   3.244
    1TCM     h1  426   4.836   1.753   3.365
    1TCM    cl3  427   4.997   1.892   3.473
    1TCM     c1  428   2.032   3.582   2.405
    1TCM    cl1  429   1.947   3.498   2.273
    1TCM    cl2  430   2.091   3.739   2.347
    1TCM     h1  431   1.962   3.597   2.490
    1TCM    cl3  432   2.169   3.483   2.459
    1TCM     c1  433   0.578   0.242   4.872
    1TCM    cl1  434   0.467   0.325   4.761
    1TCM    cl2  435   0.492   0.197   5.021
    1TCM     h1  436   0.618   0.151   4.824
    1TCM    cl3  437   0.713   0.351   4.913
    1TCM     c1  438   4.497   0.596   4.513
    1TCM    cl1  439   4.484   0.429   4.574
    1TCM    cl2  440   4.466   0.597   4.338
    1TCM     h1  441   4.423   0.660   4.564
    1TCM    cl3  442   4.661   0.658   4.545
    1TCM     c1  443   3.846   4.684   1.618
    1TCM    cl1  444   3.743   4.679   1.763
    1TCM    cl2  445   3.810   4.543   1.515
    1TCM     h1  446   3.825   4.777   1.562
    1TCM    cl3  447   4.017   4.680   1.667
    1TCM     c1  448   4.489   4.581   4.901
    1TCM    cl1  449   4.620   4.508   4.806
    1TCM    cl2  450   4.531   4.578   5.073
    1TCM     h1  451   4.474   4.687   4.868
    1TCM    cl3  452   4.338   4.490   4.875
    1TCM     c1  453   4.009   4.308   1.786
    1TCM    cl1  454   3.997   4.477   1.840
    1TCM    cl2  455   4.081   4.303   1.623
    1TCM     h1  456   4.073   4.251   1.856
    1TCM    cl3  457   3.847   4.235   1.781
    1TCM     c1  458   3.834   4.059   3.393
    1TCM    cl1  459   3.678   4.071   3.478
    1TCM    cl2  460   3.938   3.943   3.478
    1TCM     h1  461   3.816   4.025   3.289
    1TCM    cl3  462   3.912   4.219   3.391
    1TCM     c1  463   0.379   0.918   3.403
    1TCM    cl1  464   0.269   0.832   3.293
    1TCM    cl2  465   0.510   0.808   3.453
    1TCM     h1  466   0.423   1.006   3.351
    1TCM    cl3  467   0.289   0.973   3.546
    1TCM     c1  468   3.048   2.657   2.848
    1TCM    cl1  469   2.930   2.523   2.844
    1TCM    cl2  470   3.129   2.660   3.006
    1TCM     h1  471   3.124   2.641   2.768
    1TCM    cl3  472   2.964   2.811   2.821
    1TCM     c1  473   3.688   2.360   2.435
    1TCM    cl1  474   3.562   2.485   2.427
    1TCM    cl2  475   3.702   2.301   2.602
    1TCM     h1  476   3.660   2.275   2.368
    1TCM    cl3  477   3.843   2.428   2.383
    1TCM     c1  478   4.991   0.695   2.439
    1TCM    cl1  479   5.083   0.683   2.591
    1TCM    cl2  480   4.833   0.769   2.472
    1TCM     h1  481   5.047   0.757   2.367
    1TCM    cl3  482   4.967   0.532   2.372
    1TCM     c1  483   0.351   0.155   3.081
    1TCM    cl1  484   0.506   0.230   3.036
    1TCM    cl2  485   0.229   0.282   3.108
    1TCM     h1  486   0.317   0.088   3.000
    1TCM    cl3  487   0.372   0.061   3.230
    1TCM     c1  488   5.114   3.662   1.341
    1TCM    cl1  489   5.082   3.691   1.513
    1TCM    cl2  490   5.170   3.813   1.265
    1TCM     h1  491   5.193   3.585   1.331
    1TCM    cl3  492   4.965   3.608   1.261
    1TCM     c1  493   1.535   3.299   0.926
    1TCM    cl1  494   1.662   3.220   0.830
    1TCM    cl2  495   1.375   3.255   0.860
    1TCM     h1  496   1.542   3.266   1.031
    1TCM    cl3  497   1.556   3.475   0.918
    1TCM     c1  498   2.738   4.424   4.182
    1TCM    cl1  499   2.607   4.315   4.132
    1TCM    cl2  500   2.731   4.448   4.358
    1TCM     h1  501   2.836   4.380   4.154
    1TCM    cl3  502   2.719   4.582   4.101
    1TCM     c1  503   4.663   1.679   0.373
    1TCM    cl1  504   4.651   1.853   0.409
    1TCM    cl2  505   4.756   1.655   0.224
    1TCM     h1  506   4.713   1.628   0.458
    1TCM    cl3  507   4.499   1.613   0.352
    1TCM     c1  508   2.931   4.781   4.492
    1TCM    cl1  509   2.913   4.886   4.635
    1TCM    cl2  510   2.817   4.833   4.366
    1TCM     h1  511   3.035   4.788   4.454
    1TCM    cl3  512   2.897   4.612   4.538
    1TCM     c1  513   3.815   4.129   2.050
    1TCM    cl1  514   3.641   4.098   2.068
    1TCM    cl2  515   3.841   4.300   2.010
    1TCM     h1  516   3.866   4.105   2.146
    1TCM    cl3  517   3.881   4.027   1.920
    1TCM     c1  518   0.896   0.199   3.446
    1TCM    cl1  519   0.999   0.094   3.347
    1TCM    cl2  520   0.731   0.199   3.380
    1TCM     h1  521   0.894   0.162   3.550
    1TCM    cl3  522   0.960   0.365   3.443
    1TCM     c1  523   0.957   1.382   2.648
    1TCM    cl1  524   0.861   1.404   2.500
    1TCM    cl2  525   0.855   1.307   2.774
    1TCM     h1  526   1.043   1.316   2.627
    1TCM    cl3  527   1.015   1.540   2.706
    1TCM     c1  528   1.254   0.726   2.334
    1TCM    cl1  529   1.198   0.831   2.466
    1TCM    cl2  530   1.255   0.818   2.182
    1TCM     h1  531   1.357   0.690   2.356
    1TCM    cl3  532   1.144   0.587   2.319
    1TCM     c1  533   2.921   1.209   3.920
    1TCM    cl1  534   2.861   1.374   3.889
    1TCM    cl2  535   3.037   1.212   4.054
    1TCM     h1  536   2.835   1.143   3.946
    1TCM    cl3  537   3.000   1.147   3.774
    1TCM     c1  538   4.619   5.117   1.285
    1TCM    cl1  539   4.545   5.138   1.124
    1TCM    cl2  540   4.653   5.277   1.355
    1TCM     h1  541   4.549   5.062   1.351
    1TCM    cl3  542   4.770   5.026   1.269
    1TCM     c1  543   0.535   4.433   0.334
    1TCM    cl1  544   0.396   4.444   0.445
    1TCM    cl2  545   0.479   4.454   0.167
    1TCM     h1  546   0.608   4.513   0.359
    1TCM    cl3  547   0.612   4.275   0.352
    1TCM     c1  548   2.381   3.425   2.226
    1TCM    cl1  549   2.497   3.559   2.217
    1TCM    cl2  550   2.353   3.380   2.396
    1TCM     h1  551   2.284   3.456   2.180
    1TCM    cl3  552   2.446   3.285   2.138
    1TCM     c1  553   0.402   3.175   1.116
    1TCM    cl1  554   0.267   3.284   1.154
    1TCM    cl2  555   0.409   3.149   0.941
    1TCM     h1  556   0.497   3.220   1.151
    1TCM    cl3  557   0.376   3.019   1.198
    1TCM     c1  558   3.362   3.638   1.043
    1TCM    cl1  559   3.476   3.757   0.978
    1TCM    cl2  560   3.388   3.620   1.219
    1TCM     h1  561   3.259   3.671   1.025
    1TCM    cl3  562   3.389   3.481   0.964
    1TCM     c1  563   3.245   3.072   5.001
    1TCM    cl1  564   3.364   3.184   4.929
    1TCM    cl2  565   3.171   3.148   5.143
    1TCM     h1  566   3.167   3.049   4.926
    1TCM    cl3  567   3.328   2.922   5.049
    1TCM     c1  568   1.089   1.385   2.194
    1TCM    cl1  569   1.061   1.493   2.332
    1TCM    cl2  570   1.110   1.482   2.046
    1TCM     h1  571   1.180   1.325   2.212
    1TCM    cl3  572   0.949   1.277   2.174
    1TCM     c1  573   1.970   2.660   4.787
    1TCM    cl1  574   2.126   2.662   4.701
    1TCM    cl2  575   1.993   2.722   4.952
    1TCM     h1  576   1.897   2.725   4.733
    1TCM    cl3  577   1.908   2.494   4.794
    1TCM     c1  578   2.228   4.118   4.131
    1TCM    cl1  579   2.353   4.023   4.214
    1TCM    cl2  580   2.093   4.148   4.242
    1TCM     h1  581   2.271   4.214   4.097
    1TCM    cl3  582   2.170   4.027   3.990
    1TCM     c1  583   0.792   0.346   0.173
    1TCM    cl1  584   0.765   0.313  -0.000
    1TCM    cl2  585   0.954   0.289   0.219
    1TCM     h1  586   0.785   0.456   0.191
    1TCM    cl3  587   0.669   0.262   0.269
    1TCM     c1  588   1.130   0.619   2.968
    1TCM    cl1  589   1.170   0.685   2.807
    1TCM    cl2  590   1.230   0.701   3.091
    1TCM     h1  591   1.023   0.636   2.990
    1TCM    cl3  592   1.164   0.445   2.970
    1TCM     c1  593   4.490   3.264   3.310
    1TCM    cl1  594   4.623   3.378   3.279
    1TCM    cl2  595   4.515   3.185   3.467
    1TCM     h1  596   4.394   3.318   3.310
    1TCM    cl3  597   4.488   3.141   3.181
    1TCM     c1  598   3.235   4.826   5.236
    1TCM    cl1  599   3.364   4.761   5.340
    1TCM    cl2  600   3.146   4.951   5.324
    1TCM     h1  601   3.280   4.869   5.144
    1TCM    cl3  602   3.124   4.694   5.190
    1TCM     c1  603   1.775   0.108   3.611
    1TCM    cl1  604   1.718   0.184   3.461
    1TCM    cl2  605   1.787   0.230   3.740
    1TCM     h1  606   1.704   0.028   3.642
    1TCM    cl3  607   1.935   0.035   3.583
    1TCM     c1  608   0.984   0.797   4.062
    1TCM    cl1  609   0.974   0.673   4.188
    1TCM    cl2  610   0.870   0.928   4.098
    1TCM     h1  611   1.088   0.838   4.059
    1TCM    cl3  612   0.945   0.725   3.905
    1TCM     c1  613   2.055   5.139   2.412
    1TCM    cl1  614   1.962   5.061   2.281
    1TCM    cl2  615   1.942   5.200   2.535
    1TCM     h1  616   2.123   5.064   2.458
    1TCM    cl3  617   2.149   5.273   2.345
    1TCM     c1  618   1.247   1.318   2.466
    1TCM    cl1  619   1.328   1.162   2.495
    1TCM    cl2  620   1.245   1.412   2.617
    1TCM     h1  621   1.302   1.375   2.388
    1TCM    cl3  622   1.080   1.289   2.411
    1TCM     c1  623   1.626   1.642   0.185
    1TCM    cl1  624   1.507   1.719   0.292
    1TCM    cl2  625   1.600   1.696   0.018
    1TCM     h1  626   1.729   1.670   0.217
    1TCM    cl3  627   1.607   1.465   0.193
    1TCM     c1  628   4.231   3.109   2.492
    1TCM    cl1  629   4.288   2.974   2.391
    1TCM    cl2  630   4.071   3.162   2.434
    1TCM     h1  631   4.222   3.075   2.597
    1TCM    cl3  632   4.346   3.244   2.481
    1TCM     c1  633   2.889   4.787   1.413
    1TCM    cl1  634   2.789   4.796   1.267
    1TCM    cl2  635   3.051   4.853   1.378
    1TCM     h1  636   2.842   4.845   1.494
    1TCM    cl3  637   2.905   4.617   1.464
    1TCM     c1  638   4.321   2.467   3.327
    1TCM    cl1  639   4.490   2.522   3.319
    1TCM    cl2  640   4.245   2.530   3.474
    1TCM     h1  641   4.266   2.504   3.238
    1TCM    cl3  642   4.318   2.289   3.330
    1TCM     c1  643   4.330   0.798   3.663
    1TCM    cl1  644   4.176   0.886   3.682
    1TCM    cl2  645   4.321   0.693   3.520
    1TCM     h1  646   4.413   0.870   3.651
    1TCM    cl3  647   4.359   0.698   3.807
    1TCM     c1  648   4.258   1.013   3.368
    1TCM    cl1  649   4.318   1.155   3.456
    1TCM    cl2  650   4.136   0.929   3.467
    1TCM     h1  651   4.212   1.046   3.272
    1TCM    cl3  652   4.393   0.903   3.334
    1TCM     c1  653   2.134   0.287   3.315
    1TCM    cl1  654   2.071   0.220   3.467
    1TCM    cl2  655   2.066   0.195   3.178
    1TCM     h1  656   2.105   0.393   3.306
    1TCM    cl3  657   2.311   0.273   3.313
    1TCM     c1  658   0.534   4.473   3.667
    1TCM    cl1  659   0.423   4.536   3.543
    1TCM    cl2  660   0.441   4.391   3.794
    1TCM     h1  661   0.604   4.402   3.620
    1TCM    cl3  662   0.625   4.608   3.738
    1TCM     c1  663   0.275   1.932   4.810
    1TCM    cl1  664   0.237   2.105   4.830
    1TCM    cl2  665   0.389   1.912   4.675
    1TCM     h1  666   0.322   1.894   4.904
    1TCM    cl3  667   0.126   1.841   4.776
    1TCM     c1  668   1.080   5.148   5.215
    1TCM    cl1  669   1.024   5.304   5.280
    1TCM    cl2  670   0.984   5.016   5.287
    1TCM     h1  671   1.067   5.147   5.105
    1TCM    cl3  672   1.251   5.124   5.256
    1TCM     c1  673   0.867   2.167   1.207
    1TCM    cl1  674   0.760   2.259   1.315
    1TCM    cl2  675   0.777   2.120   1.061
    1TCM     h1  676   0.954   2.230   1.178
    1TCM    cl3  677   0.924   2.021   1.291
    1TCM     c1  678   4.827   1.654   2.367
    1TCM    cl1  679   4.972   1.617   2.463
    1TCM    cl2  680   4.854   1.604   2.199
    1TCM     h1  681   4.740   1.599   2.409
    1TCM    cl3  682   4.796   1.829   2.373
    1TCM     c1  683   2.938   1.345   2.593
    1TCM    cl1  684   2.862   1.193   2.544
    1TCM    cl2  685   3.034   1.319   2.740
    1TCM     h1  686   3.004   1.381   2.512
    1TCM    cl3  687   2.812   1.467   2.625
    1TCM     c1  688   3.234   0.524   2.656
    1TCM    cl1  689   3.277   0.695   2.681
    1TCM    cl2  690   3.310   0.424   2.782
    1TCM     h1  691   3.124   0.512   2.661
    1TCM    cl3  692   3.292   0.472   2.496
    1TCM     c1  693   2.408   4.711   1.070
    1TCM    cl1  694   2.278   4.603   1.126
    1TCM    cl2  695   2.356   4.796   0.923
    1TCM     h1  696   2.431   4.785   1.150
    1TCM    cl3  697   2.553   4.615   1.035
    1TCM     c1  698   0.568   3.438   4.085
    1TCM    cl1  699   0.442   3.441   4.210
    1TCM    cl2  700   0.570   3.592   3.997
    1TCM     h1  701   0.667   3.421   4.132
    1TCM    cl3  702   0.535   3.305   3.970
    1TCM     c1  703   2.489   0.097   1.691
    1TCM    cl1  704   2.625   0.148   1.793
    1TCM    cl2  705   2.545   0.075   1.524
    1TCM     h1  706   2.447   0.002   1.729
    1TCM    cl3  707   2.363   0.222   1.695
    1TCM     c1  708   2.661   4.941   3.692
    1TCM    cl1  709   2.522   4.931   3.803
    1TCM    cl2  710   2.607   5.007   3.536
    1TCM     h1  711   2.738   5.007   3.735
    1TCM    cl3  712   2.728   4.778   3.667
    1TCM     c1  713   3.616   3.589   4.844
    1TCM    cl1  714   3.521   3.529   4.981
    1TCM    cl2  715   3.698   3.453   4.763
    1TCM     h1  716   3.549   3.640   4.771
    1TCM    cl3  717   3.738   3.704   4.902
    1TCM     c1  718   1.775   0.296   4.686
    1TCM    cl1  719   1.858   0.156   4.757
    1TCM    cl2  720   1.599   0.274   4.700
    1TCM     h1  721   1.805   0.389   4.741
    1TCM    cl3  722   1.819   0.312   4.515
    1TCM     c1  723   3.428   3.777   1.905
    1TCM    cl1  724   3.310   3.904   1.945
    1TCM    cl2  725   3.529   3.832   1.769
    1TCM     h1  726   3.491   3.757   1.993
    1TCM    cl3  727   3.341   3.629   1.858
    1TCM     c1  728   0.200   2.790   2.232
    1TCM    cl1  729   0.046   2.714   2.277
    1TCM    cl2  730   0.259   2.721   2.079
    1TCM     h1  731   0.185   2.900   2.220
    1TCM    cl3  732   0.320   2.761   2.361
    1TCM     c1  733   1.853   0.934   3.563
    1TCM    cl1  734   1.932   0.794   3.641
    1TCM    cl2  735   1.885   1.080   3.659
    1TCM     h1  736   1.894   0.947   3.461
    1TCM    cl3  737   1.678   0.906   3.555
    1TCM     c1  738   1.443   4.579   3.682
    1TCM    cl1  739   1.402   4.427   3.766
    1TCM    cl2  740   1.368   4.580   3.521
    1TCM     h1  741   1.405   4.665   3.741
    1TCM    cl3  742   1.620   4.592   3.666
    1TCM     c1  743   1.328   3.232   3.553
    1TCM    cl1  744   1.257   3.168   3.403
    1TCM    cl2  745   1.301   3.118   3.686
    1TCM     h1  746   1.437   3.247   3.539
    1TCM    cl3  747   1.252   3.388   3.592
    1TCM     c1  748   4.870   2.353   2.497
    1TCM    cl1  749   4.727   2.458   2.512
    1TCM    cl2  750   4.904   2.323   2.325
    1TCM     h1  751   4.957   2.402   2.544
    1TCM    cl3  752   4.838   2.198   2.579
    1TCM     c1  753   2.440   1.472   1.891
    1TCM    cl1  754   2.506   1.604   1.990
    1TCM    cl2  755   2.489   1.495   1.721
    1TCM     h1  756   2.480   1.375   1.928
    1TCM    cl3  757   2.263   1.471   1.902
    1TCM     c1  758   1.330   0.170   3.709
    1TCM    cl1  759   1.261   0.263   3.574
    1TCM    cl2  760   1.217   0.175   3.847
    1TCM     h1  761   1.345   0.065   3.678
    1TCM    cl3  762   1.485   0.242   3.757
    1TCM     c1  763   4.331   3.799   2.773
    1TCM    cl1  764   4.211   3.764   2.900
    1TCM    cl2  765   4.381   3.970   2.785
    1TCM     h1  766   4.419   3.734   2.786
    1TCM    cl3  767   4.258   3.770   2.613
    1TCM     c1  768   4.448   1.310   4.040
    1TCM    cl1  769   4.279   1.263   4.069
    1TCM    cl2  770   4.521   1.199   3.922
    1TCM     h1  771   4.451   1.413   4.000
    1TCM    cl3  772   4.539   1.303   4.193
    1TCM     c1  773   3.856   2.014   2.603
    1TCM    cl1  774   3.980   2.000   2.476
    1TCM    cl2  775   3.929   2.084   2.749
    1TCM     h1  776   3.774   2.079   2.567
    1TCM    cl3  777   3.791   1.852   2.640
    1TCM     c1  778   4.958   4.073   3.350
    1TCM    cl1  779   5.130   4.102   3.316
    1TCM    cl2  780   4.899   4.195   3.465
    1TCM     h1  781   4.900   4.080   3.256
    1TCM    cl3  782   4.938   3.911   3.420
    1TCM     c1  783   0.236   1.804   0.710
    1TCM    cl1  784   0.170   1.662   0.626
    1TCM    cl2  785   0.414   1.795   0.710
    1TCM     h1  786   0.204   1.896   0.659
    1TCM    cl3  787   0.177   1.806   0.878
    1TCM     c1  788   3.647   1.799   3.587
    1TCM    cl1  789   3.486   1.785   3.660
    1TCM    cl2  790   3.631   1.838   3.414
    1TCM     h1  791   3.704   1.880   3.637
    1TCM    cl3  792   3.734   1.645   3.605
    1TCM     c1  793   1.440   2.423   3.003
    1TCM    cl1  794   1.388   2.352   3.157
    1TCM    cl2  795   1.396   2.595   3.000
    1TCM     h1  796   1.550   2.412   2.992
    1TCM    cl3  797   1.359   2.339   2.868
    1TCM     c1  798   0.318   3.064   0.175
    1TCM    cl1  799   0.180   2.986   0.256
    1TCM    cl2  800   0.273   3.105   0.008
    1TCM     h1  801   0.345   3.156   0.229
    1TCM    cl3  802   0.457   2.953   0.173
    1TCM     c1  803   0.836   4.651   5.018
    1TCM    cl1  804   0.771   4.621   4.856
    1TCM    cl2  805   0.810   4.508   5.121
    1TCM     h1  806   0.945   4.672   5.011
    1TCM    cl3  807   0.754   4.791   5.090
    1TCM     c1  808   4.683   4.852   0.176
    1TCM    cl1  809   4.645   5.002   0.089
    1TCM    cl2  810   4.696   4.887   0.350
    1TCM     h1  811   4.603   4.778   0.159
    1TCM    cl3  812   4.838   4.787   0.118
    1TCM     c1  813   0.606   1.631   0.869
    1TCM    cl1  814   0.508   1.514   0.961
    1TCM    cl2  815   0.629   1.571   0.703
    1TCM     h1  816   0.554   1.729   0.866
    1TCM    cl3  817   0.764   1.650   0.948
    1TCM     c1  818   2.382   0.416   3.559
    1TCM    cl1  819   2.435   0.583   3.588
    1TCM    cl2  820   2.370   0.330   3.714
    1TCM     h1  821   2.283   0.417   3.509
    1TCM    cl3  822   2.500   0.333   3.454
    1TCM     c1  823   0.556   1.454   3.380
    1TCM    cl1  824   0.706   1.463   3.476
    1TCM    cl2  825   0.541   1.599   3.280
    1TCM     h1  826   0.560   1.364   3.315
    1TCM    cl3  827   0.417   1.442   3.490
    1TCM     c1  828   0.316   4.467   5.048
    1TCM    cl1  829   0.341   4.635   5.100
    1TCM    cl2  830   0.472   4.394   5.004
    1TCM     h1  831   0.270   4.409   5.131
    1TCM    cl3  832   0.207   4.464   4.907
    1TCM     c1  833   4.302   1.418   2.216
    1TCM    cl1  834   4.392   1.549   2.296
    1TCM    cl2  835   4.339   1.418   2.042
    1TCM     h1  836   4.331   1.321   2.260
    1TCM    cl3  837   4.127   1.444   2.239
    1TCM     c1  838   1.506   0.650   1.812
    1TCM    cl1  839   1.551   0.480   1.783
    1TCM    cl2  840   1.507   0.682   1.987
    1TCM     h1  841   1.580   0.716   1.762
    1TCM    cl3  842   1.344   0.680   1.746
    1TCM     c1  843   0.121   5.134   3.496
    1TCM    cl1  844   0.199   5.293   3.501
    1TCM    cl2  845   0.010   5.118   3.634
    1TCM     h1  846   0.064   5.123   3.402
    1TCM    cl3  847   0.246   5.007   3.506
    1TCM     c1  848   2.041   1.827   3.535
    1TCM    cl1  849   2.087   1.713   3.664
    1TCM    cl2  850   1.996   1.736   3.389
    1TCM     h1  851   1.954   1.888   3.569
    1TCM    cl3  852   2.178   1.934   3.499
    1TCM     c1  853   2.656   3.595   3.835
    1TCM    cl1  854   2.480   3.573   3.857
    1TCM    cl2  855   2.743   3.467   3.923
    1TCM     h1  856   2.680   3.589   3.727
    1TCM    cl3  857   2.704   3.754   3.898
    1TCM     c1  858   0.848   1.378   3.723
    1TCM    cl1  859   1.025   1.383   3.702
    1TCM    cl2  860   0.809   1.359   3.895
    1TCM     h1  861   0.804   1.473   3.685
    1TCM    cl3  862   0.782   1.242   3.631
    1TCM     c1  863   0.795   4.422   1.939
    1TCM    cl1  864   0.777   4.345   1.780
    1TCM    cl2  865   0.668   4.364   2.049
    1TCM     h1  866   0.895   4.397   1.982
    1TCM    cl3  867   0.782   4.599   1.922
    1TCM     c1  868   3.740   4.149   2.611
    1TCM    cl1  869   3.693   4.110   2.444
    1TCM    cl2  870   3.596   4.201   2.702
    1TCM     h1  871   3.784   4.060   2.659
    1TCM    cl3  872   3.860   4.281   2.609
    1TCM     c1  873   0.637   2.549   3.555
    1TCM    cl1  874   0.739   2.538   3.410
    1TCM    cl2  875   0.561   2.391   3.586
    1TCM     h1  876   0.700   2.577   3.642
    1TCM    cl3  877   0.510   2.671   3.530
    1TCM     c1  878   1.748   3.833   1.720
    1TCM    cl1  879   1.878   3.943   1.667
    1TCM    cl2  880   1.802   3.741   1.862
    1TCM     h1  881   1.658   3.892   1.746
    1TCM    cl3  882   1.710   3.720   1.588
    1TCM     c1  883   1.610   1.499   2.622
    1TCM    cl1  884   1.699   1.354   2.572
    1TCM    cl2  885   1.718   1.607   2.713
    1TCM     h1  886   1.572   1.553   2.532
    1TCM    cl3  887   1.473   1.452   2.724
    1TCM     c1  888   3.954   0.137   4.041
    1TCM    cl1  889   3.846   0.056   4.158
    1TCM    cl2  890   3.895   0.107   3.876
    1TCM     h1  891   3.954   0.246   4.061
    1TCM    cl3  892   4.119   0.072   4.058
    1TCM     c1  893   0.158   4.559   4.590
    1TCM    cl1  894   0.279   4.554   4.460
    1TCM    cl2  895   0.236   4.608   4.742
    1TCM     h1  896   0.079   4.631   4.564
    1TCM    cl3  897   0.086   4.397   4.610
    1TCM     c1  898   1.117   1.758   0.864
    1TCM    cl1  899   1.090   1.588   0.907
    1TCM    cl2  900   1.096   1.860   1.009
    1TCM     h1  901   1.220   1.771   0.825
    1TCM    cl3  902   0.999   1.808   0.740
    1TCM     c1  903   2.711   2.794   0.425
    1TCM    cl1  904   2.725   2.940   0.324
    1TCM    cl2  905   2.697   2.651   0.320
    1TCM     h1  906   2.801   2.784   0.489
    1TCM    cl3  907   2.567   2.806   0.528
    1TCM     c1  908   3.667   1.389   3.455
    1TCM    cl1  909   3.506   1.439   3.396
    1TCM    cl2  910   3.719   1.244   3.368
    1TCM     h1  911   3.739   1.471   3.438
    1TCM    cl3  912   3.657   1.354   3.629
    1TCM     c1  913   3.500   0.327   1.963
    1TCM    cl1  914   3.356   0.236   1.913
    1TCM    cl2  915   3.586   0.385   1.819
    1TCM     h1  916   3.469   0.414   2.025
    1TCM    cl3  917   3.607   0.221   2.057
    1TCM     c1  918   4.137   2.672   1.526
    1TCM    cl1  919   4.129   2.812   1.635
    1TCM    cl2  920   4.249   2.706   1.392
    1TCM     h1  921   4.173   2.583   1.583
    1TCM    cl3  922   3.975   2.638   1.461
    1TCM     c1  923   2.976   4.250   2.644
    1TCM    cl1  924   2.937   4.345   2.789
    1TCM    cl2  925   2.951   4.077   2.678
    1TCM     h1  926   2.909   4.281   2.560
    1TCM    cl3  927   3.145   4.278   2.598
    1TCM     c1  928   4.460   1.112   2.767
    1TCM    cl1  929   4.349   0.991   2.699
    1TCM    cl2  930   4.493   1.073   2.937
    1TCM     h1  931   4.555   1.112   2.709
    1TCM    cl3  932   4.385   1.273   2.757
    1TCM     c1  933   0.996   2.055   5.049
    1TCM    cl1  934   1.048   2.209   5.122
    1TCM    cl2  935   0.947   1.943   5.178
    1TCM     h1  936   0.911   2.074   4.981
    1TCM    cl3  937   1.131   1.985   4.958
    1TCM     c1  938   2.295   4.638   4.622
    1TCM    cl1  939   2.273   4.789   4.530
    1TCM    cl2  940   2.257   4.668   4.793
    1TCM     h1  941   2.227   4.560   4.581
    1TCM    cl3  942   2.463   4.583   4.607
    1TCM     c1  943   2.354   5.194   5.058
    1TCM    cl1  944   2.499   5.225   4.959
    1TCM    cl2  945   2.398   5.092   5.197
    1TCM     h1  946   2.313   5.290   5.095
    1TCM    cl3  947   2.232   5.111   4.959
    1TCM     c1  948   1.995   1.272   3.028
    1TCM    cl1  949   1.974   1.435   3.097
    1TCM    cl2  950   2.155   1.260   2.953
    1TCM     h1  951   1.986   1.196   3.109
    1TCM    cl3  952   1.869   1.244   2.905
    1TCM     c1  953   1.923   2.222   5.145
    1TCM    cl1  954   2.024   2.271   5.283
    1TCM    cl2  955   1.907   2.045   5.144
    1TCM     h1  956   1.822   2.268   5.155
    1TCM    cl3  957   1.998   2.276   4.994
    1TCM     c1  958   2.249   1.921   1.720
    1TCM    cl1  959   2.247   2.054   1.838
    1TCM    cl2  960   2.231   1.988   1.556
    1TCM     h1  961   2.345   1.866   1.727
    1TCM    cl3  962   2.114   1.810   1.753
    1TCM     c1  963   2.679   2.643   0.875
    1TCM    cl1  964   2.836   2.683   0.947
    1TCM    cl2  965   2.702   2.597   0.705
    1TCM     h1  966   2.634   2.558   0.931
    1TCM    cl3  967   2.571   2.784   0.885
    1TCM     c1  968   3.054   1.869   1.999
    1TCM    cl1  969   3.128   1.756   2.115
    1TCM    cl2  970   3.183   1.964   1.919
    1TCM     h1  971   2.998   1.812   1.923
    1TCM    cl3  972   2.944   1.979   2.085
    1TCM     c1  973   4.665   4.644   2.707
    1TCM    cl1  974   4.530   4.724   2.792
    1TCM    cl2  975   4.664   4.692   2.536
    1TCM     h1  976   4.761   4.674   2.754
    1TCM    cl3  977   4.646   4.468   2.720
    1TCM     c1  978   3.250   0.404   4.842
    1TCM    cl1  979   3.156   0.306   4.957
    1TCM    cl2  980   3.193   0.371   4.677
    1TCM     h1  981   3.237   0.512   4.865
    1TCM    cl3  982   3.422   0.361   4.855
    1TCM     c1  983   3.970   3.984   4.127
    1TCM    cl1  984   4.117   4.016   4.220
    1TCM    cl2  985   3.909   4.136   4.058
    1TCM     h1  986   3.993   3.913   4.045
    1TCM    cl3  987   3.846   3.914   4.233
    1TCM     c1  988   2.034   1.412   2.649
    1TCM    cl1  989   2.025   1.245   2.710
    1TCM    cl2  990   2.198   1.476   2.677
    1TCM     h1  991   2.012   1.413   2.540
    1TCM    cl3  992   1.916   1.513   2.735
    1TCM     c1  993   2.674   0.473   0.146
    1TCM    cl1  994   2.513   0.540   0.113
    1TCM    cl2  995   2.709   0.484   0.320
    1TCM     h1  996   2.677   0.367   0.114
    1TCM    cl3  997   2.796   0.566   0.056
    1TCM     c1  998   2.422   2.932   2.038
    1TCM    cl1  999   2.569   2.834   2.018
    1TCM    cl2 1000   2.410   2.987   2.206
    1TCM     h1 1001   2.428   3.020   1.970
    1TCM    cl3 1002   2.280   2.834   1.997
    1TCM     c1 1003   1.095   4.932   1.609
    1TCM    cl1 1004   1.000   5.042   1.712
    1TCM    cl2 1005   1.093   4.992   1.442
    1TCM     h1 1006   1.200   4.929   1.646
    1TCM    cl3 1007   1.025   4.769   1.615
    1TCM     c1 1008   4.235   2.311   4.424
    1TCM    cl1 1009   4.333   2.447   4.485
    1TCM    cl2 1010   4.343   2.179   4.372
    1TCM     h1 1011   4.168   2.274   4.504
    1TCM    cl3 1012   4.138   2.365   4.285
    1TCM     c1 1013   1.908   5.080   5.180
    1TCM    cl1 1014   1.765   5.167   5.240
    1TCM    cl2 1015   1.857   4.926   5.107
    1TCM     h1 1016   1.960   5.141   5.104
    1TCM    cl3 1017   2.019   5.047   5.316
    1TCM     c1 1018   3.494   3.866   0.561
    1TCM    cl1 1019   3.440   3.930   0.405
    1TCM    cl2 1020   3.493   3.996   0.683
    1TCM     h1 1021   3.426   3.784   0.593
    1TCM    cl3 1022   3.660   3.802   0.545
    1TCM     c1 1023   4.662   0.990   1.077
    1TCM    cl1 1024   4.580   0.860   0.988
    1TCM    cl2 1025   4.745   0.922   1.219
    1TCM     h1 1026   4.737   1.039   1.010
    1TCM    cl3 1027   4.543   1.111   1.130
    1TCM     c1 1028   4.214   1.849   1.953
    1TCM    cl1 1029   4.263   1.922   2.108
    1TCM    cl2 1030   4.162   1.977   1.841
    1TCM     h1 1031   4.300   1.795   1.909
    1TCM    cl3 1032   4.080   1.736   1.980
    1TCM     c1 1033   4.119   1.727   0.140
    1TCM    cl1 1034   4.233   1.766   0.009
    1TCM    cl2 1035   4.065   1.878   0.218
    1TCM     h1 1036   4.031   1.674   0.098
    1TCM    cl3 1037   4.199   1.624   0.260
    1TCM     c1 1038   4.002   3.255   4.815
    1TCM    cl1 1039   4.062   3.095   4.865
    1TCM    cl2 1040   3.825   3.260   4.831
    1TCM     h1 1041   4.047   3.333   4.880
    1TCM    cl3 1042   4.048   3.286   4.646
    1TCM     c1 1043   1.225   0.526   3.848
    1TCM    cl1 1044   1.161   0.647   3.734
    1TCM    cl2 1045   1.202   0.584   4.015
    1TCM     h1 1046   1.171   0.430   3.834
    1TCM    cl3 1047   1.398   0.502   3.817
    1TCM     c1 1048   3.583   0.356   1.432
    1TCM    cl1 1049   3.556   0.189   1.486
    1TCM    cl2 1050   3.688   0.441   1.548
    1TCM     h1 1051   3.631   0.356   1.332
    1TCM    cl3 1052   3.426   0.441   1.421
    1TCM     c1 1053   1.280   0.231   4.232
    1TCM    cl1 1054   1.232   0.298   4.389
    1TCM    cl2 1055   1.245   0.349   4.103
    1TCM     h1 1056   1.389   0.209   4.233
    1TCM    cl3 1057   1.190   0.081   4.200
    1TCM     c1 1058   2.256   1.123   4.211
    1TCM    cl1 1059   2.345   1.151   4.363
    1TCM    cl2 1060   2.116   1.018   4.243
    1TCM     h1 1061   2.221   1.220   4.170
    1TCM    cl3 1062   2.364   1.044   4.094
    1TCM     c1 1063   3.322   0.784   0.421
    1TCM    cl1 1064   3.378   0.808   0.254
    1TCM    cl2 1065   3.148   0.819   0.430
    1TCM     h1 1066   3.340   0.679   0.451
    1TCM    cl3 1067   3.410   0.894   0.530
    1TCM     c1 1068   1.620   2.262   2.758
    1TCM    cl1 1069   1.492   2.166   2.837
    1TCM    cl2 1070   1.609   2.240   2.582
    1TCM     h1 1071   1.606   2.369   2.783
    1TCM    cl3 1072   1.779   2.207   2.816
    1TCM     c1 1073   4.961   4.023   4.670
    1TCM    cl1 1074   5.114   4.106   4.704
    1TCM    cl2 1075   4.964   3.862   4.746
    1TCM     h1 1076   4.877   4.082   4.712
    1TCM    cl3 1077   4.940   4.005   4.495
    1TCM     c1 1078   0.861   0.966   2.763
    1TCM    cl1 1079   0.805   1.070   2.896
    1TCM    cl2 1080   0.968   0.840   2.827
    1TCM     h1 1081   0.774   0.919   2.714
    1TCM    cl3 1082   0.950   1.065   2.644
    1TCM     c1 1083   4.713   0.977   3.665
    1TCM    cl1 1084   4.793   0.859   3.558
    1TCM    cl2 1085   4.618   1.091   3.566
    1TCM     h1 1086   4.646   0.924   3.735
    1TCM    cl3 1087   4.836   1.067   3.757
    1TCM     c1 1088   5.100   4.829   0.659
    1TCM    cl1 1089   4.971   4.950   0.644
    1TCM    cl2 1090   5.060   4.687   0.560
    1TCM     h1 1091   5.196   4.872   0.624
    1TCM    cl3 1092   5.115   4.780   0.829
    1TCM     c1 1093   0.709   3.353   0.372
    1TCM    cl1 1094   0.825   3.428   0.484
    1TCM    cl2 1095   0.773   3.362   0.206
    1TCM     h1 1096   0.693   3.247   0.400
    1TCM    cl3 1097   0.554   3.440   0.380
    1TCM     c1 1098   1.221   2.465   4.728
    1TCM    cl1 1099   1.316   2.353   4.829
    1TCM    cl2 1100   1.271   2.447   4.558
    1TCM     h1 1101   1.113   2.440   4.737
    1TCM    cl3 1102   1.249   2.632   4.781
    1TCM     c1 1103   1.604   4.110   0.106
    1TCM    cl1 1104   1.710   4.228   0.188
    1TCM    cl2 1105   1.446   4.108   0.186
    1TCM     h1 1106   1.592   4.138   0.000
    1TCM    cl3 1107   1.678   3.948   0.116
    1TCM     c1 1108   0.698   3.254   0.759
    1TCM    cl1 1109   0.631   3.131   0.869
    1TCM    cl2 1110   0.747   3.177   0.606
    1TCM     h1 1111   0.621   3.331   0.738
    1TCM    cl3 1112   0.839   3.330   0.835
    1TCM     c1 1113   4.256   1.648   2.612
    1TCM    cl1 1114   4.170   1.555   2.737
    1TCM    cl2 1115   4.201   1.595   2.451
    1TCM     h1 1116   4.235   1.756   2.625
    1TCM    cl3 1117   4.431   1.619   2.627
    1TCM     c1 1118   2.085   0.617   4.407
    1TCM    cl1 1119   2.048   0.770   4.324
    1TCM    cl2 1120   2.029   0.626   4.576
    1TCM     h1 1121   2.034   0.534   4.355
    1TCM    cl3 1122   2.261   0.590   4.404
    1TCM     c1 1123   0.443   0.141   2.582
    1TCM    cl1 1124   0.348   0.164   2.434
    1TCM    cl2 1125   0.336   0.154   2.724
    1TCM     h1 1126   0.490   0.041   2.581
    1TCM    cl3 1127   0.569   0.266   2.592
    1TCM     c1 1128   1.857   4.572   4.431
    1TCM    cl1 1129   1.907   4.426   4.519
    1TCM    cl2 1130   1.993   4.686   4.422
    1TCM     h1 1131   1.825   4.544   4.328
    1TCM    cl3 1132   1.720   4.649   4.515
    1TCM     c1 1133   4.239   4.681   1.520
    1TCM    cl1 1134   4.358   4.762   1.415
    1TCM    cl2 1135   4.255   4.744   1.686
    1TCM     h1 1136   4.137   4.702   1.482
    1TCM    cl3 1137   4.269   4.506   1.520
    1TCM     c1 1138   1.083   2.609   0.528
    1TCM    cl1 1139   0.906   2.611   0.538
    1TCM    cl2 1140   1.139   2.444   0.491
    1TCM     h1 1141   1.117   2.678   0.447
    1TCM    cl3 1142   1.152   2.661   0.683
    1TCM     c1 1143   1.349   0.995   4.248
    1TCM    cl1 1144   1.453   1.047   4.383
    1TCM    cl2 1145   1.379   1.098   4.107
    1TCM     h1 1146   1.371   0.889   4.223
    1TCM    cl3 1147   1.178   1.009   4.297
    1TCM     c1 1148   1.927   1.552   0.825
    1TCM    cl1 1149   2.015   1.461   0.950
    1TCM    cl2 1150   1.818   1.442   0.737
    1TCM     h1 1151   1.868   1.633   0.873
    1TCM    cl3 1152   2.043   1.624   0.711
    1TCM     c1 1153   1.263   4.602   1.451
    1TCM    cl1 1154   1.369   4.698   1.345
    1TCM    cl2 1155   1.262   4.674   1.614
    1TCM     h1 1156   1.160   4.603   1.410
    1TCM    cl3 1157   1.323   4.435   1.460
    1TCM     c1 1158   5.095   2.770   2.631
    1TCM    cl1 1159   4.933   2.704   2.662
    1TCM    cl2 1160   5.107   2.819   2.460
    1TCM     h1 1161   5.111   2.858   2.696
    1TCM    cl3 1162   5.217   2.646   2.666
    1TCM     c1 1163   0.922   2.459   0.241
    1TCM    cl1 1164   1.093   2.415   0.260
    1TCM    cl2 1165   0.878   2.454   0.068
    1TCM     h1 1166   0.858   2.388   0.297
    1TCM    cl3 1167   0.895   2.624   0.303
    1TCM     c1 1168   3.656   4.776   3.351
    1TCM    cl1 1169   3.531   4.759   3.226
    1TCM    cl2 1170   3.600   4.889   3.476
    1TCM     h1 1171   3.677   4.677   3.396
    1TCM    cl3 1172   3.805   4.840   3.276
    1TCM     c1 1173   2.150   1.137   2.519
    1TCM    cl1 1174   2.259   1.082   2.390
    1TCM    cl2 1175   2.130   1.006   2.638
    1TCM     h1 1176   2.192   1.226   2.569
    1TCM    cl3 1177   1.991   1.177   2.449
    1TCM     c1 1178   0.691   4.575   4.492
    1TCM    cl1 1179   0.861   4.611   4.456
    1TCM    cl2 1180   0.595   4.724   4.483
    1TCM     h1 1181   0.653   4.502   4.418
    1TCM    cl3 1182   0.678   4.506   4.655
    1TCM     c1 1183   2.054   4.860   3.925
    1TCM    cl1 1184   2.004   4.814   4.090
    1TCM    cl2 1185   1.926   4.816   3.810
    1TCM     h1 1186   2.071   4.970   3.921
    1TCM    cl3 1187   2.204   4.775   3.883
    1TCM     c1 1188   1.193   0.269   1.262
    1TCM    cl1 1189   1.339   0.371   1.254
    1TCM    cl2 1190   1.102   0.286   1.110
    1TCM     h1 1191   1.222   0.163   1.276
    1TCM    cl3 1192   1.092   0.322   1.398
    1TCM     c1 1193   2.554   3.106   1.096
    1TCM    cl1 1194   2.692   2.994   1.100
    1TCM    cl2 1195   2.479   3.114   1.257
    1TCM     h1 1196   2.589   3.207   1.066
    1TCM    cl3 1197   2.434   3.048   0.978
    1TCM     c1 1198   1.014   3.614   1.111
    1TCM    cl1 1199   0.851   3.662   1.163
    1TCM    cl2 1200   1.135   3.722   1.185
    1TCM     h1 1201   1.034   3.510   1.143
    1TCM    cl3 1202   1.026   3.625   0.934
    1TCM     c1 1203   3.766   2.386   2.053
    1TCM    cl1 1204   3.825   2.459   1.902
    1TCM    cl2 1205   3.678   2.237   2.016
    1TCM     h1 1206   3.852   2.364   2.119
    1TCM    cl3 1207   3.656   2.501   2.135
    1TCM     c1 1208   2.725   2.467   1.269
    1TCM    cl1 1209   2.810   2.603   1.192
    1TCM    cl2 1210   2.844   2.344   1.317
    1TCM     h1 1211   2.671   2.503   1.359
    1TCM    cl3 1212   2.609   2.397   1.155
    1TCM     c1 1213   2.745   3.493   4.295
    1TCM    cl1 1214   2.650   3.488   4.145
    1TCM    cl2 1215   2.753   3.661   4.354
    1TCM     h1 1216   2.697   3.429   4.371
    1TCM    cl3 1217   2.910   3.434   4.263
    1TCM     c1 1218   1.152   2.839   4.166
    1TCM    cl1 1219   1.247   2.974   4.100
    1TCM    cl2 1220   1.252   2.693   4.171
    1TCM     h1 1221   1.118   2.865   4.268
    1TCM    cl3 1222   1.010   2.811   4.062
    1TCM     c1 1223   1.529   2.981   3.475
    1TCM    cl1 1224   1.606   3.025   3.629
    1TCM    cl2 1225   1.360   2.934   3.505
    1TCM     h1 1226   1.532   3.068   3.406
    1TCM    cl3 1227   1.617   2.845   3.402
    1TCM     c1 1228   3.790   4.797   3.975
    1TCM    cl1 1229   3.782   4.625   4.018
    1TCM    cl2 1230   3.664   4.835   3.856
    1TCM     h1 1231   3.775   4.859   4.066
    1TCM    cl3 1232   3.950   4.833   3.905
    1TCM     c1 1233   0.184   3.220   0.515
    1TCM    cl1 1234   0.076   3.112   0.423
    1TCM    cl2 1235   0.188   3.168   0.686
    1TCM     h1 1236   0.286   3.215   0.473
    1TCM    cl3 1237   0.123   3.387   0.506
    1TCM     c1 1238   1.446   2.339   5.135
    1TCM    cl1 1239   1.486   2.258   5.287
    1TCM    cl2 1240   1.400   2.217   5.013
    1TCM     h1 1241   1.360   2.408   5.151
    1TCM    cl3 1242   1.586   2.431   5.077
    1TCM     c1 1243   0.291   1.919   3.053
    1TCM    cl1 1244   0.261   1.784   2.941
    1TCM    cl2 1245   0.312   1.855   3.218
    1TCM     h1 1246   0.384   1.972   3.023
    1TCM    cl3 1247   0.154   2.032   3.050
    1TCM     c1 1248   3.632   0.275   5.035
    1TCM    cl1 1249   3.609   0.169   4.894
    1TCM    cl2 1250   3.673   0.439   4.979
    1TCM     h1 1251   3.539   0.278   5.094
    1TCM    cl3 1252   3.764   0.212   5.135
    1TCM     c1 1253   1.757   2.761   2.126
    1TCM    cl1 1254   1.780   2.922   2.054
    1TCM    cl2 1255   1.588   2.710   2.102
    1TCM     h1 1256   1.825   2.688   2.077
    1TCM    cl3 1257   1.792   2.768   2.300
    1TCM     c1 1258   4.204   0.606   4.285
    1TCM    cl1 1259   4.158   0.691   4.434
    1TCM    cl2 1260   4.310   0.710   4.188
    1TCM     h1 1261   4.257   0.512   4.311
    1TCM    cl3 1262   4.057   0.567   4.192
    1TCM     c1 1263   0.342   3.824   1.615
    1TCM    cl1 1264   0.389   3.752   1.459
    1TCM    cl2 1265   0.211   3.728   1.688
    1TCM     h1 1266   0.429   3.826   1.683
    1TCM    cl3 1267   0.285   3.990   1.588
    1TCM     c1 1268   0.218   1.617   0.983
    1TCM    cl1 1269   0.357   1.728   0.978
    1TCM    cl2 1270   0.077   1.702   1.049
    1TCM     h1 1271   0.195   1.582   0.880
    1TCM    cl3 1272   0.257   1.477   1.085
    1TCM     c1 1273   3.689   2.585   2.886
    1TCM    cl1 1274   3.535   2.557   2.970
    1TCM    cl2 1275   3.797   2.680   2.991
    1TCM     h1 1276   3.736   2.487   2.862
    1TCM    cl3 1277   3.659   2.675   2.736
    1TCM     c1 1278   0.272   4.855   2.869
    1TCM    cl1 1279   0.208   5.020   2.854
    1TCM    cl2 1280   0.154   4.753   2.954
    1TCM     h1 1281   0.291   4.813   2.767
    1TCM    cl3 1282   0.425   4.858   2.961
    1TCM     c1 1283   0.127   4.632   2.472
    1TCM    cl1 1284   0.087   4.543   2.323
    1TCM    cl2 1285   0.028   4.571   2.606
    1TCM     h1 1286   0.235   4.617   2.495
    1TCM    cl3 1287   0.095   4.805   2.447
    1TCM     c1 1288   0.540   2.478   2.316
    1TCM    cl1 1289   0.402   2.471   2.428
    1TCM    cl2 1290   0.555   2.643   2.251
    1TCM     h1 1291   0.633   2.451   2.370
    1TCM    cl3 1292   0.513   2.364   2.182
    1TCM     c1 1293   0.603   4.042   2.849
    1TCM    cl1 1294   0.572   3.988   2.683
    1TCM    cl2 1295   0.776   4.081   2.867
    1TCM     h1 1296   0.542   4.131   2.872
    1TCM    cl3 1297   0.560   3.911   2.963
    1TCM     c1 1298   2.404   0.723   3.990
    1TCM    cl1 1299   2.246   0.718   4.071
    1TCM    cl2 1300   2.391   0.650   3.829
    1TCM     h1 1301   2.437   0.829   3.980
    1TCM    cl3 1302   2.523   0.633   4.087
    1TCM     c1 1303   1.829   2.083   2.190
    1TCM    cl1 1304   1.952   2.011   2.296
    1TCM    cl2 1305   1.720   2.184   2.287
    1TCM     h1 1306   1.879   2.146   2.113
    1TCM    cl3 1307   1.736   1.954   2.111
    1TCM     c1 1308   0.917   3.211   2.347
    1TCM    cl1 1309   1.048   3.311   2.279
    1TCM    cl2 1310   0.761   3.289   2.312
    1TCM     h1 1311   0.919   3.110   2.301
    1TCM    cl3 1312   0.939   3.197   2.523
    1TCM     c1 1313   4.748   3.696   3.147
    1TCM    cl1 1314   4.907   3.709   3.226
    1TCM    cl2 1315   4.685   3.859   3.115
    1TCM     h1 1316   4.758   3.640   3.052
    1TCM    cl3 1317   4.635   3.609   3.254
    1TCM     c1 1318   4.275   1.076   4.535
    1TCM    cl1 1319   4.158   1.178   4.448
    1TCM    cl2 1320   4.254   0.906   4.484
    1TCM     h1 1321   4.378   1.109   4.512
    1TCM    cl3 1322   4.246   1.089   4.710
    1TCM     c1 1323   0.148   3.129   4.656
    1TCM    cl1 1324   0.237   3.180   4.801
    1TCM    cl2 1325   0.251   3.154   4.512
    1TCM     h1 1326   0.122   3.022   4.664
    1TCM    cl3 1327   0.000   3.226   4.640
    1TCM     c1 1328   1.248   1.948   0.330
    1TCM    cl1 1329   1.316   1.971   0.167
    1TCM    cl2 1330   1.380   1.956   0.450
    1TCM     h1 1331   1.175   2.029   0.351
    1TCM    cl3 1332   1.168   1.790   0.340
    1TCM     c1 1333   1.943   2.131   1.778
    1TCM    cl1 1334   2.036   2.075   1.919
    1TCM    cl2 1335   1.974   2.304   1.752
    1TCM     h1 1336   1.975   2.074   1.688
    1TCM    cl3 1337   1.770   2.105   1.807
    1TCM     c1 1338   2.555   4.488   3.847
    1TCM    cl1 1339   2.407   4.429   3.926
    1TCM    cl2 1340   2.516   4.541   3.682
    1TCM     h1 1341   2.596   4.573   3.905
    1TCM    cl3 1342   2.675   4.357   3.841
    1TCM     c1 1343   3.293   0.559   1.753
    1TCM    cl1 1344   3.278   0.703   1.857
    1TCM    cl2 1345   3.312   0.611   1.584
    1TCM     h1 1346   3.382   0.500   1.784
    1TCM    cl3 1347   3.147   0.460   1.768
    1TCM     c1 1348   2.487   4.824   4.883
    1TCM    cl1 1349   2.646   4.755   4.924
    1TCM    cl2 1350   2.442   4.774   4.718
    1TCM     h1 1351   2.411   4.788   4.955
    1TCM    cl3 1352   2.496   5.002   4.890
    1TCM     c1 1353   2.668   1.882   3.432
    1TCM    cl1 1354   2.619   1.730   3.355
    1TCM    cl2 1355   2.814   1.945   3.351
    1TCM     h1 1356   2.586   1.957   3.423
    1TCM    cl3 1357   2.704   1.853   3.603
    1TCM     c1 1358   0.870   1.726   4.919
    1TCM    cl1 1359   1.041   1.725   4.965
    1TCM    cl2 1360   0.769   1.741   5.064
    1TCM     h1 1361   0.851   1.812   4.851
    1TCM    cl3 1362   0.830   1.575   4.834
    1TCM     c1 1363   3.146   1.156   3.117
    1TCM    cl1 1364   3.058   1.074   3.248
    1TCM    cl2 1365   3.319   1.117   3.128
    1TCM     h1 1366   3.107   1.122   3.019
    1TCM    cl3 1367   3.124   1.332   3.132
    1TCM     c1 1368   3.695   0.766   1.660
    1TCM    cl1 1369   3.777   0.710   1.808
    1TCM    cl2 1370   3.813   0.847   1.554
    1TCM     h1 1371   3.651   0.680   1.607
    1TCM    cl3 1372   3.567   0.882   1.704
    1TCM     c1 1373   0.446   0.348   0.692
    1TCM    cl1 1374   0.586   0.267   0.619
    1TCM    cl2 1375   0.451   0.522   0.653
    1TCM     h1 1376   0.352   0.304   0.651
    1TCM    cl3 1377   0.449   0.327   0.868
    1TCM     c1 1378   0.854   3.824   3.746
    1TCM    cl1 1379   1.012   3.854   3.823
    1TCM    cl2 1380   0.724   3.885   3.850
    1TCM     h1 1381   0.850   3.875   3.648
    1TCM    cl3 1382   0.833   3.649   3.721
    1TCM     c1 1383   5.221   4.236   4.445
    1TCM    cl1 1384   5.182   4.392   4.519
    1TCM    cl2 1385   5.326   4.143   4.553
    1TCM     h1 1386   5.127   4.179   4.427
    1TCM    cl3 1387   5.304   4.263   4.290
    1TCM     c1 1388   3.752   1.789   0.945
    1TCM    cl1 1389   3.862   1.845   1.073
    1TCM    cl2 1390   3.830   1.808   0.786
    1TCM     h1 1391   3.728   1.682   0.962
    1TCM    cl3 1392   3.602   1.885   0.949
    1TCM     c1 1393   3.436   4.483   3.766
    1TCM    cl1 1394   3.530   4.592   3.661
    1TCM    cl2 1395   3.521   4.463   3.921
    1TCM     h1 1396   3.336   4.527   3.784
    1TCM    cl3 1397   3.419   4.325   3.687
    1TCM     c1 1398   1.689   4.718   3.251
    1TCM    cl1 1399   1.777   4.607   3.358
    1TCM    cl2 1400   1.657   4.638   3.095
    1TCM     h1 1401   1.592   4.747   3.298
    1TCM    cl3 1402   1.786   4.864   3.223
    1TCM     c1 1403   2.880   0.522   2.635
    1TCM    cl1 1404   2.712   0.463   2.637
    1TCM    cl2 1405   2.975   0.425   2.520
    1TCM     h1 1406   2.882   0.628   2.603
    1TCM    cl3 1407   2.951   0.507   2.797
    1TCM     c1 1408   3.335   2.128   4.223
    1TCM    cl1 1409   3.428   2.218   4.345
    1TCM    cl2 1410   3.237   2.242   4.128
    1TCM     h1 1411   3.405   2.074   4.156
    1TCM    cl3 1412   3.228   2.011   4.304
    1TCM     c1 1413   2.980   2.482   0.583
    1TCM    cl1 1414   2.885   2.401   0.711
    1TCM    cl2 1415   3.092   2.597   0.657
    1TCM     h1 1416   3.037   2.406   0.526
    1TCM    cl3 1417   2.870   2.568   0.473
    1TCM     c1 1418   1.590   0.445   5.033
    1TCM    cl1 1419   1.711   0.550   4.955
    1TCM    cl2 1420   1.673   0.326   5.135
    1TCM     h1 1421   1.522   0.507   5.095
    1TCM    cl3 1422   1.496   0.360   4.908
    1TCM     c1 1423   0.762   1.608   1.673
    1TCM    cl1 1424   0.805   1.718   1.540
    1TCM    cl2 1425   0.679   1.699   1.801
    1TCM     h1 1426   0.695   1.529   1.635
    1TCM    cl3 1427   0.910   1.535   1.739
    1TCM     c1 1428   4.964   3.176   0.288
    1TCM    cl1 1429   4.883   3.214   0.441
    1TCM    cl2 1430   4.993   3.001   0.278
    1TCM     h1 1431   4.899   3.207   0.203
    1TCM    cl3 1432   5.118   3.263   0.279
    1TCM     c1 1433   0.679   1.709   4.024
    1TCM    cl1 1434   0.700   1.564   3.923
    1TCM    cl2 1435   0.510   1.722   4.076
    1TCM     h1 1436   0.745   1.702   4.113
    1TCM    cl3 1437   0.723   1.853   3.929
    1TCM     c1 1438   0.845   0.749   0.452
    1TCM    cl1 1439   0.999   0.662   0.467
    1TCM    cl2 1440   0.827   0.864   0.587
    1TCM     h1 1441   0.843   0.805   0.356
    1TCM    cl3 1442   0.710   0.633   0.455
    1TCM     c1 1443   3.487   4.919   4.874
    1TCM    cl1 1444   3.341   4.981   4.793
    1TCM    cl2 1445   3.453   4.758   4.942
    1TCM     h1 1446   3.569   4.912   4.800
    1TCM    cl3 1447   3.533   5.030   5.005
    1TCM     c1 1448   3.091   3.885   3.612
    1TCM    cl1 1449   3.004   3.844   3.762
    1TCM    cl2 1450   3.152   3.736   3.536
    1TCM     h1 1451   3.022   3.936   3.542
    1TCM    cl3 1452   3.227   3.993   3.650
    1TCM     c1 1453   2.934   4.254   3.329
    1TCM    cl1 1454   3.077   4.216   3.427
    1TCM    cl2 1455   2.955   4.186   3.166
    1TCM     h1 1456   2.844   4.210   3.376
    1TCM    cl3 1457   2.915   4.431   3.317
    1TCM     c1 1458   3.511   1.332   2.681
    1TCM    cl1 1459   3.544   1.500   2.634
    1TCM    cl2 1460   3.427   1.329   2.838
    1TCM     h1 1461   3.447   1.284   2.604
    1TCM    cl3 1462   3.664   1.243   2.694
    1TCM     c1 1463   4.562   2.088   5.145
    1TCM    cl1 1464   4.415   2.179   5.106
    1TCM    cl2 1465   4.552   2.028   5.312
    1TCM     h1 1466   4.573   2.003   5.076
    1TCM    cl3 1467   4.704   2.195   5.129
    1TCM     c1 1468   3.174   2.233   0.801
    1TCM    cl1 1469   3.195   2.256   0.976
    1TCM    cl2 1470   3.044   2.115   0.772
    1TCM     h1 1471   3.147   2.330   0.755
    1TCM    cl3 1472   3.326   2.174   0.730
    1TCM     c1 1473   4.626   4.826   1.544
    1TCM    cl1 1474   4.720   4.818   1.393
    1TCM    cl2 1475   4.725   4.903   1.670
    1TCM     h1 1476   4.534   4.885   1.527
    1TCM    cl3 1477   4.582   4.661   1.595
    1TCM     c1 1478   4.655   0.704   3.254
    1TCM    cl1 1479   4.583   0.602   3.128
    1TCM    cl2 1480   4.540   0.720   3.389
    1TCM     h1 1481   4.748   0.657   3.291
    1TCM    cl3 1482   4.691   0.865   3.187
    1TCM     c1 1483   3.555   2.215   0.452
    1TCM    cl1 1484   3.579   2.043   0.490
    1TCM    cl2 1485   3.501   2.232   0.283
    1TCM     h1 1486   3.478   2.258   0.519
    1TCM    cl3 1487   3.708   2.302   0.474
    1TCM     c1 1488   1.757   0.160   2.740
    1TCM    cl1 1489   1.874   0.293   2.729
    1TCM    cl2 1490   1.838   0.015   2.804
    1TCM     h1 1491   1.674   0.188   2.808
    1TCM    cl3 1492   1.691   0.124   2.579
    1TCM     c1 1493   1.299   4.611   5.070
    1TCM    cl1 1494   1.161   4.711   5.121
    1TCM    cl2 1495   1.450   4.699   5.099
    1TCM     h1 1496   1.299   4.516   5.128
    1TCM    cl3 1497   1.284   4.574   4.897
    1TCM     c1 1498   5.133   0.288   4.508
    1TCM    cl1 1499   5.078   0.154   4.405
    1TCM    cl2 1500   5.128   0.237   4.678
    1TCM     h1 1501   5.237   0.315   4.480
    1TCM    cl3 1502   5.026   0.428   4.484
    1TCM     c1 1503   4.339   4.884   0.274
    1TCM    cl1 1504   4.392   4.859   0.106
    1TCM    cl2 1505   4.366   4.734   0.367
    1TCM     h1 1506   4.398   4.966   0.320
    1TCM    cl3 1507   4.166   4.924   0.277
    1TCM     c1 1508   0.619   2.507   3.880
    1TCM    cl1 1509   0.502   2.591   3.775
    1TCM    cl2 1510   0.556   2.500   4.046
    1TCM     h1 1511   0.635   2.403   3.842
    1TCM    cl3 1512   0.774   2.594   3.879
    1TCM     c1 1513   4.146   1.331   1.664
    1TCM    cl1 1514   4.141   1.496   1.731
    1TCM    cl2 1515   4.175   1.214   1.795
    1TCM     h1 1516   4.049   1.308   1.615
    1TCM    cl3 1517   4.276   1.319   1.543
    1TCM     c1 1518   1.395   4.894   0.414
    1TCM    cl1 1519   1.476   4.942   0.264
    1TCM    cl2 1520   1.303   5.032   0.479
    1TCM     h1 1521   1.325   4.810   0.393
    1TCM    cl3 1522   1.516   4.842   0.533
    1TCM     c1 1523   3.302   1.052   4.035
    1TCM    cl1 1524   3.243   1.193   3.943
    1TCM    cl2 1525   3.251   1.067   4.205
    1TCM     h1 1526   3.260   0.959   3.992
    1TCM    cl3 1527   3.480   1.047   4.027
    1TCM     c1 1528   4.651   3.552   3.718
    1TCM    cl1 1529   4.532   3.642   3.621
    1TCM    cl2 1530   4.774   3.483   3.610
    1TCM     h1 1531   4.699   3.621   3.790
    1TCM    cl3 1532   4.568   3.421   3.806
    1TCM     c1 1533   1.303   0.847   0.562
    1TCM    cl1 1534   1.357   0.813   0.396
    1TCM    cl2 1535   1.147   0.768   0.591
    1TCM     h1 1536   1.378   0.808   0.635
    1TCM    cl3 1537   1.285   1.023   0.584
    1TCM     c1 1538   1.179   2.068   1.120
    1TCM    cl1 1539   1.183   2.211   1.225
    1TCM    cl2 1540   1.332   2.057   1.029
    1TCM     h1 1541   1.167   1.977   1.182
    1TCM    cl3 1542   1.043   2.081   1.006
    1TCM     c1 1543   3.468   3.066   2.420
    1TCM    cl1 1544   3.542   2.930   2.507
    1TCM    cl2 1545   3.503   3.050   2.246
    1TCM     h1 1546   3.359   3.065   2.437
    1TCM    cl3 1547   3.536   3.219   2.480
    1TCM     c1 1548   3.241   3.549   2.839
    1TCM    cl1 1549   3.331   3.671   2.746
    1TCM    cl2 1550   3.087   3.619   2.895
    1TCM     h1 1551   3.221   3.461   2.775
    1TCM    cl3 1552   3.338   3.500   2.980
    1TCM     c1 1553   1.382   1.214   0.290
    1TCM    cl1 1554   1.388   1.389   0.319
    1TCM    cl2 1555   1.251   1.142   0.387
    1TCM     h1 1556   1.362   1.195   0.182
    1TCM    cl3 1557   1.537   1.141   0.336
    1TCM     c1 1558   3.054   0.245   0.892
    1TCM    cl1 1559   3.092   0.096   0.981
    1TCM    cl2 1560   2.918   0.215   0.781
    1TCM     h1 1561   3.027   0.325   0.963
    1TCM    cl3 1562   3.196   0.296   0.798
    1TCM     c1 1563   1.928   3.364   1.066
    1TCM    cl1 1564   2.043   3.486   1.126
    1TCM    cl2 1565   1.872   3.263   1.201
    1TCM     h1 1566   1.842   3.414   1.018
    1TCM    cl3 1567   2.010   3.261   0.945
    1TCM     c1 1568   2.957   3.783   1.998
    1TCM    cl1 1569   2.865   3.931   1.960
    1TCM    cl2 1570   2.996   3.780   2.171
    1TCM     h1 1571   2.896   3.694   1.972
    1TCM    cl3 1572   3.108   3.781   1.903
    1TCM     c1 1573   4.636   0.567   4.131
    1TCM    cl1 1574   4.687   0.642   3.979
    1TCM    cl2 1575   4.656   0.683   4.265
    1TCM     h1 1576   4.529   0.538   4.124
    1TCM    cl3 1577   4.734   0.423   4.162
    1TCM     c1 1578   4.661   3.024   4.776
    1TCM    cl1 1579   4.584   2.891   4.864
    1TCM    cl2 1580   4.835   3.029   4.814
    1TCM     h1 1581   4.648   3.009   4.667
    1TCM    cl3 1582   4.586   3.178   4.824
    1TCM     c1 1583   1.070   4.691   2.382
    1TCM    cl1 1584   1.163   4.582   2.276
    1TCM    cl2 1585   1.093   4.641   2.551
    1TCM     h1 1586   1.107   4.795   2.369
    1TCM    cl3 1587   0.898   4.682   2.340
    1TCM     c1 1588   5.123   0.224   0.373
    1TCM    cl1 1589   5.035   0.332   0.263
    1TCM    cl2 1590   5.253   0.315   0.454
    1TCM     h1 1591   5.053   0.183   0.449
    1TCM    cl3 1592   5.194   0.089   0.281
    1TCM     c1 1593   4.617   0.490   3.695
    1TCM    cl1 1594   4.446   0.456   3.730
    1TCM    cl2 1595   4.634   0.531   3.523
    1TCM     h1 1596   4.651   0.575   3.757
    1TCM    cl3 1597   4.715   0.346   3.731
    1TCM     c1 1598   3.602   5.114   4.456
    1TCM    cl1 1599   3.603   5.003   4.317
    1TCM    cl2 1600   3.666   5.272   4.406
    1TCM     h1 1601   3.497   5.127   4.492
    1TCM    cl3 1602   3.702   5.048   4.587
    1TCM     c1 1603   1.446   1.962   1.646
    1TCM    cl1 1604   1.317   1.986   1.526
    1TCM    cl2 1605   1.509   2.120   1.698
    1TCM     h1 1606   1.405   1.908   1.734
    1TCM    cl3 1607   1.578   1.867   1.574
    1TCM     c1 1608   5.259   0.236   1.477
    1TCM    cl1 1609   5.340   0.254   1.320
    1TCM    cl2 1610   5.089   0.285   1.463
    1TCM     h1 1611   5.264   0.129   1.509
    1TCM    cl3 1612   5.340   0.338   1.598
    1TCM     c1 1613   3.342   1.772   2.786
    1TCM    cl1 1614   3.169   1.797   2.753
    1TCM    cl2 1615   3.424   1.723   2.636
    1TCM     h1 1616   3.386   1.866   2.824
    1TCM    cl3 1617   3.361   1.644   2.908
    1TCM     c1 1618   3.634   0.378   0.525
    1TCM    cl1 1619   3.584   0.453   0.372
    1TCM    cl2 1620   3.596   0.488   0.660
    1TCM     h1 1621   3.579   0.282   0.539
    1TCM    cl3 1622   3.809   0.347   0.522
    1TCM     c1 1623   0.680   1.449   2.032
    1TCM    cl1 1624   0.626   1.612   2.078
    1TCM    cl2 1625   0.751   1.454   1.869
    1TCM     h1 1626   0.756   1.414   2.104
    1TCM    cl3 1627   0.541   1.338   2.032
    1TCM     c1 1628   2.786   3.840   1.282
    1TCM    cl1 1629   2.733   3.977   1.182
    1TCM    cl2 1630   2.643   3.758   1.349
    1TCM     h1 1631   2.844   3.769   1.220
    1TCM    cl3 1632   2.888   3.900   1.415
    1TCM     c1 1633   2.451   2.557   4.386
    1TCM    cl1 1634   2.361   2.606   4.241
    1TCM    cl2 1635   2.345   2.568   4.528
    1TCM     h1 1636   2.487   2.453   4.374
    1TCM    cl3 1637   2.590   2.666   4.408
    1TCM     c1 1638   0.547   2.387   0.941
    1TCM    cl1 1639   0.465   2.544   0.942
    1TCM    cl2 1640   0.611   2.352   1.104
    1TCM     h1 1641   0.475   2.307   0.912
    1TCM    cl3 1642   0.681   2.391   0.825
    1TCM     c1 1643   2.564   0.476   1.607
    1TCM    cl1 1644   2.702   0.365   1.625
    1TCM    cl2 1645   2.512   0.479   1.437
    1TCM     h1 1646   2.480   0.442   1.671
    1TCM    cl3 1647   2.614   0.640   1.655
    1TCM     c1 1648   2.451   3.654   0.174
    1TCM    cl1 1649   2.603   3.564   0.190
    1TCM    cl2 1650   2.327   3.580   0.279
    1TCM     h1 1651   2.467   3.760   0.205
    1TCM    cl3 1652   2.395   3.649   0.005
    1TCM     c1 1653   0.176   3.446   4.966
    1TCM    cl1 1654   0.133   3.398   4.800
    1TCM    cl2 1655   0.118   3.322   5.079
    1TCM     h1 1656   0.286   3.456   4.975
    1TCM    cl3 1657   0.098   3.601   5.004
    1TCM     c1 1658   3.884   1.950   1.703
    1TCM    cl1 1659   4.001   1.969   1.570
    1TCM    cl2 1660   3.831   2.111   1.759
    1TCM     h1 1661   3.796   1.893   1.667
    1TCM    cl3 1662   3.961   1.863   1.837
    1TCM     c1 1663   2.273   2.804   2.795
    1TCM    cl1 1664   2.174   2.661   2.831
    1TCM    cl2 1665   2.229   2.936   2.905
    1TCM     h1 1666   2.381   2.779   2.809
    1TCM    cl3 1667   2.245   2.855   2.627
    1TCM     c1 1668   4.468   2.822   0.744
    1TCM    cl1 1669   4.334   2.835   0.859
    1TCM    cl2 1670   4.416   2.881   0.585
    1TCM     h1 1671   4.554   2.883   0.780
    1TCM    cl3 1672   4.519   2.652   0.730
    1TCM     c1 1673   5.103   4.307   1.776
    1TCM    cl1 1674   5.269   4.296   1.714
    1TCM    cl2 1675   5.104   4.396   1.930
    1TCM     h1 1676   5.039   4.360   1.703
    1TCM    cl3 1677   5.039   4.143   1.804
    1TCM     c1 1678   3.271   1.708   3.866
    1TCM    cl1 1679   3.143   1.587   3.888
    1TCM    cl2 1680   3.259   1.778   3.703
    1TCM     h1 1681   3.259   1.789   3.941
    1TCM    cl3 1682   3.430   1.631   3.885
    1TCM     c1 1683   0.964   3.765   2.401
    1TCM    cl1 1684   0.852   3.631   2.367
    1TCM    cl2 1685   1.073   3.719   2.533
    1TCM     h1 1686   1.024   3.787   2.310
    1TCM    cl3 1687   0.872   3.910   2.447
    1TCM     c1 1688   3.039   4.164   2.309
    1TCM    cl1 1689   3.063   4.043   2.181
    1TCM    cl2 1690   3.082   4.093   2.466
    1TCM     h1 1691   3.104   4.252   2.289
    1TCM    cl3 1692   2.869   4.215   2.311
    1TCM     c1 1693   1.367   3.056   2.351
    1TCM    cl1 1694   1.322   2.975   2.199
    1TCM    cl2 1695   1.482   2.955   2.441
    1TCM     h1 1696   1.414   3.154   2.328
    1TCM    cl3 1697   1.221   3.083   2.449
    1TCM     c1 1698   4.604   0.167   5.155
    1TCM    cl1 1699   4.729   0.277   5.216
    1TCM    cl2 1700   4.462   0.174   5.262
    1TCM     h1 1701   4.574   0.197   5.052
    1TCM    cl3 1702   4.667   0.001   5.152
    1TCM     c1 1703   4.138   4.955   2.378
    1TCM    cl1 1704   4.184   5.093   2.276
    1TCM    cl2 1705   4.131   5.007   2.549
    1TCM     h1 1706   4.039   4.917   2.347
    1TCM    cl3 1707   4.260   4.826   2.361
    1TCM     c1 1708   1.415   5.058   3.109
    1TCM    cl1 1709   1.509   4.933   3.192
    1TCM    cl2 1710   1.412   5.024   2.934
    1TCM     h1 1711   1.311   5.058   3.148
    1TCM    cl3 1712   1.489   5.217   3.137
    1TCM     c1 1713   3.375   4.986   3.790
    1TCM    cl1 1714   3.370   5.161   3.758
    1TCM    cl2 1715   3.462   4.956   3.942
    1TCM     h1 1716   3.271   4.947   3.798
    1TCM    cl3 1717   3.459   4.904   3.656
    1TCM     c1 1718   3.626   2.191   4.869
    1TCM    cl1 1719   3.633   2.368   4.847
    1TCM    cl2 1720   3.687   2.149   5.030
    1TCM     h1 1721   3.521   2.157   4.859
    1TCM    cl3 1722   3.727   2.113   4.745
    1TCM     c1 1723   4.841   4.206   2.582
    1TCM    cl1 1724   4.968   4.208   2.457
    1TCM    cl2 1725   4.915   4.231   2.742
    1TCM     h1 1726   4.768   4.287   2.562
    1TCM    cl3 1727   4.757   4.049   2.579
    1TCM     c1 1728   5.038   3.113   2.474
    1TCM    cl1 1729   5.031   3.265   2.381
    1TCM    cl2 1730   4.935   2.991   2.396
    1TCM     h1 1731   5.143   3.076   2.477
    1TCM    cl3 1732   4.981   3.142   2.640
    1TCM     c1 1733   1.460   2.320   0.878
    1TCM    cl1 1734   1.535   2.427   0.758
    1TCM    cl2 1735   1.507   2.371   1.041
    1TCM     h1 1736   1.349   2.325   0.868
    1TCM    cl3 1737   1.514   2.152   0.851
    1TCM     c1 1738   1.117   1.990   4.087
    1TCM    cl1 1739   1.106   1.825   4.151
    1TCM    cl2 1740   1.063   1.991   3.917
    1TCM     h1 1741   1.053   2.058   4.147
    1TCM    cl3 1742   1.286   2.046   4.095
    1TCM     c1 1743   4.141   3.550   1.331
    1TCM    cl1 1744   4.231   3.403   1.375
    1TCM    cl2 1745   4.169   3.588   1.160
    1TCM     h1 1746   4.033   3.534   1.348
    1TCM    cl3 1747   4.197   3.686   1.431
    1TCM     c1 1748   0.267   5.159   2.137
    1TCM    cl1 1749   0.295   5.334   2.127
    1TCM    cl2 1750   0.139   5.113   2.023
    1TCM     h1 1751   0.360   5.105   2.112
    1TCM    cl3 1752   0.216   5.117   2.303
    1TCM     c1 1753   1.332   2.547   1.752
    1TCM    cl1 1754   1.383   2.391   1.683
    1TCM    cl2 1755   1.380   2.554   1.923
    1TCM     h1 1756   1.381   2.629   1.697
    1TCM    cl3 1757   1.156   2.563   1.739
    1TCM     c1 1758   0.873   2.369   4.192
    1TCM    cl1 1759   0.919   2.301   4.034
    1TCM    cl2 1760   0.935   2.264   4.322
    1TCM     h1 1761   0.918   2.470   4.203
    1TCM    cl3 1762   0.696   2.380   4.204
    1TCM     c1 1763   1.091   0.908   5.192
    1TCM    cl1 1764   1.222   1.016   5.138
    1TCM    cl2 1765   1.152   0.741   5.200
    1TCM     h1 1766   1.056   0.940   5.292
    1TCM    cl3 1767   0.956   0.917   5.076
    1TCM     c1 1768   3.684   2.968   1.009
    1TCM    cl1 1769   3.511   3.004   0.995
    1TCM    cl2 1770   3.730   2.964   1.181
    1TCM     h1 1771   3.706   2.870   0.962
    1TCM    cl3 1772   3.778   3.095   0.927
    1TCM     c1 1773   3.688   4.991   3.024
    1TCM    cl1 1774   3.589   5.072   3.148
    1TCM    cl2 1775   3.759   5.113   2.916
    1TCM     h1 1776   3.768   4.933   3.073
    1TCM    cl3 1777   3.585   4.881   2.929
    1TCM     c1 1778   4.635   3.189   5.176
    1TCM    cl1 1779   4.545   3.338   5.210
    1TCM    cl2 1780   4.702   3.197   5.012
    1TCM     h1 1781   4.718   3.179   5.249
    1TCM    cl3 1782   4.526   3.049   5.189
    1TCM     c1 1783   4.457   2.820   2.966
    1TCM    cl1 1784   4.346   2.928   2.879
    1TCM    cl2 1785   4.385   2.773   3.121
    1TCM     h1 1786   4.476   2.729   2.905
    1TCM    cl3 1787   4.611   2.904   2.995
    1TCM     c1 1788   2.300   4.554   3.530
    1TCM    cl1 1789   2.164   4.616   3.433
    1TCM    cl2 1790   2.250   4.541   3.700
    1TCM     h1 1791   2.329   4.453   3.493
    1TCM    cl3 1792   2.438   4.664   3.517
    1TCM     c1 1793   3.573   2.247   0.924
    1TCM    cl1 1794   3.603   2.405   0.849
    1TCM    cl2 1795   3.579   2.262   1.101
    1TCM     h1 1796   3.473   2.210   0.893
    1TCM    cl3 1797   3.697   2.131   0.870
    1TCM     c1 1798   2.351   2.049   2.543
    1TCM    cl1 1799   2.309   2.141   2.689
    1TCM    cl2 1800   2.302   2.141   2.398
    1TCM     h1 1801   2.461   2.032   2.540
    1TCM    cl3 1802   2.266   1.893   2.545
    1TCM     c1 1803   2.934   2.888   3.448
    1TCM    cl1 1804   2.936   3.000   3.586
    1TCM    cl2 1805   2.903   2.979   3.298
    1TCM     h1 1806   3.032   2.837   3.441
    1TCM    cl3 1807   2.806   2.767   3.471
    1TCM     c1 1808   5.035   1.892   1.648
    1TCM    cl1 1809   5.037   2.062   1.699
    1TCM    cl2 1810   4.870   1.828   1.662
    1TCM     h1 1811   5.069   1.885   1.542
    1TCM    cl3 1812   5.144   1.797   1.751
    1TCM     c1 1813   1.664   1.369   3.592
    1TCM    cl1 1814   1.536   1.399   3.472
    1TCM    cl2 1815   1.629   1.218   3.679
    1TCM     h1 1816   1.762   1.360   3.540
    1TCM    cl3 1817   1.671   1.504   3.707
    1TCM     c1 1818   3.395   4.198   2.239
    1TCM    cl1 1819   3.293   4.062   2.290
    1TCM    cl2 1820   3.522   4.226   2.360
    1TCM     h1 1821   3.442   4.174   2.141
    1TCM    cl3 1822   3.295   4.344   2.223
    1TCM     c1 1823   2.079   3.584   0.488
    1TCM    cl1 1824   2.059   3.517   0.652
    1TCM    cl2 1825   1.959   3.712   0.461
    1TCM     h1 1826   2.181   3.626   0.478
    1TCM    cl3 1827   2.055   3.455   0.368
    1TCM     c1 1828   4.619   2.144   3.234
    1TCM    cl1 1829   4.717   2.212   3.102
    1TCM    cl2 1830   4.550   2.276   3.331
    1TCM     h1 1831   4.536   2.083   3.190
    1TCM    cl3 1832   4.720   2.040   3.336
    1TCM     c1 1833   2.401   3.938   1.434
    1TCM    cl1 1834   2.476   4.043   1.312
    1TCM    cl2 1835   2.237   3.893   1.380
    1TCM     h1 1836   2.462   3.846   1.446
    1TCM    cl3 1837   2.391   4.024   1.589
    1TCM     c1 1838   0.996   4.945   4.763
    1TCM    cl1 1839   1.034   5.073   4.880
    1TCM    cl2 1840   1.125   4.823   4.764
    1TCM     h1 1841   0.900   4.897   4.791
    1TCM    cl3 1842   0.982   5.015   4.600
    1TCM     c1 1843   3.592   3.193   3.753
    1TCM    cl1 1844   3.722   3.306   3.794
    1TCM    cl2 1845   3.443   3.238   3.840
    1TCM     h1 1846   3.572   3.197   3.643
    1TCM    cl3 1847   3.640   3.028   3.799
    1TCM     c1 1848   3.758   3.885   1.291
    1TCM    cl1 1849   3.646   3.752   1.255
    1TCM    cl2 1850   3.671   4.039   1.286
    1TCM     h1 1851   3.802   3.870   1.391
    1TCM    cl3 1852   3.888   3.886   1.169
    1TCM     c1 1853   2.513   1.299   3.921
    1TCM    cl1 1854   2.490   1.160   3.813
    1TCM    cl2 1855   2.667   1.281   4.009
    1TCM     h1 1856   2.516   1.392   3.861
    1TCM    cl3 1857   2.379   1.307   4.037
    1TCM     c1 1858   2.125   3.592   4.910
    1TCM    cl1 1859   2.066   3.741   4.987
    1TCM    cl2 1860   2.159   3.623   4.738
    1TCM     h1 1861   2.218   3.558   4.960
    1TCM    cl3 1862   2.001   3.465   4.923
    1TCM     c1 1863   4.339   3.842   3.156
    1TCM    cl1 1864   4.349   3.909   3.320
    1TCM    cl2 1865   4.422   3.950   3.043
    1TCM     h1 1866   4.387   3.742   3.154
    1TCM    cl3 1867   4.168   3.826   3.109
    1TCM     c1 1868   3.088   1.571   4.986
    1TCM    cl1 1869   2.997   1.676   4.874
    1TCM    cl2 1870   2.990   1.542   5.132
    1TCM     h1 1871   3.110   1.475   4.936
    1TCM    cl3 1872   3.240   1.651   5.031
    1TCM     c1 1873   0.644   0.635   4.112
    1TCM    cl1 1874   0.721   0.765   4.205
    1TCM    cl2 1875   0.639   0.680   3.940
    1TCM     h1 1876   0.702   0.541   4.123
    1TCM    cl3 1877   0.478   0.609   4.171
    1TCM     c1 1878   3.566   0.952   2.076
    1TCM    cl1 1879   3.522   0.813   1.973
    1TCM    cl2 1880   3.479   1.097   2.020
    1TCM     h1 1881   3.538   0.930   2.181
    1TCM    cl3 1882   3.741   0.980   2.066
    1TCM     c1 1883   2.856   0.113   2.563
    1TCM    cl1 1884   2.769   0.017   2.684
    1TCM    cl2 1885   2.799   0.069   2.400
    1TCM     h1 1886   2.838   0.221   2.580
    1TCM    cl3 1887   3.030   0.079   2.575
    1TCM     c1 1888   2.745   4.525   2.495
    1TCM    cl1 1889   2.888   4.598   2.418
    1TCM    cl2 1890   2.786   4.475   2.661
    1TCM     h1 1891   2.663   4.599   2.498
    1TCM    cl3 1892   2.694   4.383   2.401
    1TCM     c1 1893   0.692   1.015   2.274
    1TCM    cl1 1894   0.563   0.961   2.384
    1TCM    cl2 1895   0.630   1.144   2.169
    1TCM     h1 1896   0.777   1.054   2.333
    1TCM    cl3 1897   0.746   0.878   2.174
    1TCM     c1 1898   2.371   4.305   3.163
    1TCM    cl1 1899   2.252   4.235   3.275
    1TCM    cl2 1900   2.301   4.311   2.999
    1TCM     h1 1901   2.396   4.408   3.196
    1TCM    cl3 1902   2.517   4.205   3.161
    1TCM     c1 1903   4.247   1.841   4.800
    1TCM    cl1 1904   4.420   1.833   4.759
    1TCM    cl2 1905   4.151   1.770   4.668
    1TCM     h1 1906   4.229   1.785   4.894
    1TCM    cl3 1907   4.200   2.011   4.823
    1TCM     c1 1908   0.395   0.616   0.302
    1TCM    cl1 1909   0.265   0.651   0.418
    1TCM    cl2 1910   0.341   0.658   0.138
    1TCM     h1 1911   0.485   0.676   0.328
    1TCM    cl3 1912   0.435   0.443   0.309
    1TCM     c1 1913   3.884   3.835   5.221
    1TCM    cl1 1914   4.029   3.848   5.119
    1TCM    cl2 1915   3.821   3.669   5.212
    1TCM     h1 1916   3.910   3.859   5.326
    1TCM    cl3 1917   3.760   3.948   5.162
    1TCM     c1 1918   1.987   2.357   2.710
    1TCM    cl1 1919   1.850   2.443   2.783
    1TCM    cl2 1920   2.104   2.313   2.837
    1TCM     h1 1921   1.951   2.265   2.660
    1TCM    cl3 1922   2.066   2.462   2.591
    1TCM     c1 1923   2.093   4.168   1.632
    1TCM    cl1 1924   2.210   4.200   1.502
    1TCM    cl2 1925   2.111   4.000   1.687
    1TCM     h1 1926   2.112   4.237   1.716
    1TCM    cl3 1927   1.928   4.193   1.571
    1TCM     c1 1928   4.091   3.619   1.877
    1TCM    cl1 1929   4.129   3.537   1.724
    1TCM    cl2 1930   4.147   3.788   1.869
    1TCM     h1 1931   3.981   3.618   1.894
    1TCM    cl3 1932   4.173   3.536   2.012
    1TCM     c1 1933   2.644   4.657   0.674
    1TCM    cl1 1934   2.632   4.773   0.539
    1TCM    cl2 1935   2.638   4.745   0.828
    1TCM     h1 1936   2.560   4.585   0.668
    1TCM    cl3 1937   2.798   4.569   0.662
    1TCM     c1 1938   2.822   2.326   4.652
    1TCM    cl1 1939   2.891   2.433   4.528
    1TCM    cl2 1940   2.662   2.387   4.700
    1TCM     h1 1941   2.812   2.224   4.611
    1TCM    cl3 1942   2.929   2.323   4.794
    1TCM     c1 1943   1.549   3.336   2.679
    1TCM    cl1 1944   1.377   3.378   2.695
    1TCM    cl2 1945   1.622   3.319   2.841
    1TCM     h1 1946   1.559   3.241   2.624
    1TCM    cl3 1947   1.633   3.466   2.590
    1TCM     c1 1948   0.687   4.144   4.886
    1TCM    cl1 1949   0.775   4.089   4.741
    1TCM    cl2 1950   0.623   4.307   4.858
    1TCM     h1 1951   0.604   4.074   4.907
    1TCM    cl3 1952   0.798   4.147   5.025
    1TCM     c1 1953   0.185   2.440   1.812
    1TCM    cl1 1954   0.333   2.343   1.827
    1TCM    cl2 1955   0.219   2.608   1.857
    1TCM     h1 1956   0.148   2.436   1.707
    1TCM    cl3 1957   0.060   2.374   1.921
    1TCM     c1 1958   4.435   0.998   4.202
    1TCM    cl1 1959   4.593   1.046   4.268
    1TCM    cl2 1960   4.449   0.976   4.026
    1TCM     h1 1961   4.403   0.902   4.248
    1TCM    cl3 1962   4.315   1.124   4.237
    1TCM     c1 1963   3.978   1.141   0.460
    1TCM    cl1 1964   3.840   1.152   0.571
    1TCM    cl2 1965   3.951   1.248   0.320
    1TCM     h1 1966   4.070   1.171   0.512
    1TCM    cl3 1967   3.995   0.973   0.403
    1TCM     c1 1968   1.895   1.844   3.921
    1TCM    cl1 1969   1.997   1.699   3.919
    1TCM    cl2 1970   1.843   1.878   4.088
    1TCM     h1 1971   1.952   1.930   3.882
    1TCM    cl3 1972   1.752   1.816   3.819
    1TCM     c1 1973   0.255   1.927   1.962
    1TCM    cl1 1974   0.374   1.796   1.967
    1TCM    cl2 1975   0.161   1.927   2.114
    1TCM     h1 1976   0.307   2.024   1.951
    1TCM    cl3 1977   0.145   1.903   1.825
    1TCM     c1 1978   1.623   0.540   3.436
    1TCM    cl1 1979   1.653   0.684   3.536
    1TCM    cl2 1980   1.712   0.557   3.282
    1TCM     h1 1981   1.659   0.450   3.490
    1TCM    cl3 1982   1.449   0.526   3.403
    1TCM     c1 1983   2.175   4.242   1.186
    1TCM    cl1 1984   2.124   4.404   1.133
    1TCM    cl2 1985   2.063   4.182   1.311
    1TCM     h1 1986   2.174   4.172   1.099
    1TCM    cl3 1987   2.339   4.251   1.253
    1TCM     c1 1988   3.459   1.758   4.389
    1TCM    cl1 1989   3.481   1.777   4.213
    1TCM    cl2 1990   3.322   1.859   4.441
    1TCM     h1 1991   3.438   1.652   4.412
    1TCM    cl3 1992   3.606   1.810   4.473
    1TCM     c1 1993   2.239   3.761   4.223
    1TCM    cl1 1994   2.241   3.783   4.046
    1TCM    cl2 1995   2.213   3.590   4.261
    1TCM     h1 1996   2.336   3.795   4.265
    1TCM    cl3 1997   2.107   3.858   4.292
    1TCM     c1 1998   3.175   0.992   4.953
    1TCM    cl1 1999   3.035   0.999   5.063
    1TCM    cl2 2000   3.119   1.010   4.785
    1TCM     h1 2001   3.246   1.074   4.977
    1TCM    cl3 2002   3.257   0.836   4.971
    1TCM     c1 2003   3.112   2.795   2.468
    1TCM    cl1 2004   3.275   2.761   2.406
    1TCM    cl2 2005   3.122   2.911   2.602
    1TCM     h1 2006   3.049   2.837   2.387
    1TCM    cl3 2007   3.039   2.644   2.527
    1TCM     c1 2008   4.755   4.225   0.883
    1TCM    cl1 2009   4.665   4.138   0.756
    1TCM    cl2 2010   4.696   4.173   1.043
    1TCM     h1 2011   4.863   4.201   0.874
    1TCM    cl3 2012   4.731   4.400   0.865
    1TCM     c1 2013   2.083   2.846   4.443
    1TCM    cl1 2014   2.169   2.971   4.537
    1TCM    cl2 2015   2.177   2.807   4.297
    1TCM     h1 2016   2.071   2.755   4.505
    1TCM    cl3 2017   1.923   2.908   4.396
    1TCM     c1 2018   2.576   4.134   4.479
    1TCM    cl1 2019   2.636   3.968   4.456
    1TCM    cl2 2020   2.710   4.249   4.452
    1TCM     h1 2021   2.495   4.155   4.408
    1TCM    cl3 2022   2.516   4.152   4.646
    1TCM     c1 2023   4.423   5.157   2.675
    1TCM    cl1 2024   4.542   5.137   2.545
    1TCM    cl2 2025   4.507   5.174   2.831
    1TCM     h1 2026   4.361   5.247   2.656
    1TCM    cl3 2027   4.317   5.014   2.681
    1TCM     c1 2028   1.799   3.786   2.162
    1TCM    cl1 2029   1.880   3.926   2.090
    1TCM    cl2 2030   1.818   3.791   2.339
    1TCM     h1 2031   1.691   3.789   2.137
    1TCM    cl3 2032   1.871   3.636   2.099
    1TCM     c1 2033   3.463   0.793   1.017
    1TCM    cl1 2034   3.477   0.949   0.934
    1TCM    cl2 2035   3.370   0.815   1.168
    1TCM     h1 2036   3.410   0.721   0.952
    1TCM    cl3 2037   3.625   0.731   1.056
    1TCM     c1 2038   0.313   3.752   3.061
    1TCM    cl1 2039   0.418   3.708   2.924
    1TCM    cl2 2040   0.411   3.763   3.209
    1TCM     h1 2041   0.265   3.849   3.041
    1TCM    cl3 2042   0.188   3.627   3.082
    1TCM     c1 2043   2.816   2.686   4.905
    1TCM    cl1 2044   2.878   2.819   5.006
    1TCM    cl2 2045   2.650   2.647   4.955
    1TCM     h1 2046   2.816   2.716   4.799
    1TCM    cl3 2047   2.919   2.542   4.926
    1TCM     c1 2048   2.279   0.669   0.686
    1TCM    cl1 2049   2.119   0.614   0.631
    1TCM    cl2 2050   2.346   0.551   0.802
    1TCM     h1 2051   2.347   0.677   0.598
    1TCM    cl3 2052   2.264   0.827   0.764
    1TCM     c1 2053   2.971   0.346   2.254
    1TCM    cl1 2054   3.026   0.221   2.368
    1TCM    cl2 2055   2.802   0.389   2.289
    1TCM     h1 2056   3.035   0.436   2.264
    1TCM    cl3 2057   2.983   0.284   2.088
    1TCM     c1 2058   1.844   3.603   4.639
    1TCM    cl1 2059   1.773   3.697   4.772
    1TCM    cl2 2060   1.821   3.691   4.486
    1TCM     h1 2061   1.952   3.588   4.657
    1TCM    cl3 2062   1.763   3.445   4.628
    1TCM     c1 2063   0.814   2.838   0.712
    1TCM    cl1 2064   0.957   2.900   0.626
    1TCM    cl2 2065   0.859   2.695   0.808
    1TCM     h1 2066   0.774   2.916   0.779
    1TCM    cl3 2067   0.689   2.792   0.593
    1TCM     c1 2068   3.010   0.208   3.369
    1TCM    cl1 2069   2.932   0.241   3.212
    1TCM    cl2 2070   2.885   0.183   3.493
    1TCM     h1 2071   3.073   0.117   3.361
    1TCM    cl3 2072   3.112   0.347   3.414
    1TCM     c1 2073   2.116   3.058   1.162
    1TCM    cl1 2074   2.104   3.151   1.313
    1TCM    cl2 2075   1.968   3.082   1.066
    1TCM     h1 2076   2.204   3.093   1.104
    1TCM    cl3 2077   2.135   2.885   1.200
    1TCM     c1 2078   3.099   5.182   4.030
    1TCM    cl1 2079   3.182   5.340   4.027
    1TCM    cl2 2080   3.192   5.069   4.131
    1TCM     h1 2081   2.997   5.195   4.073
    1TCM    cl3 2082   3.087   5.119   3.865
    1TCM     c1 2083   2.979   3.302   0.100
    1TCM    cl1 2084   3.151   3.260   0.081
    1TCM    cl2 2085   2.964   3.467   0.164
    1TCM     h1 2086   2.928   3.296   0.002
    1TCM    cl3 2087   2.902   3.188   0.213
    1TCM     c1 2088   0.231   0.399   4.263
    1TCM    cl1 2089   0.260   0.533   4.377
    1TCM    cl2 2090   0.196   0.250   4.354
    1TCM     h1 2091   0.145   0.424   4.198
    1TCM    cl3 2092   0.376   0.375   4.163
    1TCM     c1 2093   2.456   2.671   3.917
    1TCM    cl1 2094   2.501   2.551   4.040
    1TCM    cl2 2095   2.293   2.634   3.855
    1TCM     h1 2096   2.456   2.772   3.962
    1TCM    cl3 2097   2.573   2.666   3.783
    1TCM     c1 2098   0.495   1.365   0.504
    1TCM    cl1 2099   0.459   1.539   0.492
    1TCM    cl2 2100   0.565   1.307   0.352
    1TCM     h1 2101   0.567   1.348   0.587
    1TCM    cl3 2102   0.344   1.276   0.538
    1TCM     c1 2103   4.656   3.000   1.953
    1TCM    cl1 2104   4.554   2.980   1.809
    1TCM    cl2 2105   4.810   3.076   1.906
    1TCM     h1 2106   4.604   3.064   2.026
    1TCM    cl3 2107   4.688   2.841   2.025
    1TCM     c1 2108   3.130   3.253   0.593
    1TCM    cl1 2109   3.102   3.077   0.583
    1TCM    cl2 2110   3.170   3.296   0.761
    1TCM     h1 2111   3.214   3.280   0.526
    1TCM    cl3 2112   2.983   3.339   0.543
    1TCM     c1 2113   2.568   4.906   1.629
    1TCM    cl1 2114   2.467   4.964   1.495
    1TCM    cl2 2115   2.464   4.831   1.753
    1TCM     h1 2116   2.640   4.831   1.591
    1TCM    cl3 2117   2.656   5.043   1.701
    1TCM     c1 2118   2.740   3.980   4.870
    1TCM    cl1 2119   2.652   4.115   4.946
    1TCM    cl2 2120   2.730   3.995   4.693
    1TCM     h1 2121   2.846   3.982   4.901
    1TCM    cl3 2122   2.667   3.826   4.920
    1TCM     c1 2123   4.037   3.992   2.770
    1TCM    cl1 2124   4.053   4.118   2.645
    1TCM    cl2 2125   4.048   3.832   2.694
    1TCM     h1 2126   4.118   4.004   2.844
    1TCM    cl3 2127   3.879   4.009   2.851
    1TCM     c1 2128   2.344   1.545   2.471
    1TCM    cl1 2129   2.203   1.652   2.454
    1TCM    cl2 2130   2.445   1.600   2.606
    1TCM     h1 2131   2.309   1.441   2.490
    1TCM    cl3 2132   2.439   1.548   2.320
    1TCM     c1 2133   4.903   2.375   0.638
    1TCM    cl1 2134   4.844   2.267   0.767
    1TCM    cl2 2135   4.957   2.529   0.709
    1TCM     h1 2136   4.988   2.327   0.586
    1TCM    cl3 2137   4.772   2.406   0.522
    1TCM     c1 2138   4.235   0.584   3.201
    1TCM    cl1 2139   4.301   0.419   3.188
    1TCM    cl2 2140   4.114   0.590   3.332
    1TCM     h1 2141   4.317   0.655   3.223
    1TCM    cl3 2142   4.157   0.628   3.047
    1TCM     c1 2143   4.833   2.313   0.190
    1TCM    cl1 2144   4.916   2.342   0.345
    1TCM    cl2 2145   4.901   2.421   0.066
    1TCM     h1 2146   4.848   2.208   0.160
    1TCM    cl3 2147   4.659   2.346   0.209
    1TCM     c1 2148   3.397   1.227   1.092
    1TCM    cl1 2149   3.423   1.070   1.171
    1TCM    cl2 2150   3.285   1.206   0.955
    1TCM     h1 2151   3.353   1.298   1.164
    1TCM    cl3 2152   3.552   1.290   1.032
    1TCM     c1 2153   2.844   4.327   4.768
    1TCM    cl1 2154   2.895   4.235   4.625
    1TCM    cl2 2155   2.719   4.445   4.721
    1TCM     h1 2156   2.802   4.258   4.844
    1TCM    cl3 2157   2.984   4.413   4.836
    1TCM     c1 2158   1.591   5.208   0.600
    1TCM    cl1 2159   1.522   5.062   0.525
    1TCM    cl2 2160   1.492   5.255   0.740
    1TCM     h1 2161   1.695   5.186   0.633
    1TCM    cl3 2162   1.594   5.340   0.481
    1TCM     c1 2163   1.402   3.311   4.500
    1TCM    cl1 2164   1.569   3.303   4.560
    1TCM    cl2 2165   1.348   3.148   4.452
    1TCM     h1 2166   1.335   3.350   4.580
    1TCM    cl3 2167   1.395   3.419   4.359
    1TCM     c1 2168   1.236   2.336   2.405
    1TCM    cl1 2169   1.278   2.390   2.569
    1TCM    cl2 2170   1.102   2.220   2.413
    1TCM     h1 2171   1.206   2.423   2.343
    1TCM    cl3 2172   1.378   2.257   2.331
    1TCM     c1 2173   1.436   1.396   0.653
    1TCM    cl1 2174   1.544   1.521   0.719
    1TCM    cl2 2175   1.282   1.398   0.742
    1TCM     h1 2176   1.417   1.416   0.546
    1TCM    cl3 2177   1.513   1.237   0.671
    1TCM     c1 2178   0.391   5.174   3.218
    1TCM    cl1 2179   0.289   5.320   3.208
    1TCM    cl2 2180   0.500   5.169   3.078
    1TCM     h1 2181   0.450   5.177   3.312
    1TCM    cl3 2182   0.287   5.030   3.217
    1TCM     c1 2183   2.815   3.980   0.350
    1TCM    cl1 2184   2.856   4.064   0.501
    1TCM    cl2 2185   2.865   4.078   0.211
    1TCM     h1 2186   2.867   3.882   0.347
    1TCM    cl3 2187   2.639   3.954   0.343
    1TCM     c1 2188   5.045   1.809   0.939
    1TCM    cl1 2189   5.074   1.977   0.888
    1TCM    cl2 2190   5.134   1.698   0.832
    1TCM     h1 2191   5.079   1.795   1.044
    1TCM    cl3 2192   4.871   1.773   0.928
    1TCM     c1 2193   3.218   4.781   4.093
    1TCM    cl1 2194   3.294   4.887   4.214
    1TCM    cl2 2195   3.341   4.675   4.022
    1TCM     h1 2196   3.139   4.720   4.141
    1TCM    cl3 2197   3.145   4.881   3.965
    1TCM     c1 2198   0.490   3.257   3.496
    1TCM    cl1 2199   0.504   3.101   3.579
    1TCM    cl2 2200   0.468   3.231   3.322
    1TCM     h1 2201   0.403   3.313   3.537
    1TCM    cl3 2202   0.639   3.352   3.523
    1TCM     c1 2203   2.857   0.507   1.928
    1TCM    cl1 2204   2.928   0.402   1.803
    1TCM    cl2 2205   2.717   0.593   1.860
    1TCM     h1 2206   2.824   0.444   2.014
    1TCM    cl3 2207   2.978   0.625   1.982
    1TCM     c1 2208   4.826   5.011   4.348
    1TCM    cl1 2209   4.935   4.986   4.486
    1TCM    cl2 2210   4.832   4.870   4.240
    1TCM     h1 2211   4.722   5.025   4.385
    1TCM    cl3 2212   4.876   5.156   4.258
    1TCM     c1 2213   4.071   0.935   2.068
    1TCM    cl1 2214   4.099   1.082   1.971
    1TCM    cl2 2215   3.946   0.836   1.990
    1TCM     h1 2216   4.165   0.877   2.075
    1TCM    cl3 2217   4.018   0.981   2.231
    1TCM     c1 2218   2.287   4.776   2.411
    1TCM    cl1 2219   2.267   4.624   2.501
    1TCM    cl2 2220   2.335   4.739   2.244
    1TCM     h1 2221   2.191   4.832   2.411
    1TCM    cl3 2222   2.414   4.874   2.488
    1TCM     c1 2223   2.287   2.623   0.879
    1TCM    cl1 2224   2.349   2.759   0.976
    1TCM    cl2 2225   2.191   2.515   0.984
    1TCM     h1 2226   2.223   2.662   0.798
    1TCM    cl3 2227   2.423   2.532   0.810
    1TCM     c1 2228   2.216   4.759   0.459
    1TCM    cl1 2229   2.163   4.727   0.625
    1TCM    cl2 2230   2.166   4.625   0.354
    1TCM     h1 2231   2.171   4.853   0.423
    1TCM    cl3 2232   2.394   4.774   0.455
    1TCM     c1 2233   3.631   1.222   2.340
    1TCM    cl1 2234   3.656   1.104   2.470
    1TCM    cl2 2235   3.591   1.381   2.410
    1TCM     h1 2236   3.724   1.231   2.279
    1TCM    cl3 2237   3.497   1.168   2.236
    1TCM     c1 2238   3.723   4.040   0.850
    1TCM    cl1 2239   3.700   3.896   0.748
    1TCM    cl2 2240   3.767   3.989   1.015
    1TCM     h1 2241   3.804   4.102   0.808
    1TCM    cl3 2242   3.571   4.133   0.855
    1TCM     c1 2243   1.681   4.332   2.124
    1TCM    cl1 2244   1.770   4.249   1.995
    1TCM    cl2 2245   1.788   4.357   2.264
    1TCM     h1 2246   1.645   4.431   2.087
    1TCM    cl3 2247   1.541   4.233   2.173
    1TCM     c1 2248   4.974   2.791   3.020
    1TCM    cl1 2249   5.149   2.818   3.025
    1TCM    cl2 2250   4.913   2.825   2.856
    1TCM     h1 2251   4.951   2.686   3.046
    1TCM    cl3 2252   4.894   2.899   3.136
    1TCM     c1 2253   1.612   1.355   2.284
    1TCM    cl1 2254   1.594   1.196   2.361
    1TCM    cl2 2255   1.453   1.415   2.232
    1TCM     h1 2256   1.656   1.427   2.357
    1TCM    cl3 2257   1.719   1.341   2.143
    1TCM     c1 2258   1.008   4.417   0.301
    1TCM    cl1 2259   1.011   4.467   0.130
    1TCM    cl2 2260   1.074   4.253   0.316
    1TCM     h1 2261   1.070   4.488   0.361
    1TCM    cl3 2262   0.841   4.419   0.361
    1TCM     c1 2263   3.136   2.706   0.943
    1TCM    cl1 2264   3.310   2.703   0.907
    1TCM    cl2 2265   3.108   2.804   1.089
    1TCM     h1 2266   3.082   2.750   0.857
    1TCM    cl3 2267   3.079   2.540   0.971
    1TCM     c1 2268   0.602   1.982   2.542
    1TCM    cl1 2269   0.457   1.949   2.446
    1TCM    cl2 2270   0.605   1.875   2.684
    1TCM     h1 2271   0.692   1.965   2.480
    1TCM    cl3 2272   0.600   2.152   2.596
    1TCM     c1 2273   2.630   0.768   4.984
    1TCM    cl1 2274   2.731   0.886   5.072
    1TCM    cl2 2275   2.519   0.854   4.875
    1TCM     h1 2276   2.696   0.701   4.925
    1TCM    cl3 2277   2.536   0.672   5.101
    1TCM     c1 2278   0.392   4.374   4.228
    1TCM    cl1 2279   0.491   4.250   4.147
    1TCM    cl2 2280   0.447   4.392   4.397
    1TCM     h1 2281   0.402   4.470   4.175
    1TCM    cl3 2282   0.221   4.324   4.227
    1TCM     c1 2283   5.129   4.062   1.564
    1TCM    cl1 2284   5.132   3.958   1.709
    1TCM    cl2 2285   5.103   3.962   1.420
    1TCM     h1 2286   5.046   4.136   1.574
    1TCM    cl3 2287   5.284   4.148   1.550
    1TCM     c1 2288   2.606   2.270   0.466
    1TCM    cl1 2289   2.485   2.385   0.405
    1TCM    cl2 2290   2.578   2.241   0.639
    1TCM     h1 2291   2.599   2.175   0.410
    1TCM    cl3 2292   2.769   2.339   0.443
    1TCM     c1 2293   5.192   5.049   3.606
    1TCM    cl1 2294   5.201   5.101   3.436
    1TCM    cl2 2295   5.317   5.133   3.700
    1TCM     h1 2296   5.092   5.073   3.647
    1TCM    cl3 2297   5.218   4.873   3.616
    1TCM     c1 2298   3.357   2.485   2.175
    1TCM    cl1 2299   3.462   2.614   2.114
    1TCM    cl2 2300   3.193   2.505   2.110
    1TCM     h1 2301   3.398   2.386   2.144
    1TCM    cl3 2302   3.351   2.493   2.353
    1TCM     c1 2303   4.054   1.214   5.182
    1TCM    cl1 2304   4.096   1.354   5.283
    1TCM    cl2 2305   4.165   1.080   5.216
    1TCM     h1 2306   3.950   1.183   5.204
    1TCM    cl3 2307   4.067   1.259   5.010
    1TCM     c1 2308   1.175   2.134   4.457
    1TCM    cl1 2309   1.300   2.137   4.584
    1TCM    cl2 2310   1.116   1.967   4.437
    1TCM     h1 2311   1.091   2.200   4.487
    1TCM    cl3 2312   1.244   2.191   4.304
    1TCM     c1 2313   0.429   0.301   2.123
    1TCM    cl1 2314   0.475   0.239   1.963
    1TCM    cl2 2315   0.549   0.250   2.244
    1TCM     h1 2316   0.424   0.412   2.120
    1TCM    cl3 2317   0.269   0.237   2.168
    1TCM     c1 2318   3.821   0.424   1.091
    1TCM    cl1 2319   3.921   0.561   1.145
    1TCM    cl2 2320   3.649   0.470   1.097
    1TCM     h1 2321   3.848   0.397   0.987
    1TCM    cl3 2322   3.848   0.285   1.198
    1TCM     c1 2323   3.176   2.266   3.643
    1TCM    cl1 2324   3.313   2.343   3.561
    1TCM    cl2 2325   3.178   2.309   3.816
    1TCM     h1 2326   3.081   2.301   3.598
    1TCM    cl3 2327   3.189   2.089   3.626
    1TCM     c1 2328   3.753   2.852   3.539
    1TCM    cl1 2329   3.878   2.954   3.615
    1TCM    cl2 2330   3.828   2.701   3.480
    1TCM     h1 2331   3.675   2.827   3.613
    1TCM    cl3 2332   3.681   2.939   3.402
    1TCM     c1 2333   3.242   4.437   1.774
    1TCM    cl1 2334   3.198   4.606   1.810
    1TCM    cl2 2335   3.239   4.411   1.598
    1TCM     h1 2336   3.344   4.417   1.813
    1TCM    cl3 2337   3.126   4.328   1.853
    1TCM     c1 2338   0.517   1.329   4.229
    1TCM    cl1 2339   0.430   1.174   4.227
    1TCM    cl2 2340   0.513   1.401   4.066
    1TCM     h1 2341   0.469   1.398   4.301
    1TCM    cl3 2342   0.686   1.301   4.277
    1TCM     c1 2343   0.368   1.911   1.604
    1TCM    cl1 2344   0.474   1.813   1.708
    1TCM    cl2 2345   0.215   1.823   1.577
    1TCM     h1 2346   0.347   2.008   1.654
    1TCM    cl3 2347   0.448   1.940   1.448
    1TCM     c1 2348   0.079   2.911   1.380
    1TCM    cl1 2349   0.197   2.859   1.258
    1TCM    cl2 2350   0.005   3.065   1.329
    1TCM     h1 2351   0.000   2.834   1.391
    1TCM    cl3 2352   0.162   2.934   1.536
    1TCM     c1 2353   0.807   3.718   0.089
    1TCM    cl1 2354   0.750   3.552   0.061
    1TCM    cl2 2355   0.703   3.832   0.000
    1TCM     h1 2356   0.801   3.741   0.198
    1TCM    cl3 2357   0.975   3.734   0.033
    1TCM     c1 2358   3.552   1.326   1.471
    1TCM    cl1 2359   3.524   1.171   1.388
    1TCM    cl2 2360   3.683   1.306   1.590
    1TCM     h1 2361   3.581   1.403   1.398
    1TCM    cl3 2362   3.403   1.376   1.555
    1TCM     c1 2363   3.502   1.718   4.726
    1TCM    cl1 2364   3.347   1.649   4.780
    1TCM    cl2 2365   3.627   1.686   4.848
    1TCM     h1 2366   3.531   1.672   4.629
    1TCM    cl3 2367   3.484   1.894   4.704
    1TCM     c1 2368   0.719   3.963   4.301
    1TCM    cl1 2369   0.566   4.053   4.309
    1TCM    cl2 2370   0.847   4.069   4.237
    1TCM     h1 2371   0.747   3.928   4.403
    1TCM    cl3 2372   0.700   3.822   4.194
    1TCM     c1 2373   3.624   3.218   5.182
    1TCM    cl1 2374   3.587   3.130   5.032
    1TCM    cl2 2375   3.513   3.166   5.310
    1TCM     h1 2376   3.728   3.197   5.212
    1TCM    cl3 2377   3.605   3.393   5.154
    1TCM     c1 2378   0.968   2.724   1.516
    1TCM    cl1 2379   0.911   2.572   1.590
    1TCM    cl2 2380   1.142   2.712   1.484
    1TCM     h1 2381   0.914   2.741   1.421
    1TCM    cl3 2382   0.937   2.859   1.627
    1TCM     c1 2383   4.400   5.075   5.200
    1TCM    cl1 2384   4.279   5.095   5.329
    1TCM    cl2 2385   4.561   5.119   5.261
    1TCM     h1 2386   4.401   4.969   5.166
    1TCM    cl3 2387   4.358   5.180   5.062
    1TCM     c1 2388   4.418   1.108   0.313
    1TCM    cl1 2389   4.258   1.123   0.237
    1TCM    cl2 2390   4.399   1.042   0.477
    1TCM     h1 2391   4.481   1.040   0.253
    1TCM    cl3 2392   4.495   1.268   0.322
    1TCM     c1 2393   3.086   0.844   3.488
    1TCM    cl1 2394   3.048   0.832   3.315
    1TCM    cl2 2395   3.199   0.978   3.515
    1TCM     h1 2396   2.992   0.862   3.545
    1TCM    cl3 2397   3.160   0.692   3.544
    1TCM     c1 2398   4.350   1.435   4.884
    1TCM    cl1 2399   4.485   1.536   4.827
    1TCM    cl2 2400   4.341   1.288   4.785
    1TCM     h1 2401   4.367   1.407   4.990
    1TCM    cl3 2402   4.198   1.525   4.870
    1TCM     c1 2403   4.768   2.154   3.825
    1TCM    cl1 2404   4.673   2.004   3.824
    1TCM    cl2 2405   4.685   2.279   3.729
    1TCM     h1 2406   4.779   2.190   3.930
    1TCM    cl3 2407   4.929   2.123   3.755
    1TCM     c1 2408   0.106   4.924   3.853
    1TCM    cl1 2409   0.000   4.882   3.716
    1TCM    cl2 2410   0.259   4.834   3.838
    1TCM     h1 2411   0.127   5.033   3.851
    1TCM    cl3 2412   0.026   4.881   4.005
    1TCM     c1 2413   3.363   0.740   3.810
    1TCM    cl1 2414   3.220   0.652   3.754
    1TCM    cl2 2415   3.503   0.697   3.709
    1TCM     h1 2416   3.344   0.849   3.803
    1TCM    cl3 2417   3.397   0.697   3.979
    1TCM     c1 2418   3.799   3.750   1.642
    1TCM    cl1 2419   3.950   3.820   1.576
    1TCM    cl2 2420   3.793   3.780   1.817
    1TCM     h1 2421   3.712   3.798   1.593
    1TCM    cl3 2422   3.796   3.575   1.611
    1TCM     c1 2423   0.539   0.175   1.383
    1TCM    cl1 2424   0.635   0.045   1.456
    1TCM    cl2 2425   0.395   0.105   1.305
    1TCM     h1 2426   0.507   0.246   1.462
    1TCM    cl3 2427   0.636   0.261   1.262
    1TCM     c1 2428   2.162   3.967   3.692
    1TCM    cl1 2429   2.292   3.941   3.810
    1TCM    cl2 2430   2.209   3.897   3.535
    1TCM     h1 2431   2.069   3.919   3.728
    1TCM    cl3 2432   2.135   4.142   3.673
    1TCM     c1 2433   4.520   3.948   1.344
    1TCM    cl1 2434   4.549   3.927   1.519
    1TCM    cl2 2435   4.650   4.047   1.275
    1TCM     h1 2436   4.518   3.849   1.295
    1TCM    cl3 2437   4.364   4.029   1.320
    1TCM     c1 2438   3.157   4.368   4.535
    1TCM    cl1 2439   2.986   4.404   4.502
    1TCM    cl2 2440   3.168   4.242   4.660
    1TCM     h1 2441   3.205   4.333   4.442
    1TCM    cl3 2442   3.238   4.516   4.592
    1TCM     c1 2443   2.075   1.870   4.792
    1TCM    cl1 2444   1.937   1.977   4.828
    1TCM    cl2 2445   2.046   1.787   4.636
    1TCM     h1 2446   2.167   1.931   4.785
    1TCM    cl3 2447   2.092   1.749   4.921
    1TCM     c1 2448   1.554   3.469   2.010
    1TCM    cl1 2449   1.489   3.628   2.057
    1TCM    cl2 2450   1.598   3.378   2.156
    1TCM     h1 2451   1.476   3.413   1.953
    1TCM    cl3 2452   1.697   3.492   1.908
    1TCM     c1 2453   1.820   0.112   1.511
    1TCM    cl1 2454   1.891   0.095   1.673
    1TCM    cl2 2455   1.944   0.169   1.398
    1TCM     h1 2456   1.781   0.014   1.477
    1TCM    cl3 2457   1.686   0.229   1.516
    1TCM     c1 2458   4.189   4.352   3.798
    1TCM    cl1 2459   4.095   4.423   3.665
    1TCM    cl2 2460   4.109   4.388   3.953
    1TCM     h1 2461   4.196   4.242   3.784
    1TCM    cl3 2462   4.353   4.422   3.798
    1TCM     c1 2463   0.683   1.032   3.738
    1TCM    cl1 2464   0.674   1.031   3.561
    1TCM    cl2 2465   0.625   0.876   3.801
    1TCM     h1 2466   0.788   1.048   3.770
    1TCM    cl3 2467   0.581   1.163   3.802
    1TCM     c1 2468   1.687   4.458   0.707
    1TCM    cl1 2469   1.814   4.581   0.684
    1TCM    cl2 2470   1.575   4.512   0.834
    1TCM     h1 2471   1.631   4.445   0.612
    1TCM    cl3 2472   1.761   4.304   0.754
    1TCM     c1 2473   3.246   0.401   0.145
    1TCM    cl1 2474   3.134   0.315   0.253
    1TCM    cl2 2475   3.276   0.302   0.000
    1TCM     h1 2476   3.201   0.498   0.115
    1TCM    cl3 2477   3.399   0.430   0.230
    1TCM     c1 2478   3.789   0.939   3.284
    1TCM    cl1 2479   3.779   0.958   3.107
    1TCM    cl2 2480   3.960   0.926   3.331
    1TCM     h1 2481   3.744   1.027   3.333
    1TCM    cl3 2482   3.702   0.792   3.333
    1TCM     c1 2483   0.149   4.597   4.007
    1TCM    cl1 2484   0.284   4.508   3.934
    1TCM    cl2 2485   0.211   4.704   4.135
    1TCM     h1 2486   0.098   4.658   3.930
    1TCM    cl3 2487   0.033   4.482   4.078
    1TCM     c1 2488   4.444   1.692   5.234
    1TCM    cl1 2489   4.592   1.687   5.135
    1TCM    cl2 2490   4.302   1.701   5.128
    1TCM     h1 2491   4.439   1.600   5.297
    1TCM    cl3 2492   4.449   1.835   5.340
    1TCM     c1 2493   0.496   0.663   2.776
    1TCM    cl1 2494   0.626   0.645   2.657
    1TCM    cl2 2495   0.352   0.573   2.721
    1TCM     h1 2496   0.529   0.622   2.874
    1TCM    cl3 2497   0.455   0.835   2.795
    1TCM     c1 2498   0.580   2.004   2.187
    1TCM    cl1 2499   0.581   2.126   2.317
    1TCM    cl2 2500   0.520   2.078   2.037
    1TCM     h1 2501   0.682   1.965   2.171
    1TCM    cl3 2502   0.473   1.869   2.233
    1TCM     c1 2503   3.645   2.233   1.628
    1TCM    cl1 2504   3.491   2.289   1.559
    1TCM    cl2 2505   3.729   2.131   1.509
    1TCM     h1 2506   3.709   2.320   1.653
    1TCM    cl3 2507   3.613   2.138   1.775
    1TCM     c1 2508   2.698   0.916   4.409
    1TCM    cl1 2509   2.585   0.974   4.285
    1TCM    cl2 2510   2.618   0.793   4.510
    1TCM     h1 2511   2.787   0.871   4.360
    1TCM    cl3 2512   2.750   1.052   4.511
    1TCM     c1 2513   4.632   2.544   4.915
    1TCM    cl1 2514   4.615   2.674   5.036
    1TCM    cl2 2515   4.525   2.409   4.958
    1TCM     h1 2516   4.605   2.583   4.815
    1TCM    cl3 2517   4.801   2.487   4.913
    1TCM     c1 2518   3.818   0.757   2.849
    1TCM    cl1 2519   3.712   0.762   2.706
    1TCM    cl2 2520   3.887   0.918   2.877
    1TCM     h1 2521   3.758   0.727   2.938
    1TCM    cl3 2522   3.948   0.640   2.823
    1TCM     c1 2523   3.313   2.221   3.303
    1TCM    cl1 2524   3.328   2.052   3.249
    1TCM    cl2 2525   3.300   2.327   3.160
    1TCM     h1 2526   3.222   2.232   3.365
    1TCM    cl3 2527   3.456   2.266   3.398
    1TCM     c1 2528   3.833   1.623   1.580
    1TCM    cl1 2529   3.883   1.740   1.457
    1TCM    cl2 2530   3.887   1.679   1.740
    1TCM     h1 2531   3.723   1.613   1.580
    1TCM    cl3 2532   3.907   1.465   1.545
    1TCM     c1 2533   0.419   3.446   1.601
    1TCM    cl1 2534   0.253   3.425   1.662
    1TCM    cl2 2535   0.444   3.339   1.461
    1TCM     h1 2536   0.434   3.552   1.570
    1TCM    cl3 2537   0.535   3.405   1.729
    1TCM     c1 2538   2.479   3.792   4.628
    1TCM    cl1 2539   2.413   3.655   4.721
    1TCM    cl2 2540   2.385   3.939   4.666
    1TCM     h1 2541   2.585   3.808   4.656
    1TCM    cl3 2542   2.467   3.757   4.455
    1TCM     c1 2543   1.941   1.622   1.950
    1TCM    cl1 2544   2.109   1.639   2.005
    1TCM    cl2 2545   1.938   1.591   1.775
    1TCM     h1 2546   1.893   1.538   2.003
    1TCM    cl3 2547   1.852   1.773   1.984
    1TCM     c1 2548   4.512   2.591   0.384
    1TCM    cl1 2549   4.658   2.677   0.330
    1TCM    cl2 2550   4.557   2.465   0.501
    1TCM     h1 2551   4.442   2.663   0.432
    1TCM    cl3 2552   4.432   2.516   0.244
    1TCM     c1 2553   3.109   4.600   3.588
    1TCM    cl1 2554   2.964   4.542   3.504
    1TCM    cl2 2555   3.238   4.478   3.575
    1TCM     h1 2556   3.144   4.695   3.542
    1TCM    cl3 2557   3.071   4.628   3.760
    1TCM     c1 2558   5.001   3.886   5.226
    1TCM    cl1 2559   4.869   3.794   5.300
    1TCM    cl2 2560   4.990   4.056   5.276
    1TCM     h1 2561   5.098   3.844   5.259
    1TCM    cl3 2562   4.989   3.875   5.049
    1TCM     c1 2563   1.173   2.673   3.337
    1TCM    cl1 2564   1.058   2.573   3.427
    1TCM    cl2 2565   1.148   2.650   3.162
    1TCM     h1 2566   1.159   2.780   3.363
    1TCM    cl3 2567   1.339   2.625   3.379
    1TCM     c1 2568   2.499   2.833   1.315
    1TCM    cl1 2569   2.369   2.885   1.205
    1TCM    cl2 2570   2.524   2.658   1.299
    1TCM     h1 2571   2.593   2.886   1.290
    1TCM    cl3 2572   2.453   2.871   1.483
    1TCM     c1 2573   0.133   3.562   3.582
    1TCM    cl1 2574   0.248   3.561   3.446
    1TCM    cl2 2575   0.000   3.449   3.548
    1TCM     h1 2576   0.186   3.530   3.675
    1TCM    cl3 2577   0.068   3.726   3.605
    1TCM     c1 2578   2.494   4.874   3.323
    1TCM    cl1 2579   2.645   4.830   3.406
    1TCM    cl2 2580   2.357   4.856   3.435
    1TCM     h1 2581   2.500   4.979   3.289
    1TCM    cl3 2582   2.470   4.767   3.183
    1TCM     c1 2583   4.998   2.730   4.195
    1TCM    cl1 2584   5.169   2.780   4.202
    1TCM    cl2 2585   4.895   2.875   4.188
    1TCM     h1 2586   4.982   2.669   4.104
    1TCM    cl3 2587   4.958   2.635   4.340
    1TCM     c1 2588   2.575   2.254   3.562
    1TCM    cl1 2589   2.408   2.198   3.539
    1TCM    cl2 2590   2.640   2.312   3.407
    1TCM     h1 2591   2.576   2.338   3.636
    1TCM    cl3 2592   2.675   2.121   3.623
    1TCM     c1 2593   1.988   0.876   3.950
    1TCM    cl1 2594   2.034   0.811   4.108
    1TCM    cl2 2595   1.962   1.052   3.963
    1TCM     h1 2596   2.069   0.857   3.876
    1TCM    cl3 2597   1.838   0.798   3.894
    1TCM     c1 2598   0.913   0.371   0.879
    1TCM    cl1 2599   0.927   0.527   0.964
    1TCM    cl2 2600   0.947   0.394   0.706
    1TCM     h1 2601   0.986   0.299   0.922
    1TCM    cl3 2602   0.748   0.307   0.899
    1TCM     c1 2603   4.155   1.430   3.662
    1TCM    cl1 2604   4.050   1.573   3.676
    1TCM    cl2 2605   4.190   1.366   3.824
    1TCM     h1 2606   4.103   1.352   3.602
    1TCM    cl3 2607   4.307   1.475   3.582
    1TCM     c1 2608   3.234   4.989   3.377
    1TCM    cl1 2609   3.401   5.015   3.431
    1TCM    cl2 2610   3.139   4.918   3.510
    1TCM     h1 2611   3.189   5.086   3.348
    1TCM    cl3 2612   3.233   4.879   3.237
    1TCM     c1 2613   2.221   2.559   3.108
    1TCM    cl1 2614   2.119   2.457   3.003
    1TCM    cl2 2615   2.126   2.697   3.167
    1TCM     h1 2616   2.257   2.499   3.194
    1TCM    cl3 2617   2.360   2.619   3.015
    1TCM     c1 2618   1.483   0.718   5.259
    1TCM    cl1 2619   1.485   0.877   5.339
    1TCM    cl2 2620   1.457   0.741   5.084
    1TCM     h1 2621   1.580   0.668   5.276
    1TCM    cl3 2622   1.352   0.619   5.326
    1TCM     c1 2623   2.304   4.360   4.363
    1TCM    cl1 2624   2.182   4.449   4.270
    1TCM    cl2 2625   2.247   4.338   4.530
    1TCM     h1 2626   2.321   4.260   4.316
    1TCM    cl3 2627   2.457   4.451   4.365
    1TCM     c1 2628   0.781   3.762   5.051
    1TCM    cl1 2629   0.771   3.898   4.937
    1TCM    cl2 2630   0.617   3.708   5.093
    1TCM     h1 2631   0.836   3.678   5.003
    1TCM    cl3 2632   0.866   3.814   5.198
    1TCM     c1 2633   5.094   3.052   1.875
    1TCM    cl1 2634   5.071   3.195   1.771
    1TCM    cl2 2635   5.083   3.101   2.045
    1TCM     h1 2636   5.015   2.978   1.853
    1TCM    cl3 2637   5.253   2.981   1.843
    1TCM     c1 2638   3.347   1.217   3.621
    1TCM    cl1 2639   3.396   1.361   3.714
    1TCM    cl2 2640   3.388   1.240   3.450
    1TCM     h1 2641   3.400   1.128   3.661
    1TCM    cl3 2642   3.171   1.193   3.638
    1TCM     c1 2643   0.081   1.324   1.833
    1TCM    cl1 2644   0.251   1.276   1.853
    1TCM    cl2 2645   0.000   1.320   1.992
    1TCM     h1 2646   0.076   1.426   1.792
    1TCM    cl3 2647   0.000   1.211   1.722
    1TCM     c1 2648   1.527   0.104   1.319
    1TCM    cl1 2649   1.404   0.021   1.222
    1TCM    cl2 2650   1.689   0.057   1.262
    1TCM     h1 2651   1.515   0.213   1.309
    1TCM    cl3 2652   1.510   0.057   1.490
    1TCM     c1 2653   2.756   2.942   3.918
    1TCM    cl1 2654   2.815   2.798   4.004
    1TCM    cl2 2655   2.878   3.071   3.930
    1TCM     h1 2656   2.739   2.917   3.811
    1TCM    cl3 2657   2.604   2.997   3.991
    1TCM     c1 2658   5.134   3.319   1.243
    1TCM    cl1 2659   5.225   3.444   1.154
    1TCM    cl2 2660   5.035   3.397   1.368
    1TCM     h1 2661   5.068   3.264   1.173
    1TCM    cl3 2662   5.247   3.206   1.319
    1TCM     c1 2663   1.887   0.289   0.193
    1TCM    cl1 2664   1.755   0.170   0.203
    1TCM    cl2 2665   2.012   0.229   0.082
    1TCM     h1 2666   1.847   0.385   0.155
    1TCM    cl3 2667   1.957   0.313   0.354
    1TCM     c1 2668   1.112   1.982   3.027
    1TCM    cl1 2669   1.179   1.833   2.958
    1TCM    cl2 2670   1.243   2.076   3.103
    1TCM     h1 2671   1.066   2.043   2.946
    1TCM    cl3 2672   0.989   1.942   3.149
    1TCM     c1 2673   2.703   3.868   2.468
    1TCM    cl1 2674   2.852   3.810   2.390
    1TCM    cl2 2675   2.743   4.000   2.581
    1TCM     h1 2676   2.633   3.905   2.391
    1TCM    cl3 2677   2.628   3.734   2.558
    1TCM     c1 2678   1.494   0.633   2.923
    1TCM    cl1 2679   1.394   0.748   2.832
    1TCM    cl2 2680   1.444   0.634   3.094
    1TCM     h1 2681   1.480   0.531   2.881
    1TCM    cl3 2682   1.665   0.679   2.910
    1TCM     c1 2683   5.119   5.018   2.847
    1TCM    cl1 2684   5.021   4.891   2.770
    1TCM    cl2 2685   5.136   4.982   3.020
    1TCM     h1 2686   5.219   5.021   2.800
    1TCM    cl3 2687   5.038   5.175   2.827
    1TCM     c1 2688   2.612   3.889   3.224
    1TCM    cl1 2689   2.487   3.957   3.331
    1TCM    cl2 2690   2.625   3.989   3.078
    1TCM     h1 2691   2.709   3.888   3.278
    1TCM    cl3 2692   2.567   3.723   3.179
    1TCM     c1 2693   5.093   4.985   0.211
    1TCM    cl1 2694   4.922   5.031   0.194
    1TCM    cl2 2695   5.158   4.938   0.052
    1TCM     h1 2696   5.151   5.071   0.251
    1TCM    cl3 2697   5.106   4.848   0.324
    1TCM     c1 2698   1.540   4.066   5.169
    1TCM    cl1 2699   1.390   4.052   5.075
    1TCM    cl2 2700   1.629   3.913   5.161
    1TCM     h1 2701   1.602   4.148   5.128
    1TCM    cl3 2702   1.500   4.102   5.339
    1TCM     c1 2703   0.450   2.014   3.476
    1TCM    cl1 2704   0.351   2.092   3.350
    1TCM    cl2 2705   0.383   1.854   3.513
    1TCM     h1 2706   0.554   2.003   3.439
    1TCM    cl3 2707   0.449   2.115   3.622
    1TCM     c1 2708   4.646   0.452   4.850
    1TCM    cl1 2709   4.644   0.455   5.028
    1TCM    cl2 2710   4.634   0.619   4.788
    1TCM     h1 2711   4.741   0.407   4.815
    1TCM    cl3 2712   4.508   0.357   4.791
    1TCM     c1 2713   4.342   2.425   2.466
    1TCM    cl1 2714   4.256   2.280   2.522
    1TCM    cl2 2715   4.467   2.470   2.584
    1TCM     h1 2716   4.390   2.404   2.368
    1TCM    cl3 2717   4.226   2.559   2.447
    1TCM     c1 2718   3.486   4.725   1.653
    1TCM    cl1 2719   3.494   4.556   1.708
    1TCM    cl2 2720   3.561   4.738   1.492
    1TCM     h1 2721   3.380   4.757   1.647
    1TCM    cl3 2722   3.574   4.829   1.768
    1TCM     c1 2723   5.213   5.181   0.758
    1TCM    cl1 2724   5.258   5.340   0.824
    1TCM    cl2 2725   5.036   5.173   0.740
    1TCM     h1 2726   5.261   5.167   0.659
    1TCM    cl3 2727   5.267   5.053   0.868
    1TCM     c1 2728   3.973   5.148   0.260
    1TCM    cl1 2729   4.017   5.088   0.421
    1TCM    cl2 2730   4.121   5.186   0.169
    1TCM     h1 2731   3.915   5.069   0.206
    1TCM    cl3 2732   3.873   5.294   0.276
    1TCM     c1 2733   0.703   5.240   2.433
    1TCM    cl1 2734   0.599   5.340   2.537
    1TCM    cl2 2735   0.674   5.280   2.263
    1TCM     h1 2736   0.810   5.260   2.458
    1TCM    cl3 2737   0.667   5.068   2.461
    1TCM     c1 2738   2.877   5.146   4.398
    1TCM    cl1 2739   2.822   5.243   4.259
    1TCM    cl2 2740   2.961   5.001   4.339
    1TCM     h1 2741   2.946   5.207   4.460
    1TCM    cl3 2742   2.736   5.098   4.495
    1TCM     c1 2743   4.417   4.187   1.836
    1TCM    cl1 2744   4.279   4.161   1.727
    1TCM    cl2 2745   4.358   4.207   2.003
    1TCM     h1 2746   4.485   4.100   1.831
    1TCM    cl3 2747   4.504   4.334   1.787
    1TCM     c1 2748   3.245   3.725   4.881
    1TCM    cl1 2749   3.365   3.714   5.012
    1TCM    cl2 2750   3.317   3.664   4.730
    1TCM     h1 2751   3.156   3.664   4.907
    1TCM    cl3 2752   3.197   3.895   4.859
    1TCM     c1 2753   2.763   0.532   4.344
    1TCM    cl1 2754   2.675   0.527   4.498
    1TCM    cl2 2755   2.720   0.390   4.246
    1TCM     h1 2756   2.736   0.625   4.289
    1TCM    cl3 2757   2.938   0.531   4.375
    1TCM     c1 2758   3.344   3.352   1.816
    1TCM    cl1 2759   3.487   3.436   1.752
    1TCM    cl2 2760   3.327   3.387   1.990
    1TCM     h1 2761   3.253   3.387   1.763
    1TCM    cl3 2762   3.363   3.177   1.793
    1TCM     c1 2763   0.132   3.116   3.462
    1TCM    cl1 2764   0.224   3.116   3.310
    1TCM    cl2 2765   0.244   3.118   3.600
    1TCM     h1 2766   0.067   3.205   3.466
    1TCM    cl3 2767   0.031   2.969   3.470
    1TCM     c1 2768   1.509   3.840   3.104
    1TCM    cl1 2769   1.600   3.868   3.254
    1TCM    cl2 2770   1.514   3.987   3.003
    1TCM     h1 2771   1.555   3.756   3.048
    1TCM    cl3 2772   1.340   3.800   3.143
    1TCM     c1 2773   2.838   4.215   1.753
    1TCM    cl1 2774   2.698   4.105   1.747
    1TCM    cl2 2775   2.898   4.226   1.921
    1TCM     h1 2776   2.919   4.177   1.688
    1TCM    cl3 2777   2.789   4.377   1.698
    1TCM     c1 2778   5.139   1.669   2.957
    1TCM    cl1 2779   5.084   1.647   2.790
    1TCM    cl2 2780   5.317   1.673   2.962
    1TCM     h1 2781   5.099   1.764   2.997
    1TCM    cl3 2782   5.080   1.534   3.057
    1TCM     c1 2783   4.411   3.395   2.964
    1TCM    cl1 2784   4.419   3.302   2.812
    1TCM    cl2 2785   4.337   3.296   3.091
    1TCM     h1 2786   4.514   3.424   2.994
    1TCM    cl3 2787   4.313   3.541   2.938
    1TCM     c1 2788   2.713   4.970   2.636
    1TCM    cl1 2789   2.717   4.793   2.652
    1TCM    cl2 2790   2.742   5.045   2.795
    1TCM     h1 2791   2.793   5.002   2.565
    1TCM    cl3 2792   2.555   5.020   2.574
    1TCM     c1 2793   3.023   3.274   2.428
    1TCM    cl1 2794   2.925   3.200   2.300
    1TCM    cl2 2795   3.193   3.281   2.375
    1TCM     h1 2796   2.986   3.376   2.449
    1TCM    cl3 2797   3.011   3.175   2.576
    1TCM     c1 2798   1.925   3.495   4.128
    1TCM    cl1 2799   1.901   3.642   4.031
    1TCM    cl2 2800   1.988   3.539   4.288
    1TCM     h1 2801   1.828   3.442   4.140
    1TCM    cl3 2802   2.041   3.387   4.047
    1TCM     c1 2803   4.981   1.935   0.514
    1TCM    cl1 2804   4.931   1.843   0.371
    1TCM    cl2 2805   4.930   1.849   0.661
    1TCM     h1 2806   5.092   1.946   0.514
    1TCM    cl3 2807   4.906   2.096   0.511
    1TCM     c1 2808   2.066   3.096   2.082
    1TCM    cl1 2809   2.192   3.155   2.192
    1TCM    cl2 2810   2.141   3.010   1.946
    1TCM     h1 2811   1.998   3.027   2.137
    1TCM    cl3 2812   1.972   3.234   2.021
    1TCM     c1 2813   1.991   0.950   4.968
    1TCM    cl1 2814   2.040   1.117   4.934
    1TCM    cl2 2815   2.111   0.838   4.899
    1TCM     h1 2816   1.986   0.934   5.078
    1TCM    cl3 2817   1.832   0.918   4.896
    1TCM     c1 2818   0.320   5.093   4.005
    1TCM    cl1 2819   0.444   5.161   4.114
    1TCM    cl2 2820   0.349   5.151   3.839
    1TCM     h1 2821   0.325   4.983   4.007
    1TCM    cl3 2822   0.159   5.146   4.059
    1TCM     c1 2823   1.659   4.495   1.729
    1TCM    cl1 2824   1.650   4.629   1.613
    1TCM    cl2 2825   1.826   4.478   1.787
    1TCM     h1 2826   1.591   4.515   1.814
    1TCM    cl3 2827   1.609   4.344   1.648
    1TCM     c1 2828   4.926   0.951   4.255
    1TCM    cl1 2829   4.937   0.891   4.422
    1TCM    cl2 2830   4.875   0.820   4.147
    1TCM     h1 2831   4.852   1.034   4.250
    1TCM    cl3 2832   5.085   1.012   4.203
    1TCM     c1 2833   2.356   3.234   0.254
    1TCM    cl1 2834   2.412   3.339   0.122
    1TCM    cl2 2835   2.315   3.335   0.396
    1TCM     h1 2836   2.266   3.178   0.222
    1TCM    cl3 2837   2.484   3.120   0.298
    1TCM     c1 2838   2.670   4.299   1.428
    1TCM    cl1 2839   2.682   4.476   1.437
    1TCM    cl2 2840   2.676   4.248   1.258
    1TCM     h1 2841   2.755   4.254   1.483
    1TCM    cl3 2842   2.517   4.247   1.500
    1TCM     c1 2843   1.656   0.927   4.077
    1TCM    cl1 2844   1.740   0.774   4.108
    1TCM    cl2 2845   1.741   1.016   3.948
    1TCM     h1 2846   1.551   0.907   4.045
    1TCM    cl3 2847   1.654   1.025   4.225
    1TCM     c1 2848   1.586   1.117   2.865
    1TCM    cl1 2849   1.638   1.112   2.695
    1TCM    cl2 2850   1.566   0.951   2.925
    1TCM     h1 2851   1.662   1.169   2.926
    1TCM    cl3 2852   1.431   1.203   2.877
    1TCM     c1 2853   1.990   3.194   3.480
    1TCM    cl1 2854   1.961   3.172   3.305
    1TCM    cl2 2855   2.032   3.363   3.512
    1TCM     h1 2856   1.898   3.167   3.536
    1TCM    cl3 2857   2.123   3.088   3.531
    1TCM     c1 2858   3.871   4.308   3.052
    1TCM    cl1 2859   3.792   4.451   3.121
    1TCM    cl2 2860   3.877   4.325   2.875
    1TCM     h1 2861   3.974   4.300   3.092
    1TCM    cl3 2862   3.779   4.162   3.094
    1TCM     c1 2863   2.710   5.171   0.503
    1TCM    cl1 2864   2.886   5.148   0.496
    1TCM    cl2 2865   2.673   5.331   0.570
    1TCM     h1 2866   2.668   5.163   0.400
    1TCM    cl3 2867   2.638   5.045   0.606
    1TCM     c1 2868   1.650   3.807   4.112
    1TCM    cl1 2869   1.772   3.936   4.104
    1TCM    cl2 2870   1.697   3.689   4.236
    1TCM     h1 2871   1.551   3.851   4.139
    1TCM    cl3 2872   1.638   3.726   3.954
    1TCM     c1 2873   2.362   2.242   1.330
    1TCM    cl1 2874   2.511   2.336   1.351
    1TCM    cl2 2875   2.237   2.344   1.256
    1TCM     h1 2876   2.382   2.155   1.264
    1TCM    cl3 2877   2.305   2.184   1.488
    1TCM     c1 2878   3.065   0.126   3.764
    1TCM    cl1 2879   3.189   0.059   3.872
    1TCM    cl2 2880   2.984   0.263   3.844
    1TCM     h1 2881   3.112   0.161   3.670
    1TCM    cl3 2882   2.945   0.000   3.727
    1TCM     c1 2883   2.071   1.320   2.208
    1TCM    cl1 2884   2.187   1.384   2.089
    1TCM    cl2 2885   1.936   1.434   2.226
    1TCM     h1 2886   2.033   1.222   2.173
    1TCM    cl3 2887   2.153   1.299   2.365
    1TCM     c1 2888   2.315   2.849   0.289
    1TCM    cl1 2889   2.258   2.846   0.457
    1TCM    cl2 2890   2.247   2.711   0.200
    1TCM     h1 2891   2.282   2.944   0.240
    1TCM    cl3 2892   2.493   2.840   0.286
    1TCM     c1 2893   3.600   2.499   4.371
    1TCM    cl1 2894   3.680   2.652   4.414
    1TCM    cl2 2895   3.724   2.381   4.320
    1TCM     h1 2896   3.545   2.460   4.458
    1TCM    cl3 2897   3.487   2.527   4.237
    1TCM     c1 2898   0.775   0.437   1.997
    1TCM    cl1 2899   0.636   0.396   1.894
    1TCM    cl2 2900   0.738   0.396   2.166
    1TCM     h1 2901   0.864   0.380   1.963
    1TCM    cl3 2902   0.808   0.612   1.985
    1TCM     c1 2903   0.080   2.883   3.891
    1TCM    cl1 2904   0.138   3.050   3.908
    1TCM    cl2 2905   0.015   2.827   4.046
    1TCM     h1 2906   0.000   2.879   3.814
    1TCM    cl3 2907   0.215   2.779   3.841
    1TCM     c1 2908   4.293   4.860   0.798
    1TCM    cl1 2909   4.324   4.860   0.973
    1TCM    cl2 2910   4.330   5.021   0.732
    1TCM     h1 2911   4.357   4.784   0.749
    1TCM    cl3 2912   4.122   4.822   0.768
    1TCM     c1 2913   0.284   4.318   1.093
    1TCM    cl1 2914   0.269   4.141   1.074
    1TCM    cl2 2915   0.135   4.396   1.034
    1TCM     h1 2916   0.298   4.342   1.200
    1TCM    cl3 2917   0.423   4.376   0.999
    1TCM     c1 2918   2.186   2.365   3.844
    1TCM    cl1 2919   2.278   2.422   3.703
    1TCM    cl2 2920   2.285   2.386   3.991
    1TCM     h1 2921   2.093   2.425   3.854
    1TCM    cl3 2922   2.146   2.194   3.824
    1TCM     c1 2923   0.587   4.081   1.310
    1TCM    cl1 2924   0.497   4.127   1.163
    1TCM    cl2 2925   0.541   4.188   1.444
    1TCM     h1 2926   0.564   3.976   1.336
    1TCM    cl3 2927   0.762   4.097   1.279
    1TCM     c1 2928   1.518   3.856   0.420
    1TCM    cl1 2929   1.505   3.699   0.339
    1TCM    cl2 2930   1.686   3.883   0.473
    1TCM     h1 2931   1.488   3.937   0.350
    1TCM    cl3 2932   1.411   3.858   0.562
    1TCM     c1 2933   3.153   2.132   2.564
    1TCM    cl1 2934   3.271   1.999   2.552
    1TCM    cl2 2935   3.165   2.235   2.420
    1TCM     h1 2936   3.051   2.090   2.572
    1TCM    cl3 2937   3.188   2.229   2.709
    1TCM     c1 2938   1.934   2.764   2.534
    1TCM    cl1 2939   2.023   2.715   2.680
    1TCM    cl2 2940   1.760   2.736   2.559
    1TCM     h1 2941   1.952   2.872   2.514
    1TCM    cl3 2942   1.990   2.668   2.395
    1TCM     c1 2943   3.412   5.127   2.098
    1TCM    cl1 2944   3.347   5.245   1.982
    1TCM    cl2 2945   3.278   5.042   2.178
    1TCM     h1 2946   3.476   5.054   2.045
    1TCM    cl3 2947   3.510   5.212   2.220
    1TCM     c1 2948   1.062   2.568   4.450
    1TCM    cl1 2949   1.140   2.714   4.514
    1TCM    cl2 2950   1.163   2.498   4.322
    1TCM     h1 2951   1.049   2.494   4.531
    1TCM    cl3 2952   0.903   2.611   4.383
    1TCM     c1 2953   4.590   3.907   4.942
    1TCM    cl1 2954   4.669   3.775   5.030
    1TCM    cl2 2955   4.646   3.907   4.773
    1TCM     h1 2956   4.480   3.893   4.944
    1TCM    cl3 2957   4.632   4.063   5.017
    1TCM     c1 2958   4.918   1.881   4.163
    1TCM    cl1 2959   5.085   1.822   4.185
    1TCM    cl2 2960   4.868   1.855   3.995
    1TCM     h1 2961   4.850   1.825   4.231
    1TCM    cl3 2962   4.911   2.054   4.202
    1TCM     c1 2963   4.086   2.321   2.898
    1TCM    cl1 2964   4.028   2.161   2.950
    1TCM    cl2 2965   3.949   2.416   2.838
    1TCM     h1 2966   4.132   2.373   2.985
    1TCM    cl3 2967   4.207   2.302   2.769
    1TCM     c1 2968   1.467   2.829   5.168
    1TCM    cl1 2969   1.450   2.999   5.220
    1TCM    cl2 2970   1.310   2.747   5.184
    1TCM     h1 2971   1.500   2.827   5.062
    1TCM    cl3 2972   1.588   2.748   5.269
    1TCM     c1 2973   3.655   2.149   3.134
    1TCM    cl1 2974   3.490   2.215   3.123
    1TCM    cl2 2975   3.722   2.184   3.295
    1TCM     h1 2976   3.651   2.039   3.119
    1TCM    cl3 2977   3.757   2.222   3.009
    1TCM     c1 2978   2.806   4.933   0.991
    1TCM    cl1 2979   2.776   5.108   0.972
    1TCM    cl2 2980   2.657   4.854   1.048
    1TCM     h1 2981   2.836   4.890   0.893
    1TCM    cl3 2982   2.936   4.907   1.109
    1TCM     c1 2983   1.657   3.846   0.893
    1TCM    cl1 2984   1.821   3.792   0.939
    1TCM    cl2 2985   1.618   3.785   0.731
    1TCM     h1 2986   1.584   3.807   0.966
    1TCM    cl3 2987   1.652   4.024   0.892
    1TCM     c1 2988   5.070   3.221   5.123
    1TCM    cl1 2989   5.002   3.343   5.233
    1TCM    cl2 2990   4.955   3.086   5.106
    1TCM     h1 2991   5.089   3.266   5.024
    1TCM    cl3 2992   5.223   3.159   5.190
    1TCM     c1 2993   2.928   5.029   3.113
    1TCM    cl1 2994   3.096   5.077   3.148
    1TCM    cl2 2995   2.909   5.003   2.939
    1TCM     h1 2996   2.904   4.936   3.168
    1TCM    cl3 2997   2.818   5.159   3.166
    1TCM     c1 2998   4.814   3.847   3.637
    1TCM    cl1 2999   4.708   3.847   3.780
    1TCM    cl2 3000   4.718   3.886   3.493
    1TCM     h1 3001   4.894   3.924   3.650
    1TCM    cl3 3002   4.888   3.687   3.618
    1TCM     c1 3003   1.695   0.901   3.171
    1TCM    cl1 3004   1.824   1.010   3.116
    1TCM    cl2 3005   1.543   0.993   3.185
    1TCM     h1 3006   1.681   0.819   3.097
    1TCM    cl3 3007   1.737   0.832   3.329
    1TCM     c1 3008   3.332   2.757   4.548
    1TCM    cl1 3009   3.317   2.934   4.557
    1TCM    cl2 3010   3.327   2.706   4.378
    1TCM     h1 3011   3.428   2.726   4.594
    1TCM    cl3 3012   3.197   2.681   4.636
    1TCM     c1 3013   2.368   4.279   0.567
    1TCM    cl1 3014   2.288   4.159   0.464
    1TCM    cl2 3015   2.418   4.202   0.719
    1TCM     h1 3016   2.457   4.319   0.515
    1TCM    cl3 3017   2.255   4.412   0.602
    1TCM     c1 3018   3.239   1.593   0.302
    1TCM    cl1 3019   3.354   1.687   0.205
    1TCM    cl2 3020   3.156   1.475   0.198
    1TCM     h1 3021   3.294   1.539   0.382
    1TCM    cl3 3022   3.119   1.702   0.375
    1TCM     c1 3023   2.406   1.749   4.099
    1TCM    cl1 3024   2.490   1.759   4.255
    1TCM    cl2 3025   2.233   1.719   4.127
    1TCM     h1 3026   2.419   1.844   4.043
    1TCM    cl3 3027   2.474   1.615   4.003
    1TCM     c1 3028   1.259   0.993   2.731
    1TCM    cl1 3029   1.433   1.014   2.697
    1TCM    cl2 3030   1.164   1.055   2.594
    1TCM     h1 3031   1.237   0.885   2.746
    1TCM    cl3 3032   1.217   1.083   2.878
    1TCM     c1 3033   2.815   4.352   5.130
    1TCM    cl1 3034   2.759   4.343   5.299
    1TCM    cl2 3035   2.693   4.436   5.032
    1TCM     h1 3036   2.911   4.409   5.126
    1TCM    cl3 3037   2.840   4.188   5.067
    1TCM     c1 3038   2.366   4.451   1.622
    1TCM    cl1 3039   2.477   4.341   1.706
    1TCM    cl2 3040   2.366   4.413   1.448
    1TCM     h1 3041   2.263   4.439   1.662
    1TCM    cl3 3042   2.419   4.619   1.646
    1TCM     c1 3043   0.980   2.530   5.121
    1TCM    cl1 3044   0.823   2.501   5.200
    1TCM    cl2 3045   1.010   2.404   4.999
    1TCM     h1 3046   0.979   2.629   5.072
    1TCM    cl3 3047   1.110   2.526   5.243
    1TCM     c1 3048   1.689   1.043   1.663
    1TCM    cl1 3049   1.641   1.067   1.494
    1TCM    cl2 3050   1.570   0.939   1.744
    1TCM     h1 3051   1.789   0.995   1.666
    1TCM    cl3 3052   1.696   1.201   1.746
    1TCM     c1 3053   0.529   3.620   3.667
    1TCM    cl1 3054   0.371   3.701   3.662
    1TCM    cl2 3055   0.589   3.597   3.501
    1TCM     h1 3056   0.601   3.683   3.724
    1TCM    cl3 3057   0.512   3.462   3.747
    1TCM     c1 3058   0.296   0.165   3.740
    1TCM    cl1 3059   0.337   0.337   3.715
    1TCM    cl2 3060   0.422   0.064   3.665
    1TCM     h1 3061   0.291   0.144   3.848
    1TCM    cl3 3062   0.139   0.130   3.665
    1TCM     c1 3063   4.261   5.196   3.312
    1TCM    cl1 3064   4.406   5.226   3.410
    1TCM    cl2 3065   4.288   5.056   3.206
    1TCM     h1 3066   4.174   5.177   3.378
    1TCM    cl3 3067   4.227   5.339   3.211
    1TCM     c1 3068   3.253   4.025   1.564
    1TCM    cl1 3069   3.375   4.154   1.582
    1TCM    cl2 3070   3.297   3.887   1.667
    1TCM     h1 3071   3.154   4.064   1.594
    1TCM    cl3 3072   3.247   3.973   1.394
    1TCM     c1 3073   4.658   4.328   3.840
    1TCM    cl1 3074   4.588   4.474   3.914
    1TCM    cl2 3075   4.756   4.242   3.961
    1TCM     h1 3076   4.576   4.261   3.806
    1TCM    cl3 3077   4.760   4.373   3.702
    1TCM     c1 3078   0.984   3.720   0.403
    1TCM    cl1 3079   1.068   3.616   0.521
    1TCM    cl2 3080   0.997   3.646   0.242
    1TCM     h1 3081   0.877   3.729   0.431
    1TCM    cl3 3082   1.060   3.881   0.401
    1TCM     c1 3083   5.127   2.333   5.096
    1TCM    cl1 3084   5.061   2.266   5.247
    1TCM    cl2 3085   5.303   2.350   5.111
    1TCM     h1 3086   5.103   2.265   5.012
    1TCM    cl3 3087   5.054   2.493   5.066
    1TCM     c1 3088   0.996   5.026   2.497
    1TCM    cl1 3089   0.911   5.114   2.627
    1TCM    cl2 3090   0.984   5.119   2.346
    1TCM     h1 3091   1.103   5.014   2.525
    1TCM    cl3 3092   0.921   4.867   2.475
    1TCM     c1 3093   1.023   1.252   4.217
    1TCM    cl1 3094   0.948   1.367   4.330
    1TCM    cl2 3095   0.998   1.309   4.050
    1TCM     h1 3096   1.132   1.246   4.238
    1TCM    cl3 3097   0.948   1.092   4.237
    1TCM     c1 3098   3.912   2.700   4.213
    1TCM    cl1 3099   3.789   2.628   4.105
    1TCM    cl2 3100   3.906   2.619   4.371
    1TCM     h1 3101   4.012   2.687   4.168
    1TCM    cl3 3102   3.878   2.873   4.233
    1TCM     c1 3103   2.308   3.524   5.226
    1TCM    cl1 3104   2.446   3.481   5.122
    1TCM    cl2 3105   2.164   3.434   5.174
    1TCM     h1 3106   2.332   3.497   5.332
    1TCM    cl3 3107   2.276   3.698   5.214
    1TCM     c1 3108   1.299   0.540   1.060
    1TCM    cl1 3109   1.254   0.621   0.908
    1TCM    cl2 3110   1.236   0.634   1.197
    1TCM     h1 3111   1.256   0.438   1.062
    1TCM    cl3 3112   1.476   0.530   1.071
    1TCM     c1 3113   0.405   3.674   0.570
    1TCM    cl1 3114   0.463   3.673   0.402
    1TCM    cl2 3115   0.402   3.507   0.633
    1TCM     h1 3116   0.472   3.736   0.632
    1TCM    cl3 3117   0.240   3.742   0.576
    1TCM     c1 3118   3.216   1.632   3.497
    1TCM    cl1 3119   3.267   1.788   3.430
    1TCM    cl2 3120   3.211   1.510   3.368
    1TCM     h1 3121   3.287   1.600   3.575
    1TCM    cl3 3122   3.054   1.648   3.569
    1TCM     c1 3123   2.744   4.705   0.292
    1TCM    cl1 3124   2.700   4.873   0.255
    1TCM    cl2 3125   2.821   4.630   0.150
    1TCM     h1 3126   2.815   4.703   0.378
    1TCM    cl3 3127   2.598   4.613   0.335
    1TCM     c1 3128   3.715   3.551   3.370
    1TCM    cl1 3129   3.855   3.441   3.376
    1TCM    cl2 3130   3.737   3.668   3.238
    1TCM     h1 3131   3.622   3.492   3.352
    1TCM    cl3 3132   3.701   3.638   3.525
    1TCM     c1 3133   2.954   3.904   0.976
    1TCM    cl1 3134   2.849   4.026   0.902
    1TCM    cl2 3135   2.874   3.745   0.973
    1TCM     h1 3136   3.050   3.899   0.920
    1TCM    cl3 3137   2.987   3.950   1.145
    1TCM     c1 3138   4.473   4.358   1.216
    1TCM    cl1 3139   4.514   4.441   1.064
    1TCM    cl2 3140   4.621   4.293   1.290
    1TCM     h1 3141   4.426   4.430   1.286
    1TCM    cl3 3142   4.360   4.225   1.183
    1TCM     c1 3143   4.612   3.077   0.243
    1TCM    cl1 3144   4.611   3.141   0.409
    1TCM    cl2 3145   4.775   3.015   0.205
    1TCM     h1 3146   4.538   2.994   0.235
    1TCM    cl3 3147   4.570   3.207   0.129
    1TCM     c1 3148   2.980   0.905   2.285
    1TCM    cl1 3149   3.075   0.792   2.385
    1TCM    cl2 3150   2.972   0.844   2.118
    1TCM     h1 3151   2.878   0.914   2.326
    1TCM    cl3 3152   3.059   1.064   2.286
    1TCM     c1 3153   3.448   4.597   2.984
    1TCM    cl1 3154   3.376   4.721   2.879
    1TCM    cl2 3155   3.383   4.613   3.149
    1TCM     h1 3156   3.424   4.496   2.944
    1TCM    cl3 3157   3.625   4.618   2.989
    1TCM     c1 3158   3.757   3.507   3.949
    1TCM    cl1 3159   3.782   3.661   4.034
    1TCM    cl2 3160   3.879   3.389   4.002
    1TCM     h1 3161   3.655   3.468   3.973
    1TCM    cl3 3162   3.770   3.532   3.774
    1TCM     c1 3163   4.168   0.315   0.218
    1TCM    cl1 3164   4.317   0.303   0.315
    1TCM    cl2 3165   4.198   0.248   0.056
    1TCM     h1 3166   4.088   0.257   0.268
    1TCM    cl3 3167   4.119   0.485   0.204
    1TCM     c1 3168   3.290   3.187   3.463
    1TCM    cl1 3169   3.357   3.273   3.604
    1TCM    cl2 3170   3.360   3.255   3.314
    1TCM     h1 3171   3.316   3.079   3.470
    1TCM    cl3 3172   3.114   3.206   3.460
    1TCM     c1 3173   0.595   2.674   1.949
    1TCM    cl1 3174   0.725   2.658   1.829
    1TCM    cl2 3175   0.513   2.518   1.969
    1TCM     h1 3176   0.637   2.707   2.046
    1TCM    cl3 3177   0.477   2.796   1.893
    1TCM     c1 3178   5.191   4.297   3.023
    1TCM    cl1 3179   5.200   4.456   2.944
    1TCM    cl2 3180   5.242   4.311   3.193
    1TCM     h1 3181   5.086   4.260   3.019
    1TCM    cl3 3182   5.297   4.182   2.938
    1TCM     c1 3183   2.322   3.538   1.522
    1TCM    cl1 3184   2.354   3.401   1.413
    1TCM    cl2 3185   2.374   3.496   1.687
    1TCM     h1 3186   2.378   3.627   1.487
    1TCM    cl3 3187   2.148   3.573   1.523
    1TCM     c1 3188   5.071   1.390   2.445
    1TCM    cl1 3189   5.176   1.498   2.351
    1TCM    cl2 3190   5.146   1.229   2.455
    1TCM     h1 3191   5.058   1.431   2.547
    1TCM    cl3 3192   4.913   1.377   2.365
    1TCM     c1 3193   4.190   3.121   3.999
    1TCM    cl1 3194   4.034   3.062   4.059
    1TCM    cl2 3195   4.313   2.993   4.019
    1TCM     h1 3196   4.181   3.147   3.892
    1TCM    cl3 3197   4.239   3.265   4.091
    1TCM     c1 3198   1.604   3.553   3.469
    1TCM    cl1 3199   1.685   3.649   3.344
    1TCM    cl2 3200   1.622   3.380   3.431
    1TCM     h1 3201   1.649   3.574   3.568
    1TCM    cl3 3202   1.431   3.594   3.473
    1TCM     c1 3203   2.567   3.268   2.635
    1TCM    cl1 3204   2.440   3.205   2.743
    1TCM    cl2 3205   2.727   3.233   2.704
    1TCM     h1 3206   2.558   3.219   2.536
    1TCM    cl3 3207   2.548   3.444   2.616
    1TCM     c1 3208   1.892   2.905   0.176
    1TCM    cl1 3209   1.841   2.771   0.281
    1TCM    cl2 3210   1.908   2.846   0.009
    1TCM     h1 3211   1.816   2.986   0.179
    1TCM    cl3 3212   2.049   2.967   0.231
    1TCM     c1 3213   4.820   0.836   2.892
    1TCM    cl1 3214   4.773   0.671   2.940
    1TCM    cl2 3215   4.720   0.888   2.754
    1TCM     h1 3216   4.804   0.905   2.977
    1TCM    cl3 3217   4.991   0.839   2.845
    1TCM     c1 3218   4.885   2.049   1.279
    1TCM    cl1 3219   4.759   2.018   1.158
    1TCM    cl2 3220   4.841   2.190   1.377
    1TCM     h1 3221   4.896   1.960   1.345
    1TCM    cl3 3222   5.040   2.079   1.197
    1TCM     c1 3223   3.142   4.017   0.451
    1TCM    cl1 3224   3.223   3.859   0.444
    1TCM    cl2 3225   3.251   4.142   0.388
    1TCM     h1 3226   3.049   4.014   0.390
    1TCM    cl3 3227   3.100   4.054   0.620
    1TCM     c1 3228   2.671   4.103   3.623
    1TCM    cl1 3229   2.839   4.112   3.684
    1TCM    cl2 3230   2.672   4.051   3.453
    1TCM     h1 3231   2.614   4.030   3.684
    1TCM    cl3 3232   2.596   4.264   3.635
    1TCM     c1 3233   2.070   4.516   2.257
    1TCM    cl1 3234   2.240   4.520   2.309
    1TCM    cl2 3235   1.964   4.514   2.400
    1TCM     h1 3236   2.048   4.607   2.197
    1TCM    cl3 3237   2.041   4.371   2.159
    1TCM     c1 3238   1.617   1.786   0.676
    1TCM    cl1 3239   1.473   1.738   0.768
    1TCM    cl2 3240   1.734   1.863   0.785
    1TCM     h1 3241   1.663   1.696   0.630
    1TCM    cl3 3242   1.571   1.900   0.548
    1TCM     c1 3243   0.269   2.801   4.369
    1TCM    cl1 3244   0.375   2.877   4.248
    1TCM    cl2 3245   0.260   2.626   4.338
    1TCM     h1 3246   0.311   2.818   4.470
    1TCM    cl3 3247   0.106   2.871   4.359
    1TCM     c1 3248   0.532   1.634   4.718
    1TCM    cl1 3249   0.638   1.774   4.690
    1TCM    cl2 3250   0.594   1.540   4.856
    1TCM     h1 3251   0.430   1.670   4.741
    1TCM    cl3 3252   0.529   1.532   4.573
    1TCM     c1 3253   5.062   2.919   0.649
    1TCM    cl1 3254   4.892   2.963   0.677
    1TCM    cl2 3255   5.089   2.751   0.701
    1TCM     h1 3256   5.086   2.930   0.541
    1TCM    cl3 3257   5.167   3.027   0.744
    1TCM     c1 3258   2.189   4.286   4.814
    1TCM    cl1 3259   2.260   4.144   4.734
    1TCM    cl2 3260   2.237   4.288   4.985
    1TCM     h1 3261   2.224   4.378   4.764
    1TCM    cl3 3262   2.011   4.277   4.803
    1TCM     c1 3263   3.086   3.453   3.250
    1TCM    cl1 3264   2.916   3.427   3.203
    1TCM    cl2 3265   3.137   3.615   3.199
    1TCM     h1 3266   3.095   3.444   3.360
    1TCM    cl3 3267   3.188   3.331   3.171
    1TCM     c1 3268   2.972   4.353   0.370
    1TCM    cl1 3269   3.043   4.268   0.509
    1TCM    cl2 3270   3.100   4.435   0.279
    1TCM     h1 3271   2.920   4.281   0.305
    1TCM    cl3 3272   2.855   4.474   0.428
    1TCM     c1 3273   3.451   4.475   0.477
    1TCM    cl1 3274   3.515   4.367   0.351
    1TCM    cl2 3275   3.523   4.432   0.634
    1TCM     h1 3276   3.478   4.580   0.453
    1TCM    cl3 3277   3.275   4.459   0.486
    1TCM     c1 3278   2.415   3.746   1.051
    1TCM    cl1 3279   2.582   3.807   1.039
    1TCM    cl2 3280   2.396   3.655   1.203
    1TCM     h1 3281   2.344   3.831   1.051
    1TCM    cl3 3282   2.381   3.639   0.913
    1TCM     c1 3283   4.082   3.940   3.751
    1TCM    cl1 3284   4.193   3.909   3.615
    1TCM    cl2 3285   4.176   3.984   3.895
    1TCM     h1 3286   4.014   4.023   3.724
    1TCM    cl3 3287   3.987   3.793   3.784
    1TCM     c1 3288   5.215   4.783   4.202
    1TCM    cl1 3289   5.061   4.745   4.122
    1TCM    cl2 3290   5.183   4.842   4.366
    1TCM     h1 3291   5.278   4.692   4.207
    1TCM    cl3 3292   5.301   4.909   4.109
    1TCM     c1 3293   4.165   0.347   3.522
    1TCM    cl1 3294   4.229   0.211   3.617
    1TCM    cl2 3295   4.011   0.401   3.594
    1TCM     h1 3296   4.238   0.430   3.523
    1TCM    cl3 3297   4.136   0.294   3.355
    1TCM     c1 3298   2.440   2.664   3.451
    1TCM    cl1 3299   2.391   2.800   3.348
    1TCM    cl2 3300   2.385   2.693   3.617
    1TCM     h1 3301   2.394   2.570   3.412
    1TCM    cl3 3302   2.617   2.649   3.448
    1TCM     c1 3303   5.004   4.619   2.614
    1TCM    cl1 3304   5.019   4.789   2.562
    1TCM    cl2 3305   4.998   4.612   2.791
    1TCM     h1 3306   4.912   4.576   2.571
    1TCM    cl3 3307   5.146   4.528   2.556
    1TCM     c1 3308   2.328   1.103   2.129
    1TCM    cl1 3309   2.361   1.198   1.982
    1TCM    cl2 3310   2.468   1.115   2.240
    1TCM     h1 3311   2.238   1.143   2.180
    1TCM    cl3 3312   2.302   0.933   2.086
    1TCM     c1 3313   0.271   2.392   3.034
    1TCM    cl1 3314   0.122   2.460   2.964
    1TCM    cl2 3315   0.317   2.246   2.944
    1TCM     h1 3316   0.353   2.467   3.026
    1TCM    cl3 3317   0.244   2.352   3.204
    1TCM     c1 3318   1.098   4.058   1.117
    1TCM    cl1 3319   1.100   4.058   0.939
    1TCM    cl2 3320   1.231   3.957   1.178
    1TCM     h1 3321   1.110   4.161   1.155
    1TCM    cl3 3322   0.942   3.992   1.174
    1TCM     c1 3323   2.626   3.044   0.695
    1TCM    cl1 3324   2.686   3.097   0.536
    1TCM    cl2 3325   2.556   3.182   0.781
    1TCM     h1 3326   2.549   2.965   0.681
    1TCM    cl3 3327   2.761   2.978   0.790
    1TCM     c1 3328   0.644   0.660   0.847
    1TCM    cl1 3329   0.694   0.553   0.714
    1TCM    cl2 3330   0.537   0.571   0.958
    1TCM     h1 3331   0.734   0.695   0.902
    1TCM    cl3 3332   0.557   0.800   0.781
    1TCM     c1 3333   5.031   2.199   3.277
    1TCM    cl1 3334   4.908   2.312   3.337
    1TCM    cl2 3335   5.072   2.239   3.109
    1TCM     h1 3336   5.122   2.208   3.340
    1TCM    cl3 3337   4.969   2.033   3.285
    1TCM     c1 3338   2.509   0.990   3.480
    1TCM    cl1 3339   2.624   1.005   3.345
    1TCM    cl2 3340   2.576   1.071   3.624
    1TCM     h1 3341   2.413   1.037   3.452
    1TCM    cl3 3342   2.483   0.818   3.517
    1TCM     c1 3343   5.119   1.008   2.245
    1TCM    cl1 3344   5.132   1.180   2.204
    1TCM    cl2 3345   5.245   0.916   2.160
    1TCM     h1 3346   5.131   0.995   2.354
    1TCM    cl3 3347   4.959   0.947   2.195
    1TCM     c1 3348   3.939   0.524   4.502
    1TCM    cl1 3349   3.893   0.434   4.648
    1TCM    cl2 3350   3.959   0.697   4.542
    1TCM     h1 3351   4.035   0.484   4.463
    1TCM    cl3 3352   3.812   0.506   4.379
    1TCM     c1 3353   5.107   0.885   5.065
    1TCM    cl1 3354   5.202   0.803   4.939
    1TCM    cl2 3355   5.185   0.861   5.223
    1TCM     h1 3356   5.101   0.993   5.042
    1TCM    cl3 3357   4.942   0.817   5.069
    1TCM     c1 3358   2.949   0.545   1.480
    1TCM    cl1 3359   3.080   0.580   1.594
    1TCM    cl2 3360   2.808   0.647   1.519
    1TCM     h1 3361   2.983   0.566   1.377
    1TCM    cl3 3362   2.902   0.374   1.493
    1TCM     c1 3363   2.088   1.355   3.826
    1TCM    cl1 3364   2.029   1.403   3.987
    1TCM    cl2 3365   1.958   1.273   3.737
    1TCM     h1 3366   2.119   1.446   3.770
    1TCM    cl3 3367   2.226   1.245   3.844
   5.54000   5.54000   5.54000
