[ defaults ]
; nbfunc	comb-rule	gen-pairs	fudgeLJ	fudgeQQ
     1	     2	yes   	0.500000	0.833333

[ atomtypes ]
;type, bondingtype, atomic_number, mass, charge, ptype, sigma, epsilon
em_mom_tetramer_0	     6	12.01078	0.0000000000000000	A    	0.3399669508423535	0.4577296
em_mom_tetramer_1	     8	15.99943	0.0000000000000000	A    	0.3025106490435313	0.7048581468486769
em_mom_tetramer_2	     6	12.01078	0.0000000000000000	A    	0.3480646886945065	0.3635030558377792
em_mom_tetramer_3	     6	12.01078	0.0000000000000000	A    	0.3480646886945065	0.3635030558377792
em_mom_tetramer_4	     6	12.01078	0.0000000000000000	A    	0.3480646886945065	0.3635030558377792
em_mom_tetramer_5	     6	12.01078	0.0000000000000000	A    	0.3480646886945065	0.3635030558377792
em_mom_tetramer_6	     6	12.01078	0.0000000000000000	A    	0.3480646886945065	0.3635030558377792
em_mom_tetramer_7	     6	12.01078	0.0000000000000000	A    	0.3480646886945065	0.3635030558377792
em_mom_tetramer_8	     6	12.01078	0.0000000000000000	A    	0.3480646886945065	0.3635030558377792
em_mom_tetramer_9	     6	12.01078	0.0000000000000000	A    	0.3480646886945065	0.3635030558377792
em_mom_tetramer_10	     8	15.99943	0.0000000000000000	A    	0.3039812205065809	0.8795023257036865
em_mom_tetramer_11	     6	12.01078	0.0000000000000000	A    	0.3480646886945065	0.3635030558377792
em_mom_tetramer_12	     6	12.01078	0.0000000000000000	A    	0.3480646886945065	0.3635030558377792
em_mom_tetramer_13	     6	12.01078	0.0000000000000000	A    	0.3480646886945065	0.3635030558377792
em_mom_tetramer_14	     6	12.01078	0.0000000000000000	A    	0.3480646886945065	0.3635030558377792
em_mom_tetramer_15	     6	12.01078	0.0000000000000000	A    	0.3480646886945065	0.3635030558377792
em_mom_tetramer_16	     6	12.01078	0.0000000000000000	A    	0.3480646886945065	0.3635030558377792
em_mom_tetramer_17	     6	12.01078	0.0000000000000000	A    	0.3480646886945065	0.3635030558377792
em_mom_tetramer_18	     6	12.01078	0.0000000000000000	A    	0.3399669508423535	0.4577296
em_mom_tetramer_19	     6	12.01078	0.0000000000000000	A    	0.3399669508423535	0.4577296
em_mom_tetramer_20	     7	14.00672	0.0000000000000000	A    	0.3206876023663901	0.7016212989374017
em_mom_tetramer_21	     6	12.01078	0.0000000000000000	A    	0.3480646886945065	0.3635030558377792
em_mom_tetramer_22	     6	12.01078	0.0000000000000000	A    	0.3480646886945065	0.3635030558377792
em_mom_tetramer_23	     6	12.01078	0.0000000000000000	A    	0.3480646886945065	0.3635030558377792
em_mom_tetramer_24	     6	12.01078	0.0000000000000000	A    	0.3480646886945065	0.3635030558377792
em_mom_tetramer_25	     1	1.007947	0.0000000000000000	A    	0.2583225710839196	0.068656285380106
em_mom_tetramer_26	     1	1.007947	0.0000000000000000	A    	0.2583225710839196	0.068656285380106
em_mom_tetramer_27	     1	1.007947	0.0000000000000000	A    	0.2583225710839196	0.068656285380106
em_mom_tetramer_28	     1	1.007947	0.0000000000000000	A    	0.2572581535063279	0.06531785996356952
em_mom_tetramer_29	     1	1.007947	0.0000000000000000	A    	0.2572581535063279	0.06531785996356952
em_mom_tetramer_30	     1	1.007947	0.0000000000000000	A    	0.2572581535063279	0.06531785996356952
em_mom_tetramer_31	     1	1.007947	0.0000000000000000	A    	0.2572581535063279	0.06531785996356952
em_mom_tetramer_32	     1	1.007947	0.0000000000000000	A    	0.2572581535063279	0.06531785996356952
em_mom_tetramer_33	     1	1.007947	0.0000000000000000	A    	0.2572581535063279	0.06531785996356952
em_mom_tetramer_34	     1	1.007947	0.0000000000000000	A    	0.2572581535063279	0.06531785996356952
em_mom_tetramer_35	     1	1.007947	0.0000000000000000	A    	0.2583225710839196	0.068656285380106
em_mom_tetramer_36	     1	1.007947	0.0000000000000000	A    	0.2644543413268124	0.06602135607582665
em_mom_tetramer_37	     1	1.007947	0.0000000000000000	A    	0.2644543413268124	0.06602135607582665
em_mom_tetramer_38	     1	1.007947	0.0000000000000000	A    	0.2644543413268124	0.06602135607582665
em_mom_tetramer_39	     1	1.007947	0.0000000000000000	A    	0.1103427677297317	0.05895596890015097
em_mom_tetramer_40	     1	1.007947	0.0000000000000000	A    	0.2572581535063279	0.06531785996356952
em_mom_tetramer_41	     1	1.007947	0.0000000000000000	A    	0.2572581535063279	0.06531785996356952
em_mom_tetramer_42	     1	1.007947	0.0000000000000000	A    	0.2572581535063279	0.06531785996356952
em_mom_tetramer_43	     1	1.007947	0.0000000000000000	A    	0.2572581535063279	0.06531785996356952
em_mom_tetramer_44	     6	12.01078	0.0000000000000000	A    	0.3399669508423535	0.4577296
em_mom_tetramer_45	     8	15.99943	0.0000000000000000	A    	0.3025106490435313	0.7048581468486769
em_mom_tetramer_46	     6	12.01078	0.0000000000000000	A    	0.3480646886945065	0.3635030558377792
em_mom_tetramer_47	     6	12.01078	0.0000000000000000	A    	0.3480646886945065	0.3635030558377792
em_mom_tetramer_48	     6	12.01078	0.0000000000000000	A    	0.3480646886945065	0.3635030558377792
em_mom_tetramer_49	     6	12.01078	0.0000000000000000	A    	0.3480646886945065	0.3635030558377792
em_mom_tetramer_50	     6	12.01078	0.0000000000000000	A    	0.3480646886945065	0.3635030558377792
em_mom_tetramer_51	     6	12.01078	0.0000000000000000	A    	0.3480646886945065	0.3635030558377792
em_mom_tetramer_52	     6	12.01078	0.0000000000000000	A    	0.3480646886945065	0.3635030558377792
em_mom_tetramer_53	     6	12.01078	0.0000000000000000	A    	0.3480646886945065	0.3635030558377792
em_mom_tetramer_54	     8	15.99943	0.0000000000000000	A    	0.3039812205065809	0.8795023257036865
em_mom_tetramer_55	     6	12.01078	0.0000000000000000	A    	0.3480646886945065	0.3635030558377792
em_mom_tetramer_56	     6	12.01078	0.0000000000000000	A    	0.3480646886945065	0.3635030558377792
em_mom_tetramer_57	     6	12.01078	0.0000000000000000	A    	0.3480646886945065	0.3635030558377792
em_mom_tetramer_58	     6	12.01078	0.0000000000000000	A    	0.3480646886945065	0.3635030558377792
em_mom_tetramer_59	     6	12.01078	0.0000000000000000	A    	0.3480646886945065	0.3635030558377792
em_mom_tetramer_60	     6	12.01078	0.0000000000000000	A    	0.3480646886945065	0.3635030558377792
em_mom_tetramer_61	     6	12.01078	0.0000000000000000	A    	0.3480646886945065	0.3635030558377792
em_mom_tetramer_62	     6	12.01078	0.0000000000000000	A    	0.3399669508423535	0.4577296
em_mom_tetramer_63	     6	12.01078	0.0000000000000000	A    	0.3399669508423535	0.4577296
em_mom_tetramer_64	     7	14.00672	0.0000000000000000	A    	0.3206876023663901	0.7016212989374017
em_mom_tetramer_65	     6	12.01078	0.0000000000000000	A    	0.3480646886945065	0.3635030558377792
em_mom_tetramer_66	     6	12.01078	0.0000000000000000	A    	0.3480646886945065	0.3635030558377792
em_mom_tetramer_67	     6	12.01078	0.0000000000000000	A    	0.3480646886945065	0.3635030558377792
em_mom_tetramer_68	     6	12.01078	0.0000000000000000	A    	0.3480646886945065	0.3635030558377792
em_mom_tetramer_69	     1	1.007947	0.0000000000000000	A    	0.2583225710839196	0.068656285380106
em_mom_tetramer_70	     1	1.007947	0.0000000000000000	A    	0.2583225710839196	0.068656285380106
em_mom_tetramer_71	     1	1.007947	0.0000000000000000	A    	0.2583225710839196	0.068656285380106
em_mom_tetramer_72	     1	1.007947	0.0000000000000000	A    	0.2572581535063279	0.06531785996356952
em_mom_tetramer_73	     1	1.007947	0.0000000000000000	A    	0.2572581535063279	0.06531785996356952
em_mom_tetramer_74	     1	1.007947	0.0000000000000000	A    	0.2572581535063279	0.06531785996356952
em_mom_tetramer_75	     1	1.007947	0.0000000000000000	A    	0.2572581535063279	0.06531785996356952
em_mom_tetramer_76	     1	1.007947	0.0000000000000000	A    	0.2572581535063279	0.06531785996356952
em_mom_tetramer_77	     1	1.007947	0.0000000000000000	A    	0.2572581535063279	0.06531785996356952
em_mom_tetramer_78	     1	1.007947	0.0000000000000000	A    	0.2572581535063279	0.06531785996356952
em_mom_tetramer_79	     1	1.007947	0.0000000000000000	A    	0.2583225710839196	0.068656285380106
em_mom_tetramer_80	     1	1.007947	0.0000000000000000	A    	0.2644543413268124	0.06602135607582665
em_mom_tetramer_81	     1	1.007947	0.0000000000000000	A    	0.2644543413268124	0.06602135607582665
em_mom_tetramer_82	     1	1.007947	0.0000000000000000	A    	0.2644543413268124	0.06602135607582665
em_mom_tetramer_83	     1	1.007947	0.0000000000000000	A    	0.1103427677297317	0.05895596890015097
em_mom_tetramer_84	     1	1.007947	0.0000000000000000	A    	0.2572581535063279	0.06531785996356952
em_mom_tetramer_85	     1	1.007947	0.0000000000000000	A    	0.2572581535063279	0.06531785996356952
em_mom_tetramer_86	     1	1.007947	0.0000000000000000	A    	0.2572581535063279	0.06531785996356952
em_mom_tetramer_87	     1	1.007947	0.0000000000000000	A    	0.2572581535063279	0.06531785996356952
em_mom_tetramer_88	     6	12.01078	0.0000000000000000	A    	0.3399669508423535	0.4577296
em_mom_tetramer_89	     8	15.99943	0.0000000000000000	A    	0.3025106490435313	0.7048581468486769
em_mom_tetramer_90	     6	12.01078	0.0000000000000000	A    	0.3480646886945065	0.3635030558377792
em_mom_tetramer_91	     6	12.01078	0.0000000000000000	A    	0.3480646886945065	0.3635030558377792
em_mom_tetramer_92	     6	12.01078	0.0000000000000000	A    	0.3480646886945065	0.3635030558377792
em_mom_tetramer_93	     6	12.01078	0.0000000000000000	A    	0.3480646886945065	0.3635030558377792
em_mom_tetramer_94	     6	12.01078	0.0000000000000000	A    	0.3480646886945065	0.3635030558377792
em_mom_tetramer_95	     6	12.01078	0.0000000000000000	A    	0.3480646886945065	0.3635030558377792
em_mom_tetramer_96	     6	12.01078	0.0000000000000000	A    	0.3480646886945065	0.3635030558377792
em_mom_tetramer_97	     6	12.01078	0.0000000000000000	A    	0.3480646886945065	0.3635030558377792
em_mom_tetramer_98	     8	15.99943	0.0000000000000000	A    	0.3039812205065809	0.8795023257036865
em_mom_tetramer_99	     6	12.01078	0.0000000000000000	A    	0.3480646886945065	0.3635030558377792
em_mom_tetramer_100	     6	12.01078	0.0000000000000000	A    	0.3480646886945065	0.3635030558377792
em_mom_tetramer_101	     6	12.01078	0.0000000000000000	A    	0.3480646886945065	0.3635030558377792
em_mom_tetramer_102	     6	12.01078	0.0000000000000000	A    	0.3480646886945065	0.3635030558377792
em_mom_tetramer_103	     6	12.01078	0.0000000000000000	A    	0.3480646886945065	0.3635030558377792
em_mom_tetramer_104	     6	12.01078	0.0000000000000000	A    	0.3480646886945065	0.3635030558377792
em_mom_tetramer_105	     6	12.01078	0.0000000000000000	A    	0.3480646886945065	0.3635030558377792
em_mom_tetramer_106	     6	12.01078	0.0000000000000000	A    	0.3399669508423535	0.4577296
em_mom_tetramer_107	     6	12.01078	0.0000000000000000	A    	0.3399669508423535	0.4577296
em_mom_tetramer_108	     7	14.00672	0.0000000000000000	A    	0.3206876023663901	0.7016212989374017
em_mom_tetramer_109	     6	12.01078	0.0000000000000000	A    	0.3480646886945065	0.3635030558377792
em_mom_tetramer_110	     6	12.01078	0.0000000000000000	A    	0.3480646886945065	0.3635030558377792
em_mom_tetramer_111	     6	12.01078	0.0000000000000000	A    	0.3480646886945065	0.3635030558377792
em_mom_tetramer_112	     6	12.01078	0.0000000000000000	A    	0.3480646886945065	0.3635030558377792
em_mom_tetramer_113	     1	1.007947	0.0000000000000000	A    	0.2583225710839196	0.068656285380106
em_mom_tetramer_114	     1	1.007947	0.0000000000000000	A    	0.2583225710839196	0.068656285380106
em_mom_tetramer_115	     1	1.007947	0.0000000000000000	A    	0.2583225710839196	0.068656285380106
em_mom_tetramer_116	     1	1.007947	0.0000000000000000	A    	0.2572581535063279	0.06531785996356952
em_mom_tetramer_117	     1	1.007947	0.0000000000000000	A    	0.2572581535063279	0.06531785996356952
em_mom_tetramer_118	     1	1.007947	0.0000000000000000	A    	0.2572581535063279	0.06531785996356952
em_mom_tetramer_119	     1	1.007947	0.0000000000000000	A    	0.2572581535063279	0.06531785996356952
em_mom_tetramer_120	     1	1.007947	0.0000000000000000	A    	0.2572581535063279	0.06531785996356952
em_mom_tetramer_121	     1	1.007947	0.0000000000000000	A    	0.2572581535063279	0.06531785996356952
em_mom_tetramer_122	     1	1.007947	0.0000000000000000	A    	0.2572581535063279	0.06531785996356952
em_mom_tetramer_123	     1	1.007947	0.0000000000000000	A    	0.2583225710839196	0.068656285380106
em_mom_tetramer_124	     1	1.007947	0.0000000000000000	A    	0.2644543413268124	0.06602135607582665
em_mom_tetramer_125	     1	1.007947	0.0000000000000000	A    	0.2644543413268124	0.06602135607582665
em_mom_tetramer_126	     1	1.007947	0.0000000000000000	A    	0.2644543413268124	0.06602135607582665
em_mom_tetramer_127	     1	1.007947	0.0000000000000000	A    	0.1103427677297317	0.05895596890015097
em_mom_tetramer_128	     1	1.007947	0.0000000000000000	A    	0.2572581535063279	0.06531785996356952
em_mom_tetramer_129	     1	1.007947	0.0000000000000000	A    	0.2572581535063279	0.06531785996356952
em_mom_tetramer_130	     1	1.007947	0.0000000000000000	A    	0.2572581535063279	0.06531785996356952
em_mom_tetramer_131	     1	1.007947	0.0000000000000000	A    	0.2572581535063279	0.06531785996356952
em_mom_tetramer_132	     6	12.01078	0.0000000000000000	A    	0.3399669508423535	0.4577296
em_mom_tetramer_133	     8	15.99943	0.0000000000000000	A    	0.3025106490435313	0.7048581468486769
em_mom_tetramer_134	     6	12.01078	0.0000000000000000	A    	0.3480646886945065	0.3635030558377792
em_mom_tetramer_135	     6	12.01078	0.0000000000000000	A    	0.3480646886945065	0.3635030558377792
em_mom_tetramer_136	     6	12.01078	0.0000000000000000	A    	0.3480646886945065	0.3635030558377792
em_mom_tetramer_137	     6	12.01078	0.0000000000000000	A    	0.3480646886945065	0.3635030558377792
em_mom_tetramer_138	     6	12.01078	0.0000000000000000	A    	0.3480646886945065	0.3635030558377792
em_mom_tetramer_139	     6	12.01078	0.0000000000000000	A    	0.3480646886945065	0.3635030558377792
em_mom_tetramer_140	     6	12.01078	0.0000000000000000	A    	0.3480646886945065	0.3635030558377792
em_mom_tetramer_141	     6	12.01078	0.0000000000000000	A    	0.3480646886945065	0.3635030558377792
em_mom_tetramer_142	     8	15.99943	0.0000000000000000	A    	0.3039812205065809	0.8795023257036865
em_mom_tetramer_143	     6	12.01078	0.0000000000000000	A    	0.3480646886945065	0.3635030558377792
em_mom_tetramer_144	     6	12.01078	0.0000000000000000	A    	0.3480646886945065	0.3635030558377792
em_mom_tetramer_145	     6	12.01078	0.0000000000000000	A    	0.3480646886945065	0.3635030558377792
em_mom_tetramer_146	     6	12.01078	0.0000000000000000	A    	0.3480646886945065	0.3635030558377792
em_mom_tetramer_147	     6	12.01078	0.0000000000000000	A    	0.3480646886945065	0.3635030558377792
em_mom_tetramer_148	     6	12.01078	0.0000000000000000	A    	0.3480646886945065	0.3635030558377792
em_mom_tetramer_149	     6	12.01078	0.0000000000000000	A    	0.3480646886945065	0.3635030558377792
em_mom_tetramer_150	     6	12.01078	0.0000000000000000	A    	0.3399669508423535	0.4577296
em_mom_tetramer_151	     6	12.01078	0.0000000000000000	A    	0.3399669508423535	0.4577296
em_mom_tetramer_152	     7	14.00672	0.0000000000000000	A    	0.3206876023663901	0.7016212989374017
em_mom_tetramer_153	     6	12.01078	0.0000000000000000	A    	0.3480646886945065	0.3635030558377792
em_mom_tetramer_154	     6	12.01078	0.0000000000000000	A    	0.3480646886945065	0.3635030558377792
em_mom_tetramer_155	     6	12.01078	0.0000000000000000	A    	0.3480646886945065	0.3635030558377792
em_mom_tetramer_156	     6	12.01078	0.0000000000000000	A    	0.3480646886945065	0.3635030558377792
em_mom_tetramer_157	     1	1.007947	0.0000000000000000	A    	0.2583225710839196	0.068656285380106
em_mom_tetramer_158	     1	1.007947	0.0000000000000000	A    	0.2583225710839196	0.068656285380106
em_mom_tetramer_159	     1	1.007947	0.0000000000000000	A    	0.2583225710839196	0.068656285380106
em_mom_tetramer_160	     1	1.007947	0.0000000000000000	A    	0.2572581535063279	0.06531785996356952
em_mom_tetramer_161	     1	1.007947	0.0000000000000000	A    	0.2572581535063279	0.06531785996356952
em_mom_tetramer_162	     1	1.007947	0.0000000000000000	A    	0.2572581535063279	0.06531785996356952
em_mom_tetramer_163	     1	1.007947	0.0000000000000000	A    	0.2572581535063279	0.06531785996356952
em_mom_tetramer_164	     1	1.007947	0.0000000000000000	A    	0.2572581535063279	0.06531785996356952
em_mom_tetramer_165	     1	1.007947	0.0000000000000000	A    	0.2572581535063279	0.06531785996356952
em_mom_tetramer_166	     1	1.007947	0.0000000000000000	A    	0.2572581535063279	0.06531785996356952
em_mom_tetramer_167	     1	1.007947	0.0000000000000000	A    	0.2583225710839196	0.068656285380106
em_mom_tetramer_168	     1	1.007947	0.0000000000000000	A    	0.2644543413268124	0.06602135607582665
em_mom_tetramer_169	     1	1.007947	0.0000000000000000	A    	0.2644543413268124	0.06602135607582665
em_mom_tetramer_170	     1	1.007947	0.0000000000000000	A    	0.2644543413268124	0.06602135607582665
em_mom_tetramer_171	     1	1.007947	0.0000000000000000	A    	0.1103427677297317	0.05895596890015097
em_mom_tetramer_172	     1	1.007947	0.0000000000000000	A    	0.2572581535063279	0.06531785996356952
em_mom_tetramer_173	     1	1.007947	0.0000000000000000	A    	0.2572581535063279	0.06531785996356952
em_mom_tetramer_174	     1	1.007947	0.0000000000000000	A    	0.2572581535063279	0.06531785996356952
em_mom_tetramer_175	     1	1.007947	0.0000000000000000	A    	0.2572581535063279	0.06531785996356952
em_mom_tetramer_176	     6	12.01078	0.0000000000000000	A    	0.3399669508423535	0.4577296
em_mom_tetramer_177	     8	15.99943	0.0000000000000000	A    	0.3025106490435313	0.7048581468486769
em_mom_tetramer_178	     1	1.007947	0.0000000000000000	A    	0.2583225710839196	0.068656285380106
em_mom_tetramer_179	     1	1.007947	0.0000000000000000	A    	0.2583225710839196	0.068656285380106
em_mom_tetramer_180	     1	1.007947	0.0000000000000000	A    	0.2583225710839196	0.068656285380106
em_mom_tetramer_181	     6	12.01078	0.0000000000000000	A    	0.3399669508423535	0.4577296
em_mom_tetramer_182	     6	12.01078	0.0000000000000000	A    	0.3399669508423535	0.4577296
em_mom_tetramer_183	     6	12.01078	0.0000000000000000	A    	0.3399669508423535	0.4577296
em_mom_tetramer_184	     6	12.01078	0.0000000000000000	A    	0.3399669508423535	0.4577296
em_mom_tetramer_185	     8	15.99943	0.0000000000000000	A    	0.3025106490435313	0.7048581468486769
em_mom_tetramer_186	     6	12.01078	0.0000000000000000	A    	0.3480646886945065	0.3635030558377792
em_mom_tetramer_187	     8	15.99943	0.0000000000000000	A    	0.3039812205065809	0.8795023257036865
em_mom_tetramer_188	     1	1.007947	0.0000000000000000	A    	0.2644543413268124	0.06602135607582665
em_mom_tetramer_189	     1	1.007947	0.0000000000000000	A    	0.2644543413268124	0.06602135607582665
em_mom_tetramer_190	     1	1.007947	0.0000000000000000	A    	0.2644543413268124	0.06602135607582665
em_mom_tetramer_191	     1	1.007947	0.0000000000000000	A    	0.2644543413268124	0.06602135607582665
em_mom_tetramer_192	     1	1.007947	0.0000000000000000	A    	0.2644543413268124	0.06602135607582665
em_mom_tetramer_193	     1	1.007947	0.0000000000000000	A    	0.2644543413268124	0.06602135607582665
em_mom_tetramer_194	     1	1.007947	0.0000000000000000	A    	0.2644543413268124	0.06602135607582665
em_mom_tetramer_195	     1	1.007947	0.0000000000000000	A    	0.2644543413268124	0.06602135607582665
em_mom_tetramer_196	     1	1.007947	0.0000000000000000	A    	0.2644543413268124	0.06602135607582665
TCM_0      	     6	12.01078	0.0000000000000000	A    	0.3399669508423535	0.4577296
TCM_1      	    17	35.4532	0.0000000000000000	A    	0.3470941405874761	1.10876
TCM_2      	    17	35.4532	0.0000000000000000	A    	0.3470941405874761	1.10876
TCM_3      	     1	1.007947	0.0000000000000000	A    	0.2114993556865165	0.06568879999999999
TCM_4      	    17	35.4532	0.0000000000000000	A    	0.3470941405874761	1.10876

[ moleculetype ]
em_mom_tetramer	         3

[ atoms ]
;index, atom type, resnum, resname, name, cgnr, charge, mass
     1 em_mom_tetramer_0       1 MOP      C1         1      0.108960002661     12.010780000000
     2 em_mom_tetramer_1       1 MOP      O2         1     -0.323790013790     15.999430000000
     3 em_mom_tetramer_2       1 MOP      C3         1      0.122490003705     12.010780000000
     4 em_mom_tetramer_3       1 MOP      C4         1     -0.205180004239     12.010780000000
     5 em_mom_tetramer_4       1 MOP      C5         1     -0.083240002394     12.010780000000
     6 em_mom_tetramer_5       1 MOP      C6         1     -0.069849997759     12.010780000000
     7 em_mom_tetramer_6       1 MOP      C7         1     -0.048930000514     12.010780000000
     8 em_mom_tetramer_7       1 MOP      C8         1     -0.058090001345     12.010780000000
     9 em_mom_tetramer_8       1 MOP      C9         1     -0.131889998913     12.010780000000
    10 em_mom_tetramer_9       1 MOP      C10        1      0.646440029144     12.010780000000
    11 em_mom_tetramer_10       1 MOP      O11        1     -0.538020014763     15.999430000000
    12 em_mom_tetramer_11       1 MOP      C12        1     -0.072829999030     12.010780000000
    13 em_mom_tetramer_12       1 MOP      C13        1     -0.144720003009     12.010780000000
    14 em_mom_tetramer_13       1 MOP      C14        1     -0.083140000701     12.010780000000
    15 em_mom_tetramer_14       1 MOP      C15        1      0.013399999589     12.010780000000
    16 em_mom_tetramer_15       1 MOP      C16        1     -0.054099999368     12.010780000000
    17 em_mom_tetramer_16       1 MOP      C17        1     -0.112530000508     12.010780000000
    18 em_mom_tetramer_17       1 MOP      C18        1     -0.103409998119     12.010780000000
    19 em_mom_tetramer_18       1 MOP      C19        1      0.152649998665     12.010780000000
    20 em_mom_tetramer_19       1 MOP      C20        1     -0.111230000854     12.010780000000
    21 em_mom_tetramer_20       1 MOP      N21        1     -0.571799993515     14.006720000000
    22 em_mom_tetramer_21       1 MOP      C22        1     -0.100529998541     12.010780000000
    23 em_mom_tetramer_22       1 MOP      C23        1     -0.125689998269     12.010780000000
    24 em_mom_tetramer_23       1 MOP      C24        1     -0.112899996340     12.010780000000
    25 em_mom_tetramer_24       1 MOP      C25        1     -0.149839997292     12.010780000000
    26 em_mom_tetramer_25       1 MOP      H26        1      0.045800000429      1.007947000000
    27 em_mom_tetramer_26       1 MOP      H27        1      0.045800000429      1.007947000000
    28 em_mom_tetramer_27       1 MOP      H28        1      0.045800000429      1.007947000000
    29 em_mom_tetramer_28       1 MOP      H29        1      0.141670003533      1.007947000000
    30 em_mom_tetramer_29       1 MOP      H30        1      0.140990003943      1.007947000000
    31 em_mom_tetramer_30       1 MOP      H31        1      0.155310004950      1.007947000000
    32 em_mom_tetramer_31       1 MOP      H32        1      0.153420001268      1.007947000000
    33 em_mom_tetramer_32       1 MOP      H33        1      0.140479996800      1.007947000000
    34 em_mom_tetramer_33       1 MOP      H34        1      0.140180006623      1.007947000000
    35 em_mom_tetramer_34       1 MOP      H35        1      0.134240001440      1.007947000000
    36 em_mom_tetramer_35       1 MOP      H36        1      0.087600000203      1.007947000000
    37 em_mom_tetramer_36       1 MOP      H37        1      0.046149998903      1.007947000000
    38 em_mom_tetramer_37       1 MOP      H38        1      0.046149998903      1.007947000000
    39 em_mom_tetramer_38       1 MOP      H39        1      0.046149998903      1.007947000000
    40 em_mom_tetramer_39       1 MOP      H40        1      0.308670014143      1.007947000000
    41 em_mom_tetramer_40       1 MOP      H41        1      0.152549996972      1.007947000000
    42 em_mom_tetramer_41       1 MOP      H42        1      0.144850000739      1.007947000000
    43 em_mom_tetramer_42       1 MOP      H43        1      0.133939996362      1.007947000000
    44 em_mom_tetramer_43       1 MOP      H44        1      0.153750002384      1.007947000000
    45 em_mom_tetramer_44       2 MOP      C45        1      0.113519996405     12.010780000000
    46 em_mom_tetramer_45       2 MOP      O46        1     -0.326279997826     15.999430000000
    47 em_mom_tetramer_46       2 MOP      C47        1      0.128140002489     12.010780000000
    48 em_mom_tetramer_47       2 MOP      C48        1     -0.204539999366     12.010780000000
    49 em_mom_tetramer_48       2 MOP      C49        1     -0.085430003703     12.010780000000
    50 em_mom_tetramer_49       2 MOP      C50        1     -0.070289999247     12.010780000000
    51 em_mom_tetramer_50       2 MOP      C51        1     -0.038809999824     12.010780000000
    52 em_mom_tetramer_51       2 MOP      C52        1     -0.061769999564     12.010780000000
    53 em_mom_tetramer_52       2 MOP      C53        1     -0.139929994941     12.010780000000
    54 em_mom_tetramer_53       2 MOP      C54        1      0.676580011845     12.010780000000
    55 em_mom_tetramer_54       2 MOP      O55        1     -0.606599986553     15.999430000000
    56 em_mom_tetramer_55       2 MOP      C56        1     -0.101829998195     12.010780000000
    57 em_mom_tetramer_56       2 MOP      C57        1     -0.142629995942     12.010780000000
    58 em_mom_tetramer_57       2 MOP      C58        1     -0.099330000579     12.010780000000
    59 em_mom_tetramer_58       2 MOP      C59        1      0.011130000465     12.010780000000
    60 em_mom_tetramer_59       2 MOP      C60        1     -0.048999998719     12.010780000000
    61 em_mom_tetramer_60       2 MOP      C61        1     -0.105549998581     12.010780000000
    62 em_mom_tetramer_61       2 MOP      C62        1     -0.115170001984     12.010780000000
    63 em_mom_tetramer_62       2 MOP      C63        1      0.150299996138     12.010780000000
    64 em_mom_tetramer_63       2 MOP      C64        1     -0.102820001543     12.010780000000
    65 em_mom_tetramer_64       2 MOP      N65        1     -0.564689993858     14.006720000000
    66 em_mom_tetramer_65       2 MOP      C66        1     -0.101630002260     12.010780000000
    67 em_mom_tetramer_66       2 MOP      C67        1     -0.128810003400     12.010780000000
    68 em_mom_tetramer_67       2 MOP      C68        1     -0.101980000734     12.010780000000
    69 em_mom_tetramer_68       2 MOP      C69        1     -0.146809995174     12.010780000000
    70 em_mom_tetramer_69       2 MOP      H70        1      0.044920001179      1.007947000000
    71 em_mom_tetramer_70       2 MOP      H71        1      0.044920001179      1.007947000000
    72 em_mom_tetramer_71       2 MOP      H72        1      0.044920001179      1.007947000000
    73 em_mom_tetramer_72       2 MOP      H73        1      0.139779999852      1.007947000000
    74 em_mom_tetramer_73       2 MOP      H74        1      0.137150004506      1.007947000000
    75 em_mom_tetramer_74       2 MOP      H75        1      0.161320000887      1.007947000000
    76 em_mom_tetramer_75       2 MOP      H76        1      0.137510001659      1.007947000000
    77 em_mom_tetramer_76       2 MOP      H77        1      0.136470004916      1.007947000000
    78 em_mom_tetramer_77       2 MOP      H78        1      0.132440000772      1.007947000000
    79 em_mom_tetramer_78       2 MOP      H79        1      0.126670002937      1.007947000000
    80 em_mom_tetramer_79       2 MOP      H80        1      0.086599998176      1.007947000000
    81 em_mom_tetramer_80       2 MOP      H81        1      0.044810000807      1.007947000000
    82 em_mom_tetramer_81       2 MOP      H82        1      0.044810000807      1.007947000000
    83 em_mom_tetramer_82       2 MOP      H83        1      0.044810000807      1.007947000000
    84 em_mom_tetramer_83       2 MOP      H84        1      0.304710000753      1.007947000000
    85 em_mom_tetramer_84       2 MOP      H85        1      0.141939997673      1.007947000000
    86 em_mom_tetramer_85       2 MOP      H86        1      0.138710007071      1.007947000000
    87 em_mom_tetramer_86       2 MOP      H87        1      0.141279995441      1.007947000000
    88 em_mom_tetramer_87       2 MOP      H88        1      0.156450003386      1.007947000000
    89 em_mom_tetramer_88       3 MOP      C89        1      0.112609997392     12.010780000000
    90 em_mom_tetramer_89       3 MOP      O90        1     -0.322549998760     15.999430000000
    91 em_mom_tetramer_90       3 MOP      C91        1      0.127059996128     12.010780000000
    92 em_mom_tetramer_91       3 MOP      C92        1     -0.147269994020     12.010780000000
    93 em_mom_tetramer_92       3 MOP      C93        1     -0.084540002048     12.010780000000
    94 em_mom_tetramer_93       3 MOP      C94        1     -0.067749999464     12.010780000000
    95 em_mom_tetramer_94       3 MOP      C95        1     -0.038559999317     12.010780000000
    96 em_mom_tetramer_95       3 MOP      C96        1     -0.062150001526     12.010780000000
    97 em_mom_tetramer_96       3 MOP      C97        1     -0.138679996133     12.010780000000
    98 em_mom_tetramer_97       3 MOP      C98        1      0.679660022259     12.010780000000
    99 em_mom_tetramer_98       3 MOP      O99        1     -0.603410005569     15.999430000000
   100 em_mom_tetramer_99       3 MOP      C100       1     -0.107780002058     12.010780000000
   101 em_mom_tetramer_100       3 MOP      C101       1     -0.143830001354     12.010780000000
   102 em_mom_tetramer_101       3 MOP      C102       1     -0.093860000372     12.010780000000
   103 em_mom_tetramer_102       3 MOP      C103       1      0.008340000175     12.010780000000
   104 em_mom_tetramer_103       3 MOP      C104       1     -0.046429999173     12.010780000000
   105 em_mom_tetramer_104       3 MOP      C105       1     -0.114019997418     12.010780000000
   106 em_mom_tetramer_105       3 MOP      C106       1     -0.092490002513     12.010780000000
   107 em_mom_tetramer_106       3 MOP      C107       1      0.150250002742     12.010780000000
   108 em_mom_tetramer_107       3 MOP      C108       1     -0.113320000470     12.010780000000
   109 em_mom_tetramer_108       3 MOP      N109       1     -0.565949976444     14.006720000000
   110 em_mom_tetramer_109       3 MOP      C110       1     -0.114880003035     12.010780000000
   111 em_mom_tetramer_110       3 MOP      C111       1     -0.134800001979     12.010780000000
   112 em_mom_tetramer_111       3 MOP      C112       1     -0.110559999943     12.010780000000
   113 em_mom_tetramer_112       3 MOP      C113       1     -0.205709993839     12.010780000000
   114 em_mom_tetramer_113       3 MOP      H114       1      0.045350000262      1.007947000000
   115 em_mom_tetramer_114       3 MOP      H115       1      0.045350000262      1.007947000000
   116 em_mom_tetramer_115       3 MOP      H116       1      0.045350000262      1.007947000000
   117 em_mom_tetramer_116       3 MOP      H117       1      0.153310000896      1.007947000000
   118 em_mom_tetramer_117       3 MOP      H118       1      0.141450002789      1.007947000000
   119 em_mom_tetramer_118       3 MOP      H119       1      0.160099998116      1.007947000000
   120 em_mom_tetramer_119       3 MOP      H120       1      0.130520001054      1.007947000000
   121 em_mom_tetramer_120       3 MOP      H121       1      0.135830000043      1.007947000000
   122 em_mom_tetramer_121       3 MOP      H122       1      0.138830006123      1.007947000000
   123 em_mom_tetramer_122       3 MOP      H123       1      0.138459995389      1.007947000000
   124 em_mom_tetramer_123       3 MOP      H124       1      0.087109997869      1.007947000000
   125 em_mom_tetramer_124       3 MOP      H125       1      0.050749998540      1.007947000000
   126 em_mom_tetramer_125       3 MOP      H126       1      0.050749998540      1.007947000000
   127 em_mom_tetramer_126       3 MOP      H127       1      0.050749998540      1.007947000000
   128 em_mom_tetramer_127       3 MOP      H128       1      0.307480007410      1.007947000000
   129 em_mom_tetramer_128       3 MOP      H129       1      0.141029998660      1.007947000000
   130 em_mom_tetramer_129       3 MOP      H130       1      0.137409999967      1.007947000000
   131 em_mom_tetramer_130       3 MOP      H131       1      0.136500000954      1.007947000000
   132 em_mom_tetramer_131       3 MOP      H132       1      0.143779993057      1.007947000000
   133 em_mom_tetramer_132       4 MOP      C133       1      0.111060000956     12.010780000000
   134 em_mom_tetramer_133       4 MOP      O134       1     -0.325139999390     15.999430000000
   135 em_mom_tetramer_134       4 MOP      C135       1      0.123599998653     12.010780000000
   136 em_mom_tetramer_135       4 MOP      C136       1     -0.204760000110     12.010780000000
   137 em_mom_tetramer_136       4 MOP      C137       1     -0.084109999239     12.010780000000
   138 em_mom_tetramer_137       4 MOP      C138       1     -0.070840001106     12.010780000000
   139 em_mom_tetramer_138       4 MOP      C139       1     -0.043430000544     12.010780000000
   140 em_mom_tetramer_139       4 MOP      C140       1     -0.093450002372     12.010780000000
   141 em_mom_tetramer_140       4 MOP      C141       1     -0.141580000520     12.010780000000
   142 em_mom_tetramer_141       4 MOP      C142       1      0.674759984016     12.010780000000
   143 em_mom_tetramer_142       4 MOP      O143       1     -0.613510012627     15.999430000000
   144 em_mom_tetramer_143       4 MOP      C144       1     -0.074620001018     12.010780000000
   145 em_mom_tetramer_144       4 MOP      C145       1     -0.140829995275     12.010780000000
   146 em_mom_tetramer_145       4 MOP      C146       1     -0.091739997268     12.010780000000
   147 em_mom_tetramer_146       4 MOP      C147       1      0.005849999841     12.010780000000
   148 em_mom_tetramer_147       4 MOP      C148       1     -0.046909999102     12.010780000000
   149 em_mom_tetramer_148       4 MOP      C149       1     -0.106619998813     12.010780000000
   150 em_mom_tetramer_149       4 MOP      C150       1     -0.114139996469     12.010780000000
   151 em_mom_tetramer_150       4 MOP      C151       1      0.159529998899     12.010780000000
   152 em_mom_tetramer_151       4 MOP      C152       1     -0.104960002005     12.010780000000
   153 em_mom_tetramer_152       4 MOP      N153       1     -0.550320029259     14.006720000000
   154 em_mom_tetramer_153       4 MOP      C154       1     -0.098099999130     12.010780000000
   155 em_mom_tetramer_154       4 MOP      C155       1     -0.130989998579     12.010780000000
   156 em_mom_tetramer_155       4 MOP      C156       1     -0.106159999967     12.010780000000
   157 em_mom_tetramer_156       4 MOP      C157       1     -0.146549999714     12.010780000000
   158 em_mom_tetramer_157       4 MOP      H158       1      0.045540001243      1.007947000000
   159 em_mom_tetramer_158       4 MOP      H159       1      0.045540001243      1.007947000000
   160 em_mom_tetramer_159       4 MOP      H160       1      0.045540001243      1.007947000000
   161 em_mom_tetramer_160       4 MOP      H161       1      0.140560001135      1.007947000000
   162 em_mom_tetramer_161       4 MOP      H162       1      0.140860006213      1.007947000000
   163 em_mom_tetramer_162       4 MOP      H163       1      0.138469994068      1.007947000000
   164 em_mom_tetramer_163       4 MOP      H164       1      0.156819999218      1.007947000000
   165 em_mom_tetramer_164       4 MOP      H165       1      0.138989999890      1.007947000000
   166 em_mom_tetramer_165       4 MOP      H166       1      0.139709994197      1.007947000000
   167 em_mom_tetramer_166       4 MOP      H167       1      0.127120003104      1.007947000000
   168 em_mom_tetramer_167       4 MOP      H168       1      0.091710001230      1.007947000000
   169 em_mom_tetramer_168       4 MOP      H169       1      0.048069998622      1.007947000000
   170 em_mom_tetramer_169       4 MOP      H170       1      0.048069998622      1.007947000000
   171 em_mom_tetramer_170       4 MOP      H171       1      0.048069998622      1.007947000000
   172 em_mom_tetramer_171       4 MOP      H172       1      0.324050009251      1.007947000000
   173 em_mom_tetramer_172       4 MOP      H173       1      0.144229993224      1.007947000000
   174 em_mom_tetramer_173       4 MOP      H174       1      0.135680004954      1.007947000000
   175 em_mom_tetramer_174       4 MOP      H175       1      0.136419996619      1.007947000000
   176 em_mom_tetramer_175       4 MOP      H176       1      0.158030003309      1.007947000000
   177 em_mom_tetramer_176       5 CAP      C177       1      0.125870004296     12.010780000000
   178 em_mom_tetramer_177       5 CAP      O178       1     -0.440250009298     15.999430000000
   179 em_mom_tetramer_178       5 CAP      H179       1      0.051330000162      1.007947000000
   180 em_mom_tetramer_179       5 CAP      H180       1      0.051330000162      1.007947000000
   181 em_mom_tetramer_180       5 CAP      H181       1      0.051330000162      1.007947000000
   182 em_mom_tetramer_181       6 CAP      C182       1     -0.113729998469     12.010780000000
   183 em_mom_tetramer_182       6 CAP      C183       1      0.186230003834     12.010780000000
   184 em_mom_tetramer_183       6 CAP      C184       1     -0.113729998469     12.010780000000
   185 em_mom_tetramer_184       6 CAP      C185       1     -0.113729998469     12.010780000000
   186 em_mom_tetramer_185       6 CAP      O186       1     -0.443109989166     15.999430000000
   187 em_mom_tetramer_186       6 CAP      C187       1      0.749450027943     12.010780000000
   188 em_mom_tetramer_187       6 CAP      O188       1     -0.603510022163     15.999430000000
   189 em_mom_tetramer_188       6 CAP      H189       1      0.051309999079      1.007947000000
   190 em_mom_tetramer_189       6 CAP      H190       1      0.051309999079      1.007947000000
   191 em_mom_tetramer_190       6 CAP      H191       1      0.051309999079      1.007947000000
   192 em_mom_tetramer_191       6 CAP      H192       1      0.051309999079      1.007947000000
   193 em_mom_tetramer_192       6 CAP      H193       1      0.051309999079      1.007947000000
   194 em_mom_tetramer_193       6 CAP      H194       1      0.051309999079      1.007947000000
   195 em_mom_tetramer_194       6 CAP      H195       1      0.051309999079      1.007947000000
   196 em_mom_tetramer_195       6 CAP      H196       1      0.051309999079      1.007947000000
   197 em_mom_tetramer_196       6 CAP      H197       1      0.051309999079      1.007947000000

[ pairs ]
;ai    aj   funct
    98	   120	     1
   148	   174	     1
    17	    23	     1
     6	    17	     1
    90	   103	     1
   140	   145	     1
    80	    98	     1
    68	    85	     1
   149	   153	     1
    56	    75	     1
    94	   117	     1
    61	    85	     1
    17	    41	     1
   112	   113	     1
    11	   177	     1
    15	    35	     1
   109	   127	     1
     2	    29	     1
     7	    16	     1
    45	    48	     1
   154	   168	     1
     6	    31	     1
    20	    22	     1
   109	   140	     1
   103	   118	     1
    40	    53	     1
   140	   143	     1
    60	    88	     1
   185	   193	     1
   138	   161	     1
   185	   192	     1
   184	   196	     1
   129	   130	     1
   106	   130	     1
   142	   145	     1
   153	   169	     1
    24	    35	     1
    47	    50	     1
   154	   167	     1
     2	     5	     1
   113	   117	     1
    63	    99	     1
   134	   147	     1
    16	    22	     1
   184	   187	     1
   142	   163	     1
   146	   164	     1
   183	   188	     1
   184	   189	     1
    99	   100	     1
    64	    98	     1
   106	   125	     1
   109	   126	     1
   136	   176	     1
    16	    44	     1
   150	   156	     1
    91	    94	     1
    62	    98	     1
    94	   105	     1
   147	   175	     1
   139	   157	     1
    96	   122	     1
   149	   155	     1
    90	   117	     1
   102	   103	     1
    93	    96	     1
   137	   157	     1
    73	    74	     1
    66	    79	     1
    52	    76	     1
    89	   113	     1
    80	    84	     1
    59	    62	     1
   139	   148	     1
    52	    55	     1
   186	   193	     1
    50	    57	     1
   137	   148	     1
   173	   174	     1
   185	   190	     1
    59	    74	     1
    19	    41	     1
   106	   112	     1
   138	   145	     1
   150	   169	     1
    65	    96	     1
   105	   108	     1
    40	    55	     1
   106	   142	     1
   184	   195	     1
    92	   103	     1
   153	   183	     1
    60	    63	     1
   124	   125	     1
    92	    95	     1
    21	    37	     1
   106	   128	     1
     6	    44	     1
    95	   104	     1
   138	   163	     1
     9	    14	     1
   100	   119	     1
    50	    61	     1
    21	    38	     1
   141	   146	     1
   130	   131	     1
    32	    33	     1
    58	    59	     1
   168	   171	     1
    96	    99	     1
   149	   152	     1
   142	   164	     1
   168	   172	     1
   120	   121	     1
   151	   173	     1
     1	     4	     1
    95	   113	     1
   182	   194	     1
    47	    71	     1
    84	    99	     1
    95	   121	     1
    10	   181	     1
    10	    13	     1
    66	    87	     1
    64	    84	     1
   139	   142	     1
   104	   107	     1
    14	    15	     1
     8	    32	     1
   138	   149	     1
    51	    56	     1
   103	   111	     1
     2	    15	     1
     5	    25	     1
   144	   166	     1
    62	    84	     1
   109	   110	     1
   186	   196	     1
   112	   129	     1
   150	   171	     1
    80	    81	     1
   152	   187	     1
     6	    29	     1
   124	   142	     1
    45	    69	     1
    96	   103	     1
    21	    39	     1
    61	    65	     1
    52	    78	     1
     4	     7	     1
    12	   178	     1
   124	   128	     1
    91	   114	     1
   186	   189	     1
     5	    14	     1
   168	   170	     1
    19	    55	     1
    98	   119	     1
    58	    76	     1
   184	   197	     1
   103	   123	     1
    49	    58	     1
   135	   138	     1
   108	   110	     1
   136	   147	     1
   164	   165	     1
   110	   131	     1
    63	    67	     1
   138	   156	     1
   150	   170	     1
     6	     9	     1
   174	   175	     1
    52	    59	     1
    24	    41	     1
   105	   124	     1
    47	    74	     1
    50	    53	     1
    18	    42	     1
   184	   190	     1
   100	   122	     1
   135	   158	     1
    50	    75	     1
    48	    59	     1
   147	   150	     1
   186	   195	     1
   134	   161	     1
    48	    88	     1
    53	    58	     1
    62	    68	     1
    64	    66	     1
    65	    66	     1
   156	   157	     1
    41	    42	     1
    76	    77	     1
   143	   144	     1
    61	    64	     1
   139	   162	     1
   109	   125	     1
    49	    69	     1
     3	    26	     1
    80	    83	     1
   147	   162	     1
    17	    36	     1
    22	    43	     1
   151	   188	     1
    91	   116	     1
   128	   143	     1
    47	    60	     1
   102	   120	     1
    46	    73	     1
   107	   141	     1
     1	    25	     1
    33	    34	     1
    24	    25	     1
   124	   127	     1
     7	    30	     1
    19	    23	     1
    94	   101	     1
   149	   175	     1
   153	   171	     1
    65	   100	     1
   186	   192	     1
   185	   191	     1
    10	    31	     1
     4	    44	     1
    59	    79	     1
   182	   193	     1
    18	    54	     1
   149	   157	     1
   103	   106	     1
   146	   147	     1
    52	    57	     1
    17	    21	     1
    50	    68	     1
   117	   118	     1
   144	   163	     1
    12	    34	     1
    90	    93	     1
   135	   160	     1
   105	   111	     1
   138	   176	     1
    60	    66	     1
    18	    37	     1
   151	   186	     1
   135	   148	     1
    94	   119	     1
    63	    97	     1
   107	   111	     1
    18	    38	     1
   186	   197	     1
   140	   147	     1
    91	   115	     1
   153	   170	     1
   156	   173	     1
     3	    16	     1
    94	    97	     1
    47	    72	     1
   153	   154	     1
    51	    54	     1
   138	   141	     1
    56	    78	     1
    94	   132	     1
   172	   188	     1
     8	    15	     1
    96	   101	     1
    58	    75	     1
    91	   104	     1
    36	    54	     1
    63	    85	     1
   186	   190	     1
    61	    69	     1
   150	   172	     1
    20	    54	     1
   107	   123	     1
    15	    43	     1
    22	    36	     1
    95	   118	     1
   182	   196	     1
    48	    51	     1
   141	   165	     1
   104	   132	     1
     9	   177	     1
    95	   100	     1
    18	    39	     1
    46	    59	     1
    46	    88	     1
   137	   146	     1
    96	   120	     1
    15	    23	     1
    36	    37	     1
   136	   139	     1
    21	    22	     1
     8	    11	     1
   182	   187	     1
    36	    38	     1
    54	    76	     1
     5	    16	     1
   148	   154	     1
   149	   173	     1
    10	    32	     1
    21	    52	     1
    68	    79	     1
   133	   136	     1
    53	    77	     1
   172	   186	     1
     7	    33	     1
   151	   167	     1
   112	   123	     1
    10	   180	     1
   148	   151	     1
    66	    80	     1
   104	   110	     1
   139	   165	     1
   156	   167	     1
   157	   161	     1
    85	    86	     1
    51	    69	     1
     3	    30	     1
    84	    97	     1
   139	   144	     1
    65	    81	     1
   110	   124	     1
   106	   127	     1
   184	   191	     1
   147	   167	     1
    36	    39	     1
    90	   132	     1
    94	   122	     1
   105	   131	     1
   149	   168	     1
    93	   104	     1
     5	     8	     1
    62	    81	     1
   105	   109	     1
   150	   174	     1
    80	    82	     1
     3	     6	     1
   151	   155	     1
    17	    20	     1
   182	   195	     1
    50	    88	     1
     3	    28	     1
    93	   113	     1
   168	   187	     1
    18	    24	     1
   121	   122	     1
    62	    86	     1
    12	    31	     1
   103	   131	     1
    10	   179	     1
    86	    87	     1
    61	    87	     1
    61	    67	     1
   147	   155	     1
    15	    18	     1
   106	   126	     1
   152	   172	     1
     6	    34	     1
    14	    31	     1
   150	   187	     1
   140	   166	     1
   161	   162	     1
   137	   140	     1
   128	   141	     1
   102	   119	     1
    49	    52	     1
    17	    25	     1
     4	    15	     1
   104	   130	     1
    93	   102	     1
    51	    74	     1
   135	   162	     1
   185	   194	     1
   182	   192	     1
     6	    13	     1
   154	   175	     1
    51	    77	     1
   107	   143	     1
   168	   169	     1
    65	    82	     1
    97	   121	     1
    11	    12	     1
    18	    40	     1
     8	    34	     1
   140	   164	     1
     9	    33	     1
    16	    42	     1
    62	    82	     1
    60	    86	     1
    77	    78	     1
    19	    53	     1
    65	    83	     1
    21	    56	     1
    95	    98	     1
   134	   176	     1
   182	   197	     1
   148	   176	     1
    61	    80	     1
   124	   126	     1
   152	   154	     1
     8	    13	     1
    22	    35	     1
    62	    83	     1
    25	    29	     1
   185	   187	     1
    94	   112	     1
   105	   129	     1
    19	    35	     1
   185	   189	     1
    97	   102	     1
    51	    60	     1
    47	    70	     1
    54	    75	     1
    68	    69	     1
   165	   166	     1
   107	   129	     1
    50	    73	     1
    92	   132	     1
    46	    49	     1
     7	    10	     1
   134	   137	     1
   110	   123	     1
   186	   191	     1
    42	    43	     1
    55	    56	     1
   108	   142	     1
    59	    87	     1
    59	    67	     1
   186	   194	     1
    15	    30	     1
     7	    12	     1
     3	    27	     1
    29	    30	     1
   108	   128	     1
    63	    79	     1
   135	   159	     1
    89	    92	     1
    36	    40	     1
    14	    32	     1
   133	   157	     1
    20	    40	     1
   105	   113	     1
    98	   101	     1
     8	   178	     1
    16	    19	     1
     2	    44	     1
   146	   163	     1
    49	    60	     1
    69	    73	     1
    50	    78	     1
   109	   144	     1
    17	    43	     1
    91	   118	     1
   138	   166	     1
    54	    57	     1
     6	    24	     1
     7	    25	     1

[ bonds ]
;ai    aj   funct r k
     1      2      1      0.143632390591  189984.684332368197 
     1     26      1      0.109288837838  317186.185378679947 
     1     27      1      0.109288837838  317186.185378679947 
     1     28      1      0.109288837838  317186.185378679947 
     2      3      1      0.137202606628  266731.066406706930 
     3      4      1      0.140070606401  315369.603109081567 
     3     25      1      0.140070606401  315369.603109081567 
     4      5      1      0.140070606401  315369.603109081567 
     4     29      1      0.108603610657  323372.939138590940 
     5      6      1      0.140070606401  315369.603109081567 
     5     30      1      0.108603610657  323372.939138590940 
     6      7      1      0.146787322362  223784.907186336932 
     6     15      1      0.140070606401  315369.603109081567 
     7      8      1      0.140070606401  315369.603109081567 
     7     14      1      0.140070606401  315369.603109081567 
     8      9      1      0.140070606401  315369.603109081567 
     8     31      1      0.108603610657  323372.939138590940 
     9     10      1      0.146787322362  223784.907186336932 
     9     12      1      0.140070606401  315369.603109081567 
    10     11      1      0.122500229618  637673.816836400889 
    10    178      1      0.135606196339  243795.038367059984 
    12     13      1      0.140070606401  315369.603109081567 
    12     32      1      0.108603610657  323372.939138590940 
    13     14      1      0.140070606401  315369.603109081567 
    13     33      1      0.108603610657  323372.939138590940 
    14     34      1      0.108603610657  323372.939138590940 
    15     16      1      0.146787322362  223784.907186336932 
    15     25      1      0.140070606401  315369.603109081567 
    16     17      1      0.140070606401  315369.603109081567 
    16     24      1      0.140070606401  315369.603109081567 
    17     18      1      0.140070606401  315369.603109081567 
    17     35      1      0.108603610657  323372.939138590940 
    18     19      1      0.150959128588  200304.454300773097 
    18     22      1      0.140070606401  315369.603109081567 
    19     20      1      0.153362760384  180164.203623913403 
    19     21      1      0.146209979488  202028.005744964030 
    19     36      1      0.109288837838  317186.185378679947 
    20     37      1      0.109288837838  317186.185378679947 
    20     38      1      0.109288837838  317186.185378679947 
    20     39      1      0.109288837838  317186.185378679947 
    21     40      1      0.101860473038  402492.840307690029 
    21     54      1      0.138376574172  273614.770187574963 
    22     23      1      0.140070606401  315369.603109081567 
    22     41      1      0.108603610657  323372.939138590940 
    23     24      1      0.140070606401  315369.603109081567 
    23     42      1      0.108603610657  323372.939138590940 
    24     43      1      0.108603610657  323372.939138590940 
    25     44      1      0.108603610657  323372.939138590940 
    45     46      1      0.143632390591  189984.684332368197 
    45     70      1      0.109288837838  317186.185378679947 
    45     71      1      0.109288837838  317186.185378679947 
    45     72      1      0.109288837838  317186.185378679947 
    46     47      1      0.137202606628  266731.066406706930 
    47     48      1      0.140070606401  315369.603109081567 
    47     69      1      0.140070606401  315369.603109081567 
    48     49      1      0.140070606401  315369.603109081567 
    48     73      1      0.108603610657  323372.939138590940 
    49     50      1      0.140070606401  315369.603109081567 
    49     74      1      0.108603610657  323372.939138590940 
    50     51      1      0.146787322362  223784.907186336932 
    50     59      1      0.140070606401  315369.603109081567 
    51     52      1      0.140070606401  315369.603109081567 
    51     58      1      0.140070606401  315369.603109081567 
    52     53      1      0.140070606401  315369.603109081567 
    52     75      1      0.108603610657  323372.939138590940 
    53     54      1      0.146787322362  223784.907186336932 
    53     56      1      0.140070606401  315369.603109081567 
    54     55      1      0.122500229618  637673.816836400889 
    56     57      1      0.140070606401  315369.603109081567 
    56     76      1      0.108603610657  323372.939138590940 
    57     58      1      0.140070606401  315369.603109081567 
    57     77      1      0.108603610657  323372.939138590940 
    58     78      1      0.108603610657  323372.939138590940 
    59     60      1      0.146787322362  223784.907186336932 
    59     69      1      0.140070606401  315369.603109081567 
    60     61      1      0.140070606401  315369.603109081567 
    60     68      1      0.140070606401  315369.603109081567 
    61     62      1      0.140070606401  315369.603109081567 
    61     79      1      0.108603610657  323372.939138590940 
    62     63      1      0.150959128588  200304.454300773097 
    62     66      1      0.140070606401  315369.603109081567 
    63     64      1      0.153362760384  180164.203623913403 
    63     65      1      0.146209979488  202028.005744964030 
    63     80      1      0.109288837838  317186.185378679947 
    64     81      1      0.109288837838  317186.185378679947 
    64     82      1      0.109288837838  317186.185378679947 
    64     83      1      0.109288837838  317186.185378679947 
    65     84      1      0.101860473038  402492.840307690029 
    65     98      1      0.138376574172  273614.770187574963 
    66     67      1      0.140070606401  315369.603109081567 
    66     85      1      0.108603610657  323372.939138590940 
    67     68      1      0.140070606401  315369.603109081567 
    67     86      1      0.108603610657  323372.939138590940 
    68     87      1      0.108603610657  323372.939138590940 
    69     88      1      0.108603610657  323372.939138590940 
    89     90      1      0.143632390591  189984.684332368197 
    89    114      1      0.109288837838  317186.185378679947 
    89    115      1      0.109288837838  317186.185378679947 
    89    116      1      0.109288837838  317186.185378679947 
    90     91      1      0.137202606628  266731.066406706930 
    91     92      1      0.140070606401  315369.603109081567 
    91    113      1      0.140070606401  315369.603109081567 
    92     93      1      0.140070606401  315369.603109081567 
    92    117      1      0.108603610657  323372.939138590940 
    93     94      1      0.140070606401  315369.603109081567 
    93    118      1      0.108603610657  323372.939138590940 
    94     95      1      0.146787322362  223784.907186336932 
    94    103      1      0.140070606401  315369.603109081567 
    95     96      1      0.140070606401  315369.603109081567 
    95    102      1      0.140070606401  315369.603109081567 
    96     97      1      0.140070606401  315369.603109081567 
    96    119      1      0.108603610657  323372.939138590940 
    97     98      1      0.146787322362  223784.907186336932 
    97    100      1      0.140070606401  315369.603109081567 
    98     99      1      0.122500229618  637673.816836400889 
   100    101      1      0.140070606401  315369.603109081567 
   100    120      1      0.108603610657  323372.939138590940 
   101    102      1      0.140070606401  315369.603109081567 
   101    121      1      0.108603610657  323372.939138590940 
   102    122      1      0.108603610657  323372.939138590940 
   103    104      1      0.146787322362  223784.907186336932 
   103    113      1      0.140070606401  315369.603109081567 
   104    105      1      0.140070606401  315369.603109081567 
   104    112      1      0.140070606401  315369.603109081567 
   105    106      1      0.140070606401  315369.603109081567 
   105    123      1      0.108603610657  323372.939138590940 
   106    107      1      0.150959128588  200304.454300773097 
   106    110      1      0.140070606401  315369.603109081567 
   107    108      1      0.153362760384  180164.203623913403 
   107    109      1      0.146209979488  202028.005744964030 
   107    124      1      0.109288837838  317186.185378679947 
   108    125      1      0.109288837838  317186.185378679947 
   108    126      1      0.109288837838  317186.185378679947 
   108    127      1      0.109288837838  317186.185378679947 
   109    128      1      0.101860473038  402492.840307690029 
   109    142      1      0.138376574172  273614.770187574963 
   110    111      1      0.140070606401  315369.603109081567 
   110    129      1      0.108603610657  323372.939138590940 
   111    112      1      0.140070606401  315369.603109081567 
   111    130      1      0.108603610657  323372.939138590940 
   112    131      1      0.108603610657  323372.939138590940 
   113    132      1      0.108603610657  323372.939138590940 
   133    134      1      0.143632390591  189984.684332368197 
   133    158      1      0.109288837838  317186.185378679947 
   133    159      1      0.109288837838  317186.185378679947 
   133    160      1      0.109288837838  317186.185378679947 
   134    135      1      0.137202606628  266731.066406706930 
   135    136      1      0.140070606401  315369.603109081567 
   135    157      1      0.140070606401  315369.603109081567 
   136    137      1      0.140070606401  315369.603109081567 
   136    161      1      0.108603610657  323372.939138590940 
   137    138      1      0.140070606401  315369.603109081567 
   137    162      1      0.108603610657  323372.939138590940 
   138    139      1      0.146787322362  223784.907186336932 
   138    147      1      0.140070606401  315369.603109081567 
   139    140      1      0.140070606401  315369.603109081567 
   139    146      1      0.140070606401  315369.603109081567 
   140    141      1      0.140070606401  315369.603109081567 
   140    163      1      0.108603610657  323372.939138590940 
   141    142      1      0.146787322362  223784.907186336932 
   141    144      1      0.140070606401  315369.603109081567 
   142    143      1      0.122500229618  637673.816836400889 
   144    145      1      0.140070606401  315369.603109081567 
   144    164      1      0.108603610657  323372.939138590940 
   145    146      1      0.140070606401  315369.603109081567 
   145    165      1      0.108603610657  323372.939138590940 
   146    166      1      0.108603610657  323372.939138590940 
   147    148      1      0.146787322362  223784.907186336932 
   147    157      1      0.140070606401  315369.603109081567 
   148    149      1      0.140070606401  315369.603109081567 
   148    156      1      0.140070606401  315369.603109081567 
   149    150      1      0.140070606401  315369.603109081567 
   149    167      1      0.108603610657  323372.939138590940 
   150    151      1      0.150959128588  200304.454300773097 
   150    154      1      0.140070606401  315369.603109081567 
   151    152      1      0.153362760384  180164.203623913403 
   151    153      1      0.146209979488  202028.005744964030 
   151    168      1      0.109288837838  317186.185378679947 
   152    169      1      0.109288837838  317186.185378679947 
   152    170      1      0.109288837838  317186.185378679947 
   152    171      1      0.109288837838  317186.185378679947 
   153    172      1      0.101860473038  402492.840307690029 
   153    187      1      0.138376574172  273614.770187574963 
   154    155      1      0.140070606401  315369.603109081567 
   154    173      1      0.108603610657  323372.939138590940 
   155    156      1      0.140070606401  315369.603109081567 
   155    174      1      0.108603610657  323372.939138590940 
   156    175      1      0.108603610657  323372.939138590940 
   157    176      1      0.108603610657  323372.939138590940 
   177    178      1      0.143632390591  189984.684332368197 
   177    179      1      0.109288837838  317186.185378679947 
   177    180      1      0.109288837838  317186.185378679947 
   177    181      1      0.109288837838  317186.185378679947 
   182    183      1      0.153362760384  180164.203623913403 
   182    189      1      0.109288837838  317186.185378679947 
   182    190      1      0.109288837838  317186.185378679947 
   182    191      1      0.109288837838  317186.185378679947 
   183    184      1      0.153362760384  180164.203623913403 
   183    185      1      0.153362760384  180164.203623913403 
   183    186      1      0.143632390591  189984.684332368197 
   184    192      1      0.109288837838  317186.185378679947 
   184    193      1      0.109288837838  317186.185378679947 
   184    194      1      0.109288837838  317186.185378679947 
   185    195      1      0.109288837838  317186.185378679947 
   185    196      1      0.109288837838  317186.185378679947 
   185    197      1      0.109288837838  317186.185378679947 
   186    187      1      0.135606196339  243795.038367059984 
   187    188      1      0.122500229618  637673.816836400889 

[ angles ]
;ai    aj   ak   funct theta  k
     1      2      3      1     112.873616114500    1003.288803783688 
     2      1     26      1     107.660782175200     425.669014814353 
     2      1     27      1     107.660782175200     425.669014814353 
     2      1     28      1     107.660782175200     425.669014814353 
     2      3      4      1     120.104999638600     707.494800457430 
     2      3     25      1     120.104999638600     707.494800457430 
     3      4      5      1     120.104999638600     707.494800457430 
     3      4     29      1     119.854485991700     275.494453586476 
     3     25     15      1     120.104999638600     707.494800457430 
     3     25     44      1     119.854485991700     275.494453586476 
     4      3     25      1     120.104999638600     707.494800457430 
     4      5      6      1     120.104999638600     707.494800457430 
     4      5     30      1     119.854485991700     275.494453586476 
     5      4     29      1     119.854485991700     275.494453586476 
     5      6      7      1     120.104999638600     707.494800457430 
     5      6     15      1     120.104999638600     707.494800457430 
     6      5     30      1     119.854485991700     275.494453586476 
     6      7      8      1     120.104999638600     707.494800457430 
     6      7     14      1     120.104999638600     707.494800457430 
     6     15     16      1     120.104999638600     707.494800457430 
     6     15     25      1     120.104999638600     707.494800457430 
     7      6     15      1     120.104999638600     707.494800457430 
     7      8      9      1     120.104999638600     707.494800457430 
     7      8     31      1     119.854485991700     275.494453586476 
     7     14     13      1     120.104999638600     707.494800457430 
     7     14     34      1     119.854485991700     275.494453586476 
     8      7     14      1     120.104999638600     707.494800457430 
     8      9     10      1     120.104999638600     707.494800457430 
     8      9     12      1     120.104999638600     707.494800457430 
     9      8     31      1     119.854485991700     275.494453586476 
     9     10     11      1     120.104999638600     707.494800457430 
     9     10    178      1     120.104999638600     707.494800457430 
     9     12     13      1     120.104999638600     707.494800457430 
     9     12     32      1     119.854485991700     275.494453586476 
    10      9     12      1     120.104999638600     707.494800457430 
    10    178    177      1     112.873616114500    1003.288803783688 
    11     10    178      1     123.605890003500     529.778359969850 
    12     13     14      1     120.104999638600     707.494800457430 
    12     13     33      1     119.854485991700     275.494453586476 
    13     12     32      1     119.854485991700     275.494453586476 
    13     14     34      1     119.854485991700     275.494453586476 
    14     13     33      1     119.854485991700     275.494453586476 
    15     16     17      1     120.104999638600     707.494800457430 
    15     16     24      1     120.104999638600     707.494800457430 
    15     25     44      1     119.854485991700     275.494453586476 
    16     15     25      1     120.104999638600     707.494800457430 
    16     17     18      1     120.104999638600     707.494800457430 
    16     17     35      1     119.854485991700     275.494453586476 
    16     24     23      1     120.104999638600     707.494800457430 
    16     24     43      1     119.854485991700     275.494453586476 
    17     16     24      1     120.104999638600     707.494800457430 
    17     18     19      1     120.104999638600     707.494800457430 
    17     18     22      1     120.104999638600     707.494800457430 
    18     17     35      1     119.854485991700     275.494453586476 
    18     19     20      1     107.660782175200     425.669014814353 
    18     19     21      1     107.660782175200     425.669014814353 
    18     19     36      1     107.660782175200     425.669014814353 
    18     22     23      1     120.104999638600     707.494800457430 
    18     22     41      1     119.854485991700     275.494453586476 
    19     18     22      1     120.104999638600     707.494800457430 
    19     20     37      1     107.660782175200     425.669014814353 
    19     20     38      1     107.660782175200     425.669014814353 
    19     20     39      1     107.660782175200     425.669014814353 
    19     21     40      1     118.063661129300     310.493309961378 
    19     21     54      1     121.770534386700     665.074567904266 
    20     19     21      1     107.660782175200     425.669014814353 
    20     19     36      1     107.660782175200     425.669014814353 
    21     19     36      1     107.660782175200     425.669014814353 
    21     54     53      1     120.104999638600     707.494800457430 
    21     54     55      1     120.104999638600     707.494800457430 
    22     23     24      1     120.104999638600     707.494800457430 
    22     23     42      1     119.854485991700     275.494453586476 
    23     22     41      1     119.854485991700     275.494453586476 
    23     24     43      1     119.854485991700     275.494453586476 
    24     23     42      1     119.854485991700     275.494453586476 
    26      1     27      1     108.354313526900     307.746905535118 
    26      1     28      1     108.354313526900     307.746905535118 
    27      1     28      1     108.354313526900     307.746905535118 
    37     20     38      1     108.354313526900     307.746905535118 
    37     20     39      1     108.354313526900     307.746905535118 
    38     20     39      1     108.354313526900     307.746905535118 
    40     21     54      1     118.063661129300     310.493309961378 
    45     46     47      1     112.873616114500    1003.288803783688 
    46     45     70      1     107.660782175200     425.669014814353 
    46     45     71      1     107.660782175200     425.669014814353 
    46     45     72      1     107.660782175200     425.669014814353 
    46     47     48      1     120.104999638600     707.494800457430 
    46     47     69      1     120.104999638600     707.494800457430 
    47     48     49      1     120.104999638600     707.494800457430 
    47     48     73      1     119.854485991700     275.494453586476 
    47     69     59      1     120.104999638600     707.494800457430 
    47     69     88      1     119.854485991700     275.494453586476 
    48     47     69      1     120.104999638600     707.494800457430 
    48     49     50      1     120.104999638600     707.494800457430 
    48     49     74      1     119.854485991700     275.494453586476 
    49     48     73      1     119.854485991700     275.494453586476 
    49     50     51      1     120.104999638600     707.494800457430 
    49     50     59      1     120.104999638600     707.494800457430 
    50     49     74      1     119.854485991700     275.494453586476 
    50     51     52      1     120.104999638600     707.494800457430 
    50     51     58      1     120.104999638600     707.494800457430 
    50     59     60      1     120.104999638600     707.494800457430 
    50     59     69      1     120.104999638600     707.494800457430 
    51     50     59      1     120.104999638600     707.494800457430 
    51     52     53      1     120.104999638600     707.494800457430 
    51     52     75      1     119.854485991700     275.494453586476 
    51     58     57      1     120.104999638600     707.494800457430 
    51     58     78      1     119.854485991700     275.494453586476 
    52     51     58      1     120.104999638600     707.494800457430 
    52     53     54      1     120.104999638600     707.494800457430 
    52     53     56      1     120.104999638600     707.494800457430 
    53     52     75      1     119.854485991700     275.494453586476 
    53     54     55      1     120.104999638600     707.494800457430 
    53     56     57      1     120.104999638600     707.494800457430 
    53     56     76      1     119.854485991700     275.494453586476 
    54     53     56      1     120.104999638600     707.494800457430 
    56     57     58      1     120.104999638600     707.494800457430 
    56     57     77      1     119.854485991700     275.494453586476 
    57     56     76      1     119.854485991700     275.494453586476 
    57     58     78      1     119.854485991700     275.494453586476 
    58     57     77      1     119.854485991700     275.494453586476 
    59     60     61      1     120.104999638600     707.494800457430 
    59     60     68      1     120.104999638600     707.494800457430 
    59     69     88      1     119.854485991700     275.494453586476 
    60     59     69      1     120.104999638600     707.494800457430 
    60     61     62      1     120.104999638600     707.494800457430 
    60     61     79      1     119.854485991700     275.494453586476 
    60     68     67      1     120.104999638600     707.494800457430 
    60     68     87      1     119.854485991700     275.494453586476 
    61     60     68      1     120.104999638600     707.494800457430 
    61     62     63      1     120.104999638600     707.494800457430 
    61     62     66      1     120.104999638600     707.494800457430 
    62     61     79      1     119.854485991700     275.494453586476 
    62     63     64      1     107.660782175200     425.669014814353 
    62     63     65      1     107.660782175200     425.669014814353 
    62     63     80      1     107.660782175200     425.669014814353 
    62     66     67      1     120.104999638600     707.494800457430 
    62     66     85      1     119.854485991700     275.494453586476 
    63     62     66      1     120.104999638600     707.494800457430 
    63     64     81      1     107.660782175200     425.669014814353 
    63     64     82      1     107.660782175200     425.669014814353 
    63     64     83      1     107.660782175200     425.669014814353 
    63     65     84      1     118.063661129300     310.493309961378 
    63     65     98      1     121.770534386700     665.074567904266 
    64     63     65      1     107.660782175200     425.669014814353 
    64     63     80      1     107.660782175200     425.669014814353 
    65     63     80      1     107.660782175200     425.669014814353 
    65     98     97      1     120.104999638600     707.494800457430 
    65     98     99      1     120.104999638600     707.494800457430 
    66     67     68      1     120.104999638600     707.494800457430 
    66     67     86      1     119.854485991700     275.494453586476 
    67     66     85      1     119.854485991700     275.494453586476 
    67     68     87      1     119.854485991700     275.494453586476 
    68     67     86      1     119.854485991700     275.494453586476 
    70     45     71      1     108.354313526900     307.746905535118 
    70     45     72      1     108.354313526900     307.746905535118 
    71     45     72      1     108.354313526900     307.746905535118 
    81     64     82      1     108.354313526900     307.746905535118 
    81     64     83      1     108.354313526900     307.746905535118 
    82     64     83      1     108.354313526900     307.746905535118 
    84     65     98      1     118.063661129300     310.493309961378 
    89     90     91      1     112.873616114500    1003.288803783688 
    90     89    114      1     107.660782175200     425.669014814353 
    90     89    115      1     107.660782175200     425.669014814353 
    90     89    116      1     107.660782175200     425.669014814353 
    90     91     92      1     120.104999638600     707.494800457430 
    90     91    113      1     120.104999638600     707.494800457430 
    91     92     93      1     120.104999638600     707.494800457430 
    91     92    117      1     119.854485991700     275.494453586476 
    91    113    103      1     120.104999638600     707.494800457430 
    91    113    132      1     119.854485991700     275.494453586476 
    92     91    113      1     120.104999638600     707.494800457430 
    92     93     94      1     120.104999638600     707.494800457430 
    92     93    118      1     119.854485991700     275.494453586476 
    93     92    117      1     119.854485991700     275.494453586476 
    93     94     95      1     120.104999638600     707.494800457430 
    93     94    103      1     120.104999638600     707.494800457430 
    94     93    118      1     119.854485991700     275.494453586476 
    94     95     96      1     120.104999638600     707.494800457430 
    94     95    102      1     120.104999638600     707.494800457430 
    94    103    104      1     120.104999638600     707.494800457430 
    94    103    113      1     120.104999638600     707.494800457430 
    95     94    103      1     120.104999638600     707.494800457430 
    95     96     97      1     120.104999638600     707.494800457430 
    95     96    119      1     119.854485991700     275.494453586476 
    95    102    101      1     120.104999638600     707.494800457430 
    95    102    122      1     119.854485991700     275.494453586476 
    96     95    102      1     120.104999638600     707.494800457430 
    96     97     98      1     120.104999638600     707.494800457430 
    96     97    100      1     120.104999638600     707.494800457430 
    97     96    119      1     119.854485991700     275.494453586476 
    97     98     99      1     120.104999638600     707.494800457430 
    97    100    101      1     120.104999638600     707.494800457430 
    97    100    120      1     119.854485991700     275.494453586476 
    98     97    100      1     120.104999638600     707.494800457430 
   100    101    102      1     120.104999638600     707.494800457430 
   100    101    121      1     119.854485991700     275.494453586476 
   101    100    120      1     119.854485991700     275.494453586476 
   101    102    122      1     119.854485991700     275.494453586476 
   102    101    121      1     119.854485991700     275.494453586476 
   103    104    105      1     120.104999638600     707.494800457430 
   103    104    112      1     120.104999638600     707.494800457430 
   103    113    132      1     119.854485991700     275.494453586476 
   104    103    113      1     120.104999638600     707.494800457430 
   104    105    106      1     120.104999638600     707.494800457430 
   104    105    123      1     119.854485991700     275.494453586476 
   104    112    111      1     120.104999638600     707.494800457430 
   104    112    131      1     119.854485991700     275.494453586476 
   105    104    112      1     120.104999638600     707.494800457430 
   105    106    107      1     120.104999638600     707.494800457430 
   105    106    110      1     120.104999638600     707.494800457430 
   106    105    123      1     119.854485991700     275.494453586476 
   106    107    108      1     107.660782175200     425.669014814353 
   106    107    109      1     107.660782175200     425.669014814353 
   106    107    124      1     107.660782175200     425.669014814353 
   106    110    111      1     120.104999638600     707.494800457430 
   106    110    129      1     119.854485991700     275.494453586476 
   107    106    110      1     120.104999638600     707.494800457430 
   107    108    125      1     107.660782175200     425.669014814353 
   107    108    126      1     107.660782175200     425.669014814353 
   107    108    127      1     107.660782175200     425.669014814353 
   107    109    128      1     118.063661129300     310.493309961378 
   107    109    142      1     121.770534386700     665.074567904266 
   108    107    109      1     107.660782175200     425.669014814353 
   108    107    124      1     107.660782175200     425.669014814353 
   109    107    124      1     107.660782175200     425.669014814353 
   109    142    141      1     120.104999638600     707.494800457430 
   109    142    143      1     120.104999638600     707.494800457430 
   110    111    112      1     120.104999638600     707.494800457430 
   110    111    130      1     119.854485991700     275.494453586476 
   111    110    129      1     119.854485991700     275.494453586476 
   111    112    131      1     119.854485991700     275.494453586476 
   112    111    130      1     119.854485991700     275.494453586476 
   114     89    115      1     108.354313526900     307.746905535118 
   114     89    116      1     108.354313526900     307.746905535118 
   115     89    116      1     108.354313526900     307.746905535118 
   125    108    126      1     108.354313526900     307.746905535118 
   125    108    127      1     108.354313526900     307.746905535118 
   126    108    127      1     108.354313526900     307.746905535118 
   128    109    142      1     118.063661129300     310.493309961378 
   133    134    135      1     112.873616114500    1003.288803783688 
   134    133    158      1     107.660782175200     425.669014814353 
   134    133    159      1     107.660782175200     425.669014814353 
   134    133    160      1     107.660782175200     425.669014814353 
   134    135    136      1     120.104999638600     707.494800457430 
   134    135    157      1     120.104999638600     707.494800457430 
   135    136    137      1     120.104999638600     707.494800457430 
   135    136    161      1     119.854485991700     275.494453586476 
   135    157    147      1     120.104999638600     707.494800457430 
   135    157    176      1     119.854485991700     275.494453586476 
   136    135    157      1     120.104999638600     707.494800457430 
   136    137    138      1     120.104999638600     707.494800457430 
   136    137    162      1     119.854485991700     275.494453586476 
   137    136    161      1     119.854485991700     275.494453586476 
   137    138    139      1     120.104999638600     707.494800457430 
   137    138    147      1     120.104999638600     707.494800457430 
   138    137    162      1     119.854485991700     275.494453586476 
   138    139    140      1     120.104999638600     707.494800457430 
   138    139    146      1     120.104999638600     707.494800457430 
   138    147    148      1     120.104999638600     707.494800457430 
   138    147    157      1     120.104999638600     707.494800457430 
   139    138    147      1     120.104999638600     707.494800457430 
   139    140    141      1     120.104999638600     707.494800457430 
   139    140    163      1     119.854485991700     275.494453586476 
   139    146    145      1     120.104999638600     707.494800457430 
   139    146    166      1     119.854485991700     275.494453586476 
   140    139    146      1     120.104999638600     707.494800457430 
   140    141    142      1     120.104999638600     707.494800457430 
   140    141    144      1     120.104999638600     707.494800457430 
   141    140    163      1     119.854485991700     275.494453586476 
   141    142    143      1     120.104999638600     707.494800457430 
   141    144    145      1     120.104999638600     707.494800457430 
   141    144    164      1     119.854485991700     275.494453586476 
   142    141    144      1     120.104999638600     707.494800457430 
   144    145    146      1     120.104999638600     707.494800457430 
   144    145    165      1     119.854485991700     275.494453586476 
   145    144    164      1     119.854485991700     275.494453586476 
   145    146    166      1     119.854485991700     275.494453586476 
   146    145    165      1     119.854485991700     275.494453586476 
   147    148    149      1     120.104999638600     707.494800457430 
   147    148    156      1     120.104999638600     707.494800457430 
   147    157    176      1     119.854485991700     275.494453586476 
   148    147    157      1     120.104999638600     707.494800457430 
   148    149    150      1     120.104999638600     707.494800457430 
   148    149    167      1     119.854485991700     275.494453586476 
   148    156    155      1     120.104999638600     707.494800457430 
   148    156    175      1     119.854485991700     275.494453586476 
   149    148    156      1     120.104999638600     707.494800457430 
   149    150    151      1     120.104999638600     707.494800457430 
   149    150    154      1     120.104999638600     707.494800457430 
   150    149    167      1     119.854485991700     275.494453586476 
   150    151    152      1     107.660782175200     425.669014814353 
   150    151    153      1     107.660782175200     425.669014814353 
   150    151    168      1     107.660782175200     425.669014814353 
   150    154    155      1     120.104999638600     707.494800457430 
   150    154    173      1     119.854485991700     275.494453586476 
   151    150    154      1     120.104999638600     707.494800457430 
   151    152    169      1     107.660782175200     425.669014814353 
   151    152    170      1     107.660782175200     425.669014814353 
   151    152    171      1     107.660782175200     425.669014814353 
   151    153    172      1     118.063661129300     310.493309961378 
   151    153    187      1     121.770534386700     665.074567904266 
   152    151    153      1     107.660782175200     425.669014814353 
   152    151    168      1     107.660782175200     425.669014814353 
   153    151    168      1     107.660782175200     425.669014814353 
   153    187    186      1     120.104999638600     707.494800457430 
   153    187    188      1     120.104999638600     707.494800457430 
   154    155    156      1     120.104999638600     707.494800457430 
   154    155    174      1     119.854485991700     275.494453586476 
   155    154    173      1     119.854485991700     275.494453586476 
   155    156    175      1     119.854485991700     275.494453586476 
   156    155    174      1     119.854485991700     275.494453586476 
   158    133    159      1     108.354313526900     307.746905535118 
   158    133    160      1     108.354313526900     307.746905535118 
   159    133    160      1     108.354313526900     307.746905535118 
   169    152    170      1     108.354313526900     307.746905535118 
   169    152    171      1     108.354313526900     307.746905535118 
   170    152    171      1     108.354313526900     307.746905535118 
   172    153    187      1     118.063661129300     310.493309961378 
   178    177    179      1     107.660782175200     425.669014814353 
   178    177    180      1     107.660782175200     425.669014814353 
   178    177    181      1     107.660782175200     425.669014814353 
   179    177    180      1     108.354313526900     307.746905535118 
   179    177    181      1     108.354313526900     307.746905535118 
   180    177    181      1     108.354313526900     307.746905535118 
   182    183    184      1     107.660782175200     425.669014814353 
   182    183    185      1     107.660782175200     425.669014814353 
   182    183    186      1     107.660782175200     425.669014814353 
   183    182    189      1     107.660782175200     425.669014814353 
   183    182    190      1     107.660782175200     425.669014814353 
   183    182    191      1     107.660782175200     425.669014814353 
   183    184    192      1     107.660782175200     425.669014814353 
   183    184    193      1     107.660782175200     425.669014814353 
   183    184    194      1     107.660782175200     425.669014814353 
   183    185    195      1     107.660782175200     425.669014814353 
   183    185    196      1     107.660782175200     425.669014814353 
   183    185    197      1     107.660782175200     425.669014814353 
   183    186    187      1     112.873616114500    1003.288803783688 
   184    183    185      1     107.660782175200     425.669014814353 
   184    183    186      1     107.660782175200     425.669014814353 
   185    183    186      1     107.660782175200     425.669014814353 
   186    187    188      1     123.605890003500     529.778359969850 
   189    182    190      1     108.354313526900     307.746905535118 
   189    182    191      1     108.354313526900     307.746905535118 
   190    182    191      1     108.354313526900     307.746905535118 
   192    184    193      1     108.354313526900     307.746905535118 
   192    184    194      1     108.354313526900     307.746905535118 
   193    184    194      1     108.354313526900     307.746905535118 
   195    185    196      1     108.354313526900     307.746905535118 
   195    185    197      1     108.354313526900     307.746905535118 
   196    185    197      1     108.354313526900     307.746905535118 

[ dihedrals ]
;ai    aj   ak   al   funct phi  k
     1     2     3     4     1      0.000000000000      0.236583150934                 1
     1     2     3     4     1    180.000000000000      9.740714153714                 2
     1     2     3     4     1      0.000000000000      1.171124821131                 3
     1     2     3     4     1    180.000000000000      0.673359803585                 4
     1     2     3    25     1      0.000000000000      0.236583150934                 1
     1     2     3    25     1    180.000000000000      9.740714153714                 2
     1     2     3    25     1      0.000000000000      1.171124821131                 3
     1     2     3    25     1    180.000000000000      0.673359803585                 4
     2     3     4     5     1    180.000000000000     13.675298757543                 2
     2     3     4    29     1    180.000000000000     13.675298757543                 2
     2     3    25    15     1    180.000000000000     13.675298757543                 2
     2     3    25    44     1    180.000000000000     13.675298757543                 2
     3     2     1    26     1      0.000000000000      1.100857953953                 3
     3     2     1    27     1      0.000000000000      1.100857953953                 3
     3     2     1    28     1      0.000000000000      1.100857953953                 3
     3     4     5     6     1    180.000000000000     13.675298757543                 2
     3     4     5    30     1    180.000000000000     13.675298757543                 2
     3    25    15     6     1    180.000000000000     13.675298757543                 2
     3    25    15    16     1    180.000000000000     13.675298757543                 2
     4     3    25    15     1    180.000000000000     13.675298757543                 2
     4     3    25    44     1    180.000000000000     13.675298757543                 2
     4     5     6     7     1    180.000000000000     13.675298757543                 2
     4     5     6    15     1    180.000000000000     13.675298757543                 2
     5     4     3    25     1    180.000000000000     13.675298757543                 2
     5     6     7     8     1      0.000000000000      0.317233490245                 1
     5     6     7     8     1    180.000000000000      6.217048261796                 2
     5     6     7     8     1      0.000000000000      0.363775636786                 3
     5     6     7     8     1    180.000000000000      2.061490594552                 4
     5     6     7    14     1      0.000000000000      0.317233490245                 1
     5     6     7    14     1    180.000000000000      6.217048261796                 2
     5     6     7    14     1      0.000000000000      0.363775636786                 3
     5     6     7    14     1    180.000000000000      2.061490594552                 4
     5     6    15    16     1    180.000000000000     13.675298757543                 2
     5     6    15    25     1    180.000000000000     13.675298757543                 2
     6     5     4    29     1    180.000000000000     13.675298757543                 2
     6     7     8     9     1    180.000000000000     13.675298757543                 2
     6     7     8    31     1    180.000000000000     13.675298757543                 2
     6     7    14    13     1    180.000000000000     13.675298757543                 2
     6     7    14    34     1    180.000000000000     13.675298757543                 2
     6    15    16    17     1    180.000000000000      5.177721731788                 2
     6    15    16    24     1    180.000000000000      5.177721731788                 2
     6    15    25    44     1    180.000000000000     13.675298757543                 2
     7     6     5    30     1    180.000000000000     13.675298757543                 2
     7     6    15    16     1    180.000000000000     13.675298757543                 2
     7     6    15    25     1    180.000000000000     13.675298757543                 2
     7     8     9    10     1    180.000000000000     13.675298757543                 2
     7     8     9    12     1    180.000000000000     13.675298757543                 2
     7    14    13    12     1    180.000000000000     13.675298757543                 2
     7    14    13    33     1    180.000000000000     13.675298757543                 2
     8     7     6    15     1      0.000000000000     -0.295311848006                 1
     8     7     6    15     1    180.000000000000      5.637111817697                 2
     8     7     6    15     1      0.000000000000     -0.350731844832                 3
     8     7     6    15     1    180.000000000000     -0.315082379046                 4
     8     7    14    13     1    180.000000000000     13.675298757543                 2
     8     7    14    34     1    180.000000000000     13.675298757543                 2
     8     9    10    11     1      0.000000000000      0.105402734518                 1
     8     9    10    11     1    180.000000000000      1.829169052607                 2
     8     9    10    11     1      0.000000000000      0.165245328879                 3
     8     9    10    11     1    180.000000000000      0.242983340075                 4
     8     9    10   178     1      0.000000000000     -0.097253095791                 1
     8     9    10   178     1    180.000000000000      2.063870263666                 2
     8     9    10   178     1      0.000000000000     -0.184515015042                 3
     8     9    10   178     1    180.000000000000     -0.081178793084                 4
     8     9    12    13     1    180.000000000000     13.675298757543                 2
     8     9    12    32     1    180.000000000000     13.675298757543                 2
     9     8     7    14     1    180.000000000000     13.675298757543                 2
     9    10   178   177     1      0.000000000000      1.484134649119                 1
     9    10   178   177     1    180.000000000000     16.358454985913                 2
     9    10   178   177     1      0.000000000000      3.205529273895                 3
     9    10   178   177     1    180.000000000000      2.382747275605                 4
     9    12    13    14     1    180.000000000000     13.675298757543                 2
     9    12    13    33     1    180.000000000000     13.675298757543                 2
    10     9     8    31     1    180.000000000000     13.675298757543                 2
    10     9    12    13     1    180.000000000000     13.675298757543                 2
    10     9    12    32     1    180.000000000000     13.675298757543                 2
    10   178   177   179     1      0.000000000000      1.100857953953                 3
    10   178   177   180     1      0.000000000000      1.100857953953                 3
    10   178   177   181     1      0.000000000000      1.100857953953                 3
    11    10     9    12     1      0.000000000000      0.105402734518                 1
    11    10     9    12     1    180.000000000000      1.829169052607                 2
    11    10     9    12     1      0.000000000000      0.165245328879                 3
    11    10     9    12     1    180.000000000000      0.242983340075                 4
    11    10   178   177     1      0.000000000000      4.021671189062                 1
    11    10   178   177     1    180.000000000000      3.193511498272                 2
    11    10   178   177     1      0.000000000000     -2.475833477096                 3
    11    10   178   177     1    180.000000000000      0.454077722269                 4
    12     9     8    31     1    180.000000000000     13.675298757543                 2
    12     9    10   178     1      0.000000000000     -0.097253095791                 1
    12     9    10   178     1    180.000000000000      2.063870263666                 2
    12     9    10   178     1      0.000000000000     -0.184515015042                 3
    12     9    10   178     1    180.000000000000     -0.081178793084                 4
    12    13    14    34     1    180.000000000000     13.675298757543                 2
    14     7     6    15     1      0.000000000000     -0.295311848006                 1
    14     7     6    15     1    180.000000000000      5.637111817697                 2
    14     7     6    15     1      0.000000000000     -0.350731844832                 3
    14     7     6    15     1    180.000000000000     -0.315082379046                 4
    14     7     8    31     1    180.000000000000     13.675298757543                 2
    14    13    12    32     1    180.000000000000     13.675298757543                 2
    15     6     5    30     1    180.000000000000     13.675298757543                 2
    15    16    17    18     1    180.000000000000     13.675298757543                 2
    15    16    17    35     1    180.000000000000     13.675298757543                 2
    15    16    24    23     1    180.000000000000     13.675298757543                 2
    15    16    24    43     1    180.000000000000     13.675298757543                 2
    16    15    25    44     1    180.000000000000     13.675298757543                 2
    16    17    18    19     1    180.000000000000     13.675298757543                 2
    16    17    18    22     1    180.000000000000     13.675298757543                 2
    16    24    23    22     1    180.000000000000     13.675298757543                 2
    16    24    23    42     1    180.000000000000     13.675298757543                 2
    17    16    15    25     1    180.000000000000      5.177721731788                 2
    17    16    24    23     1    180.000000000000     13.675298757543                 2
    17    16    24    43     1    180.000000000000     13.675298757543                 2
    17    18    19    20     1      0.000000000000     -0.098443088352                 1
    17    18    19    20     1    180.000000000000     -0.251144060199                 2
    17    18    19    20     1      0.000000000000      0.144513411276                 3
    17    18    19    20     1    180.000000000000      0.019830052997                 4
    17    18    19    21     1      0.000000000000      0.212174870769                 1
    17    18    19    21     1    180.000000000000      1.283270811240                 2
    17    18    19    21     1      0.000000000000      0.126206594960                 3
    17    18    19    21     1    180.000000000000      0.044101316337                 4
    17    18    19    36     1      0.000000000000     -0.112434173436                 1
    17    18    19    36     1    180.000000000000     -0.978780724770                 2
    17    18    19    36     1      0.000000000000      0.145154611896                 3
    17    18    19    36     1    180.000000000000      0.181911159022                 4
    17    18    22    23     1    180.000000000000     13.675298757543                 2
    17    18    22    41     1    180.000000000000     13.675298757543                 2
    18    17    16    24     1    180.000000000000     13.675298757543                 2
    18    19    20    37     1      0.000000000000      0.602098025234                 3
    18    19    20    38     1      0.000000000000      0.602098025234                 3
    18    19    20    39     1      0.000000000000      0.602098025234                 3
    18    19    21    40     1      0.000000000000      3.768546337394                 1
    18    19    21    40     1    180.000000000000      2.749619457827                 2
    18    19    21    40     1      0.000000000000      1.147015105385                 3
    18    19    21    40     1    180.000000000000      0.726477947465                 4
    18    19    21    54     1      0.000000000000     -5.283360166175                 1
    18    19    21    54     1    180.000000000000      1.933004976342                 2
    18    19    21    54     1      0.000000000000     -0.701131985703                 3
    18    19    21    54     1    180.000000000000     -0.709421719411                 4
    18    22    23    24     1    180.000000000000     13.675298757543                 2
    18    22    23    42     1    180.000000000000     13.675298757543                 2
    19    18    17    35     1    180.000000000000     13.675298757543                 2
    19    18    22    23     1    180.000000000000     13.675298757543                 2
    19    18    22    41     1    180.000000000000     13.675298757543                 2
    19    21    54    53     1      0.000000000000      1.005100160252                 1
    19    21    54    53     1    180.000000000000      8.694484735722                 2
    19    21    54    53     1      0.000000000000      1.691280234476                 3
    19    21    54    53     1    180.000000000000      2.174985522373                 4
    19    21    54    55     1      0.000000000000     -2.080688601060                 1
    19    21    54    55     1    180.000000000000      9.355361903561                 2
    19    21    54    55     1      0.000000000000      0.838538059263                 3
    19    21    54    55     1    180.000000000000     -0.956687587821                 4
    20    19    18    22     1      0.000000000000     -0.098443088352                 1
    20    19    18    22     1    180.000000000000     -0.251144060199                 2
    20    19    18    22     1      0.000000000000      0.144513411276                 3
    20    19    18    22     1    180.000000000000      0.019830052997                 4
    20    19    21    40     1      0.000000000000     -1.857647221063                 1
    20    19    21    40     1    180.000000000000      0.766517164369                 2
    20    19    21    40     1      0.000000000000      0.705698753252                 3
    20    19    21    40     1    180.000000000000     -0.477017234438                 4
    20    19    21    54     1      0.000000000000     -0.161572645999                 1
    20    19    21    54     1    180.000000000000      0.408330088066                 2
    20    19    21    54     1      0.000000000000     -1.229748391009                 3
    20    19    21    54     1    180.000000000000      0.179091226186                 4
    21    19    18    22     1      0.000000000000      0.212174870769                 1
    21    19    18    22     1    180.000000000000      1.283270811240                 2
    21    19    18    22     1      0.000000000000      0.126206594960                 3
    21    19    18    22     1    180.000000000000      0.044101316337                 4
    21    19    20    37     1      0.000000000000      0.602098025234                 3
    21    19    20    38     1      0.000000000000      0.602098025234                 3
    21    19    20    39     1      0.000000000000      0.602098025234                 3
    21    54    53    52     1      0.000000000000     -0.059564214171                 1
    21    54    53    52     1    180.000000000000      4.269256167548                 2
    21    54    53    52     1      0.000000000000     -0.170376424678                 3
    21    54    53    52     1    180.000000000000      0.109982800069                 4
    21    54    53    56     1      0.000000000000     -0.059564214171                 1
    21    54    53    56     1    180.000000000000      4.269256167548                 2
    21    54    53    56     1      0.000000000000     -0.170376424678                 3
    21    54    53    56     1    180.000000000000      0.109982800069                 4
    22    18    17    35     1    180.000000000000     13.675298757543                 2
    22    18    19    36     1      0.000000000000     -0.112434173436                 1
    22    18    19    36     1    180.000000000000     -0.978780724770                 2
    22    18    19    36     1      0.000000000000      0.145154611896                 3
    22    18    19    36     1    180.000000000000      0.181911159022                 4
    22    23    24    43     1    180.000000000000     13.675298757543                 2
    24    16    15    25     1    180.000000000000      5.177721731788                 2
    24    16    17    35     1    180.000000000000     13.675298757543                 2
    24    23    22    41     1    180.000000000000     13.675298757543                 2
    25     3     4    29     1    180.000000000000     13.675298757543                 2
    29     4     5    30     1    180.000000000000     13.675298757543                 2
    32    12    13    33     1    180.000000000000     13.675298757543                 2
    33    13    14    34     1    180.000000000000     13.675298757543                 2
    36    19    20    37     1      0.000000000000      0.953929629431                 3
    36    19    20    38     1      0.000000000000      0.953929629431                 3
    36    19    20    39     1      0.000000000000      0.953929629431                 3
    36    19    21    40     1      0.000000000000     -2.093508570415                 1
    36    19    21    40     1    180.000000000000      0.805853180726                 2
    36    19    21    40     1      0.000000000000      0.990270807687                 3
    36    19    21    40     1    180.000000000000     -0.029783337889                 4
    36    19    21    54     1      0.000000000000      2.593955089314                 1
    36    19    21    54     1    180.000000000000      0.360959490725                 2
    36    19    21    54     1      0.000000000000      0.503886420264                 3
    36    19    21    54     1    180.000000000000      0.275316786102                 4
    40    21    54    53     1      0.000000000000      2.282082767433                 1
    40    21    54    53     1    180.000000000000      9.208518546481                 2
    40    21    54    53     1      0.000000000000     -0.071947195208                 3
    40    21    54    53     1    180.000000000000      1.135584936641                 4
    40    21    54    55     1      0.000000000000      4.128677425774                 1
    40    21    54    55     1    180.000000000000      5.020234537785                 2
    40    21    54    55     1      0.000000000000     -0.496811004805                 3
    40    21    54    55     1    180.000000000000     -0.921864135411                 4
    41    22    23    42     1    180.000000000000     13.675298757543                 2
    42    23    24    43     1    180.000000000000     13.675298757543                 2
    45    46    47    48     1      0.000000000000      0.236583150934                 1
    45    46    47    48     1    180.000000000000      9.740714153714                 2
    45    46    47    48     1      0.000000000000      1.171124821131                 3
    45    46    47    48     1    180.000000000000      0.673359803585                 4
    45    46    47    69     1      0.000000000000      0.236583150934                 1
    45    46    47    69     1    180.000000000000      9.740714153714                 2
    45    46    47    69     1      0.000000000000      1.171124821131                 3
    45    46    47    69     1    180.000000000000      0.673359803585                 4
    46    47    48    49     1    180.000000000000     13.675298757543                 2
    46    47    48    73     1    180.000000000000     13.675298757543                 2
    46    47    69    59     1    180.000000000000     13.675298757543                 2
    46    47    69    88     1    180.000000000000     13.675298757543                 2
    47    46    45    70     1      0.000000000000      1.100857953953                 3
    47    46    45    71     1      0.000000000000      1.100857953953                 3
    47    46    45    72     1      0.000000000000      1.100857953953                 3
    47    48    49    50     1    180.000000000000     13.675298757543                 2
    47    48    49    74     1    180.000000000000     13.675298757543                 2
    47    69    59    50     1    180.000000000000     13.675298757543                 2
    47    69    59    60     1    180.000000000000     13.675298757543                 2
    48    47    69    59     1    180.000000000000     13.675298757543                 2
    48    47    69    88     1    180.000000000000     13.675298757543                 2
    48    49    50    51     1    180.000000000000     13.675298757543                 2
    48    49    50    59     1    180.000000000000     13.675298757543                 2
    49    48    47    69     1    180.000000000000     13.675298757543                 2
    49    50    51    52     1      0.000000000000      0.317233490245                 1
    49    50    51    52     1    180.000000000000      6.217048261796                 2
    49    50    51    52     1      0.000000000000      0.363775636786                 3
    49    50    51    52     1    180.000000000000      2.061490594552                 4
    49    50    51    58     1      0.000000000000      0.317233490245                 1
    49    50    51    58     1    180.000000000000      6.217048261796                 2
    49    50    51    58     1      0.000000000000      0.363775636786                 3
    49    50    51    58     1    180.000000000000      2.061490594552                 4
    49    50    59    60     1    180.000000000000     13.675298757543                 2
    49    50    59    69     1    180.000000000000     13.675298757543                 2
    50    49    48    73     1    180.000000000000     13.675298757543                 2
    50    51    52    53     1    180.000000000000     13.675298757543                 2
    50    51    52    75     1    180.000000000000     13.675298757543                 2
    50    51    58    57     1    180.000000000000     13.675298757543                 2
    50    51    58    78     1    180.000000000000     13.675298757543                 2
    50    59    60    61     1    180.000000000000      5.177721731788                 2
    50    59    60    68     1    180.000000000000      5.177721731788                 2
    50    59    69    88     1    180.000000000000     13.675298757543                 2
    51    50    49    74     1    180.000000000000     13.675298757543                 2
    51    50    59    60     1    180.000000000000     13.675298757543                 2
    51    50    59    69     1    180.000000000000     13.675298757543                 2
    51    52    53    54     1    180.000000000000     13.675298757543                 2
    51    52    53    56     1    180.000000000000     13.675298757543                 2
    51    58    57    56     1    180.000000000000     13.675298757543                 2
    51    58    57    77     1    180.000000000000     13.675298757543                 2
    52    51    50    59     1      0.000000000000     -0.295311848006                 1
    52    51    50    59     1    180.000000000000      5.637111817697                 2
    52    51    50    59     1      0.000000000000     -0.350731844832                 3
    52    51    50    59     1    180.000000000000     -0.315082379046                 4
    52    51    58    57     1    180.000000000000     13.675298757543                 2
    52    51    58    78     1    180.000000000000     13.675298757543                 2
    52    53    54    55     1      0.000000000000      0.045863868530                 1
    52    53    54    55     1    180.000000000000     -0.278467872977                 2
    52    53    54    55     1      0.000000000000      0.161761114420                 3
    52    53    54    55     1    180.000000000000      0.341720717374                 4
    52    53    56    57     1    180.000000000000     13.675298757543                 2
    52    53    56    76     1    180.000000000000     13.675298757543                 2
    53    52    51    58     1    180.000000000000     13.675298757543                 2
    53    56    57    58     1    180.000000000000     13.675298757543                 2
    53    56    57    77     1    180.000000000000     13.675298757543                 2
    54    53    52    75     1    180.000000000000     13.675298757543                 2
    54    53    56    57     1    180.000000000000     13.675298757543                 2
    54    53    56    76     1    180.000000000000     13.675298757543                 2
    55    54    53    56     1      0.000000000000      0.045863868530                 1
    55    54    53    56     1    180.000000000000     -0.278467872977                 2
    55    54    53    56     1      0.000000000000      0.161761114420                 3
    55    54    53    56     1    180.000000000000      0.341720717374                 4
    56    53    52    75     1    180.000000000000     13.675298757543                 2
    56    57    58    78     1    180.000000000000     13.675298757543                 2
    58    51    50    59     1      0.000000000000     -0.295311848006                 1
    58    51    50    59     1    180.000000000000      5.637111817697                 2
    58    51    50    59     1      0.000000000000     -0.350731844832                 3
    58    51    50    59     1    180.000000000000     -0.315082379046                 4
    58    51    52    75     1    180.000000000000     13.675298757543                 2
    58    57    56    76     1    180.000000000000     13.675298757543                 2
    59    50    49    74     1    180.000000000000     13.675298757543                 2
    59    60    61    62     1    180.000000000000     13.675298757543                 2
    59    60    61    79     1    180.000000000000     13.675298757543                 2
    59    60    68    67     1    180.000000000000     13.675298757543                 2
    59    60    68    87     1    180.000000000000     13.675298757543                 2
    60    59    69    88     1    180.000000000000     13.675298757543                 2
    60    61    62    63     1    180.000000000000     13.675298757543                 2
    60    61    62    66     1    180.000000000000     13.675298757543                 2
    60    68    67    66     1    180.000000000000     13.675298757543                 2
    60    68    67    86     1    180.000000000000     13.675298757543                 2
    61    60    59    69     1    180.000000000000      5.177721731788                 2
    61    60    68    67     1    180.000000000000     13.675298757543                 2
    61    60    68    87     1    180.000000000000     13.675298757543                 2
    61    62    63    64     1      0.000000000000     -0.098443088352                 1
    61    62    63    64     1    180.000000000000     -0.251144060199                 2
    61    62    63    64     1      0.000000000000      0.144513411276                 3
    61    62    63    64     1    180.000000000000      0.019830052997                 4
    61    62    63    65     1      0.000000000000      0.212174870769                 1
    61    62    63    65     1    180.000000000000      1.283270811240                 2
    61    62    63    65     1      0.000000000000      0.126206594960                 3
    61    62    63    65     1    180.000000000000      0.044101316337                 4
    61    62    63    80     1      0.000000000000     -0.112434173436                 1
    61    62    63    80     1    180.000000000000     -0.978780724770                 2
    61    62    63    80     1      0.000000000000      0.145154611896                 3
    61    62    63    80     1    180.000000000000      0.181911159022                 4
    61    62    66    67     1    180.000000000000     13.675298757543                 2
    61    62    66    85     1    180.000000000000     13.675298757543                 2
    62    61    60    68     1    180.000000000000     13.675298757543                 2
    62    63    64    81     1      0.000000000000      0.602098025234                 3
    62    63    64    82     1      0.000000000000      0.602098025234                 3
    62    63    64    83     1      0.000000000000      0.602098025234                 3
    62    63    65    84     1      0.000000000000      3.768546337394                 1
    62    63    65    84     1    180.000000000000      2.749619457827                 2
    62    63    65    84     1      0.000000000000      1.147015105385                 3
    62    63    65    84     1    180.000000000000      0.726477947465                 4
    62    63    65    98     1      0.000000000000     -5.283360166175                 1
    62    63    65    98     1    180.000000000000      1.933004976342                 2
    62    63    65    98     1      0.000000000000     -0.701131985703                 3
    62    63    65    98     1    180.000000000000     -0.709421719411                 4
    62    66    67    68     1    180.000000000000     13.675298757543                 2
    62    66    67    86     1    180.000000000000     13.675298757543                 2
    63    62    61    79     1    180.000000000000     13.675298757543                 2
    63    62    66    67     1    180.000000000000     13.675298757543                 2
    63    62    66    85     1    180.000000000000     13.675298757543                 2
    63    65    98    97     1      0.000000000000      1.005100160252                 1
    63    65    98    97     1    180.000000000000      8.694484735722                 2
    63    65    98    97     1      0.000000000000      1.691280234476                 3
    63    65    98    97     1    180.000000000000      2.174985522373                 4
    63    65    98    99     1      0.000000000000     -2.080688601060                 1
    63    65    98    99     1    180.000000000000      9.355361903561                 2
    63    65    98    99     1      0.000000000000      0.838538059263                 3
    63    65    98    99     1    180.000000000000     -0.956687587821                 4
    64    63    62    66     1      0.000000000000     -0.098443088352                 1
    64    63    62    66     1    180.000000000000     -0.251144060199                 2
    64    63    62    66     1      0.000000000000      0.144513411276                 3
    64    63    62    66     1    180.000000000000      0.019830052997                 4
    64    63    65    84     1      0.000000000000     -1.857647221063                 1
    64    63    65    84     1    180.000000000000      0.766517164369                 2
    64    63    65    84     1      0.000000000000      0.705698753252                 3
    64    63    65    84     1    180.000000000000     -0.477017234438                 4
    64    63    65    98     1      0.000000000000     -0.161572645999                 1
    64    63    65    98     1    180.000000000000      0.408330088066                 2
    64    63    65    98     1      0.000000000000     -1.229748391009                 3
    64    63    65    98     1    180.000000000000      0.179091226186                 4
    65    63    62    66     1      0.000000000000      0.212174870769                 1
    65    63    62    66     1    180.000000000000      1.283270811240                 2
    65    63    62    66     1      0.000000000000      0.126206594960                 3
    65    63    62    66     1    180.000000000000      0.044101316337                 4
    65    63    64    81     1      0.000000000000      0.602098025234                 3
    65    63    64    82     1      0.000000000000      0.602098025234                 3
    65    63    64    83     1      0.000000000000      0.602098025234                 3
    65    98    97    96     1      0.000000000000     -0.059564214171                 1
    65    98    97    96     1    180.000000000000      4.269256167548                 2
    65    98    97    96     1      0.000000000000     -0.170376424678                 3
    65    98    97    96     1    180.000000000000      0.109982800069                 4
    65    98    97   100     1      0.000000000000     -0.059564214171                 1
    65    98    97   100     1    180.000000000000      4.269256167548                 2
    65    98    97   100     1      0.000000000000     -0.170376424678                 3
    65    98    97   100     1    180.000000000000      0.109982800069                 4
    66    62    61    79     1    180.000000000000     13.675298757543                 2
    66    62    63    80     1      0.000000000000     -0.112434173436                 1
    66    62    63    80     1    180.000000000000     -0.978780724770                 2
    66    62    63    80     1      0.000000000000      0.145154611896                 3
    66    62    63    80     1    180.000000000000      0.181911159022                 4
    66    67    68    87     1    180.000000000000     13.675298757543                 2
    68    60    59    69     1    180.000000000000      5.177721731788                 2
    68    60    61    79     1    180.000000000000     13.675298757543                 2
    68    67    66    85     1    180.000000000000     13.675298757543                 2
    69    47    48    73     1    180.000000000000     13.675298757543                 2
    73    48    49    74     1    180.000000000000     13.675298757543                 2
    76    56    57    77     1    180.000000000000     13.675298757543                 2
    77    57    58    78     1    180.000000000000     13.675298757543                 2
    80    63    64    81     1      0.000000000000      0.953929629431                 3
    80    63    64    82     1      0.000000000000      0.953929629431                 3
    80    63    64    83     1      0.000000000000      0.953929629431                 3
    80    63    65    84     1      0.000000000000     -2.093508570415                 1
    80    63    65    84     1    180.000000000000      0.805853180726                 2
    80    63    65    84     1      0.000000000000      0.990270807687                 3
    80    63    65    84     1    180.000000000000     -0.029783337889                 4
    80    63    65    98     1      0.000000000000      2.593955089314                 1
    80    63    65    98     1    180.000000000000      0.360959490725                 2
    80    63    65    98     1      0.000000000000      0.503886420264                 3
    80    63    65    98     1    180.000000000000      0.275316786102                 4
    84    65    98    97     1      0.000000000000      2.282082767433                 1
    84    65    98    97     1    180.000000000000      9.208518546481                 2
    84    65    98    97     1      0.000000000000     -0.071947195208                 3
    84    65    98    97     1    180.000000000000      1.135584936641                 4
    84    65    98    99     1      0.000000000000      4.128677425774                 1
    84    65    98    99     1    180.000000000000      5.020234537785                 2
    84    65    98    99     1      0.000000000000     -0.496811004805                 3
    84    65    98    99     1    180.000000000000     -0.921864135411                 4
    85    66    67    86     1    180.000000000000     13.675298757543                 2
    86    67    68    87     1    180.000000000000     13.675298757543                 2
    89    90    91    92     1      0.000000000000      0.236583150934                 1
    89    90    91    92     1    180.000000000000      9.740714153714                 2
    89    90    91    92     1      0.000000000000      1.171124821131                 3
    89    90    91    92     1    180.000000000000      0.673359803585                 4
    89    90    91   113     1      0.000000000000      0.236583150934                 1
    89    90    91   113     1    180.000000000000      9.740714153714                 2
    89    90    91   113     1      0.000000000000      1.171124821131                 3
    89    90    91   113     1    180.000000000000      0.673359803585                 4
    90    91    92    93     1    180.000000000000     13.675298757543                 2
    90    91    92   117     1    180.000000000000     13.675298757543                 2
    90    91   113   103     1    180.000000000000     13.675298757543                 2
    90    91   113   132     1    180.000000000000     13.675298757543                 2
    91    90    89   114     1      0.000000000000      1.100857953953                 3
    91    90    89   115     1      0.000000000000      1.100857953953                 3
    91    90    89   116     1      0.000000000000      1.100857953953                 3
    91    92    93    94     1    180.000000000000     13.675298757543                 2
    91    92    93   118     1    180.000000000000     13.675298757543                 2
    91   113   103    94     1    180.000000000000     13.675298757543                 2
    91   113   103   104     1    180.000000000000     13.675298757543                 2
    92    91   113   103     1    180.000000000000     13.675298757543                 2
    92    91   113   132     1    180.000000000000     13.675298757543                 2
    92    93    94    95     1    180.000000000000     13.675298757543                 2
    92    93    94   103     1    180.000000000000     13.675298757543                 2
    93    92    91   113     1    180.000000000000     13.675298757543                 2
    93    94    95    96     1      0.000000000000      0.317233490245                 1
    93    94    95    96     1    180.000000000000      6.217048261796                 2
    93    94    95    96     1      0.000000000000      0.363775636786                 3
    93    94    95    96     1    180.000000000000      2.061490594552                 4
    93    94    95   102     1      0.000000000000      0.317233490245                 1
    93    94    95   102     1    180.000000000000      6.217048261796                 2
    93    94    95   102     1      0.000000000000      0.363775636786                 3
    93    94    95   102     1    180.000000000000      2.061490594552                 4
    93    94   103   104     1    180.000000000000     13.675298757543                 2
    93    94   103   113     1    180.000000000000     13.675298757543                 2
    94    93    92   117     1    180.000000000000     13.675298757543                 2
    94    95    96    97     1    180.000000000000     13.675298757543                 2
    94    95    96   119     1    180.000000000000     13.675298757543                 2
    94    95   102   101     1    180.000000000000     13.675298757543                 2
    94    95   102   122     1    180.000000000000     13.675298757543                 2
    94   103   104   105     1    180.000000000000      5.177721731788                 2
    94   103   104   112     1    180.000000000000      5.177721731788                 2
    94   103   113   132     1    180.000000000000     13.675298757543                 2
    95    94    93   118     1    180.000000000000     13.675298757543                 2
    95    94   103   104     1    180.000000000000     13.675298757543                 2
    95    94   103   113     1    180.000000000000     13.675298757543                 2
    95    96    97    98     1    180.000000000000     13.675298757543                 2
    95    96    97   100     1    180.000000000000     13.675298757543                 2
    95   102   101   100     1    180.000000000000     13.675298757543                 2
    95   102   101   121     1    180.000000000000     13.675298757543                 2
    96    95    94   103     1      0.000000000000     -0.295311848006                 1
    96    95    94   103     1    180.000000000000      5.637111817697                 2
    96    95    94   103     1      0.000000000000     -0.350731844832                 3
    96    95    94   103     1    180.000000000000     -0.315082379046                 4
    96    95   102   101     1    180.000000000000     13.675298757543                 2
    96    95   102   122     1    180.000000000000     13.675298757543                 2
    96    97    98    99     1      0.000000000000      0.045863868530                 1
    96    97    98    99     1    180.000000000000     -0.278467872977                 2
    96    97    98    99     1      0.000000000000      0.161761114420                 3
    96    97    98    99     1    180.000000000000      0.341720717374                 4
    96    97   100   101     1    180.000000000000     13.675298757543                 2
    96    97   100   120     1    180.000000000000     13.675298757543                 2
    97    96    95   102     1    180.000000000000     13.675298757543                 2
    97   100   101   102     1    180.000000000000     13.675298757543                 2
    97   100   101   121     1    180.000000000000     13.675298757543                 2
    98    97    96   119     1    180.000000000000     13.675298757543                 2
    98    97   100   101     1    180.000000000000     13.675298757543                 2
    98    97   100   120     1    180.000000000000     13.675298757543                 2
    99    98    97   100     1      0.000000000000      0.045863868530                 1
    99    98    97   100     1    180.000000000000     -0.278467872977                 2
    99    98    97   100     1      0.000000000000      0.161761114420                 3
    99    98    97   100     1    180.000000000000      0.341720717374                 4
   100    97    96   119     1    180.000000000000     13.675298757543                 2
   100   101   102   122     1    180.000000000000     13.675298757543                 2
   102    95    94   103     1      0.000000000000     -0.295311848006                 1
   102    95    94   103     1    180.000000000000      5.637111817697                 2
   102    95    94   103     1      0.000000000000     -0.350731844832                 3
   102    95    94   103     1    180.000000000000     -0.315082379046                 4
   102    95    96   119     1    180.000000000000     13.675298757543                 2
   102   101   100   120     1    180.000000000000     13.675298757543                 2
   103    94    93   118     1    180.000000000000     13.675298757543                 2
   103   104   105   106     1    180.000000000000     13.675298757543                 2
   103   104   105   123     1    180.000000000000     13.675298757543                 2
   103   104   112   111     1    180.000000000000     13.675298757543                 2
   103   104   112   131     1    180.000000000000     13.675298757543                 2
   104   103   113   132     1    180.000000000000     13.675298757543                 2
   104   105   106   107     1    180.000000000000     13.675298757543                 2
   104   105   106   110     1    180.000000000000     13.675298757543                 2
   104   112   111   110     1    180.000000000000     13.675298757543                 2
   104   112   111   130     1    180.000000000000     13.675298757543                 2
   105   104   103   113     1    180.000000000000      5.177721731788                 2
   105   104   112   111     1    180.000000000000     13.675298757543                 2
   105   104   112   131     1    180.000000000000     13.675298757543                 2
   105   106   107   108     1      0.000000000000     -0.098443088352                 1
   105   106   107   108     1    180.000000000000     -0.251144060199                 2
   105   106   107   108     1      0.000000000000      0.144513411276                 3
   105   106   107   108     1    180.000000000000      0.019830052997                 4
   105   106   107   109     1      0.000000000000      0.212174870769                 1
   105   106   107   109     1    180.000000000000      1.283270811240                 2
   105   106   107   109     1      0.000000000000      0.126206594960                 3
   105   106   107   109     1    180.000000000000      0.044101316337                 4
   105   106   107   124     1      0.000000000000     -0.112434173436                 1
   105   106   107   124     1    180.000000000000     -0.978780724770                 2
   105   106   107   124     1      0.000000000000      0.145154611896                 3
   105   106   107   124     1    180.000000000000      0.181911159022                 4
   105   106   110   111     1    180.000000000000     13.675298757543                 2
   105   106   110   129     1    180.000000000000     13.675298757543                 2
   106   105   104   112     1    180.000000000000     13.675298757543                 2
   106   107   108   125     1      0.000000000000      0.602098025234                 3
   106   107   108   126     1      0.000000000000      0.602098025234                 3
   106   107   108   127     1      0.000000000000      0.602098025234                 3
   106   107   109   128     1      0.000000000000      3.768546337394                 1
   106   107   109   128     1    180.000000000000      2.749619457827                 2
   106   107   109   128     1      0.000000000000      1.147015105385                 3
   106   107   109   128     1    180.000000000000      0.726477947465                 4
   106   107   109   142     1      0.000000000000     -5.283360166175                 1
   106   107   109   142     1    180.000000000000      1.933004976342                 2
   106   107   109   142     1      0.000000000000     -0.701131985703                 3
   106   107   109   142     1    180.000000000000     -0.709421719411                 4
   106   110   111   112     1    180.000000000000     13.675298757543                 2
   106   110   111   130     1    180.000000000000     13.675298757543                 2
   107   106   105   123     1    180.000000000000     13.675298757543                 2
   107   106   110   111     1    180.000000000000     13.675298757543                 2
   107   106   110   129     1    180.000000000000     13.675298757543                 2
   107   109   142   141     1      0.000000000000      1.005100160252                 1
   107   109   142   141     1    180.000000000000      8.694484735722                 2
   107   109   142   141     1      0.000000000000      1.691280234476                 3
   107   109   142   141     1    180.000000000000      2.174985522373                 4
   107   109   142   143     1      0.000000000000     -2.080688601060                 1
   107   109   142   143     1    180.000000000000      9.355361903561                 2
   107   109   142   143     1      0.000000000000      0.838538059263                 3
   107   109   142   143     1    180.000000000000     -0.956687587821                 4
   108   107   106   110     1      0.000000000000     -0.098443088352                 1
   108   107   106   110     1    180.000000000000     -0.251144060199                 2
   108   107   106   110     1      0.000000000000      0.144513411276                 3
   108   107   106   110     1    180.000000000000      0.019830052997                 4
   108   107   109   128     1      0.000000000000     -1.857647221063                 1
   108   107   109   128     1    180.000000000000      0.766517164369                 2
   108   107   109   128     1      0.000000000000      0.705698753252                 3
   108   107   109   128     1    180.000000000000     -0.477017234438                 4
   108   107   109   142     1      0.000000000000     -0.161572645999                 1
   108   107   109   142     1    180.000000000000      0.408330088066                 2
   108   107   109   142     1      0.000000000000     -1.229748391009                 3
   108   107   109   142     1    180.000000000000      0.179091226186                 4
   109   107   106   110     1      0.000000000000      0.212174870769                 1
   109   107   106   110     1    180.000000000000      1.283270811240                 2
   109   107   106   110     1      0.000000000000      0.126206594960                 3
   109   107   106   110     1    180.000000000000      0.044101316337                 4
   109   107   108   125     1      0.000000000000      0.602098025234                 3
   109   107   108   126     1      0.000000000000      0.602098025234                 3
   109   107   108   127     1      0.000000000000      0.602098025234                 3
   109   142   141   140     1      0.000000000000     -0.059564214171                 1
   109   142   141   140     1    180.000000000000      4.269256167548                 2
   109   142   141   140     1      0.000000000000     -0.170376424678                 3
   109   142   141   140     1    180.000000000000      0.109982800069                 4
   109   142   141   144     1      0.000000000000     -0.059564214171                 1
   109   142   141   144     1    180.000000000000      4.269256167548                 2
   109   142   141   144     1      0.000000000000     -0.170376424678                 3
   109   142   141   144     1    180.000000000000      0.109982800069                 4
   110   106   105   123     1    180.000000000000     13.675298757543                 2
   110   106   107   124     1      0.000000000000     -0.112434173436                 1
   110   106   107   124     1    180.000000000000     -0.978780724770                 2
   110   106   107   124     1      0.000000000000      0.145154611896                 3
   110   106   107   124     1    180.000000000000      0.181911159022                 4
   110   111   112   131     1    180.000000000000     13.675298757543                 2
   112   104   103   113     1    180.000000000000      5.177721731788                 2
   112   104   105   123     1    180.000000000000     13.675298757543                 2
   112   111   110   129     1    180.000000000000     13.675298757543                 2
   113    91    92   117     1    180.000000000000     13.675298757543                 2
   117    92    93   118     1    180.000000000000     13.675298757543                 2
   120   100   101   121     1    180.000000000000     13.675298757543                 2
   121   101   102   122     1    180.000000000000     13.675298757543                 2
   124   107   108   125     1      0.000000000000      0.953929629431                 3
   124   107   108   126     1      0.000000000000      0.953929629431                 3
   124   107   108   127     1      0.000000000000      0.953929629431                 3
   124   107   109   128     1      0.000000000000     -2.093508570415                 1
   124   107   109   128     1    180.000000000000      0.805853180726                 2
   124   107   109   128     1      0.000000000000      0.990270807687                 3
   124   107   109   128     1    180.000000000000     -0.029783337889                 4
   124   107   109   142     1      0.000000000000      2.593955089314                 1
   124   107   109   142     1    180.000000000000      0.360959490725                 2
   124   107   109   142     1      0.000000000000      0.503886420264                 3
   124   107   109   142     1    180.000000000000      0.275316786102                 4
   128   109   142   141     1      0.000000000000      2.282082767433                 1
   128   109   142   141     1    180.000000000000      9.208518546481                 2
   128   109   142   141     1      0.000000000000     -0.071947195208                 3
   128   109   142   141     1    180.000000000000      1.135584936641                 4
   128   109   142   143     1      0.000000000000      4.128677425774                 1
   128   109   142   143     1    180.000000000000      5.020234537785                 2
   128   109   142   143     1      0.000000000000     -0.496811004805                 3
   128   109   142   143     1    180.000000000000     -0.921864135411                 4
   129   110   111   130     1    180.000000000000     13.675298757543                 2
   130   111   112   131     1    180.000000000000     13.675298757543                 2
   133   134   135   136     1      0.000000000000      0.236583150934                 1
   133   134   135   136     1    180.000000000000      9.740714153714                 2
   133   134   135   136     1      0.000000000000      1.171124821131                 3
   133   134   135   136     1    180.000000000000      0.673359803585                 4
   133   134   135   157     1      0.000000000000      0.236583150934                 1
   133   134   135   157     1    180.000000000000      9.740714153714                 2
   133   134   135   157     1      0.000000000000      1.171124821131                 3
   133   134   135   157     1    180.000000000000      0.673359803585                 4
   134   135   136   137     1    180.000000000000     13.675298757543                 2
   134   135   136   161     1    180.000000000000     13.675298757543                 2
   134   135   157   147     1    180.000000000000     13.675298757543                 2
   134   135   157   176     1    180.000000000000     13.675298757543                 2
   135   134   133   158     1      0.000000000000      1.100857953953                 3
   135   134   133   159     1      0.000000000000      1.100857953953                 3
   135   134   133   160     1      0.000000000000      1.100857953953                 3
   135   136   137   138     1    180.000000000000     13.675298757543                 2
   135   136   137   162     1    180.000000000000     13.675298757543                 2
   135   157   147   138     1    180.000000000000     13.675298757543                 2
   135   157   147   148     1    180.000000000000     13.675298757543                 2
   136   135   157   147     1    180.000000000000     13.675298757543                 2
   136   135   157   176     1    180.000000000000     13.675298757543                 2
   136   137   138   139     1    180.000000000000     13.675298757543                 2
   136   137   138   147     1    180.000000000000     13.675298757543                 2
   137   136   135   157     1    180.000000000000     13.675298757543                 2
   137   138   139   140     1      0.000000000000      0.317233490245                 1
   137   138   139   140     1    180.000000000000      6.217048261796                 2
   137   138   139   140     1      0.000000000000      0.363775636786                 3
   137   138   139   140     1    180.000000000000      2.061490594552                 4
   137   138   139   146     1      0.000000000000      0.317233490245                 1
   137   138   139   146     1    180.000000000000      6.217048261796                 2
   137   138   139   146     1      0.000000000000      0.363775636786                 3
   137   138   139   146     1    180.000000000000      2.061490594552                 4
   137   138   147   148     1    180.000000000000     13.675298757543                 2
   137   138   147   157     1    180.000000000000     13.675298757543                 2
   138   137   136   161     1    180.000000000000     13.675298757543                 2
   138   139   140   141     1    180.000000000000     13.675298757543                 2
   138   139   140   163     1    180.000000000000     13.675298757543                 2
   138   139   146   145     1    180.000000000000     13.675298757543                 2
   138   139   146   166     1    180.000000000000     13.675298757543                 2
   138   147   148   149     1    180.000000000000      5.177721731788                 2
   138   147   148   156     1    180.000000000000      5.177721731788                 2
   138   147   157   176     1    180.000000000000     13.675298757543                 2
   139   138   137   162     1    180.000000000000     13.675298757543                 2
   139   138   147   148     1    180.000000000000     13.675298757543                 2
   139   138   147   157     1    180.000000000000     13.675298757543                 2
   139   140   141   142     1    180.000000000000     13.675298757543                 2
   139   140   141   144     1    180.000000000000     13.675298757543                 2
   139   146   145   144     1    180.000000000000     13.675298757543                 2
   139   146   145   165     1    180.000000000000     13.675298757543                 2
   140   139   138   147     1      0.000000000000     -0.295311848006                 1
   140   139   138   147     1    180.000000000000      5.637111817697                 2
   140   139   138   147     1      0.000000000000     -0.350731844832                 3
   140   139   138   147     1    180.000000000000     -0.315082379046                 4
   140   139   146   145     1    180.000000000000     13.675298757543                 2
   140   139   146   166     1    180.000000000000     13.675298757543                 2
   140   141   142   143     1      0.000000000000      0.045863868530                 1
   140   141   142   143     1    180.000000000000     -0.278467872977                 2
   140   141   142   143     1      0.000000000000      0.161761114420                 3
   140   141   142   143     1    180.000000000000      0.341720717374                 4
   140   141   144   145     1    180.000000000000     13.675298757543                 2
   140   141   144   164     1    180.000000000000     13.675298757543                 2
   141   140   139   146     1    180.000000000000     13.675298757543                 2
   141   144   145   146     1    180.000000000000     13.675298757543                 2
   141   144   145   165     1    180.000000000000     13.675298757543                 2
   142   141   140   163     1    180.000000000000     13.675298757543                 2
   142   141   144   145     1    180.000000000000     13.675298757543                 2
   142   141   144   164     1    180.000000000000     13.675298757543                 2
   143   142   141   144     1      0.000000000000      0.045863868530                 1
   143   142   141   144     1    180.000000000000     -0.278467872977                 2
   143   142   141   144     1      0.000000000000      0.161761114420                 3
   143   142   141   144     1    180.000000000000      0.341720717374                 4
   144   141   140   163     1    180.000000000000     13.675298757543                 2
   144   145   146   166     1    180.000000000000     13.675298757543                 2
   146   139   138   147     1      0.000000000000     -0.295311848006                 1
   146   139   138   147     1    180.000000000000      5.637111817697                 2
   146   139   138   147     1      0.000000000000     -0.350731844832                 3
   146   139   138   147     1    180.000000000000     -0.315082379046                 4
   146   139   140   163     1    180.000000000000     13.675298757543                 2
   146   145   144   164     1    180.000000000000     13.675298757543                 2
   147   138   137   162     1    180.000000000000     13.675298757543                 2
   147   148   149   150     1    180.000000000000     13.675298757543                 2
   147   148   149   167     1    180.000000000000     13.675298757543                 2
   147   148   156   155     1    180.000000000000     13.675298757543                 2
   147   148   156   175     1    180.000000000000     13.675298757543                 2
   148   147   157   176     1    180.000000000000     13.675298757543                 2
   148   149   150   151     1    180.000000000000     13.675298757543                 2
   148   149   150   154     1    180.000000000000     13.675298757543                 2
   148   156   155   154     1    180.000000000000     13.675298757543                 2
   148   156   155   174     1    180.000000000000     13.675298757543                 2
   149   148   147   157     1    180.000000000000      5.177721731788                 2
   149   148   156   155     1    180.000000000000     13.675298757543                 2
   149   148   156   175     1    180.000000000000     13.675298757543                 2
   149   150   151   152     1      0.000000000000     -0.070479539456                 1
   149   150   151   152     1    180.000000000000      0.016499054209                 2
   149   150   151   152     1      0.000000000000      0.314340958764                 3
   149   150   151   152     1    180.000000000000      0.116201694595                 4
   149   150   151   153     1      0.000000000000      0.159797005213                 1
   149   150   151   153     1    180.000000000000      0.987421470384                 2
   149   150   151   153     1      0.000000000000      0.314804619956                 3
   149   150   151   153     1    180.000000000000      0.098757509314                 4
   149   150   151   168     1      0.000000000000     -0.094519332774                 1
   149   150   151   168     1    180.000000000000     -0.731514038383                 2
   149   150   151   168     1      0.000000000000      0.317582294136                 3
   149   150   151   168     1    180.000000000000      0.231365648431                 4
   149   150   154   155     1    180.000000000000     13.675298757543                 2
   149   150   154   173     1    180.000000000000     13.675298757543                 2
   150   149   148   156     1    180.000000000000     13.675298757543                 2
   150   151   152   169     1      0.000000000000      0.602098025234                 3
   150   151   152   170     1      0.000000000000      0.602098025234                 3
   150   151   152   171     1      0.000000000000      0.602098025234                 3
   150   151   153   172     1      0.000000000000      2.619016684809                 1
   150   151   153   172     1    180.000000000000      1.943719179535                 2
   150   151   153   172     1      0.000000000000      0.943934719889                 3
   150   151   153   172     1    180.000000000000      0.370465169695                 4
   150   151   153   187     1      0.000000000000     -4.266647965368                 1
   150   151   153   187     1    180.000000000000      1.968427464777                 2
   150   151   153   187     1      0.000000000000     -0.913370580516                 3
   150   151   153   187     1    180.000000000000     -0.320615179619                 4
   150   154   155   156     1    180.000000000000     13.675298757543                 2
   150   154   155   174     1    180.000000000000     13.675298757543                 2
   151   150   149   167     1    180.000000000000     13.675298757543                 2
   151   150   154   155     1    180.000000000000     13.675298757543                 2
   151   150   154   173     1    180.000000000000     13.675298757543                 2
   151   153   187   186     1      0.000000000000      1.014545752576                 1
   151   153   187   186     1    180.000000000000      8.796812289078                 2
   151   153   187   186     1      0.000000000000      0.049716861010                 3
   151   153   187   186     1    180.000000000000     -0.970397281285                 4
   151   153   187   188     1      0.000000000000      1.189277812209                 1
   151   153   187   188     1    180.000000000000      8.324106618178                 2
   151   153   187   188     1      0.000000000000      1.438073594052                 3
   151   153   187   188     1    180.000000000000     -1.210607626312                 4
   152   151   150   154     1      0.000000000000     -0.070479539456                 1
   152   151   150   154     1    180.000000000000      0.016499054209                 2
   152   151   150   154     1      0.000000000000      0.314340958764                 3
   152   151   150   154     1    180.000000000000      0.116201694595                 4
   152   151   153   172     1      0.000000000000     -2.002776463407                 1
   152   151   153   172     1    180.000000000000      1.504380379075                 2
   152   151   153   172     1      0.000000000000      1.212182628168                 3
   152   151   153   172     1    180.000000000000      0.043944148742                 4
   152   151   153   187     1      0.000000000000     -0.754564394585                 1
   152   151   153   187     1    180.000000000000     -0.027636801998                 2
   152   151   153   187     1      0.000000000000     -1.372765749218                 3
   152   151   153   187     1    180.000000000000     -0.510979943669                 4
   153   151   150   154     1      0.000000000000      0.159797005213                 1
   153   151   150   154     1    180.000000000000      0.987421470384                 2
   153   151   150   154     1      0.000000000000      0.314804619956                 3
   153   151   150   154     1    180.000000000000      0.098757509314                 4
   153   151   152   169     1      0.000000000000      0.602098025234                 3
   153   151   152   170     1      0.000000000000      0.602098025234                 3
   153   151   152   171     1      0.000000000000      0.602098025234                 3
   153   187   186   183     1      0.000000000000      1.742057309696                 1
   153   187   186   183     1    180.000000000000     18.478797135848                 2
   153   187   186   183     1      0.000000000000     -0.181094997184                 3
   153   187   186   183     1    180.000000000000      1.900278693713                 4
   154   150   149   167     1    180.000000000000     13.675298757543                 2
   154   150   151   168     1      0.000000000000     -0.094519332774                 1
   154   150   151   168     1    180.000000000000     -0.731514038383                 2
   154   150   151   168     1      0.000000000000      0.317582294136                 3
   154   150   151   168     1    180.000000000000      0.231365648431                 4
   154   155   156   175     1    180.000000000000     13.675298757543                 2
   156   148   147   157     1    180.000000000000      5.177721731788                 2
   156   148   149   167     1    180.000000000000     13.675298757543                 2
   156   155   154   173     1    180.000000000000     13.675298757543                 2
   157   135   136   161     1    180.000000000000     13.675298757543                 2
   161   136   137   162     1    180.000000000000     13.675298757543                 2
   164   144   145   165     1    180.000000000000     13.675298757543                 2
   165   145   146   166     1    180.000000000000     13.675298757543                 2
   168   151   152   169     1      0.000000000000      0.953929629431                 3
   168   151   152   170     1      0.000000000000      0.953929629431                 3
   168   151   152   171     1      0.000000000000      0.953929629431                 3
   168   151   153   172     1      0.000000000000     -0.742145039069                 1
   168   151   153   172     1    180.000000000000      0.803448715420                 2
   168   151   153   172     1      0.000000000000      1.004877300474                 3
   168   151   153   172     1    180.000000000000     -0.935711977910                 4
   168   151   153   187     1      0.000000000000      2.167637383290                 1
   168   151   153   187     1    180.000000000000      0.715129605280                 2
   168   151   153   187     1      0.000000000000      0.250320123546                 3
   168   151   153   187     1    180.000000000000      0.522638618889                 4
   172   153   187   186     1      0.000000000000      1.889017591358                 1
   172   153   187   186     1    180.000000000000      8.356815030065                 2
   172   153   187   186     1      0.000000000000     -0.000782496616                 3
   172   153   187   186     1    180.000000000000     -1.688481214452                 4
   172   153   187   188     1      0.000000000000      4.842641985661                 1
   172   153   187   188     1    180.000000000000      1.611616593895                 2
   172   153   187   188     1      0.000000000000      1.144564709012                 3
   172   153   187   188     1    180.000000000000     -1.660573101871                 4
   173   154   155   174     1    180.000000000000     13.675298757543                 2
   174   155   156   175     1    180.000000000000     13.675298757543                 2
   182   183   184   192     1      0.000000000000      0.412282083439                 3
   182   183   184   193     1      0.000000000000      0.412282083439                 3
   182   183   184   194     1      0.000000000000      0.412282083439                 3
   182   183   185   195     1      0.000000000000      0.412282083439                 3
   182   183   185   196     1      0.000000000000      0.412282083439                 3
   182   183   185   197     1      0.000000000000      0.412282083439                 3
   182   183   186   187     1      0.000000000000      1.585578366098                 1
   182   183   186   187     1    180.000000000000      0.121492968056                 2
   182   183   186   187     1      0.000000000000     -1.757177961228                 3
   182   183   186   187     1    180.000000000000      1.315185926321                 4
   183   186   187   188     1      0.000000000000      3.891101400277                 1
   183   186   187   188     1    180.000000000000      4.720029440788                 2
   183   186   187   188     1      0.000000000000      0.585168308115                 3
   183   186   187   188     1    180.000000000000      0.798849370800                 4
   184   183   182   189     1      0.000000000000      0.412282083439                 3
   184   183   182   190     1      0.000000000000      0.412282083439                 3
   184   183   182   191     1      0.000000000000      0.412282083439                 3
   184   183   185   195     1      0.000000000000      0.412282083439                 3
   184   183   185   196     1      0.000000000000      0.412282083439                 3
   184   183   185   197     1      0.000000000000      0.412282083439                 3
   184   183   186   187     1      0.000000000000      1.585578366098                 1
   184   183   186   187     1    180.000000000000      0.121492968056                 2
   184   183   186   187     1      0.000000000000     -1.757177961228                 3
   184   183   186   187     1    180.000000000000      1.315185926321                 4
   185   183   182   189     1      0.000000000000      0.412282083439                 3
   185   183   182   190     1      0.000000000000      0.412282083439                 3
   185   183   182   191     1      0.000000000000      0.412282083439                 3
   185   183   184   192     1      0.000000000000      0.412282083439                 3
   185   183   184   193     1      0.000000000000      0.412282083439                 3
   185   183   184   194     1      0.000000000000      0.412282083439                 3
   185   183   186   187     1      0.000000000000      1.585578366098                 1
   185   183   186   187     1    180.000000000000      0.121492968056                 2
   185   183   186   187     1      0.000000000000     -1.757177961228                 3
   185   183   186   187     1    180.000000000000      1.315185926321                 4
   186   183   182   189     1      0.000000000000      0.548667589915                 3
   186   183   182   189     1      0.000000000000      1.826511275305                 1
   186   183   182   190     1      0.000000000000      0.548667589915                 3
   186   183   182   190     1      0.000000000000      1.826511275305                 1
   186   183   182   191     1      0.000000000000      0.548667589915                 3
   186   183   182   191     1      0.000000000000      1.826511275305                 1
   186   183   184   192     1      0.000000000000      0.548667589915                 3
   186   183   184   192     1      0.000000000000      1.826511275305                 1
   186   183   184   193     1      0.000000000000      0.548667589915                 3
   186   183   184   193     1      0.000000000000      1.826511275305                 1
   186   183   184   194     1      0.000000000000      0.548667589915                 3
   186   183   184   194     1      0.000000000000      1.826511275305                 1
   186   183   185   195     1      0.000000000000      0.548667589915                 3
   186   183   185   195     1      0.000000000000      1.826511275305                 1
   186   183   185   196     1      0.000000000000      0.548667589915                 3
   186   183   185   196     1      0.000000000000      1.826511275305                 1
   186   183   185   197     1      0.000000000000      0.548667589915                 3
   186   183   185   197     1      0.000000000000      1.826511275305                 1
    56    76    53    57     4    180.000000000000      7.295209241758                 2
    47    48    69    46     4    180.000000000000      7.295209241758                 2
    17    18    35    16     4    180.000000000000      7.295209241758                 2
   113   103   132    91     4    180.000000000000      7.295209241758                 2
   155   174   154   156     4    180.000000000000      7.295209241758                 2
    12    13    32     9     4    180.000000000000      7.295209241758                 2
   145   144   146   165     4    180.000000000000      7.295209241758                 2
    67    66    68    86     4    180.000000000000      7.295209241758                 2
    52    51    53    75     4    180.000000000000      7.295209241758                 2
   135   157   134   136     4    180.000000000000      7.295209241758                 2
     8     7     9    31     4    180.000000000000      7.295209241758                 2
   139   146   138   140     4    180.000000000000      7.295209241758                 2
    98    99    65    97     4    180.000000000000      7.295209241758                 2
   102   122    95   101     4    180.000000000000      7.295209241758                 2
    62    61    63    66     4    180.000000000000      7.295209241758                 2
    59    69    50    60     4    180.000000000000      7.295209241758                 2
    47    69    46    48     4    180.000000000000      7.295209241758                 2
     4     3     5    29     4    180.000000000000      7.295209241758                 2
   135   134   136   157     4    180.000000000000      7.295209241758                 2
   147   157   138   148     4    180.000000000000      7.295209241758                 2
    68    87    60    67     4    180.000000000000      7.295209241758                 2
    47    46    48    69     4    180.000000000000      7.295209241758                 2
    17    35    16    18     4    180.000000000000      7.295209241758                 2
     7    14     6     8     4    180.000000000000      7.295209241758                 2
    61    60    62    79     4    180.000000000000      7.295209241758                 2
   100   101   120    97     4    180.000000000000      7.295209241758                 2
    94   103    93    95     4    180.000000000000      7.295209241758                 2
   136   137   161   135     4    180.000000000000      7.295209241758                 2
   110   111   129   106     4    180.000000000000      7.295209241758                 2
   141   140   142   144     4    180.000000000000      7.295209241758                 2
   101   121   100   102     4    180.000000000000      7.295209241758                 2
    50    59    49    51     4    180.000000000000      7.295209241758                 2
   113   132    91   103     4    180.000000000000      7.295209241758                 2
    17    16    18    35     4    180.000000000000      7.295209241758                 2
    94    93    95   103     4    180.000000000000      7.295209241758                 2
   149   148   150   167     4    180.000000000000      7.295209241758                 2
    10     9    11   178     4    180.000000000000     18.013091641645                 2
    57    56    58    77     4    180.000000000000      7.295209241758                 2
    48    73    47    49     4    180.000000000000      7.295209241758                 2
   156   148   155   175     4    180.000000000000      7.295209241758                 2
   142   109   141   143     4    180.000000000000      7.295209241758                 2
    54    53    55    21     4    180.000000000000      7.295209241758                 2
    53    52    54    56     4    180.000000000000      7.295209241758                 2
    13    12    14    33     4    180.000000000000      7.295209241758                 2
    68    67    87    60     4    180.000000000000      7.295209241758                 2
   154   150   155   173     4    180.000000000000      7.295209241758                 2
    22    41    18    23     4    180.000000000000      7.295209241758                 2
    48    49    73    47     4    180.000000000000      7.295209241758                 2
     3     4    25     2     4    180.000000000000      7.295209241758                 2
   109   107   128   142     4    180.000000000000      1.752067434103                 2
    54    55    21    53     4    180.000000000000      7.295209241758                 2
    49    48    50    74     4    180.000000000000      7.295209241758                 2
    92    93   117    91     4    180.000000000000      7.295209241758                 2
    13    14    33    12     4    180.000000000000      7.295209241758                 2
     5     6    30     4     4    180.000000000000      7.295209241758                 2
   137   136   138   162     4    180.000000000000      7.295209241758                 2
    50    49    51    59     4    180.000000000000      7.295209241758                 2
   144   145   164   141     4    180.000000000000      7.295209241758                 2
   150   151   154   149     4    180.000000000000      7.295209241758                 2
    58    51    57    78     4    180.000000000000      7.295209241758                 2
     6    15     5     7     4    180.000000000000      7.295209241758                 2
   106   107   110   105     4    180.000000000000      7.295209241758                 2
   150   154   149   151     4    180.000000000000      7.295209241758                 2
    60    59    61    68     4    180.000000000000      7.295209241758                 2
    91   113    90    92     4    180.000000000000      7.295209241758                 2
    94    95   103    93     4    180.000000000000      7.295209241758                 2
   187   186   188   153     4    180.000000000000     18.013091641645                 2
    95    94    96   102     4    180.000000000000      7.295209241758                 2
    58    57    78    51     4    180.000000000000      7.295209241758                 2
    25    15    44     3     4    180.000000000000      7.295209241758                 2
   145   146   165   144     4    180.000000000000      7.295209241758                 2
     9    10    12     8     4    180.000000000000      7.295209241758                 2
   105   104   106   123     4    180.000000000000      7.295209241758                 2
    66    67    85    62     4    180.000000000000      7.295209241758                 2
    91    90    92   113     4    180.000000000000      7.295209241758                 2
    21    19    40    54     4    180.000000000000      1.752067434103                 2
    16    17    24    15     4    180.000000000000      7.295209241758                 2
   105   123   104   106     4    180.000000000000      7.295209241758                 2
    53    54    56    52     4    180.000000000000      7.295209241758                 2
   142   143   109   141     4    180.000000000000      7.295209241758                 2
    60    61    68    59     4    180.000000000000      7.295209241758                 2
     8    31     7     9     4    180.000000000000      7.295209241758                 2
    67    86    66    68     4    180.000000000000      7.295209241758                 2
   135   136   157   134     4    180.000000000000      7.295209241758                 2
    69    47    59    88     4    180.000000000000      7.295209241758                 2
   109   142   107   128     4    180.000000000000      1.752067434103                 2
    95   102    94    96     4    180.000000000000      7.295209241758                 2
   187   153   186   188     4    180.000000000000     18.013091641645                 2
   148   147   149   156     4    180.000000000000      7.295209241758                 2
   153   172   187   151     4    180.000000000000      1.752067434103                 2
   141   142   144   140     4    180.000000000000      7.295209241758                 2
    60    68    59    61     4    180.000000000000      7.295209241758                 2
    50    51    59    49     4    180.000000000000      7.295209241758                 2
   136   135   137   161     4    180.000000000000      7.295209241758                 2
   103    94   104   113     4    180.000000000000      7.295209241758                 2
    18    19    22    17     4    180.000000000000      7.295209241758                 2
    97    98   100    96     4    180.000000000000      7.295209241758                 2
    96    97   119    95     4    180.000000000000      7.295209241758                 2
   106   110   105   107     4    180.000000000000      7.295209241758                 2
   156   175   148   155     4    180.000000000000      7.295209241758                 2
    62    66    61    63     4    180.000000000000      7.295209241758                 2
    62    63    66    61     4    180.000000000000      7.295209241758                 2
    14    34     7    13     4    180.000000000000      7.295209241758                 2
     8     9    31     7     4    180.000000000000      7.295209241758                 2
     5     4     6    30     4    180.000000000000      7.295209241758                 2
    69    88    47    59     4    180.000000000000      7.295209241758                 2
    91    92   113    90     4    180.000000000000      7.295209241758                 2
    92   117    91    93     4    180.000000000000      7.295209241758                 2
    56    57    76    53     4    180.000000000000      7.295209241758                 2
    52    75    51    53     4    180.000000000000      7.295209241758                 2
    51    52    58    50     4    180.000000000000      7.295209241758                 2
   154   173   150   155     4    180.000000000000      7.295209241758                 2
   146   139   145   166     4    180.000000000000      7.295209241758                 2
     6     7    15     5     4    180.000000000000      7.295209241758                 2
    18    22    17    19     4    180.000000000000      7.295209241758                 2
   105   106   123   104     4    180.000000000000      7.295209241758                 2
   138   137   139   147     4    180.000000000000      7.295209241758                 2
    57    58    77    56     4    180.000000000000      7.295209241758                 2
   187   188   153   186     4    180.000000000000     18.013091641645                 2
    67    68    86    66     4    180.000000000000      7.295209241758                 2
    52    53    75    51     4    180.000000000000      7.295209241758                 2
   146   166   139   145     4    180.000000000000      7.295209241758                 2
    51    58    50    52     4    180.000000000000      7.295209241758                 2
   111   130   110   112     4    180.000000000000      7.295209241758                 2
   141   144   140   142     4    180.000000000000      7.295209241758                 2
     7     6     8    14     4    180.000000000000      7.295209241758                 2
   112   111   131   104     4    180.000000000000      7.295209241758                 2
     7     8    14     6     4    180.000000000000      7.295209241758                 2
    48    47    49    73     4    180.000000000000      7.295209241758                 2
   111   110   112   130     4    180.000000000000      7.295209241758                 2
    49    74    48    50     4    180.000000000000      7.295209241758                 2
    95    96   102    94     4    180.000000000000      7.295209241758                 2
    18    17    19    22     4    180.000000000000      7.295209241758                 2
   111   112   130   110     4    180.000000000000      7.295209241758                 2
   100    97   101   120     4    180.000000000000      7.295209241758                 2
    24    16    23    43     4    180.000000000000      7.295209241758                 2
   101   102   121   100     4    180.000000000000      7.295209241758                 2
   145   165   144   146     4    180.000000000000      7.295209241758                 2
    58    78    51    57     4    180.000000000000      7.295209241758                 2
     6     5     7    15     4    180.000000000000      7.295209241758                 2
    10    11   178     9     4    180.000000000000     18.013091641645                 2
   139   140   146   138     4    180.000000000000      7.295209241758                 2
    98    65    97    99     4    180.000000000000      7.295209241758                 2
    53    56    52    54     4    180.000000000000      7.295209241758                 2
   112   104   111   131     4    180.000000000000      7.295209241758                 2
    96    95    97   119     4    180.000000000000      7.295209241758                 2
   154   155   173   150     4    180.000000000000      7.295209241758                 2
   153   187   151   172     4    180.000000000000      1.752067434103                 2
   149   150   167   148     4    180.000000000000      7.295209241758                 2
    21    54    19    40     4    180.000000000000      1.752067434103                 2
    56    53    57    76     4    180.000000000000      7.295209241758                 2
   140   141   163   139     4    180.000000000000      7.295209241758                 2
   156   155   175   148     4    180.000000000000      7.295209241758                 2
    10   178     9    11     4    180.000000000000     18.013091641645                 2
    24    23    43    16     4    180.000000000000      7.295209241758                 2
   104   103   105   112     4    180.000000000000      7.295209241758                 2
    12     9    13    32     4    180.000000000000      7.295209241758                 2
   157   176   135   147     4    180.000000000000      7.295209241758                 2
   139   138   140   146     4    180.000000000000      7.295209241758                 2
   137   162   136   138     4    180.000000000000      7.295209241758                 2
   104   105   112   103     4    180.000000000000      7.295209241758                 2
    25    44     3    15     4    180.000000000000      7.295209241758                 2
    65    63    84    98     4    180.000000000000      1.752067434103                 2
    24    43    16    23     4    180.000000000000      7.295209241758                 2
   138   139   147   137     4    180.000000000000      7.295209241758                 2
    59    50    60    69     4    180.000000000000      7.295209241758                 2
   106   105   107   110     4    180.000000000000      7.295209241758                 2
     4    29     3     5     4    180.000000000000      7.295209241758                 2
    61    62    79    60     4    180.000000000000      7.295209241758                 2
    23    42    22    24     4    180.000000000000      7.295209241758                 2
    23    24    42    22     4    180.000000000000      7.295209241758                 2
     3     2     4    25     4    180.000000000000      7.295209241758                 2
    51    50    52    58     4    180.000000000000      7.295209241758                 2
   155   154   156   174     4    180.000000000000      7.295209241758                 2
   102    95   101   122     4    180.000000000000      7.295209241758                 2
   148   156   147   149     4    180.000000000000      7.295209241758                 2
     5    30     4     6     4    180.000000000000      7.295209241758                 2
    16    24    15    17     4    180.000000000000      7.295209241758                 2
    21    40    54    19     4    180.000000000000      1.752067434103                 2
    49    50    74    48     4    180.000000000000      7.295209241758                 2
    13    33    12    14     4    180.000000000000      7.295209241758                 2
   150   149   151   154     4    180.000000000000      7.295209241758                 2
    23    22    24    42     4    180.000000000000      7.295209241758                 2
    97    96    98   100     4    180.000000000000      7.295209241758                 2
   142   141   143   109     4    180.000000000000      7.295209241758                 2
   101   100   102   121     4    180.000000000000      7.295209241758                 2
    69    59    88    47     4    180.000000000000      7.295209241758                 2
   155   156   174   154     4    180.000000000000      7.295209241758                 2
    96   119    95    97     4    180.000000000000      7.295209241758                 2
   110   106   111   129     4    180.000000000000      7.295209241758                 2
   147   138   148   157     4    180.000000000000      7.295209241758                 2
   136   161   135   137     4    180.000000000000      7.295209241758                 2
    22    23    41    18     4    180.000000000000      7.295209241758                 2
   144   164   141   145     4    180.000000000000      7.295209241758                 2
    16    15    17    24     4    180.000000000000      7.295209241758                 2
   149   167   148   150     4    180.000000000000      7.295209241758                 2
    15     6    16    25     4    180.000000000000      7.295209241758                 2
    59    60    69    50     4    180.000000000000      7.295209241758                 2
    54    21    53    55     4    180.000000000000      7.295209241758                 2
    98    97    99    65     4    180.000000000000      7.295209241758                 2
    12    32     9    13     4    180.000000000000      7.295209241758                 2
    65    98    63    84     4    180.000000000000      1.752067434103                 2
   109   128   142   107     4    180.000000000000      1.752067434103                 2
    14     7    13    34     4    180.000000000000      7.295209241758                 2
    66    85    62    67     4    180.000000000000      7.295209241758                 2
   103   104   113    94     4    180.000000000000      7.295209241758                 2
   112   131   104   111     4    180.000000000000      7.295209241758                 2
   157   135   147   176     4    180.000000000000      7.295209241758                 2
   153   151   172   187     4    180.000000000000      1.752067434103                 2
   144   141   145   164     4    180.000000000000      7.295209241758                 2
    25     3    15    44     4    180.000000000000      7.295209241758                 2
   138   147   137   139     4    180.000000000000      7.295209241758                 2
    97   100    96    98     4    180.000000000000      7.295209241758                 2
    15    16    25     6     4    180.000000000000      7.295209241758                 2
   140   139   141   163     4    180.000000000000      7.295209241758                 2
   110   129   106   111     4    180.000000000000      7.295209241758                 2
   102   101   122    95     4    180.000000000000      7.295209241758                 2
   113    91   103   132     4    180.000000000000      7.295209241758                 2
     9    12     8    10     4    180.000000000000      7.295209241758                 2
   103   113    94   104     4    180.000000000000      7.295209241758                 2
    92    91    93   117     4    180.000000000000      7.295209241758                 2
   100   120    97   101     4    180.000000000000      7.295209241758                 2
     4     5    29     3     4    180.000000000000      7.295209241758                 2
   147   148   157   138     4    180.000000000000      7.295209241758                 2
   146   145   166   139     4    180.000000000000      7.295209241758                 2
     3    25     2     4     4    180.000000000000      7.295209241758                 2
    57    77    56    58     4    180.000000000000      7.295209241758                 2
     9     8    10    12     4    180.000000000000      7.295209241758                 2
   104   112   103   105     4    180.000000000000      7.295209241758                 2
   137   138   162   136     4    180.000000000000      7.295209241758                 2
    14    13    34     7     4    180.000000000000      7.295209241758                 2
    65    84    98    63     4    180.000000000000      1.752067434103                 2
    15    25     6    16     4    180.000000000000      7.295209241758                 2
    68    60    67    87     4    180.000000000000      7.295209241758                 2
    93   118    92    94     4    180.000000000000      7.295209241758                 2
   140   163   139   141     4    180.000000000000      7.295209241758                 2
    61    79    60    62     4    180.000000000000      7.295209241758                 2
    93    92    94   118     4    180.000000000000      7.295209241758                 2
    93    94   118    92     4    180.000000000000      7.295209241758                 2
   148   149   156   147     4    180.000000000000      7.295209241758                 2
   157   147   176   135     4    180.000000000000      7.295209241758                 2
    66    62    67    85     4    180.000000000000      7.295209241758                 2
    22    18    23    41     4    180.000000000000      7.295209241758                 2

[ settles ]
;i  funct   dOH  dHH


[ exclusions ]
;ai    aj

[ moleculetype ]
TCM	         3

[ atoms ]
;index, atom type, resnum, resname, name, cgnr, charge, mass
     1 TCM_0        1 TCM      c1         1      0.224379999936     12.010780000000
     2 TCM_1        1 TCM      cl1        1     -0.114630000293     35.453200000000
     3 TCM_2        1 TCM      cl2        1     -0.114630000293     35.453200000000
     4 TCM_3        1 TCM      h1         1      0.119510000944      1.007947000000
     5 TCM_4        1 TCM      cl3        1     -0.114630000293     35.453200000000

[ pairs ]
;ai    aj   funct

[ bonds ]
;ai    aj   funct r k
     1      2      1      0.179482617418  173885.040698109922 
     1      3      1      0.179482617418  173885.040698109922 
     1      4      1      0.109288837838  317186.185378679947 
     1      5      1      0.179482617418  173885.040698109922 

[ angles ]
;ai    aj   ak   funct theta  k
     2      1      3      1     107.660782175200     425.669014814353 
     2      1      4      1     107.660782175200     425.669014814353 
     2      1      5      1     107.660782175200     425.669014814353 
     3      1      4      1     107.660782175200     425.669014814353 
     3      1      5      1     107.660782175200     425.669014814353 
     4      1      5      1     107.660782175200     425.669014814353 

[ dihedrals ]
;ai    aj   ak   al   funct phi  k

[ settles ]
;i  funct   dOH  dHH


[ exclusions ]
;ai    aj


[ system ]
;name
FOO

[ molecules ]
;name	number
em_mom_tetramer	1
TCM	634

