Gallium Rubidium Oxygen Manganese Argon Carbon Silicon
 3367
    1MOP     C1    1   1.767   2.279   3.438
    1MOP     O2    2   1.648   2.204   3.411
    1MOP     C3    3   1.631   2.088   3.482
    1MOP     C4    4   1.720   2.035   3.575
    1MOP     C5    5   1.691   1.913   3.638
    1MOP     C6    6   1.572   1.842   3.609
    1MOP     C7    7   1.549   1.712   3.675
    1MOP     C8    8   1.545   1.700   3.816
    1MOP     C9    9   1.521   1.576   3.878
    1MOP    C10   10   1.533   1.569   4.026
    1MOP    O11   11   1.556   1.665   4.097
    1MOP    C12   12   1.498   1.462   3.799
    1MOP    C13   13   1.502   1.472   3.660
    1MOP    C14   14   1.530   1.594   3.599
    1MOP    C15   15   1.480   1.899   3.517
    1MOP    C16   16   1.350   1.835   3.487
    1MOP    C17   17   1.312   1.800   3.356
    1MOP    C18   18   1.194   1.728   3.331
    1MOP    C19   19   1.155   1.690   3.190
    1MOP    C20   20   1.161   1.538   3.167
    1MOP    N21   21   1.029   1.745   3.138
    1MOP    C22   22   1.117   1.690   3.442
    1MOP    C23   23   1.148   1.733   3.571
    1MOP    C24   24   1.262   1.807   3.592
    1MOP    C25   25   1.513   2.020   3.454
    1MOP    H26   26   1.857   2.222   3.412
    1MOP    H27   27   1.769   2.313   3.542
    1MOP    H28   28   1.764   2.368   3.374
    1MOP    H29   29   1.813   2.084   3.601
    1MOP    H30   30   1.762   1.873   3.710
    1MOP    H31   31   1.562   1.789   3.877
    1MOP    H32   32   1.480   1.366   3.845
    1MOP    H33   33   1.486   1.383   3.600
    1MOP    H34   34   1.532   1.599   3.491
    1MOP    H35   35   1.379   1.824   3.274
    1MOP    H36   36   1.231   1.733   3.123
    1MOP    H37   37   1.144   1.514   3.062
    1MOP    H38   38   1.259   1.498   3.194
    1MOP    H39   39   1.085   1.485   3.225
    1MOP    H40   40   1.033   1.754   3.039
    1MOP    H41   41   1.028   1.627   3.428
    1MOP    H42   42   1.082   1.706   3.652
    1MOP    H43   43   1.285   1.838   3.694
    1MOP    H44   44   1.443   2.064   3.382
    2MOP    C45   45   0.071   1.300   3.403
    2MOP    O46   46   0.161   1.231   3.318
    2MOP    C47   47   0.269   1.301   3.271
    2MOP    C48   48   0.298   1.434   3.297
    2MOP    C49   49   0.410   1.494   3.240
    2MOP    C50   50   0.497   1.423   3.154
    2MOP    C51   51   0.609   1.495   3.089
    2MOP    C52   52   0.704   1.567   3.164
    2MOP    C53   53   0.811   1.635   3.102
    2MOP    C54   54   0.906   1.708   3.191
    2MOP    O55   55   0.871   1.732   3.305
    2MOP    C56   56   0.826   1.628   2.963
    2MOP    C57   57   0.732   1.559   2.888
    2MOP    C58   58   0.625   1.495   2.949
    2MOP    C59   59   0.469   1.285   3.130
    2MOP    C60   60   0.560   1.199   3.050
    2MOP    C61   61   0.514   1.131   2.935
    2MOP    C62   62   0.603   1.061   2.851
    2MOP    C63   63   0.550   0.988   2.729
    2MOP    C64   64   0.598   1.052   2.598
    2MOP    N65   65   0.572   0.843   2.725
    2MOP    C66   66   0.739   1.066   2.882
    2MOP    C67   67   0.785   1.124   3.000
    2MOP    C68   68   0.696   1.189   3.085
    2MOP    C69   69   0.355   1.228   3.189
    2MOP    H70   70   0.026   1.386   3.353
    2MOP    H71   71   0.122   1.330   3.496
    2MOP    H72   72  -0.009   1.231   3.431
    2MOP    H73   73   0.235   1.495   3.361
    2MOP    H74   74   0.430   1.599   3.261
    2MOP    H75   75   0.696   1.569   3.273
    2MOP    H76   76   0.908   1.676   2.911
    2MOP    H77   77   0.743   1.553   2.779
    2MOP    H78   78   0.552   1.442   2.888
    2MOP    H79   79   0.408   1.136   2.911
    2MOP    H80   80   0.442   0.998   2.729
    2MOP    H81   81   0.549   1.005   2.512
    2MOP    H82   82   0.576   1.160   2.595
    2MOP    H83   83   0.707   1.041   2.584
    2MOP    H84   84   0.501   0.798   2.671
    2MOP    H85   85   0.813   1.022   2.816
    2MOP    H86   86   0.890   1.120   3.025
    2MOP    H87   87   0.733   1.235   3.175
    2MOP    H88   88   0.332   1.122   3.170
    3MOP    C89   89   1.535   0.414   2.447
    3MOP    O90   90   1.454   0.478   2.350
    3MOP    C91   91   1.326   0.510   2.385
    3MOP    C92   92   1.266   0.484   2.509
    3MOP    C93   93   1.132   0.519   2.530
    3MOP    C94   94   1.055   0.581   2.430
    3MOP    C95   95   0.910   0.607   2.457
    3MOP    C96   96   0.869   0.683   2.568
    3MOP    C97   97   0.732   0.708   2.593
    3MOP    C98   98   0.699   0.787   2.715
    3MOP    O99   99   0.786   0.800   2.801
    3MOP   C100  100   0.636   0.661   2.503
    3MOP   C101  101   0.676   0.587   2.392
    3MOP   C102  102   0.811   0.558   2.372
    3MOP   C103  103   1.118   0.614   2.307
    3MOP   C104  104   1.049   0.689   2.199
    3MOP   C105  105   1.034   0.636   2.070
    3MOP   C106  106   0.956   0.702   1.973
    3MOP   C107  107   0.941   0.642   1.834
    3MOP   C108  108   0.798   0.595   1.807
    3MOP   N109  109   0.990   0.725   1.722
    3MOP   C110  110   0.889   0.818   2.011
    3MOP   C111  111   0.910   0.877   2.136
    3MOP   C112  112   0.991   0.814   2.229
    3MOP   C113  113   1.252   0.576   2.287
    3MOP   H114  114   1.492   0.317   2.475
    3MOP   H115  115   1.549   0.478   2.535
    3MOP   H116  116   1.633   0.397   2.402
    3MOP   H117  117   1.319   0.435   2.589
    3MOP   H118  118   1.087   0.495   2.626
    3MOP   H119  119   0.944   0.724   2.636
    3MOP   H120  120   0.530   0.680   2.515
    3MOP   H121  121   0.601   0.550   2.322
    3MOP   H122  122   0.838   0.499   2.285
    3MOP   H123  123   1.080   0.541   2.046
    3MOP   H124  124   1.004   0.553   1.829
    3MOP   H125  125   0.793   0.544   1.710
    3MOP   H126  126   0.765   0.523   1.883
    3MOP   H127  127   0.726   0.677   1.805
    3MOP   H128  128   1.020   0.667   1.646
    3MOP   H129  129   0.821   0.868   1.943
    3MOP   H130  130   0.864   0.973   2.160
    3MOP   H131  131   1.007   0.860   2.326
    3MOP   H132  132   1.301   0.598   2.192
    4MOP   C133  133   0.403   1.549   1.323
    4MOP   O134  134   0.360   1.415   1.305
    4MOP   C135  135   0.449   1.316   1.336
    4MOP   C136  136   0.578   1.335   1.386
    4MOP   C137  137   0.659   1.224   1.411
    4MOP   C138  138   0.616   1.092   1.386
    4MOP   C139  139   0.710   0.979   1.408
    4MOP   C140  140   0.776   0.961   1.532
    4MOP   C141  141   0.865   0.854   1.552
    4MOP   C142  142   0.929   0.845   1.687
    4MOP   O143  143   0.925   0.942   1.760
    4MOP   C144  144   0.885   0.761   1.451
    4MOP   C145  145   0.823   0.778   1.327
    4MOP   C146  146   0.738   0.887   1.306
    4MOP   C147  147   0.483   1.074   1.339
    4MOP   C148  148   0.424   0.940   1.319
    4MOP   C149  149   0.376   0.897   1.193
    4MOP   C150  150   0.325   0.768   1.172
    4MOP   C151  151   0.276   0.721   1.035
    4MOP   C152  152   0.381   0.637   0.963
    4MOP   N153  153   0.144   0.659   1.038
    4MOP   C154  154   0.325   0.682   1.284
    4MOP   C155  155   0.368   0.722   1.410
    4MOP   C156  156   0.417   0.850   1.427
    4MOP   C157  157   0.403   1.187   1.313
    4MOP   H158  158   0.489   1.573   1.259
    4MOP   H159  159   0.424   1.570   1.428
    4MOP   H160  160   0.321   1.615   1.292
    4MOP   H161  161   0.618   1.433   1.406
    4MOP   H162  162   0.761   1.241   1.449
    4MOP   H163  163   0.754   1.031   1.613
    4MOP   H164  164   0.951   0.676   1.462
    4MOP   H165  165   0.839   0.706   1.247
    4MOP   H166  166   0.692   0.899   1.209
    4MOP   H167  167   0.380   0.967   1.109
    4MOP   H168  168   0.261   0.812   0.974
    4MOP   H169  169   0.343   0.601   0.867
    4MOP   H170  170   0.472   0.695   0.943
    4MOP   H171  171   0.414   0.551   1.021
    4MOP   H172  172   0.065   0.713   1.005
    4MOP   H173  173   0.288   0.581   1.274
    4MOP   H174  174   0.366   0.653   1.492
    4MOP   H175  175   0.452   0.881   1.526
    4MOP   H176  176   0.301   1.174   1.277
    5CAP   C177  177   1.607   1.412   4.184
    5CAP   O178  178   1.533   1.439   4.064
    5CAP   H179  179   1.712   1.404   4.157
    5CAP   H180  180   1.572   1.317   4.224
    5CAP   H181  181   1.593   1.490   4.260
    6CAP   C182  182   0.342   0.257   1.081
    6CAP   C183  183   0.213   0.319   1.139
    6CAP   C184  184   0.093   0.237   1.090
    6CAP   C185  185   0.223   0.319   1.291
    6CAP   O186  186   0.215   0.454   1.088
    6CAP   C187  187   0.110   0.539   1.092
    6CAP   O188  188  -0.002   0.514   1.134
    6CAP   H189  189   0.356   0.154   1.112
    6CAP   H190  190   0.340   0.261   0.970
    6CAP   H191  191   0.430   0.315   1.112
    6CAP   H192  192   0.084   0.244   0.981
    6CAP   H193  193  -0.001   0.275   1.132
    6CAP   H194  194   0.102   0.132   1.118
    6CAP   H195  195   0.312   0.375   1.324
    6CAP   H196  196   0.137   0.370   1.336
    6CAP   H197  197   0.231   0.219   1.332
    1TCM     c1  198   4.338   0.336   2.675
    1TCM    cl1  199   4.463   0.360   2.551
    1TCM    cl2  200   4.242   0.484   2.693
    1TCM     h1  201   4.272   0.252   2.645
    1TCM    cl3  202   4.416   0.297   2.830
    1TCM     c1  203   1.693   2.483   4.345
    1TCM    cl1  204   1.602   2.331   4.354
    1TCM    cl2  205   1.626   2.599   4.462
    1TCM     h1  206   1.800   2.464   4.369
    1TCM    cl3  207   1.681   2.550   4.181
    1TCM     c1  208   1.854   2.333   0.989
    1TCM    cl1  209   1.774   2.175   0.981
    1TCM    cl2  210   1.913   2.378   0.827
    1TCM     h1  211   1.781   2.410   1.024
    1TCM    cl3  212   1.991   2.325   1.102
    1TCM     c1  213   2.711   0.610   3.774
    1TCM    cl1  214   2.781   0.755   3.699
    1TCM    cl2  215   2.835   0.526   3.869
    1TCM     h1  216   2.627   0.640   3.841
    1TCM    cl3  217   2.649   0.501   3.648
    1TCM     c1  218   2.293   1.752   2.859
    1TCM    cl1  219   2.409   1.795   2.731
    1TCM    cl2  220   2.335   1.837   3.009
    1TCM     h1  221   2.191   1.781   2.827
    1TCM    cl3  222   2.299   1.576   2.887
    1TCM     c1  223   5.037   1.291   0.560
    1TCM    cl1  224   5.174   1.235   0.462
    1TCM    cl2  225   5.084   1.291   0.732
    1TCM     h1  226   5.009   1.393   0.530
    1TCM    cl3  227   4.899   1.181   0.537
    1TCM     c1  228   2.902   0.817   2.642
    1TCM    cl1  229   2.784   0.925   2.565
    1TCM    cl2  230   2.874   0.650   2.589
    1TCM     h1  231   3.005   0.848   2.614
    1TCM    cl3  232   2.884   0.827   2.819
    1TCM     c1  233   3.726   4.047   4.689
    1TCM    cl1  234   3.745   3.959   4.536
    1TCM    cl2  235   3.569   4.131   4.690
    1TCM     h1  236   3.731   3.976   4.773
    1TCM    cl3  237   3.857   4.167   4.704
    1TCM     c1  238   0.757   4.178   3.455
    1TCM    cl1  239   0.840   4.033   3.392
    1TCM    cl2  240   0.803   4.319   3.357
    1TCM     h1  241   0.647   4.163   3.449
    1TCM    cl3  242   0.805   4.204   3.624
    1TCM     c1  243   3.896   1.320   2.598
    1TCM    cl1  244   3.876   1.409   2.751
    1TCM    cl2  245   4.064   1.335   2.542
    1TCM     h1  246   3.872   1.213   2.614
    1TCM    cl3  247   3.787   1.387   2.475
    1TCM     c1  248   4.915   3.095   4.465
    1TCM    cl1  249   4.738   3.078   4.465
    1TCM    cl2  250   4.989   2.941   4.417
    1TCM     h1  251   4.944   3.174   4.393
    1TCM    cl3  252   4.970   3.140   4.628
    1TCM     c1  253   0.542   2.844   1.444
    1TCM    cl1  254   0.530   3.018   1.479
    1TCM    cl2  255   0.380   2.771   1.450
    1TCM     h1  256   0.585   2.829   1.343
    1TCM    cl3  257   0.646   2.766   1.565
    1TCM     c1  258   1.504   1.958   2.396
    1TCM    cl1  259   1.375   2.073   2.355
    1TCM    cl2  260   1.574   1.892   2.247
    1TCM     h1  261   1.582   2.010   2.455
    1TCM    cl3  262   1.436   1.825   2.493
    1TCM     c1  263   4.283   4.442   0.720
    1TCM    cl1  264   4.453   4.431   0.770
    1TCM    cl2  265   4.244   4.304   0.614
    1TCM     h1  266   4.218   4.439   0.809
    1TCM    cl3  267   4.257   4.594   0.631
    1TCM     c1  268   2.574   5.253   3.761
    1TCM    cl1  269   2.601   5.246   3.937
    1TCM    cl2  270   2.710   5.338   3.684
    1TCM     h1  271   2.568   5.150   3.720
    1TCM    cl3  272   2.423   5.340   3.727
    1TCM     c1  273   2.827   1.888   3.006
    1TCM    cl1  274   2.997   1.837   2.984
    1TCM    cl2  275   2.749   1.782   3.125
    1TCM     h1  276   2.824   1.993   3.041
    1TCM    cl3  277   2.742   1.875   2.850
    1TCM     c1  278   0.683   3.118   5.017
    1TCM    cl1  279   0.814   3.203   4.931
    1TCM    cl2  280   0.694   2.944   4.984
    1TCM     h1  281   0.693   3.135   5.127
    1TCM    cl3  282   0.526   3.180   4.962
    1TCM     c1  283   4.598   3.541   2.149
    1TCM    cl1  284   4.541   3.653   2.023
    1TCM    cl2  285   4.459   3.460   2.224
    1TCM     h1  286   4.665   3.465   2.103
    1TCM    cl3  287   4.688   3.632   2.273
    1TCM     c1  288   5.264   3.641   4.907
    1TCM    cl1  289   5.090   3.674   4.889
    1TCM    cl2  290   5.339   3.775   4.997
    1TCM     h1  291   5.279   3.547   4.963
    1TCM    cl3  292   5.340   3.628   4.747
    1TCM     c1  293   2.193   1.171   3.483
    1TCM    cl1  294   2.290   1.309   3.541
    1TCM    cl2  295   2.237   1.134   3.315
    1TCM     h1  296   2.213   1.082   3.546
    1TCM    cl3  297   2.020   1.212   3.492
    1TCM     c1  298   1.370   1.928   2.758
    1TCM    cl1  299   1.517   1.961   2.663
    1TCM    cl2  300   1.231   1.910   2.647
    1TCM     h1  301   1.383   1.835   2.816
    1TCM    cl3  302   1.339   2.064   2.869
    1TCM     c1  303   3.116   4.714   4.806
    1TCM    cl1  304   3.179   4.820   4.678
    1TCM    cl2  305   3.179   4.549   4.782
    1TCM     h1  306   3.149   4.752   4.905
    1TCM    cl3  307   2.939   4.711   4.798
    1TCM     c1  308   2.705   2.471   2.026
    1TCM    cl1  309   2.624   2.441   1.871
    1TCM    cl2  310   2.660   2.632   2.086
    1TCM     h1  311   2.674   2.394   2.100
    1TCM    cl3  312   2.881   2.464   2.003
    1TCM     c1  313   2.731   2.029   5.067
    1TCM    cl1  314   2.833   1.936   5.178
    1TCM    cl2  315   2.828   2.080   4.926
    1TCM     h1  316   2.647   1.966   5.032
    1TCM    cl3  317   2.668   2.173   5.150
    1TCM     c1  318   5.034   0.256   1.347
    1TCM    cl1  319   4.903   0.139   1.315
    1TCM    cl2  320   4.974   0.384   1.455
    1TCM     h1  321   5.119   0.204   1.396
    1TCM    cl3  322   5.088   0.328   1.194
    1TCM     c1  323   3.038   0.851   1.250
    1TCM    cl1  324   3.136   0.707   1.217
    1TCM    cl2  325   2.874   0.827   1.185
    1TCM     h1  326   3.032   0.867   1.360
    1TCM    cl3  327   3.112   0.993   1.173
    1TCM     c1  328   3.953   3.228   1.877
    1TCM    cl1  329   3.871   3.072   1.855
    1TCM    cl2  330   3.946   3.276   2.048
    1TCM     h1  331   4.059   3.219   1.845
    1TCM    cl3  332   3.872   3.352   1.778
    1TCM     c1  333   1.064   0.960   3.685
    1TCM    cl1  334   0.964   0.814   3.668
    1TCM    cl2  335   1.004   1.058   3.820
    1TCM     h1  336   1.169   0.930   3.705
    1TCM    cl3  337   1.058   1.055   3.535
    1TCM     c1  338   2.845   3.642   3.462
    1TCM    cl1  339   2.967   3.707   3.350
    1TCM    cl2  340   2.859   3.726   3.618
    1TCM     h1  341   2.744   3.658   3.421
    1TCM    cl3  342   2.874   3.468   3.486
    1TCM     c1  343   0.240   0.937   2.400
    1TCM    cl1  344   0.366   0.824   2.456
    1TCM    cl2  345   0.265   0.973   2.227
    1TCM     h1  346   0.140   0.891   2.414
    1TCM    cl3  347   0.250   1.088   2.493
    1TCM     c1  348   4.958   2.025   2.127
    1TCM    cl1  349   4.793   2.034   2.192
    1TCM    cl2  350   4.979   1.871   2.040
    1TCM     h1  351   4.975   2.109   2.057
    1TCM    cl3  352   5.076   2.033   2.260
    1TCM     c1  353   1.232   3.540   2.267
    1TCM    cl1  354   1.285   3.552   2.436
    1TCM    cl2  355   1.161   3.695   2.216
    1TCM     h1  356   1.319   3.517   2.202
    1TCM    cl3  357   1.110   3.412   2.251
    1TCM     c1  358   3.875   1.445   2.065
    1TCM    cl1  359   3.828   1.274   2.080
    1TCM    cl2  360   3.764   1.527   1.953
    1TCM     h1  361   3.869   1.493   2.165
    1TCM    cl3  362   4.041   1.456   2.004
    1TCM     c1  363   0.855   2.256   2.098
    1TCM    cl1  364   0.758   2.339   1.975
    1TCM    cl2  365   0.888   2.368   2.233
    1TCM     h1  366   0.800   2.168   2.136
    1TCM    cl3  367   1.009   2.202   2.027
    1TCM     c1  368   2.253   3.791   1.773
    1TCM    cl1  369   2.310   3.952   1.820
    1TCM    cl2  370   2.113   3.807   1.664
    1TCM     h1  371   2.334   3.736   1.721
    1TCM    cl3  372   2.205   3.700   1.918
    1TCM     c1  373   1.032   4.558   1.179
    1TCM    cl1  374   1.206   4.524   1.159
    1TCM    cl2  375   0.956   4.576   1.019
    1TCM     h1  376   0.984   4.475   1.234
    1TCM    cl3  377   1.012   4.709   1.271
    1TCM     c1  378   0.236   1.274   4.796
    1TCM    cl1  379   0.108   1.212   4.690
    1TCM    cl2  380   0.314   1.138   4.881
    1TCM     h1  381   0.312   1.327   4.735
    1TCM    cl3  382   0.167   1.387   4.915
    1TCM     c1  383   1.334   3.887   4.786
    1TCM    cl1  384   1.172   3.957   4.800
    1TCM    cl2  385   1.457   4.014   4.811
    1TCM     h1  386   1.347   3.807   4.862
    1TCM    cl3  387   1.355   3.816   4.624
    1TCM     c1  388   0.312   0.754   4.846
    1TCM    cl1  389   0.449   0.867   4.854
    1TCM    cl2  390   0.333   0.626   4.967
    1TCM     h1  391   0.218   0.809   4.867
    1TCM    cl3  392   0.303   0.682   4.684
    1TCM     c1  393   1.098   4.299   2.230
    1TCM    cl1  394   1.087   4.265   2.404
    1TCM    cl2  395   1.118   4.147   2.140
    1TCM     h1  396   1.006   4.350   2.196
    1TCM    cl3  397   1.238   4.404   2.200
    1TCM     c1  398   3.704   4.136   0.163
    1TCM    cl1  399   3.599   4.132   0.306
    1TCM    cl2  400   3.682   4.290   0.077
    1TCM     h1  401   3.810   4.126   0.194
    1TCM    cl3  402   3.662   4.001   0.055
    1TCM     c1  403   1.562   1.514   1.327
    1TCM    cl1  404   1.708   1.448   1.249
    1TCM    cl2  405   1.605   1.577   1.488
    1TCM     h1  406   1.521   1.596   1.265
    1TCM    cl3  407   1.440   1.385   1.344
    1TCM     c1  408   3.474   0.640   2.331
    1TCM    cl1  409   3.574   0.734   2.444
    1TCM    cl2  410   3.552   0.636   2.171
    1TCM     h1  411   3.463   0.536   2.369
    1TCM    cl3  412   3.313   0.715   2.317
    1TCM     c1  413   0.180   0.667   2.015
    1TCM    cl1  414   0.224   0.529   1.912
    1TCM    cl2  415   0.254   0.646   2.176
    1TCM     h1  416   0.218   0.761   1.969
    1TCM    cl3  417   0.003   0.675   2.031
    1TCM     c1  418   3.885   2.602   1.124
    1TCM    cl1  419   3.742   2.624   1.226
    1TCM    cl2  420   3.968   2.758   1.103
    1TCM     h1  421   3.954   2.529   1.172
    1TCM    cl3  422   3.836   2.540   0.965
    1TCM     c1  423   4.943   1.738   3.400
    1TCM    cl1  424   4.964   1.602   3.513
    1TCM    cl2  425   5.004   1.691   3.240
    1TCM     h1  426   4.835   1.763   3.392
    1TCM    cl3  427   5.033   1.879   3.459
    1TCM     c1  428   1.988   3.598   2.431
    1TCM    cl1  429   1.846   3.521   2.356
    1TCM    cl2  430   2.006   3.763   2.368
    1TCM     h1  431   1.975   3.601   2.541
    1TCM    cl3  432   2.134   3.504   2.391
    1TCM     c1  433   0.579   0.242   4.872
    1TCM    cl1  434   0.467   0.325   4.761
    1TCM    cl2  435   0.492   0.197   5.021
    1TCM     h1  436   0.619   0.151   4.824
    1TCM    cl3  437   0.714   0.351   4.913
    1TCM     c1  438   4.493   0.573   4.489
    1TCM    cl1  439   4.506   0.457   4.623
    1TCM    cl2  440   4.448   0.488   4.340
    1TCM     h1  441   4.415   0.649   4.513
    1TCM    cl3  442   4.649   0.655   4.466
    1TCM     c1  443   3.822   4.695   1.634
    1TCM    cl1  444   3.749   4.653   1.791
    1TCM    cl2  445   3.799   4.561   1.520
    1TCM     h1  446   3.773   4.787   1.594
    1TCM    cl3  447   3.995   4.726   1.655
    1TCM     c1  448   4.491   4.586   4.901
    1TCM    cl1  449   4.622   4.513   4.806
    1TCM    cl2  450   4.533   4.583   5.073
    1TCM     h1  451   4.477   4.692   4.868
    1TCM    cl3  452   4.341   4.495   4.875
    1TCM     c1  453   4.042   4.375   1.759
    1TCM    cl1  454   3.967   4.450   1.902
    1TCM    cl2  455   4.005   4.473   1.615
    1TCM     h1  456   4.152   4.370   1.773
    1TCM    cl3  457   3.977   4.211   1.737
    1TCM     c1  458   3.832   4.056   3.405
    1TCM    cl1  459   3.679   4.078   3.493
    1TCM    cl2  460   3.936   3.943   3.496
    1TCM     h1  461   3.811   4.014   3.305
    1TCM    cl3  462   3.915   4.212   3.389
    1TCM     c1  463   0.386   0.916   3.442
    1TCM    cl1  464   0.266   0.867   3.320
    1TCM    cl2  465   0.493   0.779   3.479
    1TCM     h1  466   0.446   1.000   3.403
    1TCM    cl3  467   0.302   0.966   3.591
    1TCM     c1  468   3.050   2.659   2.848
    1TCM    cl1  469   2.932   2.526   2.844
    1TCM    cl2  470   3.131   2.662   3.006
    1TCM     h1  471   3.125   2.644   2.768
    1TCM    cl3  472   2.966   2.814   2.821
    1TCM     c1  473   3.686   2.373   2.412
    1TCM    cl1  474   3.560   2.498   2.405
    1TCM    cl2  475   3.697   2.310   2.578
    1TCM     h1  476   3.661   2.291   2.342
    1TCM    cl3  477   3.842   2.445   2.366
    1TCM     c1  478   4.985   0.695   2.443
    1TCM    cl1  479   5.089   0.687   2.587
    1TCM    cl2  480   4.822   0.747   2.492
    1TCM     h1  481   5.027   0.767   2.371
    1TCM    cl3  482   4.975   0.534   2.368
    1TCM     c1  483   0.345   0.158   3.107
    1TCM    cl1  484   0.512   0.215   3.083
    1TCM    cl2  485   0.237   0.298   3.123
    1TCM     h1  486   0.315   0.097   3.020
    1TCM    cl3  487   0.337   0.059   3.254
    1TCM     c1  488   5.095   3.654   1.338
    1TCM    cl1  489   5.058   3.730   1.494
    1TCM    cl2  490   5.142   3.779   1.221
    1TCM     h1  491   5.179   3.582   1.350
    1TCM    cl3  492   4.951   3.568   1.278
    1TCM     c1  493   1.533   3.302   0.919
    1TCM    cl1  494   1.647   3.221   0.809
    1TCM    cl2  495   1.366   3.265   0.868
    1TCM     h1  496   1.549   3.266   1.022
    1TCM    cl3  497   1.558   3.478   0.912
    1TCM     c1  498   2.836   4.442   4.158
    1TCM    cl1  499   2.668   4.384   4.165
    1TCM    cl2  500   2.876   4.524   4.311
    1TCM     h1  501   2.905   4.356   4.143
    1TCM    cl3  502   2.854   4.557   4.024
    1TCM     c1  503   4.635   1.680   0.311
    1TCM    cl1  504   4.535   1.826   0.327
    1TCM    cl2  505   4.727   1.689   0.159
    1TCM     h1  506   4.705   1.673   0.396
    1TCM    cl3  507   4.530   1.536   0.308
    1TCM     c1  508   2.941   4.788   4.478
    1TCM    cl1  509   2.908   4.870   4.633
    1TCM    cl2  510   2.807   4.819   4.365
    1TCM     h1  511   3.036   4.827   4.435
    1TCM    cl3  512   2.955   4.613   4.506
    1TCM     c1  513   3.804   4.110   2.128
    1TCM    cl1  514   3.732   4.219   2.249
    1TCM    cl2  515   3.927   4.198   2.034
    1TCM     h1  516   3.851   4.024   2.179
    1TCM    cl3  517   3.677   4.051   2.018
    1TCM     c1  518   0.868   0.192   3.422
    1TCM    cl1  519   0.963   0.090   3.311
    1TCM    cl2  520   0.699   0.195   3.369
    1TCM     h1  521   0.874   0.150   3.524
    1TCM    cl3  522   0.933   0.357   3.422
    1TCM     c1  523   0.959   1.368   2.690
    1TCM    cl1  524   0.854   1.390   2.548
    1TCM    cl2  525   0.864   1.301   2.824
    1TCM     h1  526   1.041   1.298   2.664
    1TCM    cl3  527   1.028   1.525   2.737
    1TCM     c1  528   1.383   0.776   2.415
    1TCM    cl1  529   1.209   0.798   2.385
    1TCM    cl2  530   1.463   0.728   2.264
    1TCM     h1  531   1.426   0.872   2.451
    1TCM    cl3  532   1.406   0.649   2.537
    1TCM     c1  533   2.926   1.232   3.871
    1TCM    cl1  534   2.969   1.392   3.807
    1TCM    cl2  535   3.035   1.189   4.004
    1TCM     h1  536   2.821   1.234   3.908
    1TCM    cl3  537   2.940   1.111   3.741
    1TCM     c1  538   4.621   5.123   1.285
    1TCM    cl1  539   4.547   5.143   1.124
    1TCM    cl2  540   4.655   5.283   1.355
    1TCM     h1  541   4.551   5.068   1.351
    1TCM    cl3  542   4.773   5.031   1.269
    1TCM     c1  543   0.533   4.439   0.334
    1TCM    cl1  544   0.394   4.444   0.445
    1TCM    cl2  545   0.476   4.457   0.167
    1TCM     h1  546   0.603   4.522   0.359
    1TCM    cl3  547   0.617   4.283   0.352
    1TCM     c1  548   2.377   3.429   2.219
    1TCM    cl1  549   2.490   3.566   2.217
    1TCM    cl2  550   2.345   3.381   2.388
    1TCM     h1  551   2.281   3.459   2.171
    1TCM    cl3  552   2.447   3.292   2.131
    1TCM     c1  553   0.403   3.182   1.115
    1TCM    cl1  554   0.302   3.327   1.132
    1TCM    cl2  555   0.418   3.140   0.943
    1TCM     h1  556   0.504   3.203   1.157
    1TCM    cl3  557   0.329   3.047   1.203
    1TCM     c1  558   3.364   3.641   1.043
    1TCM    cl1  559   3.478   3.761   0.978
    1TCM    cl2  560   3.390   3.624   1.219
    1TCM     h1  561   3.260   3.675   1.025
    1TCM    cl3  562   3.391   3.485   0.964
    1TCM     c1  563   3.198   3.032   4.934
    1TCM    cl1  564   3.346   3.129   4.912
    1TCM    cl2  565   3.099   3.104   5.062
    1TCM     h1  566   3.141   3.031   4.839
    1TCM    cl3  567   3.242   2.866   4.979
    1TCM     c1  568   1.125   1.350   1.874
    1TCM    cl1  569   1.145   1.468   2.005
    1TCM    cl2  570   1.201   1.412   1.726
    1TCM     h1  571   1.174   1.254   1.903
    1TCM    cl3  572   0.952   1.321   1.845
    1TCM     c1  573   1.962   2.593   4.736
    1TCM    cl1  574   1.990   2.419   4.714
    1TCM    cl2  575   2.001   2.639   4.903
    1TCM     h1  576   2.026   2.651   4.666
    1TCM    cl3  577   1.791   2.630   4.703
    1TCM     c1  578   2.156   4.160   4.113
    1TCM    cl1  579   2.049   4.060   4.012
    1TCM    cl2  580   2.141   4.110   4.283
    1TCM     h1  581   2.261   4.147   4.079
    1TCM    cl3  582   2.109   4.331   4.097
    1TCM     c1  583   0.784   0.359   0.170
    1TCM    cl1  584   0.753   0.303   0.004
    1TCM    cl2  585   0.919   0.267   0.240
    1TCM     h1  586   0.809   0.467   0.169
    1TCM    cl3  587   0.638   0.334   0.269
    1TCM     c1  588   1.140   0.607   2.971
    1TCM    cl1  589   1.209   0.653   2.813
    1TCM    cl2  590   1.241   0.675   3.101
    1TCM     h1  591   1.037   0.646   2.979
    1TCM    cl3  592   1.138   0.430   2.985
    1TCM     c1  593   4.494   3.253   3.331
    1TCM    cl1  594   4.626   3.364   3.286
    1TCM    cl2  595   4.519   3.197   3.498
    1TCM     h1  596   4.397   3.306   3.324
    1TCM    cl3  597   4.493   3.114   3.221
    1TCM     c1  598   3.242   4.837   5.240
    1TCM    cl1  599   3.357   4.745   5.340
    1TCM    cl2  600   3.163   4.961   5.340
    1TCM     h1  601   3.296   4.886   5.157
    1TCM    cl3  602   3.119   4.727   5.174
    1TCM     c1  603   1.752   0.094   3.623
    1TCM    cl1  604   1.681   0.169   3.477
    1TCM    cl2  605   1.760   0.215   3.753
    1TCM     h1  606   1.690   0.009   3.655
    1TCM    cl3  607   1.917   0.037   3.586
    1TCM     c1  608   0.961   0.843   4.017
    1TCM    cl1  609   0.940   0.742   4.162
    1TCM    cl2  610   0.858   0.988   4.030
    1TCM     h1  611   1.067   0.874   4.008
    1TCM    cl3  612   0.914   0.750   3.873
    1TCM     c1  613   2.056   5.144   2.412
    1TCM    cl1  614   1.963   5.067   2.281
    1TCM    cl2  615   1.944   5.206   2.535
    1TCM     h1  616   2.124   5.070   2.458
    1TCM    cl3  617   2.151   5.279   2.345
    1TCM     c1  618   1.115   1.356   2.313
    1TCM    cl1  619   1.171   1.201   2.247
    1TCM    cl2  620   1.154   1.363   2.487
    1TCM     h1  621   1.166   1.439   2.260
    1TCM    cl3  622   0.939   1.370   2.291
    1TCM     c1  623   1.627   1.644   0.185
    1TCM    cl1  624   1.508   1.721   0.292
    1TCM    cl2  625   1.601   1.698   0.018
    1TCM     h1  626   1.730   1.672   0.217
    1TCM    cl3  627   1.608   1.467   0.193
    1TCM     c1  628   4.233   3.112   2.492
    1TCM    cl1  629   4.290   2.978   2.391
    1TCM    cl2  630   4.073   3.165   2.434
    1TCM     h1  631   4.225   3.078   2.597
    1TCM    cl3  632   4.348   3.247   2.481
    1TCM     c1  633   2.925   4.777   1.466
    1TCM    cl1  634   2.776   4.746   1.373
    1TCM    cl2  635   3.051   4.838   1.356
    1TCM     h1  636   2.904   4.853   1.544
    1TCM    cl3  637   2.980   4.626   1.542
    1TCM     c1  638   4.320   2.471   3.329
    1TCM    cl1  639   4.494   2.507   3.322
    1TCM    cl2  640   4.251   2.539   3.478
    1TCM     h1  641   4.269   2.516   3.241
    1TCM    cl3  642   4.296   2.295   3.328
    1TCM     c1  643   4.324   0.806   3.688
    1TCM    cl1  644   4.174   0.902   3.703
    1TCM    cl2  645   4.305   0.687   3.557
    1TCM     h1  646   4.409   0.873   3.665
    1TCM    cl3  647   4.355   0.721   3.841
    1TCM     c1  648   4.259   1.021   3.317
    1TCM    cl1  649   4.433   0.990   3.313
    1TCM    cl2  650   4.191   0.958   3.469
    1TCM     h1  651   4.240   1.130   3.311
    1TCM    cl3  652   4.181   0.940   3.180
    1TCM     c1  653   2.136   0.303   3.270
    1TCM    cl1  654   2.057   0.270   3.427
    1TCM    cl2  655   2.068   0.195   3.146
    1TCM     h1  656   2.118   0.409   3.241
    1TCM    cl3  657   2.311   0.275   3.285
    1TCM     c1  658   0.535   4.478   3.667
    1TCM    cl1  659   0.423   4.541   3.543
    1TCM    cl2  660   0.441   4.396   3.794
    1TCM     h1  661   0.605   4.406   3.620
    1TCM    cl3  662   0.626   4.613   3.738
    1TCM     c1  663   0.272   1.934   4.812
    1TCM    cl1  664   0.254   2.110   4.832
    1TCM    cl2  665   0.386   1.901   4.680
    1TCM     h1  666   0.310   1.890   4.906
    1TCM    cl3  667   0.114   1.862   4.773
    1TCM     c1  668   1.065   5.186   5.229
    1TCM    cl1  669   1.198   5.241   5.334
    1TCM    cl2  670   0.936   5.114   5.328
    1TCM     h1  671   1.025   5.272   5.172
    1TCM    cl3  672   1.127   5.064   5.115
    1TCM     c1  673   0.851   2.161   1.197
    1TCM    cl1  674   0.776   2.305   1.268
    1TCM    cl2  675   0.725   2.040   1.161
    1TCM     h1  676   0.903   2.188   1.104
    1TCM    cl3  677   0.967   2.092   1.313
    1TCM     c1  678   4.830   1.661   2.370
    1TCM    cl1  679   4.954   1.608   2.486
    1TCM    cl2  680   4.871   1.599   2.208
    1TCM     h1  681   4.732   1.621   2.401
    1TCM    cl3  682   4.824   1.838   2.366
    1TCM     c1  683   2.940   1.348   2.594
    1TCM    cl1  684   2.864   1.195   2.546
    1TCM    cl2  685   3.037   1.322   2.741
    1TCM     h1  686   3.006   1.384   2.512
    1TCM    cl3  687   2.815   1.469   2.627
    1TCM     c1  688   3.185   0.531   2.625
    1TCM    cl1  689   3.222   0.705   2.609
    1TCM    cl2  690   3.222   0.478   2.790
    1TCM     h1  691   3.078   0.514   2.603
    1TCM    cl3  692   3.284   0.439   2.510
    1TCM     c1  693   2.406   4.738   1.123
    1TCM    cl1  694   2.308   4.659   1.249
    1TCM    cl2  695   2.344   4.694   0.963
    1TCM     h1  696   2.401   4.848   1.136
    1TCM    cl3  697   2.575   4.685   1.138
    1TCM     c1  698   0.569   3.441   4.085
    1TCM    cl1  699   0.443   3.445   4.210
    1TCM    cl2  700   0.570   3.596   3.997
    1TCM     h1  701   0.668   3.425   4.132
    1TCM    cl3  702   0.535   3.309   3.970
    1TCM     c1  703   2.536   0.085   1.730
    1TCM    cl1  704   2.573   0.241   1.807
    1TCM    cl2  705   2.678   0.028   1.640
    1TCM     h1  706   2.510   0.011   1.809
    1TCM    cl3  707   2.398   0.104   1.619
    1TCM     c1  708   2.662   4.919   3.684
    1TCM    cl1  709   2.534   4.884   3.802
    1TCM    cl2  710   2.593   5.014   3.550
    1TCM     h1  711   2.742   4.978   3.733
    1TCM    cl3  712   2.728   4.767   3.621
    1TCM     c1  713   3.644   3.587   4.858
    1TCM    cl1  714   3.624   3.591   5.035
    1TCM    cl2  715   3.645   3.418   4.802
    1TCM     h1  716   3.560   3.641   4.810
    1TCM    cl3  717   3.798   3.665   4.814
    1TCM     c1  718   1.775   0.313   4.683
    1TCM    cl1  719   1.777   0.175   4.795
    1TCM    cl2  720   1.610   0.334   4.620
    1TCM     h1  721   1.806   0.405   4.737
    1TCM    cl3  722   1.886   0.282   4.548
    1TCM     c1  723   3.430   3.782   1.905
    1TCM    cl1  724   3.312   3.909   1.945
    1TCM    cl2  725   3.531   3.836   1.769
    1TCM     h1  726   3.493   3.760   1.993
    1TCM    cl3  727   3.342   3.634   1.858
    1TCM     c1  728   0.194   2.806   2.238
    1TCM    cl1  729   0.059   2.708   2.298
    1TCM    cl2  730   0.251   2.741   2.083
    1TCM     h1  731   0.160   2.911   2.224
    1TCM    cl3  732   0.327   2.803   2.356
    1TCM     c1  733   1.833   0.936   3.563
    1TCM    cl1  734   1.860   0.799   3.674
    1TCM    cl2  735   1.865   1.088   3.648
    1TCM     h1  736   1.901   0.927   3.476
    1TCM    cl3  737   1.664   0.933   3.506
    1TCM     c1  738   1.444   4.584   3.682
    1TCM    cl1  739   1.403   4.432   3.766
    1TCM    cl2  740   1.369   4.585   3.521
    1TCM     h1  741   1.406   4.670   3.741
    1TCM    cl3  742   1.620   4.597   3.666
    1TCM     c1  743   1.329   3.232   3.553
    1TCM    cl1  744   1.252   3.173   3.404
    1TCM    cl2  745   1.295   3.118   3.686
    1TCM     h1  746   1.439   3.239   3.538
    1TCM    cl3  747   1.263   3.392   3.595
    1TCM     c1  748   4.872   2.355   2.497
    1TCM    cl1  749   4.729   2.461   2.512
    1TCM    cl2  750   4.906   2.326   2.325
    1TCM     h1  751   4.959   2.405   2.544
    1TCM    cl3  752   4.840   2.201   2.579
    1TCM     c1  753   2.402   1.366   1.866
    1TCM    cl1  754   2.413   1.503   1.979
    1TCM    cl2  755   2.495   1.403   1.719
    1TCM     h1  756   2.443   1.275   1.914
    1TCM    cl3  757   2.231   1.339   1.822
    1TCM     c1  758   1.348   0.162   3.716
    1TCM    cl1  759   1.255   0.278   3.618
    1TCM    cl2  760   1.294   0.171   3.885
    1TCM     h1  761   1.331   0.060   3.677
    1TCM    cl3  762   1.521   0.202   3.707
    1TCM     c1  763   4.316   3.778   2.738
    1TCM    cl1  764   4.349   3.656   2.863
    1TCM    cl2  765   4.331   3.941   2.808
    1TCM     h1  766   4.389   3.767   2.655
    1TCM    cl3  767   4.151   3.755   2.676
    1TCM     c1  768   4.478   1.308   4.014
    1TCM    cl1  769   4.318   1.237   3.984
    1TCM    cl2  770   4.594   1.247   3.893
    1TCM     h1  771   4.472   1.418   4.006
    1TCM    cl3  772   4.533   1.263   4.177
    1TCM     c1  773   3.866   1.984   2.606
    1TCM    cl1  774   3.972   1.963   2.465
    1TCM    cl2  775   3.954   2.071   2.734
    1TCM     h1  776   3.776   2.042   2.577
    1TCM    cl3  777   3.816   1.824   2.667
    1TCM     c1  778   4.970   4.096   3.355
    1TCM    cl1  779   5.143   4.119   3.326
    1TCM    cl2  780   4.911   4.222   3.466
    1TCM     h1  781   4.915   4.102   3.259
    1TCM    cl3  782   4.942   3.936   3.429
    1TCM     c1  783   0.457   1.847   0.577
    1TCM    cl1  784   0.286   1.808   0.607
    1TCM    cl2  785   0.560   1.719   0.645
    1TCM     h1  786   0.475   1.854   0.468
    1TCM    cl3  787   0.497   2.002   0.654
    1TCM     c1  788   3.682   1.802   3.652
    1TCM    cl1  789   3.644   1.863   3.815
    1TCM    cl2  790   3.580   1.884   3.532
    1TCM     h1  791   3.789   1.822   3.629
    1TCM    cl3  792   3.652   1.627   3.646
    1TCM     c1  793   1.453   2.430   2.986
    1TCM    cl1  794   1.386   2.317   3.106
    1TCM    cl2  795   1.378   2.590   3.006
    1TCM     h1  796   1.563   2.438   3.000
    1TCM    cl3  797   1.419   2.369   2.822
    1TCM     c1  798   0.319   3.067   0.175
    1TCM    cl1  799   0.181   2.989   0.256
    1TCM    cl2  800   0.274   3.108   0.008
    1TCM     h1  801   0.346   3.160   0.230
    1TCM    cl3  802   0.457   2.956   0.174
    1TCM     c1  803   0.817   4.640   5.036
    1TCM    cl1  804   0.754   4.630   4.871
    1TCM    cl2  805   0.771   4.493   5.126
    1TCM     h1  806   0.928   4.648   5.033
    1TCM    cl3  807   0.750   4.783   5.117
    1TCM     c1  808   4.670   4.880   0.163
    1TCM    cl1  809   4.699   5.023   0.062
    1TCM    cl2  810   4.668   4.928   0.335
    1TCM     h1  811   4.572   4.835   0.137
    1TCM    cl3  812   4.800   4.761   0.137
    1TCM     c1  813   0.839   1.508   0.675
    1TCM    cl1  814   0.682   1.424   0.662
    1TCM    cl2  815   0.961   1.421   0.579
    1TCM     h1  816   0.828   1.611   0.636
    1TCM    cl3  817   0.889   1.513   0.845
    1TCM     c1  818   2.403   0.400   3.572
    1TCM    cl1  819   2.411   0.575   3.601
    1TCM    cl2  820   2.394   0.314   3.728
    1TCM     h1  821   2.313   0.376   3.511
    1TCM    cl3  822   2.549   0.348   3.485
    1TCM     c1  823   0.586   1.488   3.480
    1TCM    cl1  824   0.760   1.524   3.478
    1TCM    cl2  825   0.494   1.640   3.486
    1TCM     h1  826   0.559   1.431   3.389
    1TCM    cl3  827   0.548   1.390   3.624
    1TCM     c1  828   0.297   4.504   5.057
    1TCM    cl1  829   0.388   4.619   5.157
    1TCM    cl2  830   0.404   4.436   4.933
    1TCM     h1  831   0.258   4.422   5.122
    1TCM    cl3  832   0.160   4.587   4.979
    1TCM     c1  833   4.305   1.420   2.219
    1TCM    cl1  834   4.399   1.553   2.292
    1TCM    cl2  835   4.336   1.416   2.044
    1TCM     h1  836   4.336   1.324   2.264
    1TCM    cl3  837   4.132   1.447   2.248
    1TCM     c1  838   1.488   0.687   1.785
    1TCM    cl1  839   1.606   0.554   1.795
    1TCM    cl2  840   1.468   0.760   1.945
    1TCM     h1  841   1.524   0.763   1.713
    1TCM    cl3  842   1.332   0.622   1.729
    1TCM     c1  843   0.172   5.113   3.480
    1TCM    cl1  844   0.273   5.239   3.555
    1TCM    cl2  845   0.035   5.075   3.587
    1TCM     h1  846   0.134   5.149   3.383
    1TCM    cl3  847   0.269   4.966   3.455
    1TCM     c1  848   2.040   1.737   3.497
    1TCM    cl1  849   1.880   1.676   3.450
    1TCM    cl2  850   2.107   1.835   3.365
    1TCM     h1  851   2.030   1.800   3.588
    1TCM    cl3  852   2.148   1.601   3.530
    1TCM     c1  853   2.654   3.593   3.825
    1TCM    cl1  854   2.490   3.602   3.893
    1TCM    cl2  855   2.744   3.461   3.904
    1TCM     h1  856   2.648   3.573   3.716
    1TCM    cl3  857   2.738   3.747   3.852
    1TCM     c1  858   0.855   1.378   3.746
    1TCM    cl1  859   1.025   1.334   3.713
    1TCM    cl2  860   0.822   1.356   3.920
    1TCM     h1  861   0.838   1.483   3.718
    1TCM    cl3  862   0.748   1.272   3.652
    1TCM     c1  863   0.796   4.427   1.939
    1TCM    cl1  864   0.777   4.350   1.780
    1TCM    cl2  865   0.668   4.369   2.049
    1TCM     h1  866   0.895   4.401   1.982
    1TCM    cl3  867   0.783   4.603   1.922
    1TCM     c1  868   3.738   4.168   2.611
    1TCM    cl1  869   3.598   4.193   2.503
    1TCM    cl2  870   3.681   4.140   2.777
    1TCM     h1  871   3.797   4.081   2.576
    1TCM    cl3  872   3.841   4.313   2.608
    1TCM     c1  873   0.626   2.551   3.544
    1TCM    cl1  874   0.735   2.532   3.404
    1TCM    cl2  875   0.552   2.394   3.582
    1TCM     h1  876   0.684   2.586   3.631
    1TCM    cl3  877   0.499   2.669   3.504
    1TCM     c1  878   1.697   3.958   1.811
    1TCM    cl1  879   1.832   3.906   1.707
    1TCM    cl2  880   1.751   3.959   1.981
    1TCM     h1  881   1.665   4.060   1.782
    1TCM    cl3  882   1.561   3.845   1.793
    1TCM     c1  883   1.622   1.470   2.641
    1TCM    cl1  884   1.702   1.320   2.589
    1TCM    cl2  885   1.742   1.583   2.706
    1TCM     h1  886   1.570   1.516   2.554
    1TCM    cl3  887   1.502   1.432   2.767
    1TCM     c1  888   3.955   0.136   4.041
    1TCM    cl1  889   3.849   0.054   4.158
    1TCM    cl2  890   3.897   0.106   3.876
    1TCM     h1  891   3.955   0.245   4.061
    1TCM    cl3  892   4.121   0.073   4.057
    1TCM     c1  893   0.161   4.566   4.578
    1TCM    cl1  894   0.258   4.553   4.430
    1TCM    cl2  895   0.264   4.619   4.713
    1TCM     h1  896   0.079   4.639   4.562
    1TCM    cl3  897   0.091   4.407   4.616
    1TCM     c1  898   0.983   1.842   0.804
    1TCM    cl1  899   1.052   1.959   0.690
    1TCM    cl2  900   0.994   1.907   0.970
    1TCM     h1  901   0.876   1.824   0.779
    1TCM    cl3  902   1.073   1.689   0.794
    1TCM     c1  903   2.695   2.815   0.416
    1TCM    cl1  904   2.636   2.969   0.352
    1TCM    cl2  905   2.658   2.684   0.301
    1TCM     h1  906   2.805   2.820   0.431
    1TCM    cl3  907   2.615   2.781   0.572
    1TCM     c1  908   3.671   1.388   3.450
    1TCM    cl1  909   3.519   1.438   3.372
    1TCM    cl2  910   3.736   1.245   3.365
    1TCM     h1  911   3.744   1.471   3.445
    1TCM    cl3  912   3.639   1.347   3.620
    1TCM     c1  913   3.504   0.340   1.962
    1TCM    cl1  914   3.348   0.285   1.898
    1TCM    cl2  915   3.608   0.393   1.827
    1TCM     h1  916   3.488   0.425   2.032
    1TCM    cl3  917   3.584   0.206   2.048
    1TCM     c1  918   4.139   2.675   1.526
    1TCM    cl1  919   4.131   2.815   1.635
    1TCM    cl2  920   4.251   2.709   1.392
    1TCM     h1  921   4.175   2.586   1.583
    1TCM    cl3  922   3.977   2.641   1.461
    1TCM     c1  923   2.974   4.256   2.666
    1TCM    cl1  924   2.961   4.325   2.829
    1TCM    cl2  925   2.964   4.079   2.676
    1TCM     h1  926   2.891   4.294   2.603
    1TCM    cl3  927   3.129   4.303   2.593
    1TCM     c1  928   4.462   1.114   2.767
    1TCM    cl1  929   4.351   0.992   2.699
    1TCM    cl2  930   4.495   1.074   2.937
    1TCM     h1  931   4.557   1.113   2.709
    1TCM    cl3  932   4.387   1.275   2.757
    1TCM     c1  933   1.003   2.051   5.081
    1TCM    cl1  934   1.013   2.220   5.135
    1TCM    cl2  935   0.964   1.947   5.221
    1TCM     h1  936   0.924   2.041   5.004
    1TCM    cl3  937   1.159   2.001   5.013
    1TCM     c1  938   2.368   4.610   4.641
    1TCM    cl1  939   2.249   4.742   4.648
    1TCM    cl2  940   2.401   4.552   4.806
    1TCM     h1  941   2.328   4.527   4.580
    1TCM    cl3  942   2.519   4.671   4.569
    1TCM     c1  943   2.416   5.182   5.018
    1TCM    cl1  944   2.336   5.340   5.006
    1TCM    cl2  945   2.446   5.143   5.189
    1TCM     h1  946   2.351   5.104   4.973
    1TCM    cl3  947   2.571   5.186   4.931
    1TCM     c1  948   2.007   1.263   3.046
    1TCM    cl1  949   1.886   1.391   3.065
    1TCM    cl2  950   2.145   1.325   2.951
    1TCM     h1  951   2.043   1.231   3.146
    1TCM    cl3  952   1.935   1.125   2.961
    1TCM     c1  953   1.924   2.224   5.145
    1TCM    cl1  954   2.026   2.274   5.283
    1TCM    cl2  955   1.908   2.047   5.144
    1TCM     h1  956   1.824   2.270   5.155
    1TCM    cl3  957   2.000   2.278   4.994
    1TCM     c1  958   2.302   1.883   1.668
    1TCM    cl1  959   2.227   2.025   1.745
    1TCM    cl2  960   2.372   1.931   1.512
    1TCM     h1  961   2.382   1.844   1.734
    1TCM    cl3  962   2.179   1.758   1.643
    1TCM     c1  963   2.678   2.643   0.857
    1TCM    cl1  964   2.838   2.666   0.932
    1TCM    cl2  965   2.698   2.594   0.687
    1TCM     h1  966   2.622   2.564   0.912
    1TCM    cl3  967   2.586   2.795   0.865
    1TCM     c1  968   3.056   1.871   1.999
    1TCM    cl1  969   3.129   1.758   2.115
    1TCM    cl2  970   3.184   1.965   1.919
    1TCM     h1  971   2.999   1.814   1.923
    1TCM    cl3  972   2.946   1.981   2.085
    1TCM     c1  973   4.640   4.588   2.753
    1TCM    cl1  974   4.540   4.733   2.778
    1TCM    cl2  975   4.699   4.585   2.585
    1TCM     h1  976   4.727   4.591   2.822
    1TCM    cl3  977   4.543   4.443   2.785
    1TCM     c1  978   3.241   0.404   4.832
    1TCM    cl1  979   3.130   0.308   4.932
    1TCM    cl2  980   3.179   0.413   4.666
    1TCM     h1  981   3.250   0.506   4.874
    1TCM    cl3  982   3.402   0.327   4.832
    1TCM     c1  983   3.972   3.988   4.127
    1TCM    cl1  984   4.119   4.020   4.220
    1TCM    cl2  985   3.911   4.141   4.058
    1TCM     h1  986   3.995   3.917   4.045
    1TCM    cl3  987   3.848   3.918   4.233
    1TCM     c1  988   2.028   1.429   2.625
    1TCM    cl1  989   2.156   1.306   2.608
    1TCM    cl2  990   2.102   1.589   2.647
    1TCM     h1  991   1.965   1.429   2.533
    1TCM    cl3  992   1.928   1.390   2.766
    1TCM     c1  993   2.676   0.474   0.146
    1TCM    cl1  994   2.514   0.540   0.113
    1TCM    cl2  995   2.710   0.484   0.320
    1TCM     h1  996   2.679   0.367   0.114
    1TCM    cl3  997   2.797   0.567   0.056
    1TCM     c1  998   2.415   2.916   2.048
    1TCM    cl1  999   2.584   2.938   1.997
    1TCM    cl2 1000   2.395   2.978   2.214
    1TCM     h1 1001   2.349   2.972   1.979
    1TCM    cl3 1002   2.374   2.743   2.043
    1TCM     c1 1003   1.089   4.947   1.612
    1TCM    cl1 1004   0.992   5.054   1.716
    1TCM    cl2 1005   1.086   5.007   1.445
    1TCM     h1 1006   1.194   4.945   1.649
    1TCM    cl3 1007   1.023   4.782   1.618
    1TCM     c1 1008   4.238   2.313   4.424
    1TCM    cl1 1009   4.335   2.449   4.485
    1TCM    cl2 1010   4.345   2.182   4.372
    1TCM     h1 1011   4.170   2.277   4.504
    1TCM    cl3 1012   4.140   2.368   4.285
    1TCM     c1 1013   1.885   5.084   5.192
    1TCM    cl1 1014   1.740   5.166   5.254
    1TCM    cl2 1015   1.837   4.937   5.105
    1TCM     h1 1016   1.939   5.152   5.123
    1TCM    cl3 1017   1.991   5.041   5.328
    1TCM     c1 1018   3.442   3.801   0.559
    1TCM    cl1 1019   3.337   3.707   0.451
    1TCM    cl2 1020   3.343   3.887   0.679
    1TCM     h1 1021   3.512   3.732   0.611
    1TCM    cl3 1022   3.535   3.919   0.463
    1TCM     c1 1023   4.665   0.991   1.077
    1TCM    cl1 1024   4.582   0.861   0.988
    1TCM    cl2 1025   4.747   0.923   1.219
    1TCM     h1 1026   4.739   1.040   1.010
    1TCM    cl3 1027   4.545   1.112   1.130
    1TCM     c1 1028   4.178   1.899   1.997
    1TCM    cl1 1029   4.292   1.797   2.087
    1TCM    cl2 1030   4.208   2.070   2.036
    1TCM     h1 1031   4.191   1.883   1.888
    1TCM    cl3 1032   4.011   1.857   2.044
    1TCM     c1 1033   4.121   1.729   0.140
    1TCM    cl1 1034   4.235   1.768   0.010
    1TCM    cl2 1035   4.067   1.880   0.219
    1TCM     h1 1036   4.033   1.676   0.098
    1TCM    cl3 1037   4.201   1.626   0.261
    1TCM     c1 1038   4.004   3.259   4.815
    1TCM    cl1 1039   4.064   3.099   4.865
    1TCM    cl2 1040   3.827   3.263   4.831
    1TCM     h1 1041   4.049   3.336   4.880
    1TCM    cl3 1042   4.050   3.289   4.646
    1TCM     c1 1043   1.199   0.497   3.847
    1TCM    cl1 1044   1.181   0.623   3.722
    1TCM    cl2 1045   1.204   0.573   4.007
    1TCM     h1 1046   1.112   0.428   3.842
    1TCM    cl3 1047   1.349   0.406   3.819
    1TCM     c1 1048   3.584   0.357   1.432
    1TCM    cl1 1049   3.558   0.190   1.486
    1TCM    cl2 1050   3.690   0.441   1.548
    1TCM     h1 1051   3.633   0.356   1.332
    1TCM    cl3 1052   3.428   0.441   1.421
    1TCM     c1 1053   1.281   0.159   4.253
    1TCM    cl1 1054   1.238   0.225   4.412
    1TCM    cl2 1055   1.246   0.281   4.127
    1TCM     h1 1056   1.389   0.134   4.251
    1TCM    cl3 1057   1.185   0.013   4.221
    1TCM     c1 1058   2.257   1.082   4.193
    1TCM    cl1 1059   2.362   1.223   4.221
    1TCM    cl2 1060   2.155   1.055   4.336
    1TCM     h1 1061   2.193   1.101   4.105
    1TCM    cl3 1062   2.358   0.938   4.163
    1TCM     c1 1063   3.352   0.773   0.421
    1TCM    cl1 1064   3.314   0.833   0.258
    1TCM    cl2 1065   3.216   0.808   0.530
    1TCM     h1 1066   3.369   0.664   0.417
    1TCM    cl3 1067   3.498   0.854   0.481
    1TCM     c1 1068   1.664   2.215   2.752
    1TCM    cl1 1069   1.679   2.078   2.864
    1TCM    cl2 1070   1.510   2.203   2.665
    1TCM     h1 1071   1.667   2.310   2.809
    1TCM    cl3 1072   1.798   2.211   2.635
    1TCM     c1 1073   4.949   4.026   4.671
    1TCM    cl1 1074   5.110   4.096   4.701
    1TCM    cl2 1075   4.939   3.867   4.749
    1TCM     h1 1076   4.872   4.093   4.713
    1TCM    cl3 1077   4.924   4.008   4.496
    1TCM     c1 1078   1.025   0.973   2.668
    1TCM    cl1 1079   1.021   1.091   2.801
    1TCM    cl2 1080   1.117   0.830   2.719
    1TCM     h1 1081   0.921   0.942   2.642
    1TCM    cl3 1082   1.103   1.046   2.526
    1TCM     c1 1083   4.715   0.978   3.665
    1TCM    cl1 1084   4.795   0.860   3.558
    1TCM    cl2 1085   4.621   1.092   3.566
    1TCM     h1 1086   4.648   0.925   3.735
    1TCM    cl3 1087   4.838   1.068   3.757
    1TCM     c1 1088   5.093   4.817   0.642
    1TCM    cl1 1089   4.950   4.908   0.587
    1TCM    cl2 1090   5.083   4.649   0.584
    1TCM     h1 1091   5.185   4.865   0.603
    1TCM    cl3 1092   5.098   4.818   0.820
    1TCM     c1 1093   0.721   3.377   0.349
    1TCM    cl1 1094   0.791   3.442   0.500
    1TCM    cl2 1095   0.778   3.473   0.211
    1TCM     h1 1096   0.753   3.271   0.336
    1TCM    cl3 1097   0.544   3.384   0.358
    1TCM     c1 1098   1.222   2.490   4.734
    1TCM    cl1 1099   1.300   2.362   4.831
    1TCM    cl2 1100   1.252   2.459   4.562
    1TCM     h1 1101   1.113   2.489   4.754
    1TCM    cl3 1102   1.289   2.648   4.779
    1TCM     c1 1103   1.606   4.114   0.106
    1TCM    cl1 1104   1.711   4.232   0.188
    1TCM    cl2 1105   1.447   4.113   0.186
    1TCM     h1 1106   1.593   4.143   0.000
    1TCM    cl3 1107   1.679   3.953   0.116
    1TCM     c1 1108   0.691   3.259   0.722
    1TCM    cl1 1109   0.697   3.118   0.830
    1TCM    cl2 1110   0.676   3.204   0.554
    1TCM     h1 1111   0.603   3.322   0.748
    1TCM    cl3 1112   0.839   3.355   0.741
    1TCM     c1 1113   4.258   1.649   2.612
    1TCM    cl1 1114   4.173   1.556   2.737
    1TCM    cl2 1115   4.203   1.597   2.451
    1TCM     h1 1116   4.237   1.757   2.625
    1TCM    cl3 1117   4.433   1.621   2.627
    1TCM     c1 1118   2.070   0.616   4.417
    1TCM    cl1 1119   2.008   0.758   4.330
    1TCM    cl2 1120   2.012   0.619   4.585
    1TCM     h1 1121   2.034   0.523   4.367
    1TCM    cl3 1122   2.248   0.619   4.416
    1TCM     c1 1123   0.452   0.140   2.555
    1TCM    cl1 1124   0.336   0.138   2.421
    1TCM    cl2 1125   0.366   0.125   2.709
    1TCM     h1 1126   0.523   0.056   2.543
    1TCM    cl3 1127   0.542   0.294   2.552
    1TCM     c1 1128   1.838   4.590   4.429
    1TCM    cl1 1129   1.896   4.440   4.503
    1TCM    cl2 1130   1.973   4.705   4.412
    1TCM     h1 1131   1.796   4.568   4.328
    1TCM    cl3 1132   1.712   4.662   4.532
    1TCM     c1 1133   4.259   4.652   1.490
    1TCM    cl1 1134   4.343   4.808   1.508
    1TCM    cl2 1135   4.184   4.607   1.645
    1TCM     h1 1136   4.180   4.662   1.413
    1TCM    cl3 1137   4.375   4.527   1.442
    1TCM     c1 1138   1.098   2.625   0.560
    1TCM    cl1 1139   0.926   2.585   0.581
    1TCM    cl2 1140   1.170   2.517   0.439
    1TCM     h1 1141   1.107   2.730   0.525
    1TCM    cl3 1142   1.183   2.606   0.715
    1TCM     c1 1143   1.389   1.044   4.329
    1TCM    cl1 1144   1.472   1.140   4.454
    1TCM    cl2 1145   1.430   1.109   4.168
    1TCM     h1 1146   1.421   0.938   4.336
    1TCM    cl3 1147   1.213   1.054   4.354
    1TCM     c1 1148   1.901   1.539   0.895
    1TCM    cl1 1149   1.855   1.418   1.017
    1TCM    cl2 1150   1.816   1.505   0.743
    1TCM     h1 1151   1.872   1.640   0.932
    1TCM    cl3 1152   2.076   1.533   0.868
    1TCM     c1 1153   1.271   4.600   1.448
    1TCM    cl1 1154   1.392   4.672   1.339
    1TCM    cl2 1155   1.275   4.683   1.605
    1TCM     h1 1156   1.170   4.610   1.403
    1TCM    cl3 1157   1.308   4.427   1.471
    1TCM     c1 1158   5.102   2.788   2.551
    1TCM    cl1 1159   5.067   2.619   2.597
    1TCM    cl2 1160   5.184   2.790   2.394
    1TCM     h1 1161   5.007   2.845   2.544
    1TCM    cl3 1162   5.207   2.862   2.674
    1TCM     c1 1163   0.910   2.457   0.228
    1TCM    cl1 1164   1.086   2.435   0.236
    1TCM    cl2 1165   0.859   2.456   0.058
    1TCM     h1 1166   0.860   2.374   0.282
    1TCM    cl3 1167   0.866   2.612   0.303
    1TCM     c1 1168   3.659   4.779   3.336
    1TCM    cl1 1169   3.571   4.819   3.187
    1TCM    cl2 1170   3.660   4.921   3.443
    1TCM     h1 1171   3.609   4.694   3.387
    1TCM    cl3 1172   3.826   4.734   3.296
    1TCM     c1 1173   2.155   1.042   2.439
    1TCM    cl1 1174   2.164   0.947   2.289
    1TCM    cl2 1175   2.146   0.932   2.578
    1TCM     h1 1176   2.245   1.105   2.448
    1TCM    cl3 1177   2.010   1.145   2.435
    1TCM     c1 1178   0.693   4.579   4.492
    1TCM    cl1 1179   0.863   4.617   4.457
    1TCM    cl2 1180   0.595   4.727   4.481
    1TCM     h1 1181   0.656   4.504   4.418
    1TCM    cl3 1182   0.680   4.511   4.656
    1TCM     c1 1183   2.055   4.865   3.925
    1TCM    cl1 1184   2.006   4.819   4.090
    1TCM    cl2 1185   1.927   4.821   3.810
    1TCM     h1 1186   2.072   4.975   3.921
    1TCM    cl3 1187   2.206   4.780   3.883
    1TCM     c1 1188   1.198   0.290   1.264
    1TCM    cl1 1189   1.348   0.385   1.260
    1TCM    cl2 1190   1.092   0.340   1.130
    1TCM     h1 1191   1.223   0.182   1.253
    1TCM    cl3 1192   1.115   0.317   1.419
    1TCM     c1 1193   2.550   3.124   1.092
    1TCM    cl1 1194   2.687   3.016   1.056
    1TCM    cl2 1195   2.520   3.124   1.268
    1TCM     h1 1196   2.574   3.227   1.059
    1TCM    cl3 1197   2.405   3.066   1.007
    1TCM     c1 1198   1.015   3.618   1.111
    1TCM    cl1 1199   0.852   3.667   1.163
    1TCM    cl2 1200   1.135   3.726   1.185
    1TCM     h1 1201   1.034   3.514   1.143
    1TCM    cl3 1202   1.026   3.629   0.934
    1TCM     c1 1203   3.770   2.385   2.052
    1TCM    cl1 1204   3.833   2.455   1.901
    1TCM    cl2 1205   3.677   2.239   2.015
    1TCM     h1 1206   3.855   2.359   2.118
    1TCM    cl3 1207   3.666   2.504   2.133
    1TCM     c1 1208   2.731   2.456   1.267
    1TCM    cl1 1209   2.805   2.606   1.204
    1TCM    cl2 1210   2.860   2.341   1.309
    1TCM     h1 1211   2.672   2.480   1.358
    1TCM    cl3 1212   2.626   2.385   1.143
    1TCM     c1 1213   2.747   3.497   4.295
    1TCM    cl1 1214   2.652   3.491   4.145
    1TCM    cl2 1215   2.754   3.664   4.354
    1TCM     h1 1216   2.698   3.433   4.372
    1TCM    cl3 1217   2.911   3.438   4.263
    1TCM     c1 1218   1.141   2.837   4.156
    1TCM    cl1 1219   1.280   2.941   4.116
    1TCM    cl2 1220   1.197   2.669   4.178
    1TCM     h1 1221   1.094   2.872   4.250
    1TCM    cl3 1222   1.023   2.843   4.023
    1TCM     c1 1223   1.534   2.987   3.476
    1TCM    cl1 1224   1.603   3.033   3.633
    1TCM    cl2 1225   1.367   2.929   3.500
    1TCM     h1 1226   1.533   3.075   3.409
    1TCM    cl3 1227   1.632   2.858   3.403
    1TCM     c1 1228   3.814   4.825   3.991
    1TCM    cl1 1229   3.783   4.663   4.059
    1TCM    cl2 1230   3.714   4.849   3.846
    1TCM     h1 1231   3.789   4.902   4.067
    1TCM    cl3 1232   3.986   4.838   3.947
    1TCM     c1 1233   0.184   3.224   0.515
    1TCM    cl1 1234   0.077   3.116   0.423
    1TCM    cl2 1235   0.189   3.172   0.686
    1TCM     h1 1236   0.287   3.219   0.473
    1TCM    cl3 1237   0.124   3.390   0.506
    1TCM     c1 1238   1.454   2.343   5.150
    1TCM    cl1 1239   1.485   2.248   5.297
    1TCM    cl2 1240   1.405   2.234   5.018
    1TCM     h1 1241   1.373   2.416   5.169
    1TCM    cl3 1242   1.602   2.430   5.103
    1TCM     c1 1243   0.295   1.906   3.056
    1TCM    cl1 1244   0.251   1.827   2.903
    1TCM    cl2 1245   0.239   1.806   3.192
    1TCM     h1 1246   0.405   1.918   3.062
    1TCM    cl3 1247   0.218   2.066   3.064
    1TCM     c1 1248   3.648   0.274   5.048
    1TCM    cl1 1249   3.609   0.170   4.909
    1TCM    cl2 1250   3.684   0.439   4.990
    1TCM     h1 1251   3.561   0.278   5.117
    1TCM    cl3 1252   3.789   0.209   5.134
    1TCM     c1 1253   1.775   2.759   2.159
    1TCM    cl1 1254   1.793   2.918   2.082
    1TCM    cl2 1255   1.602   2.726   2.186
    1TCM     h1 1256   1.818   2.681   2.093
    1TCM    cl3 1257   1.860   2.759   2.315
    1TCM     c1 1258   4.207   0.600   4.285
    1TCM    cl1 1259   4.208   0.697   4.434
    1TCM    cl2 1260   4.343   0.648   4.181
    1TCM     h1 1261   4.217   0.492   4.311
    1TCM    cl3 1262   4.054   0.626   4.198
    1TCM     c1 1263   0.345   3.834   1.616
    1TCM    cl1 1264   0.399   3.758   1.464
    1TCM    cl2 1265   0.222   3.731   1.693
    1TCM     h1 1266   0.431   3.846   1.684
    1TCM    cl3 1267   0.274   3.994   1.580
    1TCM     c1 1268   0.229   1.662   0.887
    1TCM    cl1 1269   0.344   1.778   0.817
    1TCM    cl2 1270   0.071   1.740   0.906
    1TCM     h1 1271   0.219   1.574   0.820
    1TCM    cl3 1272   0.288   1.608   1.046
    1TCM     c1 1273   3.683   2.602   2.896
    1TCM    cl1 1274   3.527   2.577   2.978
    1TCM    cl2 1275   3.790   2.699   3.000
    1TCM     h1 1276   3.730   2.504   2.876
    1TCM    cl3 1277   3.656   2.688   2.743
    1TCM     c1 1278   0.273   4.865   2.885
    1TCM    cl1 1279   0.216   5.031   2.856
    1TCM    cl2 1280   0.160   4.781   2.994
    1TCM     h1 1281   0.278   4.810   2.788
    1TCM    cl3 1282   0.435   4.869   2.959
    1TCM     c1 1283   0.125   4.630   2.455
    1TCM    cl1 1284   0.072   4.547   2.307
    1TCM    cl2 1285   0.028   4.573   2.593
    1TCM     h1 1286   0.232   4.608   2.474
    1TCM    cl3 1287   0.103   4.806   2.437
    1TCM     c1 1288   0.537   2.477   2.325
    1TCM    cl1 1289   0.397   2.400   2.403
    1TCM    cl2 1290   0.499   2.647   2.289
    1TCM     h1 1291   0.624   2.473   2.393
    1TCM    cl3 1292   0.575   2.392   2.173
    1TCM     c1 1293   0.669   4.057   2.907
    1TCM    cl1 1294   0.573   3.926   2.835
    1TCM    cl2 1295   0.790   4.114   2.790
    1TCM     h1 1296   0.602   4.141   2.935
    1TCM    cl3 1297   0.752   3.997   3.053
    1TCM     c1 1298   2.411   0.714   3.974
    1TCM    cl1 1299   2.271   0.670   4.074
    1TCM    cl2 1300   2.398   0.638   3.814
    1TCM     h1 1301   2.415   0.825   3.963
    1TCM    cl3 1302   2.560   0.659   4.054
    1TCM     c1 1303   1.856   2.092   2.174
    1TCM    cl1 1304   2.013   2.013   2.201
    1TCM    cl2 1305   1.787   2.141   2.330
    1TCM     h1 1306   1.870   2.182   2.110
    1TCM    cl3 1307   1.746   1.978   2.094
    1TCM     c1 1308   0.888   3.183   2.433
    1TCM    cl1 1309   0.988   3.205   2.287
    1TCM    cl2 1310   0.722   3.238   2.401
    1TCM     h1 1311   0.887   3.076   2.461
    1TCM    cl3 1312   0.957   3.278   2.566
    1TCM     c1 1313   4.715   3.699   3.110
    1TCM    cl1 1314   4.833   3.644   3.231
    1TCM    cl2 1315   4.741   3.872   3.076
    1TCM     h1 1316   4.727   3.641   3.017
    1TCM    cl3 1317   4.550   3.675   3.173
    1TCM     c1 1318   4.254   1.104   4.548
    1TCM    cl1 1319   4.197   1.221   4.426
    1TCM    cl2 1320   4.265   0.943   4.474
    1TCM     h1 1321   4.354   1.135   4.584
    1TCM    cl3 1322   4.140   1.099   4.684
    1TCM     c1 1323   0.150   3.143   4.662
    1TCM    cl1 1324   0.233   3.191   4.811
    1TCM    cl2 1325   0.256   3.173   4.523
    1TCM     h1 1326   0.125   3.035   4.667
    1TCM    cl3 1327   0.000   3.237   4.644
    1TCM     c1 1328   1.190   1.922   0.376
    1TCM    cl1 1329   1.299   1.939   0.236
    1TCM    cl2 1330   1.282   1.943   0.526
    1TCM     h1 1331   1.110   1.999   0.370
    1TCM    cl3 1332   1.116   1.760   0.373
    1TCM     c1 1333   1.931   2.137   1.775
    1TCM    cl1 1334   2.035   2.065   1.899
    1TCM    cl2 1335   1.973   2.308   1.754
    1TCM     h1 1336   1.945   2.083   1.679
    1TCM    cl3 1337   1.761   2.124   1.825
    1TCM     c1 1338   2.599   4.503   3.880
    1TCM    cl1 1339   2.427   4.463   3.856
    1TCM    cl2 1340   2.641   4.646   3.783
    1TCM     h1 1341   2.617   4.525   3.987
    1TCM    cl3 1342   2.699   4.365   3.830
    1TCM     c1 1343   3.260   0.617   1.759
    1TCM    cl1 1344   3.402   0.592   1.863
    1TCM    cl2 1345   3.299   0.564   1.593
    1TCM     h1 1346   3.175   0.557   1.797
    1TCM    cl3 1347   3.216   0.789   1.758
    1TCM     c1 1348   2.461   4.827   4.923
    1TCM    cl1 1349   2.507   4.959   5.033
    1TCM    cl2 1350   2.523   4.862   4.760
    1TCM     h1 1351   2.504   4.732   4.960
    1TCM    cl3 1352   2.284   4.813   4.918
    1TCM     c1 1353   2.660   1.873   3.437
    1TCM    cl1 1354   2.631   1.730   3.335
    1TCM    cl2 1355   2.809   1.955   3.383
    1TCM     h1 1356   2.575   1.943   3.428
    1TCM    cl3 1357   2.678   1.823   3.606
    1TCM     c1 1358   0.867   1.712   4.913
    1TCM    cl1 1359   1.018   1.707   5.007
    1TCM    cl2 1360   0.728   1.710   5.025
    1TCM     h1 1361   0.864   1.804   4.852
    1TCM    cl3 1362   0.859   1.569   4.807
    1TCM     c1 1363   3.148   1.157   3.117
    1TCM    cl1 1364   3.060   1.075   3.248
    1TCM    cl2 1365   3.321   1.118   3.128
    1TCM     h1 1366   3.109   1.123   3.019
    1TCM    cl3 1367   3.126   1.333   3.132
    1TCM     c1 1368   3.756   0.812   1.694
    1TCM    cl1 1369   3.663   0.690   1.785
    1TCM    cl2 1370   3.777   0.755   1.526
    1TCM     h1 1371   3.700   0.908   1.694
    1TCM    cl3 1372   3.915   0.834   1.770
    1TCM     c1 1373   0.488   0.347   0.652
    1TCM    cl1 1374   0.590   0.235   0.746
    1TCM    cl2 1375   0.584   0.488   0.603
    1TCM     h1 1376   0.449   0.295   0.562
    1TCM    cl3 1377   0.351   0.400   0.752
    1TCM     c1 1378   0.855   3.826   3.749
    1TCM    cl1 1379   1.012   3.857   3.826
    1TCM    cl2 1380   0.725   3.887   3.853
    1TCM     h1 1381   0.851   3.877   3.651
    1TCM    cl3 1382   0.834   3.651   3.725
    1TCM     c1 1383   5.229   4.244   4.442
    1TCM    cl1 1384   5.177   4.401   4.507
    1TCM    cl2 1385   5.340   4.166   4.557
    1TCM     h1 1386   5.141   4.179   4.426
    1TCM    cl3 1387   5.313   4.269   4.287
    1TCM     c1 1388   3.754   1.791   0.945
    1TCM    cl1 1389   3.864   1.847   1.073
    1TCM    cl2 1390   3.832   1.810   0.786
    1TCM     h1 1391   3.730   1.684   0.962
    1TCM    cl3 1392   3.605   1.887   0.949
    1TCM     c1 1393   3.420   4.490   3.787
    1TCM    cl1 1394   3.549   4.444   3.673
    1TCM    cl2 1395   3.484   4.489   3.953
    1TCM     h1 1396   3.383   4.591   3.762
    1TCM    cl3 1397   3.286   4.373   3.775
    1TCM     c1 1398   1.748   4.744   3.268
    1TCM    cl1 1399   1.732   4.601   3.373
    1TCM    cl2 1400   1.696   4.702   3.103
    1TCM     h1 1401   1.685   4.826   3.307
    1TCM    cl3 1402   1.918   4.796   3.265
    1TCM     c1 1403   2.555   0.570   2.623
    1TCM    cl1 1404   2.632   0.471   2.497
    1TCM    cl2 1405   2.552   0.740   2.573
    1TCM     h1 1406   2.451   0.534   2.640
    1TCM    cl3 1407   2.647   0.554   2.775
    1TCM     c1 1408   3.327   2.131   4.221
    1TCM    cl1 1409   3.425   2.214   4.344
    1TCM    cl2 1410   3.252   2.252   4.115
    1TCM     h1 1411   3.392   2.064   4.161
    1TCM    cl3 1412   3.200   2.036   4.301
    1TCM     c1 1413   2.974   2.474   0.609
    1TCM    cl1 1414   2.863   2.346   0.664
    1TCM    cl2 1415   3.062   2.540   0.748
    1TCM     h1 1416   3.046   2.431   0.536
    1TCM    cl3 1417   2.880   2.603   0.531
    1TCM     c1 1418   1.587   0.432   5.023
    1TCM    cl1 1419   1.717   0.527   4.947
    1TCM    cl2 1420   1.657   0.294   5.109
    1TCM     h1 1421   1.532   0.496   5.095
    1TCM    cl3 1422   1.475   0.374   4.898
    1TCM     c1 1423   0.745   1.632   1.689
    1TCM    cl1 1424   0.788   1.752   1.564
    1TCM    cl2 1425   0.666   1.715   1.825
    1TCM     h1 1426   0.676   1.557   1.646
    1TCM    cl3 1427   0.893   1.551   1.746
    1TCM     c1 1428   4.967   3.184   0.282
    1TCM    cl1 1429   4.888   3.208   0.439
    1TCM    cl2 1430   4.999   3.011   0.257
    1TCM     h1 1431   4.900   3.221   0.201
    1TCM    cl3 1432   5.121   3.273   0.278
    1TCM     c1 1433   0.679   1.716   4.023
    1TCM    cl1 1434   0.698   1.577   3.914
    1TCM    cl2 1435   0.511   1.726   4.079
    1TCM     h1 1436   0.747   1.704   4.110
    1TCM    cl3 1437   0.722   1.866   3.937
    1TCM     c1 1438   0.968   0.788   0.431
    1TCM    cl1 1439   1.075   0.671   0.512
    1TCM    cl2 1440   0.941   0.928   0.538
    1TCM     h1 1441   1.015   0.822   0.337
    1TCM    cl3 1442   0.812   0.710   0.395
    1TCM     c1 1443   3.490   4.929   4.864
    1TCM    cl1 1444   3.350   4.985   4.770
    1TCM    cl2 1445   3.452   4.773   4.941
    1TCM     h1 1446   3.577   4.916   4.795
    1TCM    cl3 1447   3.530   5.049   4.988
    1TCM     c1 1448   3.097   3.878   3.599
    1TCM    cl1 1449   3.020   3.849   3.757
    1TCM    cl2 1450   3.201   3.739   3.558
    1TCM     h1 1451   3.018   3.890   3.521
    1TCM    cl3 1452   3.195   4.025   3.607
    1TCM     c1 1453   2.920   4.268   3.256
    1TCM    cl1 1454   2.990   4.134   3.350
    1TCM    cl2 1455   2.957   4.246   3.084
    1TCM     h1 1456   2.810   4.269   3.270
    1TCM    cl3 1457   2.989   4.422   3.313
    1TCM     c1 1458   3.471   1.368   2.744
    1TCM    cl1 1459   3.587   1.447   2.635
    1TCM    cl2 1460   3.492   1.432   2.909
    1TCM     h1 1461   3.368   1.388   2.710
    1TCM    cl3 1462   3.500   1.192   2.745
    1TCM     c1 1463   4.573   2.104   5.136
    1TCM    cl1 1464   4.414   2.181   5.114
    1TCM    cl2 1465   4.581   2.031   5.298
    1TCM     h1 1466   4.587   2.025   5.060
    1TCM    cl3 1467   4.701   2.227   5.120
    1TCM     c1 1468   3.174   2.244   0.796
    1TCM    cl1 1469   3.200   2.282   0.968
    1TCM    cl2 1470   3.033   2.136   0.780
    1TCM     h1 1471   3.156   2.338   0.740
    1TCM    cl3 1472   3.318   2.163   0.731
    1TCM     c1 1473   4.648   4.836   1.535
    1TCM    cl1 1474   4.750   4.831   1.389
    1TCM    cl2 1475   4.741   4.908   1.669
    1TCM     h1 1476   4.558   4.897   1.515
    1TCM    cl3 1477   4.600   4.671   1.579
    1TCM     c1 1478   4.673   0.718   3.261
    1TCM    cl1 1479   4.574   0.634   3.140
    1TCM    cl2 1480   4.576   0.747   3.408
    1TCM     h1 1481   4.761   0.655   3.287
    1TCM    cl3 1482   4.729   0.873   3.195
    1TCM     c1 1483   3.557   2.218   0.452
    1TCM    cl1 1484   3.580   2.046   0.490
    1TCM    cl2 1485   3.503   2.234   0.283
    1TCM     h1 1486   3.480   2.260   0.519
    1TCM    cl3 1487   3.710   2.305   0.474
    1TCM     c1 1488   1.758   0.160   2.740
    1TCM    cl1 1489   1.875   0.293   2.729
    1TCM    cl2 1490   1.839   0.015   2.804
    1TCM     h1 1491   1.675   0.189   2.808
    1TCM    cl3 1492   1.692   0.124   2.579
    1TCM     c1 1493   1.321   4.626   5.113
    1TCM    cl1 1494   1.219   4.734   5.210
    1TCM    cl2 1495   1.491   4.675   5.129
    1TCM     h1 1496   1.309   4.521   5.149
    1TCM    cl3 1497   1.272   4.635   4.942
    1TCM     c1 1498   5.135   0.288   4.508
    1TCM    cl1 1499   5.081   0.154   4.405
    1TCM    cl2 1500   5.131   0.238   4.678
    1TCM     h1 1501   5.239   0.316   4.480
    1TCM    cl3 1502   5.029   0.428   4.484
    1TCM     c1 1503   4.331   4.866   0.277
    1TCM    cl1 1504   4.322   4.808   0.109
    1TCM    cl2 1505   4.318   4.727   0.388
    1TCM     h1 1506   4.428   4.917   0.294
    1TCM    cl3 1507   4.198   4.979   0.309
    1TCM     c1 1508   0.622   2.550   3.911
    1TCM    cl1 1509   0.520   2.641   3.797
    1TCM    cl2 1510   0.548   2.555   4.073
    1TCM     h1 1511   0.630   2.445   3.877
    1TCM    cl3 1512   0.783   2.624   3.917
    1TCM     c1 1513   4.161   1.324   1.675
    1TCM    cl1 1514   4.173   1.497   1.710
    1TCM    cl2 1515   4.171   1.232   1.827
    1TCM     h1 1516   4.063   1.302   1.626
    1TCM    cl3 1517   4.294   1.275   1.567
    1TCM     c1 1518   1.358   4.919   0.344
    1TCM    cl1 1519   1.522   4.858   0.377
    1TCM    cl2 1520   1.341   4.951   0.170
    1TCM     h1 1521   1.284   4.843   0.375
    1TCM    cl3 1522   1.332   5.070   0.435
    1TCM     c1 1523   3.301   1.042   4.034
    1TCM    cl1 1524   3.294   1.208   3.972
    1TCM    cl2 1525   3.270   1.043   4.209
    1TCM     h1 1526   3.223   0.980   3.984
    1TCM    cl3 1527   3.461   0.973   4.003
    1TCM     c1 1528   4.652   3.552   3.717
    1TCM    cl1 1529   4.537   3.647   3.619
    1TCM    cl2 1530   4.770   3.474   3.610
    1TCM     h1 1531   4.704   3.619   3.788
    1TCM    cl3 1532   4.563   3.427   3.808
    1TCM     c1 1533   1.350   0.893   0.632
    1TCM    cl1 1534   1.470   0.834   0.515
    1TCM    cl2 1535   1.334   0.776   0.764
    1TCM     h1 1536   1.384   0.990   0.673
    1TCM    cl3 1537   1.194   0.914   0.551
    1TCM     c1 1538   1.178   2.088   1.067
    1TCM    cl1 1539   1.213   2.218   1.183
    1TCM    cl2 1540   1.328   2.042   0.982
    1TCM     h1 1541   1.138   2.000   1.121
    1TCM    cl3 1542   1.058   2.144   0.949
    1TCM     c1 1543   3.488   3.074   2.390
    1TCM    cl1 1544   3.531   2.922   2.472
    1TCM    cl2 1545   3.509   3.054   2.215
    1TCM     h1 1546   3.382   3.099   2.412
    1TCM    cl3 1547   3.593   3.205   2.449
    1TCM     c1 1548   3.243   3.553   2.839
    1TCM    cl1 1549   3.332   3.675   2.746
    1TCM    cl2 1550   3.089   3.622   2.895
    1TCM     h1 1551   3.223   3.465   2.775
    1TCM    cl3 1552   3.339   3.503   2.980
    1TCM     c1 1553   1.350   1.164   0.261
    1TCM    cl1 1554   1.305   1.310   0.352
    1TCM    cl2 1555   1.252   1.027   0.317
    1TCM     h1 1556   1.332   1.181   0.153
    1TCM    cl3 1557   1.523   1.129   0.288
    1TCM     c1 1558   3.056   0.245   0.892
    1TCM    cl1 1559   3.093   0.096   0.981
    1TCM    cl2 1560   2.919   0.215   0.781
    1TCM     h1 1561   3.028   0.326   0.963
    1TCM    cl3 1562   3.198   0.296   0.798
    1TCM     c1 1563   1.926   3.383   1.072
    1TCM    cl1 1564   2.050   3.497   1.127
    1TCM    cl2 1565   1.883   3.273   1.205
    1TCM     h1 1566   1.835   3.440   1.041
    1TCM    cl3 1567   1.987   3.290   0.934
    1TCM     c1 1568   2.959   3.787   1.998
    1TCM    cl1 1569   2.867   3.935   1.961
    1TCM    cl2 1570   2.998   3.784   2.171
    1TCM     h1 1571   2.897   3.698   1.972
    1TCM    cl3 1572   3.109   3.785   1.903
    1TCM     c1 1573   4.649   0.582   4.112
    1TCM    cl1 1574   4.682   0.645   3.950
    1TCM    cl2 1575   4.671   0.712   4.232
    1TCM     h1 1576   4.545   0.544   4.117
    1TCM    cl3 1577   4.762   0.449   4.148
    1TCM     c1 1578   4.663   3.028   4.776
    1TCM    cl1 1579   4.587   2.894   4.865
    1TCM    cl2 1580   4.837   3.032   4.814
    1TCM     h1 1581   4.649   3.013   4.667
    1TCM    cl3 1582   4.589   3.182   4.825
    1TCM     c1 1583   1.068   4.710   2.396
    1TCM    cl1 1584   1.147   4.593   2.288
    1TCM    cl2 1585   1.090   4.659   2.565
    1TCM     h1 1586   1.113   4.810   2.382
    1TCM    cl3 1587   0.895   4.717   2.359
    1TCM     c1 1588   5.126   0.224   0.373
    1TCM    cl1 1589   5.037   0.332   0.263
    1TCM    cl2 1590   5.255   0.315   0.454
    1TCM     h1 1591   5.056   0.184   0.449
    1TCM    cl3 1592   5.197   0.090   0.281
    1TCM     c1 1593   4.625   0.499   3.679
    1TCM    cl1 1594   4.463   0.473   3.749
    1TCM    cl2 1595   4.609   0.538   3.506
    1TCM     h1 1596   4.674   0.583   3.731
    1TCM    cl3 1597   4.722   0.351   3.698
    1TCM     c1 1598   3.603   5.120   4.456
    1TCM    cl1 1599   3.605   5.008   4.318
    1TCM    cl2 1600   3.668   5.278   4.406
    1TCM     h1 1601   3.499   5.132   4.492
    1TCM    cl3 1602   3.704   5.053   4.587
    1TCM     c1 1603   1.476   1.934   1.669
    1TCM    cl1 1604   1.325   1.948   1.576
    1TCM    cl2 1605   1.498   2.080   1.769
    1TCM     h1 1606   1.471   1.845   1.735
    1TCM    cl3 1607   1.613   1.918   1.558
    1TCM     c1 1608   3.308   1.746   2.819
    1TCM    cl1 1609   3.388   1.758   2.660
    1TCM    cl2 1610   3.133   1.728   2.796
    1TCM     h1 1611   3.348   1.658   2.874
    1TCM    cl3 1612   3.341   1.894   2.912
    1TCM     c1 1613   3.623   0.427   0.539
    1TCM    cl1 1614   3.454   0.421   0.591
    1TCM    cl2 1615   3.629   0.433   0.361
    1TCM     h1 1616   3.672   0.517   0.580
    1TCM    cl3 1617   3.708   0.282   0.596
    1TCM     c1 1618   0.600   1.392   2.021
    1TCM    cl1 1619   0.473   1.445   1.909
    1TCM    cl2 1620   0.536   1.393   2.187
    1TCM     h1 1621   0.633   1.290   1.994
    1TCM    cl3 1622   0.739   1.503   2.011
    1TCM     c1 1623   2.798   3.784   1.357
    1TCM    cl1 1624   2.852   3.653   1.465
    1TCM    cl2 1625   2.627   3.759   1.316
    1TCM     h1 1626   2.810   3.881   1.409
    1TCM    cl3 1627   2.895   3.782   1.208
    1TCM     c1 1628   2.425   2.580   4.367
    1TCM    cl1 1629   2.295   2.532   4.256
    1TCM    cl2 1630   2.389   2.519   4.530
    1TCM     h1 1631   2.521   2.537   4.332
    1TCM    cl3 1632   2.437   2.757   4.372
    1TCM     c1 1633   0.608   2.359   0.915
    1TCM    cl1 1634   0.575   2.267   0.767
    1TCM    cl2 1635   0.544   2.272   1.056
    1TCM     h1 1636   0.718   2.372   0.927
    1TCM    cl3 1637   0.531   2.519   0.904
    1TCM     c1 1638   2.512   0.499   1.642
    1TCM    cl1 1639   2.393   0.449   1.519
    1TCM    cl2 1640   2.464   0.434   1.800
    1TCM     h1 1641   2.612   0.459   1.614
    1TCM    cl3 1642   2.518   0.676   1.650
    1TCM     c1 1643   2.453   3.638   0.162
    1TCM    cl1 1644   2.618   3.603   0.105
    1TCM    cl2 1645   2.349   3.675   0.023
    1TCM     h1 1646   2.413   3.549   0.216
    1TCM    cl3 1647   2.457   3.778   0.273
    1TCM     c1 1648   0.157   3.460   4.967
    1TCM    cl1 1649   0.324   3.461   5.028
    1TCM    cl2 1650   0.063   3.336   5.052
    1TCM     h1 1651   0.111   3.560   4.985
    1TCM    cl3 1652   0.157   3.426   4.793
    1TCM     c1 1653   3.993   1.939   1.653
    1TCM    cl1 1654   4.064   2.073   1.745
    1TCM    cl2 1655   3.818   1.965   1.635
    1TCM     h1 1656   4.040   1.934   1.552
    1TCM    cl3 1657   4.022   1.786   1.738
    1TCM     c1 1658   2.253   2.840   2.751
    1TCM    cl1 1659   2.312   2.673   2.734
    1TCM    cl2 1660   2.233   2.912   2.590
    1TCM     h1 1661   2.156   2.840   2.805
    1TCM    cl3 1662   2.372   2.935   2.844
    1TCM     c1 1663   4.483   2.900   0.788
    1TCM    cl1 1664   4.338   2.841   0.703
    1TCM    cl2 1665   4.569   3.016   0.685
    1TCM     h1 1666   4.453   2.949   0.882
    1TCM    cl3 1667   4.590   2.762   0.824
    1TCM     c1 1668   5.122   4.347   1.799
    1TCM    cl1 1669   4.955   4.389   1.841
    1TCM    cl2 1670   5.138   4.336   1.622
    1TCM     h1 1671   5.190   4.426   1.837
    1TCM    cl3 1672   5.165   4.191   1.872
    1TCM     c1 1673   3.245   1.716   3.801
    1TCM    cl1 1674   3.391   1.757   3.708
    1TCM    cl2 1675   3.259   1.784   3.965
    1TCM     h1 1676   3.156   1.759   3.751
    1TCM    cl3 1677   3.229   1.539   3.812
    1TCM     c1 1678   0.953   3.802   2.438
    1TCM    cl1 1679   1.002   3.640   2.491
    1TCM    cl2 1680   0.935   3.803   2.260
    1TCM     h1 1681   0.856   3.829   2.485
    1TCM    cl3 1682   1.077   3.920   2.485
    1TCM     c1 1683   3.056   4.175   2.281
    1TCM    cl1 1684   3.059   4.037   2.169
    1TCM    cl2 1685   3.061   4.114   2.449
    1TCM     h1 1686   3.145   4.239   2.263
    1TCM    cl3 1687   2.908   4.269   2.256
    1TCM     c1 1688   1.402   3.085   2.272
    1TCM    cl1 1689   1.368   2.945   2.168
    1TCM    cl2 1690   1.432   3.030   2.438
    1TCM     h1 1691   1.492   3.138   2.234
    1TCM    cl3 1692   1.263   3.196   2.270
    1TCM     c1 1693   4.607   0.169   5.176
    1TCM    cl1 1694   4.617   0.149   5.000
    1TCM    cl2 1695   4.752   0.099   5.252
    1TCM     h1 1696   4.601   0.276   5.201
    1TCM    cl3 1697   4.463   0.085   5.237
    1TCM     c1 1698   4.169   4.967   2.373
    1TCM    cl1 1699   4.191   5.124   2.292
    1TCM    cl2 1700   4.099   4.993   2.534
    1TCM     h1 1701   4.101   4.904   2.312
    1TCM    cl3 1702   4.326   4.885   2.389
    1TCM     c1 1703   1.370   5.059   3.077
    1TCM    cl1 1704   1.519   4.977   3.025
    1TCM    cl2 1705   1.399   5.143   3.231
    1TCM     h1 1706   1.339   5.132   3.000
    1TCM    cl3 1707   1.240   4.939   3.099
    1TCM     c1 1708   3.406   5.007   3.783
    1TCM    cl1 1709   3.232   5.041   3.802
    1TCM    cl2 1710   3.467   5.088   3.638
    1TCM     h1 1711   3.461   5.044   3.872
    1TCM    cl3 1712   3.431   4.831   3.768
    1TCM     c1 1713   3.633   2.187   4.871
    1TCM    cl1 1714   3.555   2.323   4.954
    1TCM    cl2 1715   3.792   2.156   4.945
    1TCM     h1 1716   3.569   2.096   4.880
    1TCM    cl3 1717   3.655   2.227   4.699
    1TCM     c1 1718   4.845   4.255   2.536
    1TCM    cl1 1719   4.949   4.359   2.437
    1TCM    cl2 1720   4.865   4.297   2.708
    1TCM     h1 1721   4.739   4.270   2.507
    1TCM    cl3 1722   4.890   4.085   2.512
    1TCM     c1 1723   4.985   3.139   2.465
    1TCM    cl1 1724   5.067   3.048   2.336
    1TCM    cl2 1725   5.066   3.109   2.620
    1TCM     h1 1726   4.990   3.248   2.442
    1TCM    cl3 1727   4.815   3.088   2.475
    1TCM     c1 1728   1.450   2.323   0.932
    1TCM    cl1 1729   1.321   2.375   0.821
    1TCM    cl2 1730   1.504   2.159   0.888
    1TCM     h1 1731   1.536   2.393   0.925
    1TCM    cl3 1732   1.388   2.322   1.099
    1TCM     c1 1733   1.136   1.975   4.049
    1TCM    cl1 1734   1.277   1.896   3.976
    1TCM    cl2 1735   1.171   2.014   4.218
    1TCM     h1 1736   1.112   2.068   3.993
    1TCM    cl3 1737   0.996   1.864   4.042
    1TCM     c1 1738   4.089   3.550   1.357
    1TCM    cl1 1739   4.179   3.406   1.409
    1TCM    cl2 1740   4.051   3.536   1.184
    1TCM     h1 1741   3.995   3.558   1.415
    1TCM    cl3 1742   4.189   3.695   1.383
    1TCM     c1 1743   0.244   5.170   2.135
    1TCM    cl1 1744   0.331   5.015   2.132
    1TCM    cl2 1745   0.338   5.292   2.046
    1TCM     h1 1746   0.144   5.157   2.087
    1TCM    cl3 1747   0.222   5.222   2.303
    1TCM     c1 1748   1.339   2.533   1.756
    1TCM    cl1 1749   1.367   2.708   1.745
    1TCM    cl2 1750   1.210   2.487   1.641
    1TCM     h1 1751   1.432   2.479   1.731
    1TCM    cl3 1752   1.288   2.491   1.921
    1TCM     c1 1753   0.919   2.357   4.161
    1TCM    cl1 1754   0.872   2.285   4.006
    1TCM    cl2 1755   0.945   2.228   4.281
    1TCM     h1 1756   1.014   2.414   4.148
    1TCM    cl3 1757   0.791   2.466   4.218
    1TCM     c1 1758   1.097   0.914   5.178
    1TCM    cl1 1759   1.215   0.894   5.046
    1TCM    cl2 1760   1.183   0.914   5.334
    1TCM     h1 1761   1.043   1.009   5.165
    1TCM    cl3 1762   0.982   0.779   5.175
    1TCM     c1 1763   3.673   2.979   1.032
    1TCM    cl1 1764   3.814   3.075   0.979
    1TCM    cl2 1765   3.719   2.808   1.043
    1TCM     h1 1766   3.639   3.015   1.131
    1TCM    cl3 1767   3.542   2.997   0.914
    1TCM     c1 1768   3.671   5.012   3.008
    1TCM    cl1 1769   3.503   5.054   2.968
    1TCM    cl2 1770   3.695   5.026   3.184
    1TCM     h1 1771   3.692   4.908   2.976
    1TCM    cl3 1772   3.782   5.123   2.924
    1TCM     c1 1773   4.637   3.187   5.173
    1TCM    cl1 1774   4.539   3.268   5.297
    1TCM    cl2 1775   4.709   3.309   5.065
    1TCM     h1 1776   4.718   3.129   5.222
    1TCM    cl3 1777   4.534   3.077   5.078
    1TCM     c1 1778   4.467   2.832   2.982
    1TCM    cl1 1779   4.376   2.981   3.017
    1TCM    cl2 1780   4.534   2.841   2.817
    1TCM     h1 1781   4.550   2.822   3.055
    1TCM    cl3 1782   4.359   2.692   2.995
    1TCM     c1 1783   2.269   4.530   3.635
    1TCM    cl1 1784   2.417   4.615   3.682
    1TCM    cl2 1785   2.145   4.552   3.761
    1TCM     h1 1786   2.231   4.571   3.539
    1TCM    cl3 1787   2.303   4.357   3.616
    1TCM     c1 1788   3.609   2.245   0.928
    1TCM    cl1 1789   3.544   2.261   0.763
    1TCM    cl2 1790   3.503   2.139   1.024
    1TCM     h1 1791   3.711   2.201   0.923
    1TCM    cl3 1792   3.618   2.405   1.004
    1TCM     c1 1793   2.332   2.088   2.613
    1TCM    cl1 1794   2.164   2.108   2.667
    1TCM    cl2 1795   2.437   2.063   2.755
    1TCM     h1 1796   2.340   2.000   2.546
    1TCM    cl3 1797   2.384   2.234   2.526
    1TCM     c1 1798   2.977   2.927   3.461
    1TCM    cl1 1799   3.018   3.025   3.604
    1TCM    cl2 1800   2.996   3.025   3.314
    1TCM     h1 1801   3.045   2.839   3.456
    1TCM    cl3 1802   2.809   2.871   3.474
    1TCM     c1 1803   5.031   1.933   1.666
    1TCM    cl1 1804   4.963   2.064   1.766
    1TCM    cl2 1805   5.052   1.991   1.499
    1TCM     h1 1806   5.129   1.902   1.707
    1TCM    cl3 1807   4.919   1.794   1.667
    1TCM     c1 1808   1.705   1.386   3.455
    1TCM    cl1 1809   1.715   1.547   3.381
    1TCM    cl2 1810   1.554   1.307   3.405
    1TCM     h1 1811   1.791   1.324   3.421
    1TCM    cl3 1812   1.708   1.401   3.632
    1TCM     c1 1813   3.425   4.179   2.224
    1TCM    cl1 1814   3.304   4.236   2.107
    1TCM    cl2 1815   3.356   4.049   2.323
    1TCM     h1 1816   3.514   4.140   2.169
    1TCM    cl3 1817   3.474   4.314   2.329
    1TCM     c1 1818   2.075   3.577   0.471
    1TCM    cl1 1819   1.964   3.476   0.567
    1TCM    cl2 1820   2.237   3.570   0.543
    1TCM     h1 1821   2.079   3.539   0.367
    1TCM    cl3 1822   2.017   3.745   0.470
    1TCM     c1 1823   4.650   2.156   3.247
    1TCM    cl1 1824   4.640   2.090   3.411
    1TCM    cl2 1825   4.521   2.276   3.223
    1TCM     h1 1826   4.749   2.205   3.232
    1TCM    cl3 1827   4.632   2.024   3.128
    1TCM     c1 1828   2.452   3.934   1.504
    1TCM    cl1 1829   2.326   3.845   1.414
    1TCM    cl2 1830   2.545   4.035   1.391
    1TCM     h1 1831   2.405   3.998   1.581
    1TCM    cl3 1832   2.561   3.818   1.582
    1TCM     c1 1833   1.029   4.932   4.689
    1TCM    cl1 1834   1.047   5.107   4.662
    1TCM    cl2 1835   0.926   4.862   4.562
    1TCM     h1 1836   1.128   4.883   4.687
    1TCM    cl3 1837   0.953   4.904   4.848
    1TCM     c1 1838   3.702   3.202   3.764
    1TCM    cl1 1839   3.789   3.053   3.808
    1TCM    cl2 1840   3.680   3.207   3.588
    1TCM     h1 1841   3.603   3.203   3.814
    1TCM    cl3 1842   3.796   3.343   3.816
    1TCM     c1 1843   3.775   3.879   1.266
    1TCM    cl1 1844   3.890   4.016   1.261
    1TCM    cl2 1845   3.661   3.903   1.400
    1TCM     h1 1846   3.720   3.875   1.170
    1TCM    cl3 1847   3.865   3.728   1.290
    1TCM     c1 1848   2.507   1.313   3.948
    1TCM    cl1 1849   2.670   1.367   3.998
    1TCM    cl2 1850   2.501   1.298   3.771
    1TCM     h1 1851   2.485   1.215   3.994
    1TCM    cl3 1852   2.387   1.432   4.002
    1TCM     c1 1853   2.155   3.681   4.868
    1TCM    cl1 1854   2.283   3.758   4.965
    1TCM    cl2 1855   2.047   3.589   4.974
    1TCM     h1 1856   2.097   3.759   4.814
    1TCM    cl3 1857   2.230   3.571   4.750
    1TCM     c1 1858   4.339   3.872   3.254
    1TCM    cl1 1859   4.372   4.046   3.274
    1TCM    cl2 1860   4.395   3.819   3.093
    1TCM     h1 1861   4.392   3.815   3.332
    1TCM    cl3 1862   4.164   3.844   3.268
    1TCM     c1 1863   3.084   1.580   4.980
    1TCM    cl1 1864   3.023   1.468   5.104
    1TCM    cl2 1865   3.260   1.598   4.997
    1TCM     h1 1866   3.060   1.540   4.879
    1TCM    cl3 1867   3.006   1.738   5.000
    1TCM     c1 1868   0.658   0.629   4.114
    1TCM    cl1 1869   0.558   0.661   3.970
    1TCM    cl2 1870   0.581   0.503   4.213
    1TCM     h1 1871   0.759   0.596   4.083
    1TCM    cl3 1872   0.672   0.778   4.210
    1TCM     c1 1873   3.524   0.923   1.987
    1TCM    cl1 1874   3.657   1.028   1.934
    1TCM    cl2 1875   3.368   0.993   1.936
    1TCM     h1 1876   3.536   0.822   1.942
    1TCM    cl3 1877   3.527   0.909   2.164
    1TCM     c1 1878   2.845   0.077   2.596
    1TCM    cl1 1879   2.878   0.016   2.432
    1TCM    cl2 1880   2.672   0.111   2.612
    1TCM     h1 1881   2.875   0.000   2.670
    1TCM    cl3 1882   2.938   0.226   2.624
    1TCM     c1 1883   2.726   4.589   2.458
    1TCM    cl1 1884   2.618   4.591   2.599
    1TCM    cl2 1885   2.665   4.473   2.338
    1TCM     h1 1886   2.730   4.691   2.413
    1TCM    cl3 1887   2.889   4.542   2.509
    1TCM     c1 1888   0.801   1.186   2.155
    1TCM    cl1 1889   0.673   1.080   2.220
    1TCM    cl2 1890   0.953   1.156   2.243
    1TCM     h1 1891   0.815   1.164   2.047
    1TCM    cl3 1892   0.753   1.356   2.176
    1TCM     c1 1893   2.391   4.320   3.077
    1TCM    cl1 1894   2.423   4.495   3.078
    1TCM    cl2 1895   2.364   4.266   2.910
    1TCM     h1 1896   2.478   4.266   3.120
    1TCM    cl3 1897   2.247   4.285   3.175
    1TCM     c1 1898   4.258   1.860   4.787
    1TCM    cl1 1899   4.222   1.855   4.961
    1TCM    cl2 1900   4.121   1.792   4.696
    1TCM     h1 1901   4.275   1.965   4.755
    1TCM    cl3 1902   4.404   1.764   4.754
    1TCM     c1 1903   0.338   0.557   0.257
    1TCM    cl1 1904   0.421   0.699   0.190
    1TCM    cl2 1905   0.280   0.454   0.125
    1TCM     h1 1906   0.408   0.500   0.321
    1TCM    cl3 1907   0.199   0.610   0.355
    1TCM     c1 1908   3.978   3.883   5.230
    1TCM    cl1 1909   3.968   4.049   5.292
    1TCM    cl2 1910   4.148   3.841   5.200
    1TCM     h1 1911   3.935   3.813   5.305
    1TCM    cl3 1912   3.886   3.871   5.078
    1TCM     c1 1913   1.966   2.444   2.785
    1TCM    cl1 1914   1.909   2.294   2.860
    1TCM    cl2 1915   1.881   2.470   2.631
    1TCM     h1 1916   1.946   2.530   2.853
    1TCM    cl3 1917   2.141   2.433   2.754
    1TCM     c1 1918   2.096   4.102   1.596
    1TCM    cl1 1919   2.057   4.247   1.502
    1TCM    cl2 1920   2.246   4.128   1.687
    1TCM     h1 1921   2.013   4.080   1.667
    1TCM    cl3 1922   2.117   3.964   1.486
    1TCM     c1 1923   4.069   3.644   1.871
    1TCM    cl1 1924   4.176   3.751   1.778
    1TCM    cl2 1925   4.148   3.601   2.024
    1TCM     h1 1926   3.974   3.696   1.892
    1TCM    cl3 1927   4.038   3.496   1.778
    1TCM     c1 1928   2.631   4.760   0.680
    1TCM    cl1 1929   2.550   4.676   0.546
    1TCM    cl2 1930   2.731   4.892   0.616
    1TCM     h1 1931   2.555   4.801   0.749
    1TCM    cl3 1932   2.735   4.645   0.768
    1TCM     c1 1933   2.815   2.361   4.714
    1TCM    cl1 1934   2.802   2.391   4.540
    1TCM    cl2 1935   2.933   2.474   4.785
    1TCM     h1 1936   2.716   2.376   4.762
    1TCM    cl3 1937   2.869   2.194   4.742
    1TCM     c1 1938   1.543   3.345   2.676
    1TCM    cl1 1939   1.715   3.365   2.636
    1TCM    cl2 1940   1.468   3.505   2.698
    1TCM     h1 1941   1.492   3.291   2.593
    1TCM    cl3 1942   1.528   3.251   2.826
    1TCM     c1 1943   0.716   4.150   4.853
    1TCM    cl1 1944   0.857   4.083   4.767
    1TCM    cl2 1945   0.769   4.216   5.010
    1TCM     h1 1946   0.671   4.231   4.793
    1TCM    cl3 1947   0.596   4.021   4.880
    1TCM     c1 1948   0.182   2.516   1.809
    1TCM    cl1 1949   0.251   2.508   1.973
    1TCM    cl2 1950   0.226   2.671   1.734
    1TCM     h1 1951   0.221   2.433   1.748
    1TCM    cl3 1952   0.005   2.504   1.819
    1TCM     c1 1953   4.419   0.938   4.237
    1TCM    cl1 1954   4.364   1.106   4.219
    1TCM    cl2 1955   4.484   0.913   4.401
    1TCM     h1 1956   4.333   0.869   4.221
    1TCM    cl3 1957   4.545   0.904   4.117
    1TCM     c1 1958   3.970   1.127   0.463
    1TCM    cl1 1959   4.080   1.137   0.602
    1TCM    cl2 1960   4.045   1.032   0.334
    1TCM     h1 1961   3.875   1.079   0.495
    1TCM    cl3 1962   3.935   1.291   0.404
    1TCM     c1 1963   1.965   1.833   3.975
    1TCM    cl1 1964   1.995   1.874   4.145
    1TCM    cl2 1965   2.100   1.890   3.875
    1TCM     h1 1966   1.955   1.723   3.964
    1TCM    cl3 1967   1.814   1.911   3.921
    1TCM     c1 1968   0.258   1.929   2.072
    1TCM    cl1 1969   0.283   1.754   2.052
    1TCM    cl2 1970   0.205   1.963   2.238
    1TCM     h1 1971   0.354   1.982   2.052
    1TCM    cl3 1972   0.134   1.984   1.958
    1TCM     c1 1973   1.630   0.587   3.437
    1TCM    cl1 1974   1.667   0.458   3.321
    1TCM    cl2 1975   1.714   0.555   3.591
    1TCM     h1 1976   1.665   0.684   3.396
    1TCM    cl3 1977   1.455   0.594   3.465
    1TCM     c1 1978   2.286   4.240   1.182
    1TCM    cl1 1979   2.155   4.141   1.113
    1TCM    cl2 1980   2.291   4.397   1.098
    1TCM     h1 1981   2.267   4.256   1.290
    1TCM    cl3 1982   2.442   4.157   1.160
    1TCM     c1 1983   3.425   1.775   4.327
    1TCM    cl1 1984   3.455   1.935   4.400
    1TCM    cl2 1985   3.260   1.721   4.369
    1TCM     h1 1986   3.434   1.782   4.217
    1TCM    cl3 1987   3.543   1.658   4.390
    1TCM     c1 1988   2.258   3.726   4.214
    1TCM    cl1 1989   2.266   3.830   4.070
    1TCM    cl2 1990   2.186   3.817   4.349
    1TCM     h1 1991   2.195   3.637   4.192
    1TCM    cl3 1992   2.422   3.674   4.259
    1TCM     c1 1993   3.174   0.983   4.962
    1TCM    cl1 1994   3.294   1.040   4.844
    1TCM    cl2 1995   3.116   0.821   4.914
    1TCM     h1 1996   3.220   0.977   5.063
    1TCM    cl3 1997   3.036   1.096   4.965
    1TCM     c1 1998   3.110   2.803   2.429
    1TCM    cl1 1999   2.964   2.838   2.524
    1TCM    cl2 2000   3.099   2.886   2.272
    1TCM     h1 2001   3.199   2.839   2.484
    1TCM    cl3 2002   3.123   2.628   2.402
    1TCM     c1 2003   4.717   4.256   0.903
    1TCM    cl1 2004   4.799   4.107   0.954
    1TCM    cl2 2005   4.747   4.384   1.022
    1TCM     h1 2006   4.756   4.288   0.804
    1TCM    cl3 2007   4.542   4.226   0.890
    1TCM     c1 2008   2.149   2.911   4.525
    1TCM    cl1 2009   2.074   2.791   4.417
    1TCM    cl2 2010   2.131   2.859   4.694
    1TCM     h1 2011   2.257   2.921   4.500
    1TCM    cl3 2012   2.068   3.068   4.503
    1TCM     c1 2013   2.559   4.108   4.497
    1TCM    cl1 2014   2.450   4.033   4.616
    1TCM    cl2 2015   2.479   4.109   4.338
    1TCM     h1 2016   2.581   4.212   4.528
    1TCM    cl3 2017   2.710   4.015   4.488
    1TCM     c1 2018   4.396   5.148   2.677
    1TCM    cl1 2019   4.466   5.070   2.533
    1TCM    cl2 2020   4.507   5.272   2.738
    1TCM     h1 2021   4.299   5.195   2.649
    1TCM    cl3 2022   4.369   5.025   2.803
    1TCM     c1 2023   1.892   3.628   2.029
    1TCM    cl1 2024   1.817   3.717   1.895
    1TCM    cl2 2025   2.020   3.728   2.102
    1TCM     h1 2026   1.815   3.605   2.105
    1TCM    cl3 2027   1.964   3.477   1.968
    1TCM     c1 2028   3.515   0.787   0.951
    1TCM    cl1 2029   3.586   0.626   0.923
    1TCM    cl2 2030   3.601   0.868   1.084
    1TCM     h1 2031   3.524   0.848   0.859
    1TCM    cl3 2032   3.343   0.769   0.993
    1TCM     c1 2033   0.251   3.719   3.006
    1TCM    cl1 2034   0.116   3.806   2.930
    1TCM    cl2 2035   0.270   3.774   3.174
    1TCM     h1 2036   0.230   3.610   3.005
    1TCM    cl3 2037   0.401   3.751   2.916
    1TCM     c1 2038   2.875   2.735   4.923
    1TCM    cl1 2039   2.846   2.744   4.748
    1TCM    cl2 2040   3.050   2.744   4.955
    1TCM     h1 2041   2.824   2.819   4.974
    1TCM    cl3 2042   2.812   2.581   4.986
    1TCM     c1 2043   2.272   0.677   0.686
    1TCM    cl1 2044   2.267   0.760   0.844
    1TCM    cl2 2045   2.132   0.569   0.672
    1TCM     h1 2046   2.270   0.752   0.605
    1TCM    cl3 2047   2.422   0.582   0.674
    1TCM     c1 2048   2.990   0.326   2.273
    1TCM    cl1 2049   2.838   0.252   2.217
    1TCM    cl2 2050   3.080   0.209   2.372
    1TCM     h1 2051   3.052   0.354   2.184
    1TCM    cl3 2052   2.955   0.471   2.369
    1TCM     c1 2053   1.757   3.527   4.663
    1TCM    cl1 2054   1.637   3.574   4.785
    1TCM    cl2 2055   1.707   3.590   4.504
    1TCM     h1 2056   1.856   3.569   4.690
    1TCM    cl3 2057   1.767   3.349   4.655
    1TCM     c1 2058   0.824   2.808   0.749
    1TCM    cl1 2059   0.911   2.921   0.855
    1TCM    cl2 2060   0.884   2.823   0.583
    1TCM     h1 2061   0.840   2.704   0.785
    1TCM    cl3 2062   0.650   2.845   0.753
    1TCM     c1 2063   3.022   0.211   3.328
    1TCM    cl1 2064   3.015   0.203   3.151
    1TCM    cl2 2065   2.942   0.068   3.397
    1TCM     h1 2066   3.128   0.213   3.361
    1TCM    cl3 2067   2.939   0.358   3.384
    1TCM     c1 2068   2.125   3.017   1.141
    1TCM    cl1 2069   2.115   3.076   0.973
    1TCM    cl2 2070   1.964   3.024   1.216
    1TCM     h1 2071   2.161   2.912   1.141
    1TCM    cl3 2072   2.238   3.119   1.233
    1TCM     c1 2073   3.121   5.239   4.018
    1TCM    cl1 2074   3.149   5.212   4.192
    1TCM    cl2 2075   3.008   5.116   3.957
    1TCM     h1 2076   3.078   5.340   4.003
    1TCM    cl3 2077   3.276   5.226   3.931
    1TCM     c1 2078   2.981   3.313   0.117
    1TCM    cl1 2079   3.112   3.399   0.033
    1TCM    cl2 2080   3.050   3.202   0.237
    1TCM     h1 2081   2.916   3.387   0.169
    1TCM    cl3 2082   2.884   3.221   0.000
    1TCM     c1 2083   0.199   0.451   4.247
    1TCM    cl1 2084   0.313   0.343   4.163
    1TCM    cl2 2085   0.283   0.534   4.380
    1TCM     h1 2086   0.160   0.526   4.175
    1TCM    cl3 2087   0.065   0.356   4.313
    1TCM     c1 2088   2.472   2.651   3.944
    1TCM    cl1 2089   2.367   2.770   4.024
    1TCM    cl2 2090   2.477   2.502   4.040
    1TCM     h1 2091   2.433   2.628   3.843
    1TCM    cl3 2092   2.637   2.717   3.930
    1TCM     c1 2093   0.683   1.475   0.172
    1TCM    cl1 2094   0.668   1.551   0.332
    1TCM    cl2 2095   0.522   1.454   0.101
    1TCM     h1 2096   0.745   1.540   0.106
    1TCM    cl3 2097   0.762   1.316   0.189
    1TCM     c1 2098   4.658   2.990   1.952
    1TCM    cl1 2099   4.822   2.979   2.019
    1TCM    cl2 2100   4.647   2.890   1.806
    1TCM     h1 2101   4.585   2.954   2.027
    1TCM    cl3 2102   4.622   3.159   1.911
    1TCM     c1 2103   3.115   3.262   0.626
    1TCM    cl1 2104   2.986   3.249   0.505
    1TCM    cl2 2105   3.261   3.330   0.550
    1TCM     h1 2106   3.082   3.329   0.708
    1TCM    cl3 2107   3.152   3.101   0.692
    1TCM     c1 2108   2.539   4.937   1.581
    1TCM    cl1 2109   2.600   4.792   1.498
    1TCM    cl2 2110   2.591   4.935   1.750
    1TCM     h1 2111   2.579   5.027   1.531
    1TCM    cl3 2112   2.361   4.939   1.573
    1TCM     c1 2113   2.746   4.042   4.880
    1TCM    cl1 2114   2.872   4.015   4.757
    1TCM    cl2 2115   2.820   4.038   5.042
    1TCM     h1 2116   2.699   4.141   4.863
    1TCM    cl3 2117   2.623   3.914   4.868
    1TCM     c1 2118   4.004   4.004   2.750
    1TCM    cl1 2119   3.953   4.172   2.780
    1TCM    cl2 2120   3.990   3.969   2.576
    1TCM     h1 2121   4.109   3.992   2.782
    1TCM    cl3 2122   3.900   3.893   2.841
    1TCM     c1 2123   2.329   1.540   2.468
    1TCM    cl1 2124   2.408   1.699   2.474
    1TCM    cl2 2125   2.427   1.428   2.372
    1TCM     h1 2126   2.318   1.501   2.571
    1TCM    cl3 2127   2.168   1.557   2.394
    1TCM     c1 2128   4.901   2.390   0.660
    1TCM    cl1 2129   4.815   2.519   0.746
    1TCM    cl2 2130   5.031   2.325   0.762
    1TCM     h1 2131   4.829   2.309   0.635
    1TCM    cl3 2132   4.970   2.455   0.510
    1TCM     c1 2133   4.222   0.588   3.234
    1TCM    cl1 2134   4.097   0.629   3.354
    1TCM    cl2 2135   4.382   0.626   3.300
    1TCM     h1 2136   4.216   0.480   3.210
    1TCM    cl3 2137   4.195   0.683   3.086
    1TCM     c1 2138   4.848   2.333   0.175
    1TCM    cl1 2139   4.772   2.216   0.065
    1TCM    cl2 2140   4.796   2.300   0.342
    1TCM     h1 2141   4.958   2.325   0.168
    1TCM    cl3 2142   4.798   2.498   0.130
    1TCM     c1 2143   3.374   1.240   1.149
    1TCM    cl1 2144   3.246   1.335   1.228
    1TCM    cl2 2145   3.379   1.281   0.976
    1TCM     h1 2146   3.472   1.264   1.195
    1TCM    cl3 2147   3.340   1.067   1.168
    1TCM     c1 2148   2.743   4.401   4.675
    1TCM    cl1 2149   2.823   4.314   4.808
    1TCM    cl2 2150   2.567   4.399   4.700
    1TCM     h1 2151   2.779   4.506   4.673
    1TCM    cl3 2152   2.783   4.322   4.521
    1TCM     c1 2153   1.613   5.238   0.684
    1TCM    cl1 2154   1.650   5.117   0.559
    1TCM    cl2 2155   1.478   5.340   0.629
    1TCM     h1 2156   1.585   5.187   0.778
    1TCM    cl3 2157   1.756   5.340   0.711
    1TCM     c1 2158   1.420   3.297   4.494
    1TCM    cl1 2159   1.317   3.372   4.369
    1TCM    cl2 2160   1.357   3.339   4.655
    1TCM     h1 2161   1.418   3.187   4.481
    1TCM    cl3 2162   1.587   3.356   4.477
    1TCM     c1 2163   1.187   2.350   2.390
    1TCM    cl1 2164   1.364   2.340   2.372
    1TCM    cl2 2165   1.124   2.192   2.441
    1TCM     h1 2166   1.162   2.426   2.467
    1TCM    cl3 2167   1.114   2.395   2.235
    1TCM     c1 2168   1.381   1.269   0.666
    1TCM    cl1 2169   1.310   1.432   0.656
    1TCM    cl2 2170   1.352   1.201   0.828
    1TCM     h1 2171   1.334   1.203   0.589
    1TCM    cl3 2172   1.556   1.278   0.637
    1TCM     c1 2173   0.356   5.217   3.209
    1TCM    cl1 2174   0.228   5.340   3.216
    1TCM    cl2 2175   0.290   5.066   3.142
    1TCM     h1 2176   0.438   5.253   3.143
    1TCM    cl3 2177   0.419   5.187   3.372
    1TCM     c1 2178   2.811   3.981   0.336
    1TCM    cl1 2179   2.736   4.126   0.266
    1TCM    cl2 2180   2.942   3.925   0.231
    1TCM     h1 2181   2.852   4.006   0.437
    1TCM    cl3 2182   2.688   3.853   0.352
    1TCM     c1 2183   5.113   1.855   0.939
    1TCM    cl1 2184   5.203   1.934   1.070
    1TCM    cl2 2185   5.170   1.918   0.782
    1TCM     h1 2186   5.130   1.745   0.943
    1TCM    cl3 2187   4.939   1.889   0.956
    1TCM     c1 2188   3.216   4.744   4.113
    1TCM    cl1 2189   3.144   4.906   4.095
    1TCM    cl2 2190   3.303   4.701   3.965
    1TCM     h1 2191   3.286   4.745   4.199
    1TCM    cl3 2192   3.087   4.625   4.143
    1TCM     c1 2193   0.484   3.279   3.412
    1TCM    cl1 2194   0.520   3.412   3.523
    1TCM    cl2 2195   0.614   3.264   3.293
    1TCM     h1 2196   0.475   3.184   3.470
    1TCM    cl3 2197   0.330   3.311   3.329
    1TCM     c1 2198   2.893   0.430   1.870
    1TCM    cl1 2199   3.062   0.382   1.900
    1TCM    cl2 2200   2.837   0.534   2.003
    1TCM     h1 2201   2.886   0.485   1.774
    1TCM    cl3 2202   2.791   0.284   1.863
    1TCM     c1 2203   4.835   5.019   4.356
    1TCM    cl1 2204   4.720   4.899   4.293
    1TCM    cl2 2205   4.810   5.175   4.274
    1TCM     h1 2206   4.819   5.031   4.465
    1TCM    cl3 2207   5.001   4.963   4.326
    1TCM     c1 2208   4.062   1.004   2.021
    1TCM    cl1 2209   4.132   1.009   2.185
    1TCM    cl2 2210   3.953   0.864   2.007
    1TCM     h1 2211   4.005   1.097   2.003
    1TCM    cl3 2212   4.193   0.990   1.902
    1TCM     c1 2213   2.342   4.780   2.464
    1TCM    cl1 2214   2.270   4.796   2.303
    1TCM    cl2 2215   2.241   4.672   2.564
    1TCM     h1 2216   2.444   4.737   2.455
    1TCM    cl3 2217   2.351   4.939   2.542
    1TCM     c1 2218   2.261   2.635   0.918
    1TCM    cl1 2219   2.414   2.584   0.992
    1TCM    cl2 2220   2.236   2.546   0.766
    1TCM     h1 2221   2.177   2.613   0.987
    1TCM    cl3 2222   2.266   2.810   0.884
    1TCM     c1 2223   2.175   4.752   0.385
    1TCM    cl1 2224   2.319   4.680   0.460
    1TCM    cl2 2225   2.029   4.675   0.453
    1TCM     h1 2226   2.172   4.860   0.407
    1TCM    cl3 2227   2.180   4.725   0.210
    1TCM     c1 2228   3.658   1.186   2.292
    1TCM    cl1 2229   3.535   1.185   2.421
    1TCM    cl2 2230   3.578   1.165   2.134
    1TCM     h1 2231   3.712   1.283   2.293
    1TCM    cl3 2232   3.773   1.054   2.319
    1TCM     c1 2233   3.741   4.016   0.857
    1TCM    cl1 2234   3.796   4.064   1.019
    1TCM    cl2 2235   3.637   4.144   0.790
    1TCM     h1 2236   3.829   4.002   0.791
    1TCM    cl3 2237   3.649   3.864   0.868
    1TCM     c1 2238   1.673   4.342   2.126
    1TCM    cl1 2239   1.751   4.210   2.037
    1TCM    cl2 2240   1.693   4.316   2.301
    1TCM     h1 2241   1.719   4.439   2.097
    1TCM    cl3 2242   1.499   4.345   2.087
    1TCM     c1 2243   5.015   2.789   3.089
    1TCM    cl1 2244   4.989   2.645   2.988
    1TCM    cl2 2245   5.036   2.740   3.259
    1TCM     h1 2246   5.106   2.842   3.055
    1TCM    cl3 2247   4.875   2.898   3.076
    1TCM     c1 2248   1.700   1.291   2.234
    1TCM    cl1 2249   1.832   1.212   2.144
    1TCM    cl2 2250   1.609   1.397   2.124
    1TCM     h1 2251   1.632   1.214   2.276
    1TCM    cl3 2252   1.769   1.388   2.366
    1TCM     c1 2253   0.132   0.544   1.554
    1TCM    cl1 2254   0.283   0.449   1.552
    1TCM    cl2 2255  -0.001   0.444   1.490
    1TCM     h1 2256   0.109   0.575   1.658
    1TCM    cl3 2257   0.152   0.688   1.452
    1TCM     c1 2258   0.994   4.485   0.303
    1TCM    cl1 2259   1.002   4.522   0.130
    1TCM    cl2 2260   1.069   4.326   0.334
    1TCM     h1 2261   1.049   4.563   0.360
    1TCM    cl3 2262   0.825   4.481   0.356
    1TCM     c1 2263   3.181   2.720   0.941
    1TCM    cl1 2264   3.351   2.730   0.890
    1TCM    cl2 2265   3.161   2.802   1.098
    1TCM     h1 2266   3.117   2.768   0.865
    1TCM    cl3 2267   3.135   2.549   0.958
    1TCM     c1 2268   0.633   2.032   2.546
    1TCM    cl1 2269   0.481   2.030   2.453
    1TCM    cl2 2270   0.633   1.896   2.661
    1TCM     h1 2271   0.719   2.022   2.477
    1TCM    cl3 2272   0.646   2.185   2.635
    1TCM     c1 2273   2.632   0.769   4.984
    1TCM    cl1 2274   2.732   0.887   5.072
    1TCM    cl2 2275   2.521   0.855   4.875
    1TCM     h1 2276   2.697   0.701   4.925
    1TCM    cl3 2277   2.538   0.673   5.101
    1TCM     c1 2278   0.388   4.384   4.228
    1TCM    cl1 2279   0.497   4.260   4.163
    1TCM    cl2 2280   0.437   4.426   4.394
    1TCM     h1 2281   0.393   4.475   4.164
    1TCM    cl3 2282   0.221   4.321   4.230
    1TCM     c1 2283   5.149   4.056   1.569
    1TCM    cl1 2284   5.173   3.887   1.619
    1TCM    cl2 2285   5.112   4.061   1.395
    1TCM     h1 2286   5.064   4.100   1.626
    1TCM    cl3 2287   5.296   4.150   1.601
    1TCM     c1 2288   2.595   2.263   0.466
    1TCM    cl1 2289   2.500   2.387   0.382
    1TCM    cl2 2290   2.547   2.257   0.637
    1TCM     h1 2291   2.576   2.164   0.419
    1TCM    cl3 2292   2.767   2.302   0.454
    1TCM     c1 2293   5.194   5.054   3.606
    1TCM    cl1 2294   5.203   5.106   3.436
    1TCM    cl2 2295   5.319   5.138   3.700
    1TCM     h1 2296   5.094   5.079   3.647
    1TCM    cl3 2297   5.221   4.878   3.616
    1TCM     c1 2298   3.353   2.484   2.172
    1TCM    cl1 2299   3.453   2.623   2.124
    1TCM    cl2 2300   3.188   2.506   2.109
    1TCM     h1 2301   3.397   2.391   2.130
    1TCM    cl3 2302   3.348   2.473   2.349
    1TCM     c1 2303   4.047   1.203   5.184
    1TCM    cl1 2304   4.093   1.354   5.266
    1TCM    cl2 2305   4.164   1.075   5.225
    1TCM     h1 2306   3.946   1.172   5.218
    1TCM    cl3 2307   4.046   1.228   5.008
    1TCM     c1 2308   1.194   2.160   4.445
    1TCM    cl1 2309   1.320   2.171   4.570
    1TCM    cl2 2310   1.135   1.993   4.434
    1TCM     h1 2311   1.109   2.227   4.472
    1TCM    cl3 2312   1.261   2.210   4.288
    1TCM     c1 2313   0.429   0.287   2.120
    1TCM    cl1 2314   0.424   0.196   1.967
    1TCM    cl2 2315   0.524   0.195   2.239
    1TCM     h1 2316   0.476   0.385   2.103
    1TCM    cl3 2317   0.263   0.310   2.181
    1TCM     c1 2318   3.820   0.432   1.089
    1TCM    cl1 2319   3.933   0.557   1.147
    1TCM    cl2 2320   3.655   0.496   1.091
    1TCM     h1 2321   3.848   0.403   0.986
    1TCM    cl3 2322   3.830   0.289   1.195
    1TCM     c1 2323   3.178   2.271   3.642
    1TCM    cl1 2324   3.320   2.366   3.592
    1TCM    cl2 2325   3.153   2.289   3.817
    1TCM     h1 2326   3.089   2.307   3.588
    1TCM    cl3 2327   3.205   2.099   3.604
    1TCM     c1 2328   3.739   2.905   3.544
    1TCM    cl1 2329   3.878   3.011   3.512
    1TCM    cl2 2330   3.796   2.742   3.584
    1TCM     h1 2331   3.680   2.946   3.629
    1TCM    cl3 2332   3.635   2.898   3.400
    1TCM     c1 2333   3.236   4.438   1.771
    1TCM    cl1 2334   3.190   4.605   1.810
    1TCM    cl2 2335   3.234   4.415   1.595
    1TCM     h1 2336   3.339   4.418   1.809
    1TCM    cl3 2337   3.122   4.325   1.847
    1TCM     c1 2338   0.516   1.329   4.230
    1TCM    cl1 2339   0.431   1.173   4.232
    1TCM    cl2 2340   0.510   1.399   4.066
    1TCM     h1 2341   0.467   1.399   4.302
    1TCM    cl3 2342   0.686   1.305   4.277
    1TCM     c1 2343   0.308   1.842   1.579
    1TCM    cl1 2344   0.483   1.824   1.604
    1TCM    cl2 2345   0.243   1.694   1.504
    1TCM     h1 2346   0.259   1.858   1.677
    1TCM    cl3 2347   0.277   1.980   1.472
    1TCM     c1 2348   0.079   2.907   1.383
    1TCM    cl1 2349   0.198   2.853   1.262
    1TCM    cl2 2350   0.004   3.059   1.328
    1TCM     h1 2351   0.000   2.830   1.394
    1TCM    cl3 2352   0.160   2.934   1.538
    1TCM     c1 2353   0.790   3.697   0.072
    1TCM    cl1 2354   0.734   3.541   0.006
    1TCM    cl2 2355   0.682   3.827   0.018
    1TCM     h1 2356   0.789   3.692   0.183
    1TCM    cl3 2357   0.955   3.729   0.016
    1TCM     c1 2358   3.538   1.312   1.482
    1TCM    cl1 2359   3.510   1.158   1.396
    1TCM    cl2 2360   3.681   1.296   1.587
    1TCM     h1 2361   3.556   1.393   1.408
    1TCM    cl3 2362   3.396   1.352   1.580
    1TCM     c1 2363   3.554   1.715   4.775
    1TCM    cl1 2364   3.379   1.683   4.779
    1TCM    cl2 2365   3.626   1.666   4.931
    1TCM     h1 2366   3.600   1.657   4.693
    1TCM    cl3 2367   3.582   1.888   4.749
    1TCM     c1 2368   0.724   3.961   4.300
    1TCM    cl1 2369   0.567   4.045   4.305
    1TCM    cl2 2370   0.848   4.071   4.236
    1TCM     h1 2371   0.752   3.929   4.402
    1TCM    cl3 2372   0.711   3.819   4.194
    1TCM     c1 2373   3.626   3.222   5.182
    1TCM    cl1 2374   3.589   3.134   5.032
    1TCM    cl2 2375   3.515   3.169   5.310
    1TCM     h1 2376   3.730   3.200   5.212
    1TCM    cl3 2377   3.607   3.396   5.154
    1TCM     c1 2378   0.987   2.722   1.519
    1TCM    cl1 2379   0.924   2.571   1.590
    1TCM    cl2 2380   1.163   2.709   1.500
    1TCM     h1 2381   0.940   2.737   1.419
    1TCM    cl3 2382   0.948   2.859   1.625
    1TCM     c1 2383   4.402   5.080   5.200
    1TCM    cl1 2384   4.282   5.100   5.329
    1TCM    cl2 2385   4.563   5.124   5.261
    1TCM     h1 2386   4.403   4.974   5.166
    1TCM    cl3 2387   4.360   5.185   5.062
    1TCM     c1 2388   4.408   1.114   0.307
    1TCM    cl1 2389   4.251   1.121   0.225
    1TCM    cl2 2390   4.386   1.052   0.472
    1TCM     h1 2391   4.476   1.047   0.251
    1TCM    cl3 2392   4.478   1.278   0.315
    1TCM     c1 2393   3.086   0.849   3.487
    1TCM    cl1 2394   3.044   0.827   3.316
    1TCM    cl2 2395   3.192   0.991   3.504
    1TCM     h1 2396   2.994   0.864   3.546
    1TCM    cl3 2397   3.171   0.704   3.546
    1TCM     c1 2398   4.365   1.449   4.875
    1TCM    cl1 2399   4.495   1.555   4.813
    1TCM    cl2 2400   4.373   1.292   4.792
    1TCM     h1 2401   4.379   1.435   4.984
    1TCM    cl3 2402   4.208   1.525   4.844
    1TCM     c1 2403   4.771   2.157   3.825
    1TCM    cl1 2404   4.675   2.007   3.824
    1TCM    cl2 2405   4.687   2.281   3.729
    1TCM     h1 2406   4.782   2.192   3.930
    1TCM    cl3 2407   4.931   2.125   3.755
    1TCM     c1 2408   0.107   4.940   3.853
    1TCM    cl1 2409   0.002   4.899   3.715
    1TCM    cl2 2410   0.264   4.858   3.835
    1TCM     h1 2411   0.123   5.050   3.855
    1TCM    cl3 2412   0.030   4.887   4.004
    1TCM     c1 2413   3.382   0.743   3.823
    1TCM    cl1 2414   3.226   0.683   3.763
    1TCM    cl2 2415   3.512   0.691   3.714
    1TCM     h1 2416   3.380   0.854   3.828
    1TCM    cl3 2417   3.412   0.678   3.986
    1TCM     c1 2418   3.875   3.796   1.615
    1TCM    cl1 2419   3.964   3.853   1.472
    1TCM    cl2 2420   3.921   3.894   1.757
    1TCM     h1 2421   3.766   3.805   1.598
    1TCM    cl3 2422   3.915   3.625   1.646
    1TCM     c1 2423   0.562   0.149   1.379
    1TCM    cl1 2424   0.726   0.106   1.434
    1TCM    cl2 2425   0.496   0.016   1.281
    1TCM     h1 2426   0.497   0.166   1.467
    1TCM    cl3 2427   0.570   0.296   1.280
    1TCM     c1 2428   2.163   3.972   3.692
    1TCM    cl1 2429   2.294   3.945   3.810
    1TCM    cl2 2430   2.210   3.902   3.535
    1TCM     h1 2431   2.070   3.923   3.728
    1TCM    cl3 2432   2.136   4.146   3.673
    1TCM     c1 2433   4.522   3.952   1.345
    1TCM    cl1 2434   4.551   3.931   1.519
    1TCM    cl2 2435   4.651   4.052   1.275
    1TCM     h1 2436   4.522   3.852   1.296
    1TCM    cl3 2437   4.365   4.031   1.320
    1TCM     c1 2438   3.165   4.365   4.629
    1TCM    cl1 2439   3.138   4.327   4.801
    1TCM    cl2 2440   3.180   4.214   4.537
    1TCM     h1 2441   3.079   4.424   4.590
    1TCM    cl3 2442   3.315   4.460   4.612
    1TCM     c1 2443   2.076   1.872   4.792
    1TCM    cl1 2444   1.938   1.978   4.828
    1TCM    cl2 2445   2.048   1.789   4.636
    1TCM     h1 2446   2.168   1.933   4.785
    1TCM    cl3 2447   2.093   1.751   4.921
    1TCM     c1 2448   1.549   3.529   2.037
    1TCM    cl1 2449   1.654   3.561   1.896
    1TCM    cl2 2450   1.571   3.657   2.158
    1TCM     h1 2451   1.443   3.526   2.004
    1TCM    cl3 2452   1.592   3.372   2.108
    1TCM     c1 2453   1.826   0.111   1.525
    1TCM    cl1 2454   1.900   0.108   1.686
    1TCM    cl2 2455   1.945   0.168   1.406
    1TCM     h1 2456   1.792   0.009   1.498
    1TCM    cl3 2457   1.686   0.221   1.526
    1TCM     c1 2458   4.165   4.355   3.800
    1TCM    cl1 2459   4.098   4.416   3.647
    1TCM    cl2 2460   4.079   4.430   3.937
    1TCM     h1 2461   4.152   4.245   3.805
    1TCM    cl3 2462   4.338   4.394   3.809
    1TCM     c1 2463   0.664   1.030   3.748
    1TCM    cl1 2464   0.626   1.028   3.574
    1TCM    cl2 2465   0.586   0.892   3.828
    1TCM     h1 2466   0.774   1.023   3.762
    1TCM    cl3 2467   0.605   1.181   3.820
    1TCM     c1 2468   1.688   4.463   0.707
    1TCM    cl1 2469   1.815   4.585   0.684
    1TCM    cl2 2470   1.576   4.517   0.834
    1TCM     h1 2471   1.632   4.449   0.612
    1TCM    cl3 2472   1.762   4.309   0.754
    1TCM     c1 2473   3.245   0.386   0.130
    1TCM    cl1 2474   3.112   0.320   0.227
    1TCM    cl2 2475   3.287   0.272   0.000
    1TCM     h1 2476   3.214   0.483   0.085
    1TCM    cl3 2477   3.387   0.412   0.234
    1TCM     c1 2478   3.777   0.929   3.278
    1TCM    cl1 2479   3.763   0.955   3.103
    1TCM    cl2 2480   3.948   0.921   3.324
    1TCM     h1 2481   3.728   1.013   3.332
    1TCM    cl3 2482   3.697   0.776   3.321
    1TCM     c1 2483   0.146   4.596   4.013
    1TCM    cl1 2484   0.285   4.515   3.937
    1TCM    cl2 2485   0.203   4.709   4.137
    1TCM     h1 2486   0.090   4.652   3.935
    1TCM    cl3 2487   0.040   4.474   4.087
    1TCM     c1 2488   4.444   1.701   5.244
    1TCM    cl1 2489   4.573   1.691   5.122
    1TCM    cl2 2490   4.286   1.706   5.163
    1TCM     h1 2491   4.449   1.613   5.310
    1TCM    cl3 2492   4.465   1.849   5.340
    1TCM     c1 2493   0.454   0.511   2.846
    1TCM    cl1 2494   0.594   0.426   2.776
    1TCM    cl2 2495   0.312   0.487   2.742
    1TCM     h1 2496   0.433   0.470   2.947
    1TCM    cl3 2497   0.490   0.684   2.859
    1TCM     c1 2498   0.537   1.862   2.196
    1TCM    cl1 2499   0.638   1.748   2.289
    1TCM    cl2 2500   0.537   1.815   2.025
    1TCM     h1 2501   0.433   1.859   2.235
    1TCM    cl3 2502   0.602   2.026   2.213
    1TCM     c1 2503   3.606   2.215   1.639
    1TCM    cl1 2504   3.515   2.224   1.486
    1TCM    cl2 2505   3.566   2.063   1.722
    1TCM     h1 2506   3.714   2.219   1.618
    1TCM    cl3 2507   3.561   2.353   1.743
    1TCM     c1 2508   2.716   0.908   4.424
    1TCM    cl1 2509   2.604   0.965   4.298
    1TCM    cl2 2510   2.634   0.789   4.527
    1TCM     h1 2511   2.804   0.861   4.376
    1TCM    cl3 2512   2.769   1.045   4.523
    1TCM     c1 2513   4.630   2.548   4.914
    1TCM    cl1 2514   4.618   2.677   5.035
    1TCM    cl2 2515   4.523   2.414   4.958
    1TCM     h1 2516   4.601   2.588   4.814
    1TCM    cl3 2517   4.798   2.490   4.907
    1TCM     c1 2518   3.821   0.757   2.849
    1TCM    cl1 2519   3.714   0.762   2.707
    1TCM    cl2 2520   3.890   0.919   2.876
    1TCM     h1 2521   3.763   0.726   2.938
    1TCM    cl3 2522   3.953   0.641   2.820
    1TCM     c1 2523   3.343   2.266   3.303
    1TCM    cl1 2524   3.359   2.093   3.267
    1TCM    cl2 2525   3.319   2.356   3.152
    1TCM     h1 2526   3.256   2.283   3.370
    1TCM    cl3 2527   3.491   2.324   3.383
    1TCM     c1 2528   3.822   1.610   1.544
    1TCM    cl1 2529   3.893   1.745   1.452
    1TCM    cl2 2530   3.774   1.667   1.706
    1TCM     h1 2531   3.732   1.573   1.490
    1TCM    cl3 2532   3.941   1.480   1.559
    1TCM     c1 2533   0.415   3.445   1.600
    1TCM    cl1 2534   0.255   3.406   1.666
    1TCM    cl2 2535   0.449   3.339   1.461
    1TCM     h1 2536   0.416   3.551   1.567
    1TCM    cl3 2537   0.538   3.421   1.725
    1TCM     c1 2538   2.476   3.692   4.595
    1TCM    cl1 2539   2.437   3.661   4.766
    1TCM    cl2 2540   2.387   3.836   4.540
    1TCM     h1 2541   2.585   3.709   4.585
    1TCM    cl3 2542   2.428   3.552   4.497
    1TCM     c1 2543   1.952   1.612   1.957
    1TCM    cl1 2544   2.094   1.702   2.013
    1TCM    cl2 2545   1.959   1.592   1.781
    1TCM     h1 2546   1.950   1.512   2.006
    1TCM    cl3 2547   1.804   1.701   2.001
    1TCM     c1 2548   4.490   2.480   0.308
    1TCM    cl1 2549   4.631   2.582   0.344
    1TCM    cl2 2550   4.519   2.315   0.369
    1TCM     h1 2551   4.400   2.522   0.356
    1TCM    cl3 2552   4.466   2.474   0.132
    1TCM     c1 2553   3.102   4.615   3.612
    1TCM    cl1 2554   2.940   4.588   3.544
    1TCM    cl2 2555   3.207   4.477   3.572
    1TCM     h1 2556   3.145   4.707   3.570
    1TCM    cl3 2557   3.090   4.630   3.789
    1TCM     c1 2558   4.994   3.898   5.234
    1TCM    cl1 2559   4.866   3.800   5.309
    1TCM    cl2 2560   4.984   4.065   5.295
    1TCM     h1 2561   5.093   3.855   5.260
    1TCM    cl3 2562   4.973   3.898   5.058
    1TCM     c1 2563   1.171   2.674   3.336
    1TCM    cl1 2564   1.049   2.581   3.426
    1TCM    cl2 2565   1.145   2.653   3.162
    1TCM     h1 2566   1.163   2.781   3.363
    1TCM    cl3 2567   1.333   2.615   3.379
    1TCM     c1 2568   2.499   2.830   1.333
    1TCM    cl1 2569   2.365   2.878   1.227
    1TCM    cl2 2570   2.522   2.654   1.324
    1TCM     h1 2571   2.592   2.881   1.300
    1TCM    cl3 2572   2.462   2.877   1.501
    1TCM     c1 2573   0.134   3.565   3.581
    1TCM    cl1 2574   0.245   3.563   3.442
    1TCM    cl2 2575   0.000   3.452   3.552
    1TCM     h1 2576   0.189   3.534   3.673
    1TCM    cl3 2577   0.070   3.729   3.603
    1TCM     c1 2578   2.481   4.841   3.315
    1TCM    cl1 2579   2.639   4.846   3.396
    1TCM    cl2 2580   2.352   4.831   3.437
    1TCM     h1 2581   2.468   4.933   3.254
    1TCM    cl3 2582   2.474   4.699   3.209
    1TCM     c1 2583   5.001   2.733   4.194
    1TCM    cl1 2584   5.171   2.784   4.202
    1TCM    cl2 2585   4.896   2.877   4.186
    1TCM     h1 2586   4.985   2.671   4.104
    1TCM    cl3 2587   4.960   2.639   4.340
    1TCM     c1 2588   2.580   2.259   3.559
    1TCM    cl1 2589   2.456   2.136   3.528
    1TCM    cl2 2590   2.639   2.325   3.404
    1TCM     h1 2591   2.536   2.341   3.619
    1TCM    cl3 2592   2.716   2.187   3.647
    1TCM     c1 2593   2.055   0.861   3.963
    1TCM    cl1 2594   2.090   0.817   4.131
    1TCM    cl2 2595   1.992   1.027   3.957
    1TCM     h1 2596   2.147   0.854   3.902
    1TCM    cl3 2597   1.932   0.749   3.898
    1TCM     c1 2598   0.932   0.358   0.883
    1TCM    cl1 2599   0.982   0.524   0.919
    1TCM    cl2 2600   0.952   0.327   0.709
    1TCM     h1 2601   0.994   0.287   0.941
    1TCM    cl3 2602   0.761   0.336   0.928
    1TCM     c1 2603   4.157   1.431   3.662
    1TCM    cl1 2604   4.053   1.574   3.676
    1TCM    cl2 2605   4.192   1.368   3.824
    1TCM     h1 2606   4.105   1.353   3.602
    1TCM    cl3 2607   4.309   1.476   3.582
    1TCM     c1 2608   3.251   4.974   3.361
    1TCM    cl1 2609   3.418   5.003   3.415
    1TCM    cl2 2610   3.152   4.920   3.499
    1TCM     h1 2611   3.208   5.068   3.320
    1TCM    cl3 2612   3.251   4.848   3.235
    1TCM     c1 2613   2.222   2.539   3.122
    1TCM    cl1 2614   2.167   2.434   2.989
    1TCM    cl2 2615   2.110   2.675   3.141
    1TCM     h1 2616   2.226   2.480   3.216
    1TCM    cl3 2617   2.385   2.601   3.084
    1TCM     c1 2618   1.482   0.717   5.276
    1TCM    cl1 2619   1.521   0.879   5.337
    1TCM    cl2 2620   1.479   0.720   5.098
    1TCM     h1 2621   1.559   0.645   5.311
    1TCM    cl3 2622   1.322   0.667   5.337
    1TCM     c1 2623   2.310   4.365   4.340
    1TCM    cl1 2624   2.180   4.461   4.266
    1TCM    cl2 2625   2.262   4.319   4.505
    1TCM     h1 2626   2.328   4.274   4.280
    1TCM    cl3 2627   2.459   4.462   4.347
    1TCM     c1 2628   0.775   3.747   5.075
    1TCM    cl1 2629   0.748   3.882   4.963
    1TCM    cl2 2630   0.618   3.681   5.127
    1TCM     h1 2631   0.833   3.668   5.024
    1TCM    cl3 2632   0.864   3.804   5.218
    1TCM     c1 2633   5.094   3.057   1.875
    1TCM    cl1 2634   5.077   3.200   1.771
    1TCM    cl2 2635   5.087   3.108   2.046
    1TCM     h1 2636   5.011   2.986   1.855
    1TCM    cl3 2637   5.249   2.977   1.843
    1TCM     c1 2638   3.350   1.216   3.621
    1TCM    cl1 2639   3.403   1.358   3.714
    1TCM    cl2 2640   3.392   1.237   3.450
    1TCM     h1 2641   3.401   1.125   3.661
    1TCM    cl3 2642   3.174   1.197   3.637
    1TCM     c1 2643   0.082   1.325   1.833
    1TCM    cl1 2644   0.252   1.276   1.853
    1TCM    cl2 2645   0.000   1.321   1.991
    1TCM     h1 2646   0.078   1.428   1.792
    1TCM    cl3 2647   0.000   1.213   1.722
    1TCM     c1 2648   1.533   0.100   1.316
    1TCM    cl1 2649   1.390   0.031   1.237
    1TCM    cl2 2650   1.678   0.058   1.222
    1TCM     h1 2651   1.523   0.211   1.320
    1TCM    cl3 2652   1.548   0.035   1.481
    1TCM     c1 2653   2.754   2.946   3.899
    1TCM    cl1 2654   2.823   2.814   3.996
    1TCM    cl2 2655   2.878   3.071   3.872
    1TCM     h1 2656   2.720   2.906   3.801
    1TCM    cl3 2657   2.616   3.016   3.986
    1TCM     c1 2658   5.144   3.307   1.242
    1TCM    cl1 2659   5.189   3.447   1.141
    1TCM    cl2 2660   5.015   3.356   1.355
    1TCM     h1 2661   5.107   3.225   1.177
    1TCM    cl3 2662   5.285   3.252   1.334
    1TCM     c1 2663   1.888   0.289   0.193
    1TCM    cl1 2664   1.756   0.170   0.203
    1TCM    cl2 2665   2.013   0.229   0.082
    1TCM     h1 2666   1.848   0.385   0.155
    1TCM    cl3 2667   1.959   0.313   0.354
    1TCM     c1 2668   1.126   2.002   3.004
    1TCM    cl1 2669   1.185   1.858   2.919
    1TCM    cl2 2670   1.254   2.066   3.109
    1TCM     h1 2671   1.097   2.079   2.930
    1TCM    cl3 2672   0.984   1.959   3.103
    1TCM     c1 2673   2.672   3.865   2.496
    1TCM    cl1 2674   2.823   3.821   2.412
    1TCM    cl2 2675   2.705   3.995   2.612
    1TCM     h1 2676   2.597   3.899   2.422
    1TCM    cl3 2677   2.609   3.723   2.583
    1TCM     c1 2678   1.515   0.642   2.919
    1TCM    cl1 2679   1.398   0.766   2.870
    1TCM    cl2 2680   1.511   0.624   3.096
    1TCM     h1 2681   1.489   0.545   2.872
    1TCM    cl3 2682   1.678   0.691   2.868
    1TCM     c1 2683   5.129   5.032   2.859
    1TCM    cl1 2684   5.058   4.870   2.840
    1TCM    cl2 2685   5.179   5.056   3.028
    1TCM     h1 2686   5.218   5.041   2.792
    1TCM    cl3 2687   5.009   5.155   2.814
    1TCM     c1 2688   2.601   3.890   3.216
    1TCM    cl1 2689   2.484   3.967   3.325
    1TCM    cl2 2690   2.626   3.992   3.073
    1TCM     h1 2691   2.698   3.877   3.269
    1TCM    cl3 2692   2.539   3.731   3.165
    1TCM     c1 2693   5.126   4.999   0.225
    1TCM    cl1 2694   4.949   4.984   0.233
    1TCM    cl2 2695   5.181   4.960   0.060
    1TCM     h1 2696   5.156   5.103   0.250
    1TCM    cl3 2697   5.201   4.886   0.340
    1TCM     c1 2698   1.541   4.071   5.169
    1TCM    cl1 2699   1.391   4.057   5.075
    1TCM    cl2 2700   1.630   3.917   5.161
    1TCM     h1 2701   1.603   4.152   5.128
    1TCM    cl3 2702   1.501   4.107   5.339
    1TCM     c1 2703   0.446   2.059   3.473
    1TCM    cl1 2704   0.354   2.171   3.370
    1TCM    cl2 2705   0.378   1.896   3.458
    1TCM     h1 2706   0.552   2.059   3.441
    1TCM    cl3 2707   0.436   2.113   3.642
    1TCM     c1 2708   4.657   0.446   4.873
    1TCM    cl1 2709   4.678   0.453   5.049
    1TCM    cl2 2710   4.667   0.610   4.806
    1TCM     h1 2711   4.737   0.383   4.829
    1TCM    cl3 2712   4.498   0.375   4.835
    1TCM     c1 2713   4.350   2.428   2.466
    1TCM    cl1 2714   4.268   2.287   2.539
    1TCM    cl2 2715   4.481   2.482   2.573
    1TCM     h1 2716   4.392   2.399   2.367
    1TCM    cl3 2717   4.233   2.560   2.444
    1TCM     c1 2718   3.488   4.736   1.647
    1TCM    cl1 2719   3.522   4.583   1.731
    1TCM    cl2 2720   3.525   4.718   1.474
    1TCM     h1 2721   3.381   4.762   1.660
    1TCM    cl3 2722   3.589   4.865   1.716
    1TCM     c1 2723   5.220   5.193   0.764
    1TCM    cl1 2724   5.280   5.340   0.843
    1TCM    cl2 2725   5.043   5.203   0.747
    1TCM     h1 2726   5.266   5.182   0.664
    1TCM    cl3 2727   5.262   5.051   0.863
    1TCM     c1 2728   3.975   5.153   0.260
    1TCM    cl1 2729   4.019   5.093   0.421
    1TCM    cl2 2730   4.122   5.192   0.169
    1TCM     h1 2731   3.917   5.075   0.206
    1TCM    cl3 2732   3.875   5.299   0.276
    1TCM     c1 2733   0.684   5.246   2.408
    1TCM    cl1 2734   0.575   5.339   2.513
    1TCM    cl2 2735   0.649   5.283   2.238
    1TCM     h1 2736   0.789   5.272   2.431
    1TCM    cl3 2737   0.659   5.072   2.437
    1TCM     c1 2738   2.882   5.162   4.394
    1TCM    cl1 2739   2.799   5.267   4.276
    1TCM    cl2 2740   2.986   5.046   4.308
    1TCM     h1 2741   2.944   5.224   4.462
    1TCM    cl3 2742   2.760   5.073   4.489
    1TCM     c1 2743   4.419   4.192   1.836
    1TCM    cl1 2744   4.281   4.165   1.728
    1TCM    cl2 2745   4.360   4.211   2.003
    1TCM     h1 2746   4.488   4.105   1.831
    1TCM    cl3 2747   4.505   4.339   1.787
    1TCM     c1 2748   3.253   3.714   4.876
    1TCM    cl1 2749   3.359   3.722   5.018
    1TCM    cl2 2750   3.346   3.655   4.736
    1TCM     h1 2751   3.169   3.644   4.896
    1TCM    cl3 2752   3.189   3.875   4.840
    1TCM     c1 2753   2.773   0.539   4.347
    1TCM    cl1 2754   2.672   0.545   4.493
    1TCM    cl2 2755   2.708   0.419   4.234
    1TCM     h1 2756   2.773   0.639   4.299
    1TCM    cl3 2757   2.940   0.495   4.392
    1TCM     c1 2758   3.346   3.355   1.816
    1TCM    cl1 2759   3.488   3.440   1.752
    1TCM    cl2 2760   3.329   3.390   1.990
    1TCM     h1 2761   3.255   3.390   1.763
    1TCM    cl3 2762   3.365   3.180   1.793
    1TCM     c1 2763   0.172   3.093   3.520
    1TCM    cl1 2764   0.256   2.996   3.396
    1TCM    cl2 2765   0.254   3.073   3.676
    1TCM     h1 2766   0.174   3.201   3.490
    1TCM    cl3 2767   0.004   3.039   3.534
    1TCM     c1 2768   1.510   3.844   3.104
    1TCM    cl1 2769   1.601   3.873   3.254
    1TCM    cl2 2770   1.515   3.991   3.003
    1TCM     h1 2771   1.556   3.760   3.048
    1TCM    cl3 2772   1.341   3.805   3.143
    1TCM     c1 2773   2.836   4.215   1.760
    1TCM    cl1 2774   2.695   4.108   1.751
    1TCM    cl2 2775   2.892   4.224   1.929
    1TCM     h1 2776   2.917   4.176   1.696
    1TCM    cl3 2777   2.790   4.378   1.705
    1TCM     c1 2778   5.144   1.665   2.951
    1TCM    cl1 2779   5.090   1.660   2.782
    1TCM    cl2 2780   5.321   1.689   2.956
    1TCM     h1 2781   5.094   1.748   3.004
    1TCM    cl3 2782   5.104   1.511   3.031
    1TCM     c1 2783   4.463   3.403   2.909
    1TCM    cl1 2784   4.288   3.429   2.886
    1TCM    cl2 2785   4.491   3.326   3.067
    1TCM     h1 2786   4.502   3.337   2.828
    1TCM    cl3 2787   4.547   3.559   2.904
    1TCM     c1 2788   2.705   4.911   2.651
    1TCM    cl1 2789   2.826   4.780   2.640
    1TCM    cl2 2790   2.726   4.998   2.805
    1TCM     h1 2791   2.718   4.981   2.566
    1TCM    cl3 2792   2.542   4.841   2.645
    1TCM     c1 2793   3.014   3.264   2.507
    1TCM    cl1 2794   3.030   3.107   2.589
    1TCM    cl2 2795   3.155   3.290   2.402
    1TCM     h1 2796   2.922   3.265   2.446
    1TCM    cl3 2797   3.006   3.394   2.628
    1TCM     c1 2798   1.917   3.513   4.155
    1TCM    cl1 2799   1.902   3.658   4.053
    1TCM    cl2 2800   1.942   3.562   4.324
    1TCM     h1 2801   1.824   3.453   4.148
    1TCM    cl3 2802   2.055   3.415   4.101
    1TCM     c1 2803   4.948   1.885   0.566
    1TCM    cl1 2804   4.890   1.804   0.419
    1TCM    cl2 2805   4.867   1.814   0.708
    1TCM     h1 2806   5.058   1.871   0.575
    1TCM    cl3 2807   4.911   2.058   0.557
    1TCM     c1 2808   2.078   3.105   2.062
    1TCM    cl1 2809   2.210   3.136   2.177
    1TCM    cl2 2810   2.141   3.017   1.921
    1TCM     h1 2811   2.000   3.044   2.111
    1TCM    cl3 2812   2.008   3.260   2.009
    1TCM     c1 2813   1.992   0.951   4.968
    1TCM    cl1 2814   2.041   1.118   4.934
    1TCM    cl2 2815   2.112   0.839   4.899
    1TCM     h1 2816   1.987   0.935   5.078
    1TCM    cl3 2817   1.833   0.919   4.896
    1TCM     c1 2818   0.323   5.100   4.006
    1TCM    cl1 2819   0.446   5.168   4.116
    1TCM    cl2 2820   0.352   5.159   3.841
    1TCM     h1 2821   0.329   4.990   4.008
    1TCM    cl3 2822   0.161   5.152   4.060
    1TCM     c1 2823   1.660   4.499   1.729
    1TCM    cl1 2824   1.651   4.634   1.613
    1TCM    cl2 2825   1.827   4.483   1.787
    1TCM     h1 2826   1.592   4.520   1.814
    1TCM    cl3 2827   1.610   4.349   1.648
    1TCM     c1 2828   4.918   1.012   4.251
    1TCM    cl1 2829   4.846   0.886   4.354
    1TCM    cl2 2830   4.859   0.993   4.084
    1TCM     h1 2831   4.889   1.112   4.289
    1TCM    cl3 2832   5.095   0.997   4.253
    1TCM     c1 2833   2.342   3.249   0.242
    1TCM    cl1 2834   2.408   3.332   0.099
    1TCM    cl2 2835   2.302   3.369   0.366
    1TCM     h1 2836   2.251   3.193   0.213
    1TCM    cl3 2837   2.463   3.135   0.305
    1TCM     c1 2838   2.620   4.412   1.410
    1TCM    cl1 2839   2.536   4.561   1.459
    1TCM    cl2 2840   2.593   4.383   1.237
    1TCM     h1 2841   2.729   4.424   1.429
    1TCM    cl3 2842   2.558   4.275   1.504
    1TCM     c1 2843   1.583   0.852   4.037
    1TCM    cl1 2844   1.725   0.844   4.143
    1TCM    cl2 2845   1.550   1.022   3.994
    1TCM     h1 2846   1.602   0.794   3.945
    1TCM    cl3 2847   1.442   0.785   4.122
    1TCM     c1 2848   1.571   1.156   2.828
    1TCM    cl1 2849   1.654   1.124   2.674
    1TCM    cl2 2850   1.613   1.029   2.946
    1TCM     h1 2851   1.603   1.255   2.867
    1TCM    cl3 2852   1.395   1.157   2.802
    1TCM     c1 2853   1.991   3.197   3.480
    1TCM    cl1 2854   1.962   3.175   3.305
    1TCM    cl2 2855   2.033   3.367   3.512
    1TCM     h1 2856   1.899   3.171   3.536
    1TCM    cl3 2857   2.124   3.092   3.531
    1TCM     c1 2858   3.879   4.301   3.000
    1TCM    cl1 2859   3.782   4.391   3.119
    1TCM    cl2 2860   3.882   4.391   2.846
    1TCM     h1 2861   3.982   4.289   3.038
    1TCM    cl3 2862   3.806   4.141   2.974
    1TCM     c1 2863   2.746   5.208   0.551
    1TCM    cl1 2864   2.849   5.310   0.447
    1TCM    cl2 2865   2.586   5.285   0.569
    1TCM     h1 2866   2.734   5.108   0.504
    1TCM    cl3 2867   2.822   5.190   0.711
    1TCM     c1 2868   1.651   3.811   4.112
    1TCM    cl1 2869   1.773   3.941   4.104
    1TCM    cl2 2870   1.698   3.693   4.236
    1TCM     h1 2871   1.553   3.855   4.139
    1TCM    cl3 2872   1.639   3.730   3.954
    1TCM     c1 2873   2.355   2.254   1.341
    1TCM    cl1 2874   2.503   2.342   1.386
    1TCM    cl2 2875   2.254   2.356   1.235
    1TCM     h1 2876   2.382   2.161   1.287
    1TCM    cl3 2877   2.264   2.213   1.488
    1TCM     c1 2878   3.058   0.135   3.811
    1TCM    cl1 2879   3.215   0.073   3.864
    1TCM    cl2 2880   2.979   0.221   3.946
    1TCM     h1 2881   3.072   0.206   3.726
    1TCM    cl3 2882   2.955   0.000   3.759
    1TCM     c1 2883   2.104   1.262   2.137
    1TCM    cl1 2884   2.137   1.388   2.015
    1TCM    cl2 2885   2.013   1.334   2.272
    1TCM     h1 2886   2.044   1.181   2.091
    1TCM    cl3 2887   2.257   1.196   2.197
    1TCM     c1 2888   2.322   2.828   0.282
    1TCM    cl1 2889   2.299   2.841   0.458
    1TCM    cl2 2890   2.259   2.671   0.226
    1TCM     h1 2891   2.268   2.910   0.232
    1TCM    cl3 2892   2.495   2.839   0.244
    1TCM     c1 2893   3.601   2.516   4.371
    1TCM    cl1 2894   3.686   2.666   4.412
    1TCM    cl2 2895   3.718   2.395   4.315
    1TCM     h1 2896   3.548   2.477   4.461
    1TCM    cl3 2897   3.483   2.548   4.242
    1TCM     c1 2898   0.777   0.317   2.036
    1TCM    cl1 2899   0.628   0.357   1.946
    1TCM    cl2 2900   0.733   0.239   2.190
    1TCM     h1 2901   0.839   0.248   1.976
    1TCM    cl3 2902   0.868   0.466   2.069
    1TCM     c1 2903   0.083   2.869   3.916
    1TCM    cl1 2904   0.128   3.041   3.919
    1TCM    cl2 2905   0.022   2.821   4.076
    1TCM     h1 2906   0.004   2.852   3.840
    1TCM    cl3 2907   0.226   2.771   3.875
    1TCM     c1 2908   4.295   4.865   0.798
    1TCM    cl1 2909   4.326   4.865   0.973
    1TCM    cl2 2910   4.333   5.026   0.731
    1TCM     h1 2911   4.358   4.789   0.748
    1TCM    cl3 2912   4.123   4.828   0.768
    1TCM     c1 2913   0.266   4.334   1.079
    1TCM    cl1 2914   0.280   4.161   1.040
    1TCM    cl2 2915   0.105   4.393   1.030
    1TCM     h1 2916   0.279   4.348   1.188
    1TCM    cl3 2917   0.391   4.424   0.992
    1TCM     c1 2918   2.171   2.382   3.782
    1TCM    cl1 2919   2.227   2.464   3.635
    1TCM    cl2 2920   2.299   2.391   3.906
    1TCM     h1 2921   2.079   2.431   3.819
    1TCM    cl3 2922   2.137   2.211   3.745
    1TCM     c1 2923   0.602   4.075   1.325
    1TCM    cl1 2924   0.537   4.132   1.169
    1TCM    cl2 2925   0.579   4.201   1.448
    1TCM     h1 2926   0.548   3.983   1.356
    1TCM    cl3 2927   0.775   4.040   1.309
    1TCM     c1 2928   1.575   3.850   0.439
    1TCM    cl1 2929   1.559   3.700   0.345
    1TCM    cl2 2930   1.740   3.862   0.504
    1TCM     h1 2931   1.554   3.937   0.374
    1TCM    cl3 2932   1.459   3.847   0.574
    1TCM     c1 2933   3.193   2.135   2.531
    1TCM    cl1 2934   3.353   2.073   2.485
    1TCM    cl2 2935   3.154   2.277   2.431
    1TCM     h1 2936   3.116   2.056   2.514
    1TCM    cl3 2937   3.194   2.182   2.702
    1TCM     c1 2938   1.911   2.740   2.531
    1TCM    cl1 2939   1.955   2.709   2.701
    1TCM    cl2 2940   1.737   2.715   2.510
    1TCM     h1 2941   1.938   2.844   2.504
    1TCM    cl3 2942   2.000   2.627   2.426
    1TCM     c1 2943   3.414   5.133   2.098
    1TCM    cl1 2944   3.349   5.251   1.982
    1TCM    cl2 2945   3.280   5.047   2.178
    1TCM     h1 2946   3.478   5.059   2.045
    1TCM    cl3 2947   3.511   5.217   2.220
    1TCM     c1 2948   1.041   2.547   4.450
    1TCM    cl1 2949   1.116   2.697   4.509
    1TCM    cl2 2950   1.141   2.478   4.320
    1TCM     h1 2951   1.033   2.474   4.534
    1TCM    cl3 2952   0.878   2.582   4.388
    1TCM     c1 2953   4.595   3.911   4.941
    1TCM    cl1 2954   4.673   3.778   5.030
    1TCM    cl2 2955   4.653   3.913   4.773
    1TCM     h1 2956   4.485   3.897   4.942
    1TCM    cl3 2957   4.634   4.066   5.019
    1TCM     c1 2958   4.921   1.883   4.163
    1TCM    cl1 2959   5.087   1.824   4.185
    1TCM    cl2 2960   4.870   1.857   3.995
    1TCM     h1 2961   4.853   1.827   4.231
    1TCM    cl3 2962   4.914   2.056   4.202
    1TCM     c1 2963   4.089   2.323   2.912
    1TCM    cl1 2964   4.016   2.162   2.932
    1TCM    cl2 2965   3.960   2.445   2.905
    1TCM     h1 2966   4.155   2.345   2.998
    1TCM    cl3 2967   4.183   2.327   2.761
    1TCM     c1 2968   1.468   2.833   5.168
    1TCM    cl1 2969   1.451   3.002   5.220
    1TCM    cl2 2970   1.311   2.750   5.184
    1TCM     h1 2971   1.500   2.830   5.062
    1TCM    cl3 2972   1.589   2.751   5.270
    1TCM     c1 2973   3.664   2.147   3.134
    1TCM    cl1 2974   3.498   2.210   3.119
    1TCM    cl2 2975   3.726   2.182   3.297
    1TCM     h1 2976   3.664   2.038   3.117
    1TCM    cl3 2977   3.767   2.226   3.013
    1TCM     c1 2978   2.822   4.967   0.964
    1TCM    cl1 2979   2.795   5.143   0.976
    1TCM    cl2 2980   2.667   4.884   0.941
    1TCM     h1 2981   2.889   4.946   0.877
    1TCM    cl3 2982   2.899   4.909   1.113
    1TCM     c1 2983   1.661   3.849   0.896
    1TCM    cl1 2984   1.825   3.800   0.947
    1TCM    cl2 2985   1.629   3.787   0.732
    1TCM     h1 2986   1.587   3.807   0.966
    1TCM    cl3 2987   1.650   4.026   0.896
    1TCM     c1 2988   5.072   3.224   5.123
    1TCM    cl1 2989   5.005   3.347   5.233
    1TCM    cl2 2990   4.957   3.090   5.106
    1TCM     h1 2991   5.091   3.270   5.024
    1TCM    cl3 2992   5.225   3.163   5.190
    1TCM     c1 2993   2.928   5.046   3.114
    1TCM    cl1 2994   3.091   5.115   3.135
    1TCM    cl2 2995   2.898   5.017   2.941
    1TCM     h1 2996   2.921   4.950   3.169
    1TCM    cl3 2997   2.807   5.160   3.177
    1TCM     c1 2998   4.818   3.853   3.642
    1TCM    cl1 2999   4.707   3.842   3.781
    1TCM    cl2 3000   4.725   3.887   3.494
    1TCM     h1 3001   4.891   3.935   3.660
    1TCM    cl3 3002   4.905   3.699   3.624
    1TCM     c1 3003   1.694   0.865   3.164
    1TCM    cl1 3004   1.842   0.810   3.245
    1TCM    cl2 3005   1.698   1.043   3.148
    1TCM     h1 3006   1.686   0.819   3.064
    1TCM    cl3 3007   1.553   0.818   3.262
    1TCM     c1 3008   3.319   2.736   4.562
    1TCM    cl1 3009   3.300   2.912   4.546
    1TCM    cl2 3010   3.305   2.660   4.402
    1TCM     h1 3011   3.420   2.714   4.605
    1TCM    cl3 3012   3.194   2.671   4.670
    1TCM     c1 3013   2.414   4.187   0.608
    1TCM    cl1 3014   2.261   4.145   0.527
    1TCM    cl2 3015   2.441   4.075   0.744
    1TCM     h1 3016   2.498   4.178   0.536
    1TCM    cl3 3017   2.405   4.353   0.669
    1TCM     c1 3018   3.241   1.594   0.302
    1TCM    cl1 3019   3.356   1.689   0.205
    1TCM    cl2 3020   3.158   1.477   0.198
    1TCM     h1 3021   3.295   1.541   0.382
    1TCM    cl3 3022   3.121   1.704   0.375
    1TCM     c1 3023   2.400   1.821   4.130
    1TCM    cl1 3024   2.426   1.778   4.300
    1TCM    cl2 3025   2.230   1.869   4.106
    1TCM     h1 3026   2.467   1.905   4.102
    1TCM    cl3 3027   2.436   1.680   4.027
    1TCM     c1 3028   1.311   1.003   2.670
    1TCM    cl1 3029   1.487   0.982   2.690
    1TCM    cl2 3030   1.279   1.166   2.606
    1TCM     h1 3031   1.273   0.927   2.599
    1TCM    cl3 3032   1.231   0.984   2.827
    1TCM     c1 3033   2.829   4.401   5.136
    1TCM    cl1 3034   2.857   4.291   5.273
    1TCM    cl2 3035   2.661   4.384   5.080
    1TCM     h1 3036   2.846   4.505   5.168
    1TCM    cl3 3037   2.940   4.360   5.003
    1TCM     c1 3038   2.241   4.483   1.653
    1TCM    cl1 3039   2.322   4.602   1.757
    1TCM    cl2 3040   2.277   4.518   1.483
    1TCM     h1 3041   2.277   4.381   1.679
    1TCM    cl3 3042   2.065   4.491   1.679
    1TCM     c1 3043   0.981   2.533   5.121
    1TCM    cl1 3044   0.824   2.503   5.200
    1TCM    cl2 3045   1.011   2.406   4.999
    1TCM     h1 3046   0.980   2.632   5.072
    1TCM    cl3 3047   1.110   2.529   5.243
    1TCM     c1 3048   1.676   1.157   1.813
    1TCM    cl1 3049   1.661   1.327   1.762
    1TCM    cl2 3050   1.536   1.065   1.756
    1TCM     h1 3051   1.769   1.114   1.770
    1TCM    cl3 3052   1.685   1.149   1.990
    1TCM     c1 3053   0.533   3.632   3.667
    1TCM    cl1 3054   0.374   3.712   3.675
    1TCM    cl2 3055   0.586   3.621   3.498
    1TCM     h1 3056   0.607   3.692   3.725
    1TCM    cl3 3057   0.521   3.469   3.737
    1TCM     c1 3058   0.338   0.116   3.753
    1TCM    cl1 3059   0.359   0.290   3.783
    1TCM    cl2 3060   0.447   0.065   3.621
    1TCM     h1 3061   0.363   0.060   3.845
    1TCM    cl3 3062   0.170   0.083   3.707
    1TCM     c1 3063   4.263   5.199   3.312
    1TCM    cl1 3064   4.408   5.236   3.408
    1TCM    cl2 3065   4.293   5.056   3.211
    1TCM     h1 3066   4.178   5.179   3.380
    1TCM    cl3 3067   4.224   5.338   3.207
    1TCM     c1 3068   3.255   4.030   1.564
    1TCM    cl1 3069   3.377   4.158   1.582
    1TCM    cl2 3070   3.299   3.892   1.667
    1TCM     h1 3071   3.156   4.068   1.594
    1TCM    cl3 3072   3.249   3.977   1.394
    1TCM     c1 3073   4.684   4.335   3.840
    1TCM    cl1 3074   4.623   4.479   3.925
    1TCM    cl2 3075   4.781   4.236   3.952
    1TCM     h1 3076   4.598   4.275   3.803
    1TCM    cl3 3077   4.785   4.386   3.703
    1TCM     c1 3078   0.952   3.674   0.397
    1TCM    cl1 3079   1.010   3.594   0.545
    1TCM    cl2 3080   0.997   3.576   0.255
    1TCM     h1 3081   0.842   3.684   0.401
    1TCM    cl3 3082   1.026   3.835   0.384
    1TCM     c1 3083   5.133   2.335   5.098
    1TCM    cl1 3084   5.064   2.267   5.247
    1TCM    cl2 3085   5.310   2.345   5.113
    1TCM     h1 3086   5.107   2.270   5.012
    1TCM    cl3 3087   5.067   2.498   5.071
    1TCM     c1 3088   1.020   5.032   2.518
    1TCM    cl1 3089   0.967   5.126   2.659
    1TCM    cl2 3090   1.020   5.136   2.373
    1TCM     h1 3091   1.122   4.993   2.535
    1TCM    cl3 3092   0.909   4.896   2.492
    1TCM     c1 3093   1.026   1.242   4.219
    1TCM    cl1 3094   0.925   1.338   4.330
    1TCM    cl2 3095   1.002   1.299   4.052
    1TCM     h1 3096   1.133   1.254   4.247
    1TCM    cl3 3097   0.981   1.071   4.231
    1TCM     c1 3098   3.915   2.703   4.212
    1TCM    cl1 3099   3.794   2.630   4.104
    1TCM    cl2 3100   3.911   2.620   4.370
    1TCM     h1 3101   4.016   2.692   4.167
    1TCM    cl3 3102   3.878   2.875   4.235
    1TCM     c1 3103   2.322   3.527   5.206
    1TCM    cl1 3104   2.459   3.432   5.145
    1TCM    cl2 3105   2.172   3.473   5.127
    1TCM     h1 3106   2.313   3.512   5.316
    1TCM    cl3 3107   2.349   3.699   5.171
    1TCM     c1 3108   1.293   0.572   1.007
    1TCM    cl1 3109   1.294   0.498   0.845
    1TCM    cl2 3110   1.257   0.745   0.992
    1TCM     h1 3111   1.215   0.522   1.069
    1TCM    cl3 3112   1.452   0.550   1.082
    1TCM     c1 3113   0.406   3.681   0.571
    1TCM    cl1 3114   0.468   3.688   0.405
    1TCM    cl2 3115   0.406   3.512   0.627
    1TCM     h1 3116   0.470   3.742   0.637
    1TCM    cl3 3117   0.239   3.744   0.575
    1TCM     c1 3118   3.207   1.589   3.503
    1TCM    cl1 3119   3.295   1.740   3.471
    1TCM    cl2 3120   3.201   1.492   3.354
    1TCM     h1 3121   3.258   1.532   3.582
    1TCM    cl3 3122   3.041   1.627   3.554
    1TCM     c1 3123   2.743   4.684   0.301
    1TCM    cl1 3124   2.717   4.855   0.258
    1TCM    cl2 3125   2.822   4.600   0.166
    1TCM     h1 3126   2.806   4.678   0.391
    1TCM    cl3 3127   2.586   4.607   0.334
    1TCM     c1 3128   3.671   3.473   3.342
    1TCM    cl1 3129   3.804   3.356   3.349
    1TCM    cl2 3130   3.736   3.638   3.354
    1TCM     h1 3131   3.616   3.461   3.246
    1TCM    cl3 3132   3.559   3.443   3.477
    1TCM     c1 3133   2.997   3.957   0.912
    1TCM    cl1 3134   2.896   4.087   0.846
    1TCM    cl2 3135   2.894   3.827   0.974
    1TCM     h1 3136   3.063   3.917   0.831
    1TCM    cl3 3137   3.098   4.021   1.043
    1TCM     c1 3138   4.497   4.341   1.188
    1TCM    cl1 3139   4.485   4.470   1.065
    1TCM    cl2 3140   4.637   4.238   1.151
    1TCM     h1 3141   4.510   4.387   1.288
    1TCM    cl3 3142   4.348   4.244   1.186
    1TCM     c1 3143   4.534   3.101   0.263
    1TCM    cl1 3144   4.372   3.146   0.319
    1TCM    cl2 3145   4.625   3.026   0.396
    1TCM     h1 3146   4.526   3.029   0.179
    1TCM    cl3 3147   4.620   3.247   0.208
    1TCM     c1 3148   2.926   1.036   2.210
    1TCM    cl1 3149   2.912   0.858   2.212
    1TCM    cl2 3150   2.793   1.104   2.115
    1TCM     h1 3151   2.921   1.074   2.314
    1TCM    cl3 3152   3.081   1.082   2.137
    1TCM     c1 3153   3.450   4.597   2.980
    1TCM    cl1 3154   3.400   4.735   2.880
    1TCM    cl2 3155   3.404   4.627   3.149
    1TCM     h1 3156   3.400   4.505   2.944
    1TCM    cl3 3157   3.626   4.577   2.970
    1TCM     c1 3158   3.710   3.559   3.970
    1TCM    cl1 3159   3.821   3.654   4.073
    1TCM    cl2 3160   3.708   3.390   4.025
    1TCM     h1 3161   3.608   3.602   3.977
    1TCM    cl3 3162   3.766   3.566   3.801
    1TCM     c1 3163   4.170   0.315   0.218
    1TCM    cl1 3164   4.319   0.304   0.315
    1TCM    cl2 3165   4.200   0.248   0.056
    1TCM     h1 3166   4.090   0.257   0.268
    1TCM    cl3 3167   4.122   0.485   0.204
    1TCM     c1 3168   3.245   3.154   3.467
    1TCM    cl1 3169   3.348   3.209   3.601
    1TCM    cl2 3170   3.325   3.192   3.312
    1TCM     h1 3171   3.229   3.045   3.475
    1TCM    cl3 3172   3.088   3.237   3.475
    1TCM     c1 3173   0.602   2.725   1.870
    1TCM    cl1 3174   0.743   2.644   1.799
    1TCM    cl2 3175   0.481   2.604   1.919
    1TCM     h1 3176   0.633   2.784   1.959
    1TCM    cl3 3177   0.530   2.835   1.750
    1TCM     c1 3178   5.193   4.301   3.023
    1TCM    cl1 3179   5.203   4.461   2.944
    1TCM    cl2 3180   5.245   4.316   3.193
    1TCM     h1 3181   5.089   4.265   3.019
    1TCM    cl3 3182   5.300   4.187   2.938
    1TCM     c1 3183   2.290   3.503   1.525
    1TCM    cl1 3184   2.374   3.476   1.371
    1TCM    cl2 3185   2.389   3.439   1.658
    1TCM     h1 3186   2.273   3.611   1.540
    1TCM    cl3 3187   2.133   3.419   1.523
    1TCM     c1 3188   5.073   1.385   2.443
    1TCM    cl1 3189   5.185   1.492   2.356
    1TCM    cl2 3190   5.131   1.218   2.433
    1TCM     h1 3191   5.067   1.416   2.549
    1TCM    cl3 3192   4.911   1.397   2.368
    1TCM     c1 3193   4.193   3.124   3.999
    1TCM    cl1 3194   4.036   3.065   4.059
    1TCM    cl2 3195   4.315   2.997   4.019
    1TCM     h1 3196   4.184   3.150   3.892
    1TCM    cl3 3197   4.241   3.268   4.091
    1TCM     c1 3198   1.605   3.560   3.468
    1TCM    cl1 3199   1.694   3.649   3.343
    1TCM    cl2 3200   1.613   3.385   3.434
    1TCM     h1 3201   1.650   3.580   3.568
    1TCM    cl3 3202   1.435   3.612   3.469
    1TCM     c1 3203   2.573   3.272   2.641
    1TCM    cl1 3204   2.441   3.209   2.741
    1TCM    cl2 3205   2.729   3.225   2.713
    1TCM     h1 3206   2.566   3.230   2.538
    1TCM    cl3 3207   2.562   3.449   2.633
    1TCM     c1 3208   1.897   2.909   0.176
    1TCM    cl1 3209   1.864   2.773   0.284
    1TCM    cl2 3210   1.916   2.850   0.009
    1TCM     h1 3211   1.813   2.981   0.180
    1TCM    cl3 3212   2.047   2.991   0.227
    1TCM     c1 3213   4.822   0.837   2.892
    1TCM    cl1 3214   4.776   0.672   2.940
    1TCM    cl2 3215   4.722   0.889   2.754
    1TCM     h1 3216   4.806   0.906   2.977
    1TCM    cl3 3217   4.994   0.840   2.845
    1TCM     c1 3218   4.872   2.045   1.258
    1TCM    cl1 3219   4.761   2.065   1.121
    1TCM    cl2 3220   4.841   2.172   1.379
    1TCM     h1 3221   4.857   1.945   1.304
    1TCM    cl3 3222   5.040   2.058   1.201
    1TCM     c1 3223   3.213   4.095   0.503
    1TCM    cl1 3224   3.078   4.156   0.601
    1TCM    cl2 3225   3.195   4.153   0.335
    1TCM     h1 3226   3.309   4.131   0.544
    1TCM    cl3 3227   3.212   3.917   0.504
    1TCM     c1 3228   2.670   4.113   3.664
    1TCM    cl1 3229   2.816   4.172   3.747
    1TCM    cl2 3230   2.708   4.081   3.494
    1TCM     h1 3231   2.635   4.019   3.713
    1TCM    cl3 3232   2.542   4.236   3.675
    1TCM     c1 3233   2.099   4.504   2.203
    1TCM    cl1 3234   2.272   4.548   2.210
    1TCM    cl2 3235   2.031   4.509   2.367
    1TCM     h1 3236   2.046   4.576   2.138
    1TCM    cl3 3237   2.082   4.340   2.137
    1TCM     c1 3238   1.607   1.764   0.678
    1TCM    cl1 3239   1.444   1.784   0.745
    1TCM    cl2 3240   1.726   1.767   0.810
    1TCM     h1 3241   1.614   1.667   0.625
    1TCM    cl3 3242   1.642   1.896   0.564
    1TCM     c1 3243   0.274   2.794   4.362
    1TCM    cl1 3244   0.382   2.856   4.235
    1TCM    cl2 3245   0.251   2.619   4.340
    1TCM     h1 3246   0.319   2.813   4.462
    1TCM    cl3 3247   0.117   2.876   4.352
    1TCM     c1 3248   0.525   1.635   4.722
    1TCM    cl1 3249   0.643   1.765   4.694
    1TCM    cl2 3250   0.571   1.544   4.868
    1TCM     h1 3251   0.424   1.679   4.736
    1TCM    cl3 3252   0.522   1.525   4.582
    1TCM     c1 3253   5.116   2.914   0.683
    1TCM    cl1 3254   5.183   2.809   0.810
    1TCM    cl2 3255   5.128   2.830   0.526
    1TCM     h1 3256   5.009   2.935   0.705
    1TCM    cl3 3257   5.207   3.066   0.677
    1TCM     c1 3258   2.198   4.265   4.830
    1TCM    cl1 3259   2.230   4.119   4.927
    1TCM    cl2 3260   2.193   4.407   4.937
    1TCM     h1 3261   2.278   4.278   4.755
    1TCM    cl3 3262   2.041   4.248   4.747
    1TCM     c1 3263   3.071   3.480   3.273
    1TCM    cl1 3264   2.903   3.523   3.235
    1TCM    cl2 3265   3.178   3.616   3.230
    1TCM     h1 3266   3.080   3.459   3.382
    1TCM    cl3 3267   3.118   3.336   3.180
    1TCM     c1 3268   2.963   4.404   0.375
    1TCM    cl1 3269   2.993   4.407   0.550
    1TCM    cl2 3270   3.005   4.562   0.305
    1TCM     h1 3271   3.026   4.325   0.328
    1TCM    cl3 3272   2.791   4.370   0.345
    1TCM     c1 3273   3.464   4.483   0.480
    1TCM    cl1 3274   3.524   4.374   0.352
    1TCM    cl2 3275   3.536   4.436   0.636
    1TCM     h1 3276   3.492   4.587   0.456
    1TCM    cl3 3277   3.287   4.470   0.490
    1TCM     c1 3278   2.400   3.728   1.032
    1TCM    cl1 3279   2.562   3.783   1.080
    1TCM    cl2 3280   2.353   3.586   1.128
    1TCM     h1 3281   2.327   3.810   1.049
    1TCM    cl3 3282   2.401   3.685   0.859
    1TCM     c1 3283   4.084   3.944   3.751
    1TCM    cl1 3284   4.195   3.913   3.615
    1TCM    cl2 3285   4.178   3.988   3.895
    1TCM     h1 3286   4.016   4.028   3.724
    1TCM    cl3 3287   3.989   3.798   3.784
    1TCM     c1 3288   5.221   4.786   4.202
    1TCM    cl1 3289   5.067   4.748   4.122
    1TCM    cl2 3290   5.190   4.840   4.369
    1TCM     h1 3291   5.285   4.695   4.204
    1TCM    cl3 3292   5.305   4.915   4.113
    1TCM     c1 3293   4.180   0.287   3.515
    1TCM    cl1 3294   4.173   0.267   3.691
    1TCM    cl2 3295   4.036   0.377   3.460
    1TCM     h1 3296   4.271   0.343   3.488
    1TCM    cl3 3297   4.183   0.127   3.437
    1TCM     c1 3298   2.443   2.668   3.451
    1TCM    cl1 3299   2.389   2.802   3.348
    1TCM    cl2 3300   2.387   2.695   3.618
    1TCM     h1 3301   2.400   2.573   3.413
    1TCM    cl3 3302   2.620   2.658   3.448
    1TCM     c1 3303   5.019   4.620   2.602
    1TCM    cl1 3304   5.008   4.782   2.531
    1TCM    cl2 3305   5.000   4.631   2.779
    1TCM     h1 3306   4.940   4.555   2.561
    1TCM    cl3 3307   5.179   4.549   2.565
    1TCM     c1 3308   2.396   0.827   2.047
    1TCM    cl1 3309   2.266   0.724   1.984
    1TCM    cl2 3310   2.406   0.808   2.224
    1TCM     h1 3311   2.493   0.798   2.001
    1TCM    cl3 3312   2.362   0.997   2.008
    1TCM     c1 3313   0.266   2.398   3.030
    1TCM    cl1 3314   0.119   2.478   2.969
    1TCM    cl2 3315   0.299   2.253   2.933
    1TCM     h1 3316   0.352   2.468   3.022
    1TCM    cl3 3317   0.243   2.352   3.200
    1TCM     c1 3318   1.099   4.062   1.117
    1TCM    cl1 3319   1.103   4.063   0.939
    1TCM    cl2 3320   1.233   3.962   1.178
    1TCM     h1 3321   1.110   4.165   1.155
    1TCM    cl3 3322   0.945   3.993   1.172
    1TCM     c1 3323   2.631   3.053   0.692
    1TCM    cl1 3324   2.682   3.113   0.533
    1TCM    cl2 3325   2.568   3.188   0.789
    1TCM     h1 3326   2.552   2.976   0.679
    1TCM    cl3 3327   2.770   2.980   0.776
    1TCM     c1 3328   0.726   0.606   0.843
    1TCM    cl1 3329   0.851   0.532   0.740
    1TCM    cl2 3330   0.789   0.626   1.008
    1TCM     h1 3331   0.698   0.705   0.801
    1TCM    cl3 3332   0.582   0.501   0.847
    1TCM     c1 3333   5.029   2.217   3.268
    1TCM    cl1 3334   4.917   2.346   3.317
    1TCM    cl2 3335   5.086   2.249   3.103
    1TCM     h1 3336   5.115   2.215   3.337
    1TCM    cl3 3337   4.945   2.061   3.273
    1TCM     c1 3338   2.510   1.009   3.504
    1TCM    cl1 3339   2.642   1.030   3.387
    1TCM    cl2 3340   2.561   1.072   3.662
    1TCM     h1 3341   2.421   1.064   3.469
    1TCM    cl3 3342   2.471   0.836   3.519
    1TCM     c1 3343   5.132   1.011   2.242
    1TCM    cl1 3344   5.109   1.181   2.195
    1TCM    cl2 3345   5.269   0.943   2.152
    1TCM     h1 3346   5.153   1.005   2.351
    1TCM    cl3 3347   4.985   0.919   2.205
    1TCM     c1 3348   3.929   0.521   4.502
    1TCM    cl1 3349   3.909   0.446   4.662
    1TCM    cl2 3350   3.948   0.697   4.520
    1TCM     h1 3351   4.018   0.478   4.452
    1TCM    cl3 3352   3.785   0.487   4.403
    1TCM     c1 3353   5.109   0.886   5.065
    1TCM    cl1 3354   5.204   0.804   4.939
    1TCM    cl2 3355   5.187   0.862   5.223
    1TCM     h1 3356   5.104   0.994   5.042
    1TCM    cl3 3357   4.945   0.818   5.069
    1TCM     c1 3358   2.905   0.583   1.493
    1TCM    cl1 3359   3.028   0.456   1.518
    1TCM    cl2 3360   2.878   0.670   1.646
    1TCM     h1 3361   2.940   0.654   1.416
    1TCM    cl3 3362   2.753   0.508   1.441
    1TCM     c1 3363   2.089   1.373   3.849
    1TCM    cl1 3364   2.050   1.493   3.974
    1TCM    cl2 3365   1.958   1.365   3.729
    1TCM     h1 3366   2.184   1.402   3.798
    1TCM    cl3 3367   2.110   1.213   3.924
   5.54000   5.54000   5.54000
