FOO
 3367
    1PMP     C1    1   3.737   0.314   4.827
    1PMP     O2    2   3.863   0.244   4.810
    1PMP     C3    3   3.977   0.320   4.790
    1PMP     C4    4   4.099   0.250   4.782
    1PMP     C5    5   4.222   0.318   4.763
    1PMP     C6    6   4.350   0.242   4.756
    1PMP     C7    7   4.369   0.125   4.834
    1PMP     C8    8   4.489   0.052   4.826
    1PMP     C9    9   4.592   0.093   4.738
    1PMP    C10   10   4.718   0.014   4.727
    1PMP    O11   11   4.740  -0.075   4.809
    1PMP    C12   12   4.574   0.210   4.661
    1PMP    C13   13   4.454   0.284   4.669
    1PMP    C14   14   4.221   0.459   4.753
    1PMP    C15   15   4.099   0.532   4.761
    1PMP    C16   16   4.099   0.681   4.756
    1PMP    C17   17   4.208   0.755   4.807
    1PMP    C18   18   4.204   0.896   4.811
    1PMP    C19   19   4.091   0.966   4.764
    1PMP    C20   20   4.086   1.119   4.781
    1PMP    C21   21   3.951   1.186   4.748
    1PMP    N22   22   4.192   1.193   4.710
    1PMP    C23   23   3.983   0.893   4.708
    1PMP    C24   24   3.988   0.752   4.703
    1PMP    C25   25   3.978   0.461   4.779
    1PMP    H26   26   3.742   0.378   4.916
    1PMP    H27   27   3.715   0.374   4.738
    1PMP    H28   28   3.658   0.240   4.841
    1PMP    H29   29   4.096   0.142   4.790
    1PMP    H30   30   4.292   0.092   4.903
    1PMP    H31   31   4.501  -0.036   4.888
    1PMP    H32   32   4.652   0.245   4.594
    1PMP    H33   33   4.441   0.372   4.608
    1PMP    H34   34   4.314   0.512   4.739
    1PMP    H35   35   4.295   0.705   4.849
    1PMP    H36   36   4.288   0.951   4.852
    1PMP    H37   37   4.101   1.138   4.888
    1PMP    H38   38   3.928   1.171   4.642
    1PMP    H39   39   3.873   1.141   4.809
    1PMP    H40   40   3.957   1.293   4.769
    1PMP    H41   41   4.216   1.286   4.743
    1PMP    H42   42   3.896   0.942   4.666
    1PMP    H43   43   3.905   0.699   4.658
    1PMP    H44   44   3.886   0.518   4.788
    2PMP    C45   45   5.058   1.452   4.497
    2PMP    O46   46   5.023   1.575   4.428
    2PMP    C47   47   4.889   1.593   4.393
    2PMP    C48   48   4.786   1.500   4.423
    2PMP    C49   49   4.652   1.526   4.385
    2PMP    C50   50   4.544   1.433   4.426
    2PMP    C51   51   4.561   1.292   4.417
    2PMP    C52   52   4.463   1.205   4.467
    2PMP    C53   53   4.346   1.256   4.528
    2PMP    C54   54   4.245   1.164   4.585
    2PMP    O55   55   4.188   1.086   4.510
    2PMP    C56   56   4.326   1.396   4.533
    2PMP    C57   57   4.425   1.484   4.482
    2PMP    C58   58   4.622   1.645   4.315
    2PMP    C59   59   4.723   1.739   4.285
    2PMP    C60   60   4.689   1.864   4.213
    2PMP    C61   61   4.604   1.861   4.100
    2PMP    C62   62   4.573   1.979   4.030
    2PMP    C63   63   4.624   2.104   4.074
    2PMP    C64   64   4.584   2.232   3.998
    2PMP    C65   65   4.706   2.326   3.978
    2PMP    N66   66   4.476   2.315   4.058
    2PMP    C67   67   4.707   2.108   4.189
    2PMP    C68   68   4.741   1.989   4.256
    2PMP    C69   69   4.856   1.712   4.326
    2PMP    H70   70   5.034   1.366   4.434
    2PMP    H71   71   5.166   1.453   4.516
    2PMP    H72   72   5.006   1.446   4.593
    2PMP    H73   73   4.807   1.409   4.477
    2PMP    H74   74   4.651   1.251   4.372
    2PMP    H75   75   4.477   1.097   4.459
    2PMP    H76   76   4.235   1.438   4.576
    2PMP    H77   77   4.409   1.591   4.489
    2PMP    H78   78   4.519   1.666   4.286
    2PMP    H79   79   4.563   1.766   4.066
    2PMP    H80   80   4.507   1.974   3.945
    2PMP    H81   81   4.552   2.203   3.898
    2PMP    H82   82   4.736   2.369   4.073
    2PMP    H83   83   4.788   2.268   3.934
    2PMP    H84   84   4.677   2.406   3.909
    2PMP    H85   85   4.461   2.407   4.019
    2PMP    H86   86   4.745   2.202   4.227
    2PMP    H87   87   4.805   1.993   4.344
    2PMP    H88   88   4.934   1.783   4.302
    3PMP    C89   89   3.570   2.440   4.427
    3PMP    O90   90   3.576   2.582   4.403
    3PMP    C91   91   3.696   2.636   4.359
    3PMP    C92   92   3.811   2.558   4.329
    3PMP    C93   93   3.931   2.620   4.285
    3PMP    C94   94   4.048   2.536   4.251
    3PMP    C95   95   4.084   2.427   4.333
    3PMP    C96   96   4.192   2.344   4.299
    3PMP    C97   97   4.266   2.368   4.181
    3PMP    C98   98   4.374   2.273   4.143
    3PMP    O99   99   4.356   2.154   4.164
    3PMP   C100  100   4.232   2.478   4.099
    3PMP   C101  101   4.123   2.562   4.134
    3PMP   C102  102   3.935   2.761   4.272
    3PMP   C103  103   3.822   2.840   4.302
    3PMP   C104  104   3.828   2.989   4.293
    3PMP   C105  105   3.949   3.059   4.318
    3PMP   C106  106   3.951   3.200   4.321
    3PMP   C107  107   3.833   3.275   4.298
    3PMP   C108  108   3.836   3.428   4.318
    3PMP   C109  109   3.700   3.499   4.299
    3PMP   N110  110   3.935   3.501   4.235
    3PMP   C111  111   3.713   3.205   4.268
    3PMP   C112  112   3.711   3.064   4.265
    3PMP   C113  113   3.703   2.776   4.343
    3PMP   H114  114   3.644   2.412   4.502
    3PMP   H115  115   3.471   2.415   4.464
    3PMP   H116  116   3.588   2.386   4.333
    3PMP   H117  117   3.810   2.450   4.338
    3PMP   H118  118   4.028   2.407   4.425
    3PMP   H119  119   4.217   2.259   4.362
    3PMP   H120  120   4.285   2.499   4.006
    3PMP   H121  121   4.096   2.644   4.068
    3PMP   H122  122   4.028   2.807   4.239
    3PMP   H123  123   4.040   3.005   4.342
    3PMP   H124  124   4.044   3.252   4.345
    3PMP   H125  125   3.863   3.444   4.422
    3PMP   H126  126   3.667   3.487   4.195
    3PMP   H127  127   3.627   3.455   4.367
    3PMP   H128  128   3.711   3.605   4.322
    3PMP   H129  129   3.964   3.592   4.267
    3PMP   H130  130   3.620   3.257   4.248
    3PMP   H131  131   3.618   3.014   4.242
    3PMP   H132  132   3.614   2.832   4.368
    4PMP   C133  133   4.763   3.762   3.863
    4PMP   O134  134   4.713   3.888   3.810
    4PMP   C135  135   4.575   3.906   3.804
    4PMP   C136  136   4.482   3.812   3.855
    4PMP   C137  137   4.343   3.838   3.849
    4PMP   C138  138   4.246   3.745   3.911
    4PMP   C139  139   4.253   3.606   3.886
    4PMP   C140  140   4.160   3.518   3.946
    4PMP   C141  141   4.063   3.567   4.036
    4PMP   C142  142   3.971   3.473   4.105
    4PMP   O143  143   3.908   3.391   4.039
    4PMP   C144  144   4.055   3.707   4.060
    4PMP   C145  145   4.146   3.794   3.997
    4PMP   C146  146   4.298   3.956   3.786
    4PMP   C147  147   4.389   4.049   3.733
    4PMP   C148  148   4.338   4.171   3.666
    4PMP   C149  149   4.234   4.161   3.571
    4PMP   C150  150   4.181   4.277   3.510
    4PMP   C151  151   4.229   4.404   3.547
    4PMP   C152  152   4.160   4.529   3.489
    4PMP   C153  153   4.261   4.642   3.459
    4PMP   N154  154   4.054   4.590   3.573
    4PMP   C155  155   4.334   4.414   3.641
    4PMP   C156  156   4.390   4.298   3.699
    4PMP   C157  157   4.528   4.024   3.744
    4PMP   H158  158   4.724   3.679   3.803
    4PMP   H159  159   4.871   3.763   3.857
    4PMP   H160  160   4.733   3.751   3.967
    4PMP   H161  161   4.514   3.720   3.903
    4PMP   H162  162   4.328   3.566   3.818
    4PMP   H163  163   4.165   3.412   3.924
    4PMP   H164  164   3.980   3.748   4.126
    4PMP   H165  165   4.140   3.901   4.018
    4PMP   H166  166   4.191   3.975   3.779
    4PMP   H167  167   4.194   4.063   3.544
    4PMP   H168  168   4.101   4.267   3.438
    4PMP   H169  169   4.115   4.502   3.393
    4PMP   H170  170   4.297   4.687   3.552
    4PMP   H171  171   4.346   4.601   3.404
    4PMP   H172  172   4.212   4.719   3.399
    4PMP   H173  173   4.024   4.684   3.551
    4PMP   H174  174   4.372   4.511   3.673
    4PMP   H175  175   4.469   4.307   3.773
    4PMP   H176  176   4.600   4.095   3.704
    5CAP   C177  177   4.925  -0.038   4.618
    5CAP   O178  178   4.806   0.044   4.625
    5CAP   H179  179   4.980  -0.034   4.712
    5CAP   H180  180   4.989  -0.000   4.538
    5CAP   H181  181   4.897  -0.142   4.595
    6CAP   C182  182   4.050   4.246   3.890
    6CAP   C183  183   3.994   4.389   3.877
    6CAP   C184  184   3.843   4.384   3.910
    6CAP   C185  185   4.072   4.479   3.978
    6CAP   O186  186   4.017   4.422   3.737
    6CAP   C187  187   4.011   4.553   3.698
    6CAP   O188  188   3.944   4.639   3.753
    6CAP   H189  189   4.028   4.206   3.990
    6CAP   H190  190   4.004   4.182   3.814
    6CAP   H191  191   4.158   4.248   3.875
    6CAP   H192  192   3.792   4.321   3.838
    6CAP   H193  193   3.801   4.485   3.908
    6CAP   H194  194   3.829   4.343   4.011
    6CAP   H195  195   4.176   4.488   3.945
    6CAP   H196  196   4.027   4.578   3.985
    6CAP   H197  197   4.070   4.432   4.077
    7TCM     c1  198   4.192   0.348   2.456
    7TCM    cl1  199   4.021   0.395   2.485
    7TCM    cl2  200   4.286   0.361   2.608
    7TCM     h1  201   4.196   0.245   2.419
    7TCM    cl3  202   4.264   0.457   2.332
    8TCM     c1  203   1.386   2.494   4.019
    8TCM    cl1  204   1.277   2.488   4.161
    8TCM    cl2  205   1.356   2.352   3.913
    8TCM     h1  206   1.367   2.586   3.963
    8TCM    cl3  207   1.557   2.493   4.074
    9TCM     c1  208   1.479   2.142   0.762
    9TCM    cl1  209   1.306   2.182   0.785
    9TCM    cl2  210   1.504   1.968   0.796
    9TCM     h1  211   1.509   2.165   0.659
    9TCM    cl3  212   1.578   2.240   0.877
   10TCM     c1  213   2.519   0.501   3.545
   10TCM    cl1  214   2.501   0.399   3.398
   10TCM    cl2  215   2.468   0.406   3.688
   10TCM     h1  216   2.623   0.531   3.557
   10TCM    cl3  217   2.415   0.646   3.530
   11TCM     c1  218   2.060   1.594   2.504
   11TCM    cl1  219   2.025   1.452   2.608
   11TCM    cl2  220   1.950   1.591   2.362
   11TCM     h1  221   2.044   1.686   2.561
   11TCM    cl3  222   2.231   1.588   2.448
   12TCM     c1  223   4.857   1.119   0.033
   12TCM    cl1  224   4.976   1.018   0.121
   12TCM    cl2  225   4.926   1.282   0.006
   12TCM     h1  226   4.833   1.072  -0.063
   12TCM    cl3  227   4.708   1.133   0.133
   13TCM     c1  228   2.608   0.527   2.229
   13TCM    cl1  229   2.763   0.609   2.266
   13TCM    cl2  230   2.636   0.350   2.214
   13TCM     h1  231   2.536   0.546   2.309
   13TCM    cl3  232   2.544   0.588   2.073
   14TCM     c1  233   3.411   3.988   4.324
   14TCM    cl1  234   3.353   4.126   4.423
   14TCM    cl2  235   3.558   3.917   4.400
   14TCM     h1  236   3.333   3.912   4.317
   14TCM    cl3  237   3.452   4.048   4.159
   15TCM     c1  238   0.155   3.976   3.385
   15TCM    cl1  239   0.163   4.047   3.220
   15TCM    cl2  240   0.000   4.023   3.462
   15TCM     h1  241   0.161   3.867   3.378
   15TCM    cl3  242   0.292   4.038   3.483
   16TCM     c1  243   3.651   1.182   2.349
   16TCM    cl1  244   3.548   1.325   2.312
   16TCM    cl2  245   3.770   1.226   2.476
   16TCM     h1  246   3.588   1.100   2.384
   16TCM    cl3  247   3.738   1.132   2.200
   17TCM     c1  248   4.419   3.225   3.992
   17TCM    cl1  249   4.271   3.202   4.090
   17TCM    cl2  250   4.499   3.378   4.041
   17TCM     h1  251   4.487   3.141   4.008
   17TCM    cl3  252   4.376   3.235   3.818
   18TCM     c1  253   0.302   2.698   1.096
   18TCM    cl1  254   0.220   2.543   1.061
   18TCM    cl2  255   0.190   2.834   1.062
   18TCM     h1  256   0.333   2.701   1.201
   18TCM    cl3  257   0.447   2.713   0.990
   19TCM     c1  258   1.373   1.983   1.973
   19TCM    cl1  259   1.194   1.987   1.987
   19TCM    cl2  260   1.444   1.946   2.134
   19TCM     h1  261   1.403   1.906   1.902
   19TCM    cl3  262   1.433   2.143   1.918
   20TCM     c1  263   3.869   4.311   0.463
   20TCM    cl1  264   3.806   4.308   0.295
   20TCM    cl2  265   3.751   4.394   0.570
   20TCM     h1  266   3.884   4.208   0.498
   20TCM    cl3  267   4.026   4.398   0.467
   21TCM     c1  268   2.299   0.043   3.683
   21TCM    cl1  269   2.377   0.036   3.845
   21TCM    cl2  270   2.424   0.079   3.560
   21TCM     h1  271   2.252  -0.053   3.661
   21TCM    cl3  272   2.175   0.173   3.682
   22TCM     c1  273   2.707   1.562   2.589
   22TCM    cl1  274   2.626   1.716   2.543
   22TCM    cl2  275   2.721   1.555   2.768
   22TCM     h1  276   2.647   1.477   2.554
   22TCM    cl3  277   2.870   1.556   2.515
   23TCM     c1  278   0.370   3.062   4.485
   23TCM    cl1  279   0.525   3.069   4.396
   23TCM    cl2  280   0.269   2.928   4.420
   23TCM     h1  281   0.390   3.044   4.591
   23TCM    cl3  282   0.283   3.218   4.467
   24TCM     c1  283   4.202   3.373   1.797
   24TCM    cl1  284   4.156   3.299   1.640
   24TCM    cl2  285   4.081   3.328   1.922
   24TCM     h1  286   4.301   3.337   1.827
   24TCM    cl3  287   4.205   3.552   1.778
   25TCM     c1  288   0.101   3.524   4.507
   25TCM    cl1  289  -0.050   3.426   4.505
   25TCM    cl2  290   0.168   3.525   4.673
   25TCM     h1  291   0.173   3.480   4.438
   25TCM    cl3  292   0.062   3.691   4.456
   26TCM     c1  293   1.862   0.947   3.153
   26TCM    cl1  294   1.720   1.056   3.144
   26TCM    cl2  295   2.011   1.042   3.121
   26TCM     h1  296   1.868   0.901   3.252
   26TCM    cl3  297   1.846   0.818   3.029
   27TCM     c1  298   0.964   1.705   2.418
   27TCM    cl1  299   1.026   1.776   2.570
   27TCM    cl2  300   1.033   1.541   2.397
   27TCM     h1  301   0.855   1.699   2.423
   27TCM    cl3  302   1.012   1.809   2.280
   28TCM     c1  303   2.949   4.516   4.535
   28TCM    cl1  304   2.779   4.505   4.592
   28TCM    cl2  305   2.950   4.563   4.362
   28TCM     h1  306   3.002   4.591   4.593
   28TCM    cl3  307   3.031   4.357   4.554
   29TCM     c1  308   2.388   2.451   1.988
   29TCM    cl1  309   2.494   2.595   1.979
   29TCM    cl2  310   2.235   2.482   1.900
   29TCM     h1  311   2.439   2.365   1.943
   29TCM    cl3  312   2.350   2.415   2.160
   30TCM     c1  313   2.633   2.043   4.876
   30TCM    cl1  314   2.799   2.044   4.945
   30TCM    cl2  315   2.631   1.944   4.726
   30TCM     h1  316   2.564   2.000   4.949
   30TCM    cl3  317   2.582   2.211   4.838
   31TCM     c1  318   4.743   4.971   1.031
   31TCM    cl1  319   4.792   4.822   0.944
   31TCM    cl2  320   4.571   5.007   0.993
   31TCM     h1  321   4.755   4.956   1.139
   31TCM    cl3  322   4.846   5.107   0.977
   32TCM     c1  323   2.821   0.677   1.062
   32TCM    cl1  324   2.706   0.701   1.197
   32TCM    cl2  325   2.738   0.594   0.926
   32TCM     h1  326   2.859   0.774   1.028
   32TCM    cl3  327   2.958   0.576   1.118
   33TCM     c1  328   3.630   3.229   1.609
   33TCM    cl1  329   3.788   3.217   1.692
   33TCM    cl2  330   3.656   3.238   1.431
   33TCM     h1  331   3.570   3.141   1.632
   33TCM    cl3  332   3.544   3.377   1.663
   34TCM     c1  333   1.038   0.917   3.029
   34TCM    cl1  334   1.075   0.745   2.995
   34TCM    cl2  335   0.922   0.929   3.165
   34TCM     h1  336   1.130   0.969   3.055
   34TCM    cl3  337   0.965   0.992   2.883
   35TCM     c1  338   2.663   3.619   3.032
   35TCM    cl1  339   2.510   3.636   3.123
   35TCM    cl2  340   2.797   3.688   3.130
   35TCM     h1  341   2.683   3.513   3.013
   35TCM    cl3  342   2.651   3.708   2.877
   36TCM     c1  343   0.375   1.048   2.141
   36TCM    cl1  344   0.499   0.967   2.242
   36TCM    cl2  345   0.239   1.102   2.244
   36TCM     h1  346   0.420   1.134   2.090
   36TCM    cl3  347   0.313   0.932   2.019
   37TCM     c1  348   4.632   1.923   1.885
   37TCM    cl1  349   4.698   1.834   2.026
   37TCM    cl2  350   4.682   1.839   1.734
   37TCM     h1  351   4.522   1.925   1.890
   37TCM    cl3  352   4.695   2.090   1.884
   38TCM     c1  353   1.185   3.389   1.966
   38TCM    cl1  354   1.193   3.337   2.137
   38TCM    cl2  355   1.234   3.561   1.951
   38TCM     h1  356   1.253   3.328   1.906
   38TCM    cl3  357   1.018   3.368   1.904
   39TCM     c1  358   3.475   1.449   1.878
   39TCM    cl1  359   3.369   1.349   1.772
   39TCM    cl2  360   3.620   1.353   1.924
   39TCM     h1  361   3.506   1.538   1.824
   39TCM    cl3  362   3.384   1.496   2.025
   40TCM     c1  363   0.555   2.407   1.991
   40TCM    cl1  364   0.604   2.440   1.822
   40TCM    cl2  365   0.657   2.505   2.102
   40TCM     h1  366   0.450   2.434   2.005
   40TCM    cl3  367   0.579   2.233   2.028
   41TCM     c1  368   2.087   3.632   1.515
   41TCM    cl1  369   1.936   3.657   1.608
   41TCM    cl2  370   2.076   3.475   1.429
   41TCM     h1  371   2.100   3.713   1.443
   41TCM    cl3  372   2.226   3.629   1.628
   42TCM     c1  373   0.717   4.510   0.792
   42TCM    cl1  374   0.805   4.408   0.911
   42TCM    cl2  375   0.804   4.666   0.774
   42TCM     h1  376   0.712   4.458   0.696
   42TCM    cl3  377   0.551   4.541   0.852
   43TCM     c1  378   0.074   0.943   4.643
   43TCM    cl1  379   0.032   0.858   4.796
   43TCM    cl2  380   0.252   0.939   4.619
   43TCM     h1  381   0.025   0.893   4.559
   43TCM    cl3  382   0.019   1.113   4.653
   44TCM     c1  383   1.164   3.681   4.540
   44TCM    cl1  384   1.251   3.742   4.395
   44TCM    cl2  385   1.049   3.806   4.597
   44TCM     h1  386   1.110   3.590   4.515
   44TCM    cl3  387   1.284   3.648   4.670
   45TCM     c1  388   0.058   0.540   4.490
   45TCM    cl1  389   0.036   0.672   4.371
   45TCM    cl2  390  -0.094   0.522   4.584
   45TCM     h1  391   0.081   0.446   4.438
   45TCM    cl3  392   0.192   0.582   4.602
   46TCM     c1  393   0.982   4.073   1.904
   46TCM    cl1  394   1.106   3.944   1.887
   46TCM    cl2  395   1.062   4.228   1.943
   46TCM     h1  396   0.926   4.082   1.811
   46TCM    cl3  397   0.869   4.029   2.037
   47TCM     c1  398   3.282   3.924   4.766
   47TCM    cl1  399   3.283   3.811   4.905
   47TCM    cl2  400   3.237   3.834   4.617
   47TCM     h1  401   3.209   4.004   4.783
   47TCM    cl3  402   3.446   3.995   4.747
   48TCM     c1  403   1.375   1.546   1.066
   48TCM    cl1  404   1.210   1.486   1.101
   48TCM    cl2  405   1.487   1.493   1.195
   48TCM     h1  406   1.409   1.506   0.970
   48TCM    cl3  407   1.372   1.726   1.059
   49TCM     c1  408   3.013   0.506   2.027
   49TCM    cl1  409   2.927   0.627   1.927
   49TCM    cl2  410   3.189   0.511   1.991
   49TCM     h1  411   2.998   0.528   2.133
   49TCM    cl3  412   2.949   0.342   1.990
   50TCM     c1  413   4.970   0.451   1.685
   50TCM    cl1  414   4.909   0.403   1.847
   50TCM    cl2  415   5.085   0.326   1.626
   50TCM     h1  416   4.886   0.459   1.616
   50TCM    cl3  417   5.054   0.609   1.698
   51TCM     c1  418   3.417   2.430   0.686
   51TCM    cl1  419   3.317   2.452   0.539
   51TCM    cl2  420   3.508   2.276   0.673
   51TCM     h1  421   3.487   2.513   0.696
   51TCM    cl3  422   3.311   2.423   0.831
   52TCM     c1  423   4.717   1.721   3.003
   52TCM    cl1  424   4.673   1.586   2.892
   52TCM    cl2  425   4.724   1.659   3.171
   52TCM     h1  426   4.814   1.762   2.974
   52TCM    cl3  427   4.591   1.848   2.992
   53TCM     c1  428   1.936   3.395   2.022
   53TCM    cl1  429   1.797   3.452   2.119
   53TCM    cl2  430   2.056   3.317   2.130
   53TCM     h1  431   1.902   3.323   1.948
   53TCM    cl3  432   2.012   3.535   1.940
   54TCM     c1  433   0.317   4.886   4.473
   54TCM    cl1  434   0.352   4.907   4.647
   54TCM    cl2  435   0.281   5.047   4.400
   54TCM     h1  436   0.403   4.842   4.423
   54TCM    cl3  437   0.175   4.779   4.453
   55TCM     c1  438   4.526   0.599   4.321
   55TCM    cl1  439   4.436   0.584   4.166
   55TCM    cl2  440   4.649   0.728   4.304
   55TCM     h1  441   4.456   0.625   4.402
   55TCM    cl3  442   4.607   0.444   4.359
   56TCM     c1  443   3.679   4.507   0.982
   56TCM    cl1  444   3.704   4.550   1.154
   56TCM    cl2  445   3.836   4.518   0.896
   56TCM     h1  446   3.639   4.405   0.974
   56TCM    cl3  447   3.562   4.622   0.910
   57TCM     c1  448   4.402   4.342   4.641
   57TCM    cl1  449   4.575   4.360   4.686
   57TCM    cl2  450   4.377   4.412   4.479
   57TCM     h1  451   4.376   4.236   4.640
   57TCM    cl3  452   4.300   4.428   4.761
   58TCM     c1  453   3.775   3.989   1.050
   58TCM    cl1  454   3.735   3.844   0.952
   58TCM    cl2  455   3.791   3.943   1.222
   58TCM     h1  456   3.869   4.031   1.014
   58TCM    cl3  457   3.644   4.110   1.033
   59TCM     c1  458   3.612   3.976   3.270
   59TCM    cl1  459   3.513   4.115   3.217
   59TCM    cl2  460   3.774   3.986   3.194
   59TCM     h1  461   3.622   3.976   3.379
   59TCM    cl3  462   3.531   3.824   3.217
   60TCM     c1  463   0.363   0.585   2.877
   60TCM    cl1  464   0.324   0.514   3.037
   60TCM    cl2  465   0.210   0.633   2.795
   60TCM     h1  466   0.426   0.673   2.891
   60TCM    cl3  467   0.448   0.464   2.776
   61TCM     c1  468   3.003   2.459   2.721
   61TCM    cl1  469   2.976   2.459   2.898
   61TCM    cl2  470   3.065   2.619   2.669
   61TCM     h1  471   3.075   2.381   2.694
   61TCM    cl3  472   2.846   2.426   2.639
   62TCM     c1  473   3.463   2.200   2.208
   62TCM    cl1  474   3.410   2.068   2.099
   62TCM    cl2  475   3.602   2.143   2.306
   62TCM     h1  476   3.494   2.286   2.148
   62TCM    cl3  477   3.328   2.248   2.315
   63TCM     c1  478   4.784   0.341   2.197
   63TCM    cl1  479   4.650   0.449   2.246
   63TCM    cl2  480   4.772   0.186   2.287
   63TCM     h1  481   4.777   0.321   2.090
   63TCM    cl3  482   4.942   0.419   2.233
   64TCM     c1  483   0.087   0.296   2.713
   64TCM    cl1  484  -0.042   0.337   2.830
   64TCM    cl2  485   0.012   0.232   2.563
   64TCM     h1  486   0.146   0.385   2.689
   64TCM    cl3  487   0.194   0.170   2.784
   65TCM     c1  488   4.884   3.501   0.671
   65TCM    cl1  489   4.834   3.671   0.640
   65TCM    cl2  490   4.928   3.483   0.845
   65TCM     h1  491   4.802   3.433   0.647
   65TCM    cl3  492   5.027   3.463   0.570
   66TCM     c1  493   1.394   3.302   0.467
   66TCM    cl1  494   1.458   3.352   0.307
   66TCM    cl2  495   1.420   3.434   0.585
   66TCM     h1  496   1.287   3.280   0.459
   66TCM    cl3  497   1.482   3.155   0.522
   67TCM     c1  498   2.733   4.251   3.777
   67TCM    cl1  499   2.591   4.240   3.886
   67TCM    cl2  500   2.719   4.398   3.675
   67TCM     h1  501   2.824   4.257   3.837
   67TCM    cl3  502   2.741   4.106   3.671
   68TCM     c1  503   4.630   1.401   4.774
   68TCM    cl1  504   4.763   1.520   4.783
   68TCM    cl2  505   4.550   1.387   4.933
   68TCM     h1  506   4.557   1.432   4.699
   68TCM    cl3  507   4.696   1.240   4.730
   69TCM     c1  508   2.683   4.613   4.073
   69TCM    cl1  509   2.596   4.601   4.229
   69TCM    cl2  510   2.564   4.612   3.939
   69TCM     h1  511   2.741   4.705   4.070
   69TCM    cl3  512   2.793   4.472   4.056
   70TCM     c1  513   3.541   4.119   1.426
   70TCM    cl1  514   3.371   4.122   1.369
   70TCM    cl2  515   3.545   4.114   1.606
   70TCM     h1  516   3.591   4.030   1.386
   70TCM    cl3  517   3.626   4.266   1.369
   71TCM     c1  518   0.478   0.134   3.210
   71TCM    cl1  519   0.374   0.246   3.303
   71TCM    cl2  520   0.644   0.134   3.280
   71TCM     h1  521   0.437   0.033   3.216
   71TCM    cl3  522   0.485   0.185   3.038
   72TCM     c1  523   0.679   1.380   2.375
   72TCM    cl1  524   0.709   1.435   2.543
   72TCM    cl2  525   0.703   1.517   2.261
   72TCM     h1  526   0.748   1.299   2.350
   72TCM    cl3  527   0.510   1.321   2.362
   73TCM     c1  528   1.025   0.733   2.243
   73TCM    cl1  529   1.069   0.821   2.093
   73TCM    cl2  530   1.160   0.624   2.290
   73TCM     h1  531   1.006   0.804   2.323
   73TCM    cl3  532   0.876   0.637   2.213
   74TCM     c1  533   2.623   0.937   3.472
   74TCM    cl1  534   2.658   0.966   3.299
   74TCM    cl2  535   2.643   1.091   3.563
   74TCM     h1  536   2.521   0.901   3.484
   74TCM    cl3  537   2.739   0.816   3.537
   75TCM     c1  538   4.316   4.757   0.873
   75TCM    cl1  539   4.210   4.759   0.728
   75TCM    cl2  540   4.454   4.646   0.845
   75TCM     h1  541   4.353   4.858   0.892
   75TCM    cl3  542   4.222   4.699   1.015
   76TCM     c1  543   0.120   4.258   0.134
   76TCM    cl1  544   0.225   4.328   0.006
   76TCM    cl2  545   0.192   4.289   0.295
   76TCM     h1  546   0.021   4.304   0.129
   76TCM    cl3  547   0.105   4.081   0.108
   77TCM     c1  548   2.251   3.295   1.759
   77TCM    cl1  549   2.354   3.256   1.618
   77TCM    cl2  550   2.308   3.203   1.902
   77TCM     h1  551   2.255   3.402   1.780
   77TCM    cl3  552   2.081   3.247   1.724
   78TCM     c1  553   0.176   3.093   0.686
   78TCM    cl1  554   0.292   3.229   0.679
   78TCM    cl2  555   0.059   3.121   0.819
   78TCM     h1  556   0.122   3.085   0.591
   78TCM    cl3  557   0.265   2.941   0.718
   79TCM     c1  558   3.085   3.460   0.661
   79TCM    cl1  559   2.968   3.402   0.538
   79TCM    cl2  560   3.015   3.602   0.747
   79TCM     h1  561   3.105   3.380   0.733
   79TCM    cl3  562   3.238   3.508   0.581
   80TCM     c1  563   3.038   2.934   4.737
   80TCM    cl1  564   3.005   3.021   4.891
   80TCM    cl2  565   2.923   2.987   4.611
   80TCM     h1  566   3.140   2.955   4.705
   80TCM    cl3  567   3.020   2.758   4.766
   81TCM     c1  568   0.889   1.124   1.657
   81TCM    cl1  569   0.734   1.040   1.630
   81TCM    cl2  570   0.985   1.034   1.779
   81TCM     h1  571   0.945   1.130   1.563
   81TCM    cl3  572   0.858   1.290   1.718
   82TCM     c1  573   1.693   2.493   4.415
   82TCM    cl1  574   1.789   2.371   4.325
   82TCM    cl2  575   1.779   2.536   4.566
   82TCM     h1  576   1.680   2.582   4.353
   82TCM    cl3  577   1.532   2.425   4.456
   83TCM     c1  578   2.006   3.850   3.968
   83TCM    cl1  579   1.925   3.946   4.096
   83TCM    cl2  580   1.952   3.907   3.807
   83TCM     h1  581   2.114   3.862   3.977
   83TCM    cl3  582   1.961   3.678   3.989
   84TCM     c1  583   0.578   0.202   4.684
   84TCM    cl1  584   0.622   0.118   4.532
   84TCM    cl2  585   0.500   0.359   4.643
   84TCM     h1  586   0.509   0.141   4.742
   84TCM    cl3  587   0.727   0.232   4.779
   85TCM     c1  588   0.813   0.424   2.674
   85TCM    cl1  589   0.844   0.557   2.791
   85TCM    cl2  590   0.862   0.268   2.747
   85TCM     h1  591   0.706   0.421   2.649
   85TCM    cl3  592   0.909   0.454   2.526
   86TCM     c1  593   4.405   2.957   3.147
   86TCM    cl1  594   4.489   3.103   3.085
   86TCM    cl2  595   4.228   2.985   3.147
   86TCM     h1  596   4.429   2.871   3.084
   86TCM    cl3  597   4.460   2.924   3.316
   87TCM     c1  598   3.114   4.689   4.972
   87TCM    cl1  599   3.000   4.822   4.941
   87TCM    cl2  600   3.075   4.552   4.863
   87TCM     h1  601   3.217   4.723   4.954
   87TCM    cl3  602   3.097   4.633   5.142
   88TCM     c1  603   1.765   4.986   3.269
   88TCM    cl1  604   1.719   5.086   3.411
   88TCM    cl2  605   1.619   4.952   3.170
   88TCM     h1  606   1.839   5.040   3.209
   88TCM    cl3  607   1.836   4.832   3.326
   89TCM     c1  608   0.727   0.431   3.607
   89TCM    cl1  609   0.831   0.576   3.624
   89TCM    cl2  610   0.828   0.289   3.568
   89TCM     h1  611   0.673   0.414   3.701
   89TCM    cl3  612   0.610   0.458   3.474
   90TCM     c1  613   1.958   4.915   2.172
   90TCM    cl1  614   1.922   5.090   2.164
   90TCM    cl2  615   1.831   4.831   2.268
   90TCM     h1  616   1.960   4.873   2.071
   90TCM    cl3  617   2.118   4.891   2.250
   91TCM     c1  618   0.883   1.140   2.110
   91TCM    cl1  619   1.012   1.261   2.143
   91TCM    cl2  620   0.735   1.223   2.052
   91TCM     h1  621   0.918   1.069   2.035
   91TCM    cl3  622   0.844   1.052   2.262
   92TCM     c1  623   1.107   1.608   4.933
   92TCM    cl1  624   1.214   1.752   4.921
   92TCM    cl2  625   1.118   1.539   5.098
   92TCM     h1  626   1.004   1.638   4.912
   92TCM    cl3  627   1.159   1.485   4.814
   93TCM     c1  628   4.205   2.902   2.001
   93TCM    cl1  629   4.329   2.773   2.019
   93TCM    cl2  630   4.214   2.970   1.835
   93TCM     h1  631   4.106   2.860   2.018
   93TCM    cl3  632   4.236   3.033   2.121
   94TCM     c1  633   2.913   4.763   1.025
   94TCM    cl1  634   2.877   4.868   1.165
   94TCM    cl2  635   2.827   4.824   0.880
   94TCM     h1  636   3.021   4.762   1.006
   94TCM    cl3  637   2.857   4.596   1.060
   95TCM     c1  638   4.002   2.414   2.861
   95TCM    cl1  639   3.951   2.272   2.959
   95TCM    cl2  640   4.132   2.504   2.947
   95TCM     h1  641   4.040   2.379   2.765
   95TCM    cl3  642   3.861   2.522   2.836
   96TCM     c1  643   3.983   0.652   3.515
   96TCM    cl1  644   4.141   0.616   3.437
   96TCM    cl2  645   3.980   0.581   3.679
   96TCM     h1  646   3.971   0.761   3.522
   96TCM    cl3  647   3.850   0.583   3.418
   97TCM     c1  648   3.982   0.899   3.152
   97TCM    cl1  649   3.851   0.916   3.273
   97TCM    cl2  650   3.933   0.979   2.999
   97TCM     h1  651   4.074   0.945   3.190
   97TCM    cl3  652   4.010   0.724   3.121
   98TCM     c1  653   1.897   0.257   2.930
   98TCM    cl1  654   1.858   0.314   3.095
   98TCM    cl2  655   1.822   0.365   2.808
   98TCM     h1  656   2.006   0.256   2.916
   98TCM    cl3  657   1.833   0.090   2.910
   99TCM     c1  658   4.944   4.313   3.133
   99TCM    cl1  659   5.085   4.381   3.044
   99TCM    cl2  660   4.793   4.378   3.061
   99TCM     h1  661   4.945   4.204   3.125
   99TCM    cl3  662   4.955   4.362   3.305
  100TCM     c1  663   0.098   1.886   4.554
  100TCM    cl1  664   0.225   1.920   4.677
  100TCM    cl2  665   0.137   1.975   4.403
  100TCM     h1  666   0.095   1.779   4.534
  100TCM    cl3  667  -0.061   1.941   4.616
  101TCM     c1  668   0.903   4.914   4.862
  101TCM    cl1  669   0.903   4.834   5.023
  101TCM    cl2  670   0.757   4.862   4.771
  101TCM     h1  671   0.901   5.023   4.876
  101TCM    cl3  672   1.050   4.867   4.772
  102TCM     c1  673   0.498   2.208   0.773
  102TCM    cl1  674   0.609   2.088   0.849
  102TCM    cl2  675   0.332   2.140   0.767
  102TCM     h1  676   0.498   2.300   0.832
  102TCM    cl3  677   0.554   2.242   0.606
  103TCM     c1  678   4.502   1.532   1.970
  103TCM    cl1  679   4.381   1.660   1.936
  103TCM    cl2  680   4.590   1.491   1.819
  103TCM     h1  681   4.574   1.569   2.045
  103TCM    cl3  682   4.420   1.386   2.035
  104TCM     c1  683   2.705   1.419   2.187
  104TCM    cl1  684   2.563   1.510   2.249
  104TCM    cl2  685   2.670   1.362   2.021
  104TCM     h1  686   2.793   1.484   2.186
  104TCM    cl3  687   2.736   1.278   2.294
  105TCM     c1  688   2.903   0.192   2.477
  105TCM    cl1  689   3.021   0.147   2.605
  105TCM    cl2  690   2.977   0.312   2.366
  105TCM     h1  691   2.875   0.103   2.420
  105TCM    cl3  692   2.756   0.261   2.553
  106TCM     c1  693   2.059   4.517   0.816
  106TCM    cl1  694   2.024   4.468   0.985
  106TCM    cl2  695   1.911   4.501   0.716
  106TCM     h1  696   2.093   4.621   0.815
  106TCM    cl3  697   2.189   4.412   0.750
  107TCM     c1  698   4.929   3.396   3.777
  107TCM    cl1  699   5.012   3.238   3.756
  107TCM    cl2  700   4.981   3.470   3.932
  107TCM     h1  701   4.956   3.463   3.694
  107TCM    cl3  702   4.752   3.371   3.779
  108TCM     c1  703   2.439   0.136   1.465
  108TCM    cl1  704   2.295   0.234   1.510
  108TCM    cl2  705   2.412   0.064   1.303
  108TCM     h1  706   2.528   0.199   1.462
  108TCM    cl3  707   2.461   0.005   1.586
  109TCM     c1  708   2.486   4.740   3.304
  109TCM    cl1  709   2.525   4.753   3.479
  109TCM    cl2  710   2.635   4.756   3.206
  109TCM     h1  711   2.440   4.642   3.285
  109TCM    cl3  712   2.372   4.870   3.258
  110TCM     c1  713   3.256   3.642   4.065
  110TCM    cl1  714   3.082   3.616   4.102
  110TCM    cl2  715   3.349   3.650   4.218
  110TCM     h1  716   3.293   3.559   4.004
  110TCM    cl3  717   3.275   3.796   3.976
  111TCM     c1  718   1.498   4.891   4.479
  111TCM    cl1  719   1.359   4.959   4.569
  111TCM    cl2  720   1.539   4.729   4.543
  111TCM     h1  721   1.473   4.883   4.373
  111TCM    cl3  722   1.640   5.000   4.499
  112TCM     c1  723   3.095   3.672   1.623
  112TCM    cl1  724   2.966   3.660   1.747
  112TCM    cl2  725   3.062   3.554   1.492
  112TCM     h1  726   3.097   3.773   1.581
  112TCM    cl3  727   3.254   3.634   1.697
  113TCM     c1  728   4.848   2.601   1.797
  113TCM    cl1  729   4.986   2.666   1.891
  113TCM    cl2  730   4.694   2.669   1.860
  113TCM     h1  731   4.860   2.627   1.692
  113TCM    cl3  732   4.844   2.422   1.813
  114TCM     c1  733   1.601   0.669   3.366
  114TCM    cl1  734   1.758   0.608   3.302
  114TCM    cl2  735   1.622   0.839   3.420
  114TCM     h1  736   1.526   0.665   3.287
  114TCM    cl3  737   1.550   0.567   3.504
  115TCM     c1  738   1.454   4.712   3.389
  115TCM    cl1  739   1.293   4.644   3.432
  115TCM    cl2  740   1.551   4.587   3.305
  115TCM     h1  741   1.440   4.798   3.323
  115TCM    cl3  742   1.538   4.764   3.538
  116TCM     c1  743   0.972   2.899   3.258
  116TCM    cl1  744   0.798   2.861   3.239
  116TCM    cl2  745   1.051   2.899   3.097
  116TCM     h1  746   0.983   2.997   3.304
  116TCM    cl3  747   1.049   2.774   3.361
  117TCM     c1  748   4.625   2.160   2.262
  117TCM    cl1  749   4.733   2.038   2.338
  117TCM    cl2  750   4.571   2.278   2.386
  117TCM     h1  751   4.679   2.212   2.182
  117TCM    cl3  752   4.482   2.076   2.192
  118TCM     c1  753   2.186   1.180   1.721
  118TCM    cl1  754   2.178   1.008   1.670
  118TCM    cl2  755   2.126   1.284   1.588
  118TCM     h1  756   2.125   1.195   1.810
  118TCM    cl3  757   2.356   1.223   1.758
  119TCM     c1  758   1.285   0.191   3.493
  119TCM    cl1  759   1.328   0.047   3.395
  119TCM    cl2  760   1.230   0.137   3.655
  119TCM     h1  761   1.372   0.257   3.503
  119TCM    cl3  762   1.152   0.279   3.411
  120TCM     c1  763   4.191   3.930   2.611
  120TCM    cl1  764   4.300   4.016   2.724
  120TCM    cl2  765   4.217   3.753   2.625
  120TCM     h1  766   4.087   3.953   2.635
  120TCM    cl3  767   4.225   3.982   2.442
  121TCM     c1  768   4.131   1.121   3.607
  121TCM    cl1  769   4.012   1.076   3.733
  121TCM    cl2  770   4.085   1.279   3.534
  121TCM     h1  771   4.231   1.129   3.651
  121TCM    cl3  772   4.132   0.994   3.480
  122TCM     c1  773   3.678   1.744   2.350
  122TCM    cl1  774   3.542   1.746   2.234
  122TCM    cl2  775   3.624   1.813   2.506
  122TCM     h1  776   3.712   1.641   2.365
  122TCM    cl3  777   3.814   1.842   2.286
  123TCM     c1  778   4.681   3.914   3.011
  123TCM    cl1  779   4.821   3.937   3.120
  123TCM    cl2  780   4.637   4.069   2.933
  123TCM     h1  781   4.706   3.841   2.934
  123TCM    cl3  782   4.542   3.853   3.106
  124TCM     c1  783   0.085   1.614   0.038
  124TCM    cl1  784   0.157   1.692   0.183
  124TCM    cl2  785   0.210   1.512  -0.041
  124TCM     h1  786  -0.000   1.553   0.067
  124TCM    cl3  787   0.033   1.740  -0.079
  125TCM     c1  788   3.299   1.594   3.118
  125TCM    cl1  789   3.309   1.455   3.232
  125TCM    cl2  790   3.402   1.560   2.975
  125TCM     h1  791   3.196   1.608   3.087
  125TCM    cl3  792   3.357   1.742   3.200
  126TCM     c1  793   1.070   2.180   2.841
  126TCM    cl1  794   1.074   2.000   2.845
  126TCM    cl2  795   1.184   2.243   2.964
  126TCM     h1  796   1.099   2.215   2.742
  126TCM    cl3  797   0.905   2.237   2.880
  127TCM     c1  798   0.082   2.827   4.736
  127TCM    cl1  799   0.181   2.972   4.775
  127TCM    cl2  800  -0.077   2.841   4.817
  127TCM     h1  801   0.068   2.821   4.628
  127TCM    cl3  802   0.165   2.680   4.795
  128TCM     c1  803   0.590   4.525   4.696
  128TCM    cl1  804   0.559   4.429   4.845
  128TCM    cl2  805   0.435   4.555   4.610
  128TCM     h1  806   0.635   4.620   4.723
  128TCM    cl3  807   0.701   4.434   4.589
  129TCM     c1  808   4.477   4.558   0.057
  129TCM    cl1  809   4.549   4.663  -0.070
  129TCM    cl2  810   4.498   4.635   0.217
  129TCM     h1  811   4.370   4.544   0.036
  129TCM    cl3  812   4.559   4.399   0.057
  130TCM     c1  813   0.441   1.501   0.320
  130TCM    cl1  814   0.507   1.668   0.332
  130TCM    cl2  815   0.504   1.404   0.458
  130TCM     h1  816   0.332   1.505   0.325
  130TCM    cl3  817   0.493   1.426   0.166
  131TCM     c1  818   2.211   0.214   3.280
  131TCM    cl1  819   2.098   0.085   3.334
  131TCM    cl2  820   2.149   0.372   3.338
  131TCM     h1  821   2.311   0.195   3.322
  131TCM    cl3  822   2.219   0.214   3.101
  132TCM     c1  823   0.404   1.452   2.975
  132TCM    cl1  824   0.414   1.580   2.850
  132TCM    cl2  825   0.244   1.370   2.965
  132TCM     h1  826   0.483   1.379   2.960
  132TCM    cl3  827   0.422   1.527   3.137
  133TCM     c1  828   0.043   4.215   4.714
  133TCM    cl1  829   0.087   4.370   4.633
  133TCM    cl2  830  -0.010   4.098   4.589
  133TCM     h1  831   0.131   4.176   4.767
  133TCM    cl3  832  -0.091   4.242   4.829
  134TCM     c1  833   3.988   1.308   1.897
  134TCM    cl1  834   4.117   1.407   1.820
  134TCM    cl2  835   4.057   1.218   2.035
  134TCM     h1  836   3.908   1.374   1.932
  134TCM    cl3  837   3.921   1.193   1.777
  135TCM     c1  838   1.038   0.722   1.599
  135TCM    cl1  839   1.022   0.835   1.460
  135TCM    cl2  840   1.108   0.567   1.542
  135TCM     h1  841   1.102   0.766   1.675
  135TCM    cl3  842   0.875   0.690   1.668
  136TCM     c1  843   4.458   4.667   3.134
  136TCM    cl1  844   4.327   4.546   3.115
  136TCM    cl2  845   4.386   4.831   3.144
  136TCM     h1  846   4.514   4.646   3.225
  136TCM    cl3  847   4.568   4.658   2.993
  137TCM     c1  848   2.036   1.577   3.164
  137TCM    cl1  849   2.138   1.700   3.082
  137TCM    cl2  850   2.001   1.632   3.331
  137TCM     h1  851   1.942   1.565   3.109
  137TCM    cl3  852   2.124   1.421   3.169
  138TCM     c1  853   2.531   3.577   3.483
  138TCM    cl1  854   2.669   3.482   3.417
  138TCM    cl2  855   2.568   3.624   3.652
  138TCM     h1  856   2.515   3.666   3.423
  138TCM    cl3  857   2.383   3.476   3.480
  139TCM     c1  858   0.532   1.166   3.294
  139TCM    cl1  859   0.576   1.306   3.396
  139TCM    cl2  860   0.619   1.178   3.137
  139TCM     h1  861   0.560   1.073   3.344
  139TCM    cl3  862   0.355   1.168   3.264
  140TCM     c1  863   0.714   4.440   1.755
  140TCM    cl1  864   0.541   4.425   1.706
  140TCM    cl2  865   0.813   4.324   1.661
  140TCM     h1  866   0.748   4.542   1.735
  140TCM    cl3  867   0.730   4.404   1.930
  141TCM     c1  868   3.221   4.127   2.472
  141TCM    cl1  869   3.178   4.010   2.343
  141TCM    cl2  870   3.361   4.226   2.418
  141TCM     h1  871   3.136   4.193   2.492
  141TCM    cl3  872   3.266   4.038   2.622
  142TCM     c1  873   0.358   2.659   3.213
  142TCM    cl1  874   0.420   2.828   3.221
  142TCM    cl2  875   0.443   2.570   3.083
  142TCM     h1  876   0.375   2.610   3.309
  142TCM    cl3  877   0.182   2.663   3.179
  143TCM     c1  878   1.713   3.482   1.373
  143TCM    cl1  879   1.545   3.524   1.419
  143TCM    cl2  880   1.764   3.583   1.234
  143TCM     h1  881   1.780   3.499   1.457
  143TCM    cl3  882   1.721   3.308   1.326
  144TCM     c1  883   1.390   1.586   2.301
  144TCM    cl1  884   1.291   1.600   2.152
  144TCM    cl2  885   1.355   1.724   2.411
  144TCM     h1  886   1.366   1.492   2.352
  144TCM    cl3  887   1.564   1.588   2.258
  145TCM     c1  888   3.961   4.957   3.683
  145TCM    cl1  889   4.135   4.983   3.717
  145TCM    cl2  890   3.942   4.904   3.513
  145TCM     h1  891   3.921   4.881   3.751
  145TCM    cl3  892   3.872   5.111   3.708
  146TCM     c1  893   4.741   4.488   4.375
  146TCM    cl1  894   4.890   4.588   4.373
  146TCM    cl2  895   4.785   4.314   4.367
  146TCM     h1  896   4.685   4.508   4.466
  146TCM    cl3  897   4.640   4.531   4.232
  147TCM     c1  898   0.821   1.622   0.549
  147TCM    cl1  899   0.922   1.680   0.412
  147TCM    cl2  900   0.750   1.763   0.634
  147TCM     h1  901   0.741   1.558   0.511
  147TCM    cl3  902   0.924   1.529   0.662
  148TCM     c1  903   2.655   2.840   0.025
  148TCM    cl1  904   2.805   2.753   0.071
  148TCM    cl2  905   2.515   2.728   0.033
  148TCM     h1  906   2.638   2.923   0.094
  148TCM    cl3  907   2.670   2.903  -0.142
  149TCM     c1  908   3.438   1.129   2.965
  149TCM    cl1  909   3.438   1.100   3.142
  149TCM    cl2  910   3.345   0.999   2.883
  149TCM     h1  911   3.393   1.226   2.944
  149TCM    cl3  912   3.607   1.129   2.905
  150TCM     c1  913   3.285   4.974   1.511
  150TCM    cl1  914   3.361   5.136   1.515
  150TCM    cl2  915   3.410   4.850   1.475
  150TCM     h1  916   3.239   4.952   1.608
  150TCM    cl3  917   3.159   4.970   1.384
  151TCM     c1  918   3.528   2.183   1.214
  151TCM    cl1  919   3.666   2.176   1.327
  151TCM    cl2  920   3.588   2.194   1.045
  151TCM     h1  921   3.467   2.093   1.225
  151TCM    cl3  922   3.428   2.328   1.251
  152TCM     c1  923   2.807   4.197   2.498
  152TCM    cl1  924   2.892   4.115   2.634
  152TCM    cl2  925   2.814   4.091   2.353
  152TCM     h1  926   2.703   4.215   2.525
  152TCM    cl3  927   2.889   4.352   2.462
  153TCM     c1  928   4.196   0.869   2.658
  153TCM    cl1  929   4.059   0.985   2.647
  153TCM    cl2  930   4.158   0.722   2.562
  153TCM     h1  931   4.286   0.915   2.618
  153TCM    cl3  932   4.223   0.822   2.829
  154TCM     c1  933   0.646   1.988   4.545
  154TCM    cl1  934   0.586   1.905   4.692
  154TCM    cl2  935   0.515   1.992   4.422
  154TCM     h1  936   0.678   2.089   4.569
  154TCM    cl3  937   0.785   1.895   4.479
  155TCM     c1  938   1.992   4.496   4.485
  155TCM    cl1  939   1.930   4.419   4.634
  155TCM    cl2  940   1.865   4.494   4.359
  155TCM     h1  941   2.019   4.600   4.507
  155TCM    cl3  942   2.137   4.409   4.427
  156TCM     c1  943   2.006   4.923   4.733
  156TCM    cl1  944   1.972   5.081   4.656
  156TCM    cl2  945   1.904   4.797   4.658
  156TCM     h1  946   2.112   4.897   4.720
  156TCM    cl3  947   1.968   4.934   4.908
  157TCM     c1  948   1.766   1.245   2.785
  157TCM    cl1  949   1.805   1.070   2.775
  157TCM    cl2  950   1.854   1.320   2.923
  157TCM     h1  951   1.796   1.294   2.692
  157TCM    cl3  952   1.589   1.265   2.810
  158TCM     c1  953   1.658   2.228   4.744
  158TCM    cl1  954   1.837   2.235   4.759
  158TCM    cl2  955   1.585   2.366   4.832
  158TCM     h1  956   1.630   2.232   4.639
  158TCM    cl3  957   1.599   2.075   4.816
  159TCM     c1  958   1.843   1.864   1.205
  159TCM    cl1  959   1.861   1.915   1.376
  159TCM    cl2  960   1.706   1.953   1.130
  159TCM     h1  961   1.935   1.886   1.150
  159TCM    cl3  962   1.810   1.688   1.199
  160TCM     c1  963   2.511   2.808   0.494
  160TCM    cl1  964   2.441   2.956   0.567
  160TCM    cl2  965   2.638   2.857   0.377
  160TCM     h1  966   2.555   2.746   0.573
  160TCM    cl3  967   2.383   2.716   0.409
  161TCM     c1  968   2.962   1.781   2.033
  161TCM    cl1  969   2.869   1.920   1.970
  161TCM    cl2  970   2.907   1.742   2.199
  161TCM     h1  971   2.946   1.694   1.968
  161TCM    cl3  972   3.137   1.821   2.035
  162TCM     c1  973   4.319   4.558   2.729
  162TCM    cl1  974   4.326   4.573   2.551
  162TCM    cl2  975   4.230   4.409   2.774
  162TCM     h1  976   4.421   4.552   2.769
  162TCM    cl3  977   4.236   4.701   2.799
  163TCM     c1  978   2.870   0.023   4.673
  163TCM    cl1  979   2.893  -0.129   4.580
  163TCM    cl2  980   2.695   0.050   4.702
  163TCM     h1  981   2.922   0.016   4.768
  163TCM    cl3  982   2.935   0.161   4.579
  164TCM     c1  983   3.736   3.811   3.893
  164TCM    cl1  984   3.821   3.968   3.905
  164TCM    cl2  985   3.598   3.827   3.778
  164TCM     h1  986   3.805   3.734   3.856
  164TCM    cl3  987   3.674   3.764   4.055
  165TCM     c1  988   1.726   1.198   2.326
  165TCM    cl1  989   1.802   1.292   2.193
  165TCM    cl2  990   1.665   1.312   2.450
  165TCM     h1  991   1.644   1.138   2.287
  165TCM    cl3  992   1.849   1.090   2.400
  166TCM     c1  993   2.365   0.183   4.611
  166TCM    cl1  994   2.334   0.065   4.742
  166TCM    cl2  995   2.296   0.342   4.658
  166TCM     h1  996   2.472   0.193   4.594
  166TCM    cl3  997   2.285   0.126   4.460
  167TCM     c1  998   2.113   2.890   1.781
  167TCM    cl1  999   2.080   2.903   1.605
  167TCM    cl2 1000   2.286   2.847   1.805
  167TCM     h1 1001   2.092   2.985   1.829
  167TCM    cl3 1002   2.009   2.762   1.851
  168TCM     c1 1003   0.941   4.892   1.320
  168TCM    cl1 1004   1.116   4.863   1.346
  168TCM    cl2 1005   0.903   5.064   1.357
  168TCM     h1 1006   0.915   4.870   1.216
  168TCM    cl3 1007   0.845   4.785   1.429
  169TCM     c1 1008   4.125   2.073   3.963
  169TCM    cl1 1009   4.016   2.216   3.971
  169TCM    cl2 1010   4.246   2.098   3.833
  169TCM     h1 1011   4.176   2.060   4.059
  169TCM    cl3 1012   4.028   1.926   3.928
  170TCM     c1 1013   1.643   4.781   4.920
  170TCM    cl1 1014   1.683   4.804   5.094
  170TCM    cl2 1015   1.475   4.836   4.890
  170TCM     h1 1016   1.712   4.840   4.859
  170TCM    cl3 1017   1.659   4.608   4.878
  171TCM     c1 1018   3.183   3.744   0.268
  171TCM    cl1 1019   3.248   3.585   0.216
  171TCM    cl2 1020   3.301   3.825   0.376
  171TCM     h1 1021   3.164   3.806   0.180
  171TCM    cl3 1022   3.029   3.720   0.357
  172TCM     c1 1023   4.658   0.809   0.299
  172TCM    cl1 1024   4.572   0.676   0.382
  172TCM    cl2 1025   4.729   0.747   0.146
  172TCM     h1 1026   4.588   0.890   0.276
  172TCM    cl3 1027   4.788   0.872   0.405
  173TCM     c1 1028   3.827   1.742   1.814
  173TCM    cl1 1029   3.670   1.764   1.899
  173TCM    cl2 1030   3.821   1.590   1.721
  173TCM     h1 1031   3.844   1.826   1.746
  173TCM    cl3 1032   3.959   1.734   1.935
  174TCM     c1 1033   3.754   1.722   4.700
  174TCM    cl1 1034   3.690   1.824   4.833
  174TCM    cl2 1035   3.892   1.624   4.760
  174TCM     h1 1036   3.674   1.656   4.664
  174TCM    cl3 1037   3.810   1.827   4.566
  175TCM     c1 1038   3.495   2.883   4.683
  175TCM    cl1 1039   3.363   2.779   4.622
  175TCM    cl2 1040   3.518   3.021   4.570
  175TCM     h1 1041   3.469   2.922   4.782
  175TCM    cl3 1042   3.647   2.788   4.695
  176TCM     c1 1043   0.870   0.423   3.200
  176TCM    cl1 1044   0.929   0.573   3.279
  176TCM    cl2 1045   0.993   0.365   3.083
  176TCM     h1 1046   0.853   0.346   3.276
  176TCM    cl3 1047   0.717   0.459   3.114
  177TCM     c1 1048   3.291   0.107   1.069
  177TCM    cl1 1049   3.438   0.038   1.146
  177TCM    cl2 1050   3.207  -0.023   0.977
  177TCM     h1 1051   3.224   0.147   1.146
  177TCM    cl3 1052   3.339   0.238   0.956
  178TCM     c1 1053   0.956   0.292   3.980
  178TCM    cl1 1054   0.998   0.359   4.141
  178TCM    cl2 1055   1.047   0.381   3.853
  178TCM     h1 1056   0.983   0.186   3.976
  178TCM    cl3 1057   0.780   0.310   3.951
  179TCM     c1 1058   2.063   0.946   3.795
  179TCM    cl1 1059   2.057   1.123   3.828
  179TCM    cl2 1060   2.078   0.857   3.950
  179TCM     h1 1061   1.972   0.916   3.744
  179TCM    cl3 1062   2.206   0.911   3.692
  180TCM     c1 1063   2.953   0.402   4.877
  180TCM    cl1 1064   2.912   0.242   4.948
  180TCM    cl2 1065   3.125   0.404   4.828
  180TCM     h1 1066   2.890   0.421   4.790
  180TCM    cl3 1067   2.925   0.530   4.999
  181TCM     c1 1068   1.231   2.094   2.401
  181TCM    cl1 1069   1.294   2.228   2.299
  181TCM    cl2 1070   1.072   2.141   2.470
  181TCM     h1 1071   1.220   2.004   2.341
  181TCM    cl3 1072   1.346   2.064   2.536
  182TCM     c1 1073   4.622   3.593   4.286
  182TCM    cl1 1074   4.537   3.723   4.196
  182TCM    cl2 1075   4.630   3.638   4.460
  182TCM     h1 1076   4.568   3.499   4.276
  182TCM    cl3 1077   4.788   3.575   4.220
  183TCM     c1 1078   0.669   0.882   2.569
  183TCM    cl1 1079   0.841   0.836   2.550
  183TCM    cl2 1080   0.656   1.061   2.583
  183TCM     h1 1081   0.612   0.848   2.482
  183TCM    cl3 1082   0.602   0.807   2.717
  184TCM     c1 1083   4.498   0.838   3.311
  184TCM    cl1 1084   4.508   0.671   3.375
  184TCM    cl2 1085   4.497   0.955   3.447
  184TCM     h1 1086   4.584   0.858   3.246
  184TCM    cl3 1087   4.346   0.857   3.216
  185TCM     c1 1088   4.833   4.594   0.358
  185TCM    cl1 1089   5.006   4.638   0.372
  185TCM    cl2 1090   4.750   4.620   0.515
  185TCM     h1 1091   4.786   4.656   0.280
  185TCM    cl3 1092   4.818   4.421   0.313
  186TCM     c1 1093   0.420   3.359   4.898
  186TCM    cl1 1094   0.275   3.291   4.977
  186TCM    cl2 1095   0.490   3.235   4.788
  186TCM     h1 1096   0.393   3.448   4.840
  186TCM    cl3 1097   0.541   3.403   5.023
  187TCM     c1 1098   1.042   2.359   4.502
  187TCM    cl1 1099   1.176   2.475   4.533
  187TCM    cl2 1100   1.076   2.262   4.355
  187TCM     h1 1101   1.032   2.292   4.588
  187TCM    cl3 1102   0.890   2.450   4.479
  188TCM     c1 1103   1.646   4.252   4.812
  188TCM    cl1 1104   1.550   4.275   4.962
  188TCM    cl2 1105   1.547   4.300   4.670
  188TCM     h1 1106   1.735   4.315   4.816
  188TCM    cl3 1107   1.694   4.080   4.797
  189TCM     c1 1108   0.576   3.090   0.309
  189TCM    cl1 1109   0.558   2.954   0.425
  189TCM    cl2 1110   0.466   3.224   0.356
  189TCM     h1 1111   0.679   3.126   0.309
  189TCM    cl3 1112   0.532   3.033   0.144
  190TCM     c1 1113   4.006   1.475   2.289
  190TCM    cl1 1114   3.860   1.486   2.185
  190TCM    cl2 1115   3.967   1.542   2.452
  190TCM     h1 1116   4.036   1.371   2.299
  190TCM    cl3 1117   4.139   1.570   2.216
  191TCM     c1 1118   1.940   0.436   4.085
  191TCM    cl1 1119   1.839   0.289   4.100
  191TCM    cl2 1120   1.866   0.548   3.966
  191TCM     h1 1121   1.947   0.486   4.182
  191TCM    cl3 1122   2.105   0.389   4.030
  192TCM     c1 1123   0.215  -0.000   2.343
  192TCM    cl1 1124   0.313  -0.113   2.244
  192TCM    cl2 1125   0.118   0.103   2.234
  192TCM     h1 1126   0.149  -0.057   2.409
  192TCM    cl3 1127   0.325   0.103   2.441
  193TCM     c1 1128   1.683   4.244   4.077
  193TCM    cl1 1129   1.697   4.162   3.918
  193TCM    cl2 1130   1.530   4.195   4.156
  193TCM     h1 1131   1.768   4.216   4.141
  193TCM    cl3 1132   1.684   4.421   4.050
  194TCM     c1 1133   4.066   4.412   1.169
  194TCM    cl1 1134   4.232   4.352   1.140
  194TCM    cl2 1135   4.059   4.493   1.329
  194TCM     h1 1136   4.038   4.483   1.091
  194TCM    cl3 1137   3.953   4.273   1.168
  195TCM     c1 1138   0.728   2.594   0.281
  195TCM    cl1 1139   0.774   2.427   0.327
  195TCM    cl2 1140   0.690   2.599   0.106
  195TCM     h1 1141   0.641   2.625   0.338
  195TCM    cl3 1142   0.864   2.705   0.315
  196TCM     c1 1143   0.996   0.776   4.037
  196TCM    cl1 1144   0.856   0.681   3.976
  196TCM    cl2 1145   0.976   0.948   3.990
  196TCM     h1 1146   1.000   0.768   4.146
  196TCM    cl3 1147   1.148   0.711   3.967
  197TCM     c1 1148   1.321   1.498   0.618
  197TCM    cl1 1149   1.413   1.632   0.696
  197TCM    cl2 1150   1.269   1.382   0.744
  197TCM     h1 1151   1.234   1.539   0.567
  197TCM    cl3 1152   1.429   1.415   0.500
  198TCM     c1 1153   1.126   4.552   1.064
  198TCM    cl1 1154   1.108   4.718   0.998
  198TCM    cl2 1155   1.015   4.532   1.204
  198TCM     h1 1156   1.100   4.478   0.987
  198TCM    cl3 1157   1.295   4.526   1.118
  199TCM     c1 1158   4.750   2.609   2.283
  199TCM    cl1 1159   4.842   2.754   2.229
  199TCM    cl2 1160   4.775   2.478   2.164
  199TCM     h1 1161   4.786   2.578   2.381
  199TCM    cl3 1162   4.575   2.648   2.293
  200TCM     c1 1163   0.752   2.261   4.937
  200TCM    cl1 1164   0.819   2.253   4.771
  200TCM    cl2 1165   0.880   2.214   5.055
  200TCM     h1 1166   0.719   2.363   4.959
  200TCM    cl3 1167   0.613   2.149   4.948
  201TCM     c1 1168   3.457   4.539   3.233
  201TCM    cl1 1169   3.416   4.418   3.358
  201TCM    cl2 1170   3.307   4.588   3.148
  201TCM     h1 1171   3.503   4.627   3.280
  201TCM    cl3 1172   3.573   4.468   3.116
  202TCM     c1 1173   2.087   0.907   2.179
  202TCM    cl1 1174   2.086   0.994   2.022
  202TCM    cl2 1175   2.250   0.838   2.208
  202TCM     h1 1176   2.061   0.976   2.260
  202TCM    cl3 1177   1.966   0.774   2.175
  203TCM     c1 1178   0.371   4.464   4.207
  203TCM    cl1 1179   0.511   4.377   4.278
  203TCM    cl2 1180   0.404   4.641   4.207
  203TCM     h1 1181   0.356   4.430   4.104
  203TCM    cl3 1182   0.225   4.430   4.304
  204TCM     c1 1183   1.884   4.428   3.722
  204TCM    cl1 1184   1.990   4.288   3.684
  204TCM    cl2 1185   1.815   4.494   3.570
  204TCM     h1 1186   1.803   4.397   3.788
  204TCM    cl3 1187   1.982   4.555   3.802
  205TCM     c1 1188   0.945   4.998   0.824
  205TCM    cl1 1189   0.849   5.022   0.973
  205TCM    cl2 1190   1.096   5.095   0.834
  205TCM     h1 1191   0.970   4.892   0.812
  205TCM    cl3 1192   0.849   5.053   0.682
  206TCM     c1 1193   2.263   3.212   0.824
  206TCM    cl1 1194   2.425   3.288   0.833
  206TCM    cl2 1195   2.272   3.044   0.885
  206TCM     h1 1196   2.192   3.270   0.884
  206TCM    cl3 1197   2.209   3.208   0.653
  207TCM     c1 1198   0.567   3.646   0.474
  207TCM    cl1 1199   0.665   3.525   0.387
  207TCM    cl2 1200   0.423   3.567   0.548
  207TCM     h1 1201   0.627   3.692   0.553
  207TCM    cl3 1202   0.513   3.773   0.359
  208TCM     c1 1203   3.699   2.124   1.886
  208TCM    cl1 1204   3.765   2.102   1.721
  208TCM    cl2 1205   3.649   2.295   1.911
  208TCM     h1 1206   3.612   2.058   1.900
  208TCM    cl3 1207   3.825   2.082   2.006
  209TCM     c1 1208   2.582   2.318   0.747
  209TCM    cl1 1209   2.541   2.445   0.628
  209TCM    cl2 1210   2.431   2.255   0.820
  209TCM     h1 1211   2.635   2.237   0.698
  209TCM    cl3 1212   2.686   2.389   0.875
  210TCM     c1 1213   2.550   3.268   3.931
  210TCM    cl1 1214   2.407   3.239   4.035
  210TCM    cl2 1215   2.618   3.430   3.967
  210TCM     h1 1216   2.626   3.192   3.951
  210TCM    cl3 1217   2.501   3.261   3.759
  211TCM     c1 1218   0.965   2.489   3.750
  211TCM    cl1 1219   1.069   2.375   3.659
  211TCM    cl2 1220   0.872   2.590   3.634
  211TCM     h1 1221   0.896   2.433   3.813
  211TCM    cl3 1222   1.069   2.595   3.851
  212TCM     c1 1223   1.339   2.669   3.145
  212TCM    cl1 1224   1.411   2.815   3.069
  212TCM    cl2 1225   1.397   2.657   3.315
  212TCM     h1 1226   1.230   2.675   3.143
  212TCM    cl3 1227   1.393   2.524   3.055
  213TCM     c1 1228   3.639   4.636   3.668
  213TCM    cl1 1229   3.474   4.569   3.688
  213TCM    cl2 1230   3.639   4.809   3.716
  213TCM     h1 1231   3.709   4.581   3.731
  213TCM    cl3 1232   3.691   4.623   3.496
  214TCM     c1 1233   0.170   3.069   0.229
  214TCM    cl1 1234   0.110   3.216   0.313
  214TCM    cl2 1235   0.047   3.014   0.111
  214TCM     h1 1236   0.263   3.092   0.177
  214TCM    cl3 1237   0.199   2.939   0.350
  215TCM     c1 1238   1.226   2.086   4.730
  215TCM    cl1 1239   1.328   2.137   4.591
  215TCM    cl2 1240   1.074   2.015   4.666
  215TCM     h1 1241   1.279   2.012   4.790
  215TCM    cl3 1242   1.188   2.230   4.829
  216TCM     c1 1243   0.280   1.866   2.653
  216TCM    cl1 1244   0.239   1.912   2.822
  216TCM    cl2 1245   0.393   1.988   2.586
  216TCM     h1 1246   0.327   1.767   2.652
  216TCM    cl3 1247   0.130   1.864   2.554
  217TCM     c1 1248   3.351   0.143   4.713
  217TCM    cl1 1249   3.295   0.218   4.560
  217TCM    cl2 1250   3.492   0.039   4.679
  217TCM     h1 1251   3.379   0.222   4.784
  217TCM    cl3 1252   3.220   0.043   4.782
  218TCM     c1 1253   1.429   2.522   1.757
  218TCM    cl1 1254   1.296   2.626   1.693
  218TCM    cl2 1255   1.575   2.623   1.784
  218TCM     h1 1256   1.398   2.476   1.851
  218TCM    cl3 1257   1.467   2.395   1.636
  219TCM     c1 1258   3.991   0.347   3.964
  219TCM    cl1 1259   4.078   0.472   4.059
  219TCM    cl2 1260   3.815   0.361   3.994
  219TCM     h1 1261   4.011   0.360   3.857
  219TCM    cl3 1262   4.049   0.185   4.016
  220TCM     c1 1263   4.776   3.747   1.075
  220TCM    cl1 1264   4.837   3.860   0.950
  220TCM    cl2 1265   4.634   3.657   1.010
  220TCM     h1 1266   4.854   3.677   1.103
  220TCM    cl3 1267   4.725   3.841   1.219
  221TCM     c1 1268   0.057   1.331   0.413
  221TCM    cl1 1269   0.142   1.437   0.530
  221TCM    cl2 1270   0.170   1.282   0.284
  221TCM     h1 1271   0.019   1.242   0.465
  221TCM    cl3 1272  -0.080   1.421   0.341
  222TCM     c1 1273   3.450   2.488   2.775
  222TCM    cl1 1274   3.449   2.475   2.596
  222TCM    cl2 1275   3.324   2.380   2.843
  222TCM     h1 1276   3.548   2.459   2.814
  222TCM    cl3 1277   3.414   2.657   2.822
  223TCM     c1 1278   0.117   4.691   2.783
  223TCM    cl1 1279  -0.028   4.704   2.887
  223TCM    cl2 1280   0.118   4.823   2.662
  223TCM     h1 1281   0.207   4.697   2.844
  223TCM    cl3 1282   0.114   4.533   2.697
  224TCM     c1 1283   4.936   4.702   2.262
  224TCM    cl1 1284   4.976   4.775   2.103
  224TCM    cl2 1285   4.887   4.831   2.376
  224TCM     h1 1286   4.855   4.630   2.250
  224TCM    cl3 1287   5.082   4.618   2.326
  225TCM     c1 1288   0.104   2.255   2.000
  225TCM    cl1 1289   0.241   2.139   1.989
  225TCM    cl2 1290   0.161   2.405   2.081
  225TCM     h1 1291   0.067   2.279   1.900
  225TCM    cl3 1292  -0.029   2.181   2.096
  226TCM     c1 1293   0.048   3.919   2.790
  226TCM    cl1 1294  -0.000   4.083   2.847
  226TCM    cl2 1295  -0.098   3.826   2.743
  226TCM     h1 1296   0.114   3.928   2.704
  226TCM    cl3 1297   0.132   3.832   2.922
  227TCM     c1 1298   1.970   0.546   3.590
  227TCM    cl1 1299   2.117   0.541   3.693
  227TCM    cl2 1300   1.877   0.693   3.630
  227TCM     h1 1301   2.000   0.549   3.485
  227TCM    cl3 1302   1.870   0.401   3.620
  228TCM     c1 1303   1.722   1.711   1.890
  228TCM    cl1 1304   1.784   1.789   2.040
  228TCM    cl2 1305   1.738   1.827   1.754
  228TCM     h1 1306   1.779   1.621   1.868
  228TCM    cl3 1307   1.549   1.670   1.911
  229TCM     c1 1308   0.743   3.057   1.956
  229TCM    cl1 1309   0.674   2.894   1.987
  229TCM    cl2 1310   0.863   3.046   1.823
  229TCM     h1 1311   0.662   3.126   1.927
  229TCM    cl3 1312   0.822   3.118   2.104
  230TCM     c1 1313   4.458   3.531   2.804
  230TCM    cl1 1314   4.465   3.492   2.979
  230TCM    cl2 1315   4.541   3.400   2.712
  230TCM     h1 1316   4.354   3.539   2.771
  230TCM    cl3 1317   4.543   3.686   2.774
  231TCM     c1 1318   4.154   0.810   4.277
  231TCM    cl1 1319   4.002   0.901   4.308
  231TCM    cl2 1320   4.204   0.722   4.425
  231TCM     h1 1321   4.136   0.738   4.197
  231TCM    cl3 1322   4.285   0.923   4.228
  232TCM     c1 1323   4.944   3.093   4.085
  232TCM    cl1 1324   4.908   2.931   4.154
  232TCM    cl2 1325   5.108   3.145   4.137
  232TCM     h1 1326   4.941   3.087   3.976
  232TCM    cl3 1327   4.823   3.211   4.143
  233TCM     c1 1328   0.734   1.819   0.045
  233TCM    cl1 1329   0.860   1.881  -0.067
  233TCM    cl2 1330   0.740   1.912   0.199
  233TCM     h1 1331   0.635   1.830  -0.001
  233TCM    cl3 1332   0.768   1.647   0.078
  234TCM     c1 1333   1.428   1.917   1.493
  234TCM    cl1 1334   1.542   2.046   1.542
  234TCM    cl2 1335   1.356   1.841   1.639
  234TCM     h1 1336   1.349   1.960   1.431
  234TCM    cl3 1337   1.516   1.791   1.400
  235TCM     c1 1338   2.331   4.340   3.556
  235TCM    cl1 1339   2.334   4.453   3.695
  235TCM    cl2 1340   2.382   4.177   3.610
  235TCM     h1 1341   2.229   4.334   3.516
  235TCM    cl3 1342   2.443   4.399   3.430
  236TCM     c1 1343   3.005   0.366   1.498
  236TCM    cl1 1344   3.121   0.406   1.628
  236TCM    cl2 1345   3.094   0.323   1.348
  236TCM     h1 1346   2.943   0.281   1.528
  236TCM    cl3 1347   2.900   0.508   1.466
  237TCM     c1 1348   2.351   4.649   4.611
  237TCM    cl1 1349   2.279   4.749   4.480
  237TCM    cl2 1350   2.226   4.623   4.736
  237TCM     h1 1351   2.385   4.553   4.570
  237TCM    cl3 1352   2.490   4.736   4.684
  238TCM     c1 1353   2.513   1.724   3.059
  238TCM    cl1 1354   2.684   1.756   3.104
  238TCM    cl2 1355   2.486   1.546   3.052
  238TCM     h1 1356   2.446   1.768   3.133
  238TCM    cl3 1357   2.480   1.797   2.898
  239TCM     c1 1358   0.667   1.550   4.647
  239TCM    cl1 1359   0.674   1.383   4.581
  239TCM    cl2 1360   0.832   1.603   4.691
  239TCM     h1 1361   0.626   1.618   4.572
  239TCM    cl3 1362   0.562   1.553   4.793
  240TCM     c1 1363   2.787   1.069   2.822
  240TCM    cl1 1364   2.956   1.016   2.796
  240TCM    cl2 1365   2.744   1.195   2.701
  240TCM     h1 1366   2.720   0.983   2.811
  240TCM    cl3 1367   2.770   1.137   2.987
  241TCM     c1 1368   3.374   0.648   1.306
  241TCM    cl1 1369   3.417   0.474   1.312
  241TCM    cl2 1370   3.488   0.742   1.408
  241TCM     h1 1371   3.379   0.683   1.203
  241TCM    cl3 1372   3.207   0.671   1.369
  242TCM     c1 1373   0.227   0.185   0.376
  242TCM    cl1 1374   0.348   0.253   0.263
  242TCM    cl2 1375   0.222   0.007   0.357
  242TCM     h1 1376   0.255   0.210   0.478
  242TCM    cl3 1377   0.066   0.254   0.339
  243TCM     c1 1378   0.504   3.726   3.326
  243TCM    cl1 1379   0.420   3.773   3.175
  243TCM    cl2 1380   0.383   3.687   3.452
  243TCM     h1 1381   0.567   3.638   3.307
  243TCM    cl3 1382   0.608   3.861   3.382
  244TCM     c1 1383   4.943   3.988   4.172
  244TCM    cl1 1384   4.829   3.937   4.301
  244TCM    cl2 1385   5.025   3.844   4.104
  244TCM     h1 1386   4.888   4.040   4.094
  244TCM    cl3 1387   5.067   4.098   4.241
  245TCM     c1 1388   3.350   1.574   0.423
  245TCM    cl1 1389   3.410   1.427   0.339
  245TCM    cl2 1390   3.244   1.666   0.310
  245TCM     h1 1391   3.293   1.545   0.511
  245TCM    cl3 1392   3.489   1.676   0.472
  246TCM     c1 1393   3.244   4.255   3.662
  246TCM    cl1 1394   3.206   4.153   3.520
  246TCM    cl2 1395   3.336   4.158   3.782
  246TCM     h1 1396   3.304   4.341   3.631
  246TCM    cl3 1397   3.091   4.311   3.737
  247TCM     c1 1398   1.726   4.647   2.869
  247TCM    cl1 1399   1.565   4.725   2.889
  247TCM    cl2 1400   1.803   4.628   3.030
  247TCM     h1 1401   1.713   4.549   2.823
  247TCM    cl3 1402   1.830   4.749   2.765
  248TCM     c1 1403   2.186   0.317   2.279
  248TCM    cl1 1404   2.189   0.218   2.429
  248TCM    cl2 1405   2.279   0.234   2.150
  248TCM     h1 1406   2.083   0.331   2.246
  248TCM    cl3 1407   2.261   0.477   2.312
  249TCM     c1 1408   3.123   1.927   3.808
  249TCM    cl1 1409   3.030   2.066   3.743
  249TCM    cl2 1410   3.285   1.922   3.731
  249TCM     h1 1411   3.134   1.938   3.916
  249TCM    cl3 1412   3.035   1.775   3.772
  250TCM     c1 1413   2.646   2.395   0.146
  250TCM    cl1 1414   2.637   2.502   0.290
  250TCM    cl2 1415   2.586   2.232   0.193
  250TCM     h1 1416   2.584   2.435   0.065
  250TCM    cl3 1417   2.816   2.383   0.093
  251TCM     c1 1418   1.054   0.297   4.614
  251TCM    cl1 1419   0.983   0.168   4.512
  251TCM    cl2 1420   1.167   0.395   4.516
  251TCM     h1 1421   0.974   0.361   4.654
  251TCM    cl3 1422   1.142   0.220   4.750
  252TCM     c1 1423   0.537   1.548   1.539
  252TCM    cl1 1424   0.605   1.573   1.703
  252TCM    cl2 1425   0.358   1.552   1.548
  252TCM     h1 1426   0.573   1.626   1.472
  252TCM    cl3 1427   0.590   1.387   1.477
  253TCM     c1 1428   4.771   3.277   4.932
  253TCM    cl1 1429   4.663   3.139   4.894
  253TCM    cl2 1430   4.927   3.255   4.845
  253TCM     h1 1431   4.725   3.371   4.901
  253TCM    cl3 1432   4.800   3.280   5.110
  254TCM     c1 1433   0.381   1.520   3.637
  254TCM    cl1 1434   0.270   1.390   3.580
  254TCM    cl2 1435   0.303   1.608   3.772
  254TCM     h1 1436   0.475   1.476   3.671
  254TCM    cl3 1437   0.413   1.634   3.502
  255TCM     c1 1438   0.591   0.499   0.115
  255TCM    cl1 1439   0.755   0.462   0.055
  255TCM    cl2 1440   0.471   0.454  -0.010
  255TCM     h1 1441   0.571   0.442   0.206
  255TCM    cl3 1442   0.578   0.675   0.150
  256TCM     c1 1443   3.355   4.780   4.460
  256TCM    cl1 1444   3.529   4.738   4.476
  256TCM    cl2 1445   3.266   4.727   4.607
  256TCM     h1 1446   3.344   4.888   4.448
  256TCM    cl3 1447   3.287   4.696   4.317
  257TCM     c1 1448   2.986   3.997   3.168
  257TCM    cl1 1449   2.895   4.090   3.292
  257TCM    cl2 1450   3.161   4.035   3.179
  257TCM     h1 1451   2.971   3.890   3.185
  257TCM    cl3 1452   2.926   4.041   3.005
  258TCM     c1 1453   2.664   4.450   2.975
  258TCM    cl1 1454   2.672   4.312   2.860
  258TCM    cl2 1455   2.643   4.387   3.141
  258TCM     h1 1456   2.757   4.508   2.969
  258TCM    cl3 1457   2.525   4.556   2.932
  259TCM     c1 1458   3.273   1.277   2.542
  259TCM    cl1 1459   3.320   1.107   2.506
  259TCM    cl2 1460   3.373   1.338   2.679
  259TCM     h1 1461   3.290   1.339   2.454
  259TCM    cl3 1462   3.100   1.281   2.587
  260TCM     c1 1463   4.199   2.032   4.650
  260TCM    cl1 1464   4.107   1.936   4.771
  260TCM    cl2 1465   4.363   2.067   4.715
  260TCM     h1 1466   4.208   1.975   4.557
  260TCM    cl3 1467   4.111   2.185   4.619
  261TCM     c1 1468   2.934   2.141   0.321
  261TCM    cl1 1469   3.084   2.237   0.302
  261TCM    cl2 1470   2.835   2.209   0.454
  261TCM     h1 1471   2.877   2.143   0.228
  261TCM    cl3 1472   2.976   1.971   0.361
  262TCM     c1 1473   4.550   4.537   1.181
  262TCM    cl1 1474   4.701   4.495   1.095
  262TCM    cl2 1475   4.546   4.714   1.213
  262TCM     h1 1476   4.464   4.510   1.119
  262TCM    cl3 1477   4.543   4.449   1.337
  263TCM     c1 1478   4.421   0.506   2.955
  263TCM    cl1 1479   4.520   0.655   2.956
  263TCM    cl2 1480   4.328   0.496   3.109
  263TCM     h1 1481   4.352   0.507   2.870
  263TCM    cl3 1482   4.531   0.365   2.943
  264TCM     c1 1483   3.351   2.021   0.074
  264TCM    cl1 1484   3.191   1.940   0.065
  264TCM    cl2 1485   3.397   2.077  -0.090
  264TCM     h1 1486   3.344   2.107   0.142
  264TCM    cl3 1487   3.474   1.906   0.134
  265TCM     c1 1488   1.685   0.113   2.553
  265TCM    cl1 1489   1.861   0.077   2.546
  265TCM    cl2 1490   1.595  -0.039   2.586
  265TCM     h1 1491   1.666   0.185   2.633
  265TCM    cl3 1492   1.632   0.180   2.396
  266TCM     c1 1493   1.134   4.418   4.852
  266TCM    cl1 1494   0.974   4.501   4.845
  266TCM    cl2 1495   1.146   4.325   5.005
  266TCM     h1 1496   1.143   4.350   4.767
  266TCM    cl3 1497   1.265   4.540   4.846
  267TCM     c1 1498   4.795   0.107   4.290
  267TCM    cl1 1499   4.853  -0.062   4.273
  267TCM    cl2 1500   4.727   0.163   4.133
  267TCM     h1 1501   4.718   0.111   4.367
  267TCM    cl3 1502   4.932   0.214   4.335
  268TCM     c1 1503   4.041   4.572   0.013
  268TCM    cl1 1504   4.147   4.716   0.001
  268TCM    cl2 1505   3.889   4.615   0.098
  268TCM     h1 1506   4.018   4.536  -0.088
  268TCM    cl3 1507   4.126   4.443   0.104
  269TCM     c1 1508   0.320   2.637   3.607
  269TCM    cl1 1509   0.198   2.746   3.534
  269TCM    cl2 1510   0.484   2.692   3.561
  269TCM     h1 1511   0.310   2.638   3.716
  269TCM    cl3 1512   0.293   2.471   3.545
  270TCM     c1 1513   3.530   1.236   1.435
  270TCM    cl1 1514   3.654   1.323   1.531
  270TCM    cl2 1515   3.611   1.124   1.320
  270TCM     h1 1516   3.465   1.180   1.501
  270TCM    cl3 1517   3.433   1.355   1.341
  271TCM     c1 1518   1.319   4.680   0.184
  271TCM    cl1 1519   1.376   4.800   0.305
  271TCM    cl2 1520   1.148   4.636   0.219
  271TCM     h1 1521   1.325   4.723   0.084
  271TCM    cl3 1522   1.422   4.533   0.193
  272TCM     c1 1523   2.911   1.018   3.803
  272TCM    cl1 1524   3.060   1.113   3.772
  272TCM    cl2 1525   2.805   1.108   3.917
  272TCM     h1 1526   2.857   1.003   3.708
  272TCM    cl3 1527   2.954   0.858   3.873
  273TCM     c1 1528   4.137   3.313   3.449
  273TCM    cl1 1529   4.178   3.143   3.489
  273TCM    cl2 1530   4.175   3.420   3.588
  273TCM     h1 1531   4.196   3.345   3.362
  273TCM    cl3 1532   3.962   3.326   3.411
  274TCM     c1 1533   1.028   0.649   0.179
  274TCM    cl1 1534   1.134   0.509   0.218
  274TCM    cl2 1535   1.130   0.793   0.146
  274TCM     h1 1536   0.969   0.626   0.091
  274TCM    cl3 1537   0.920   0.683   0.318
  275TCM     c1 1538   1.076   1.884   0.896
  275TCM    cl1 1539   1.120   1.846   0.726
  275TCM    cl2 1540   0.980   1.749   0.965
  275TCM     h1 1541   1.167   1.898   0.955
  275TCM    cl3 1542   0.979   2.035   0.899
  276TCM     c1 1543   3.114   2.665   2.308
  276TCM    cl1 1544   3.044   2.731   2.156
  276TCM    cl2 1545   3.294   2.673   2.299
  276TCM     h1 1546   3.079   2.723   2.393
  276TCM    cl3 1547   3.065   2.493   2.327
  277TCM     c1 1548   2.860   3.150   2.467
  277TCM    cl1 1549   2.719   3.153   2.357
  277TCM    cl2 1550   2.958   3.299   2.443
  277TCM     h1 1551   2.825   3.146   2.570
  277TCM    cl3 1552   2.961   3.006   2.432
  278TCM     c1 1553   0.898   1.137   4.897
  278TCM    cl1 1554   0.885   1.105   4.721
  278TCM    cl2 1555   0.843   1.304   4.931
  278TCM     h1 1556   0.836   1.066   4.952
  278TCM    cl3 1557   1.070   1.119   4.947
  279TCM     c1 1558   2.823   0.119   0.655
  279TCM    cl1 1559   2.773   0.291   0.673
  279TCM    cl2 1560   2.999   0.104   0.689
  279TCM     h1 1561   2.767   0.058   0.726
  279TCM    cl3 1562   2.790   0.063   0.488
  280TCM     c1 1563   1.785   3.362   0.603
  280TCM    cl1 1564   1.871   3.294   0.745
  280TCM    cl2 1565   1.849   3.286   0.454
  280TCM     h1 1566   1.678   3.342   0.612
  280TCM    cl3 1567   1.814   3.539   0.596
  281TCM     c1 1568   2.658   3.659   1.554
  281TCM    cl1 1569   2.562   3.770   1.657
  281TCM    cl2 1570   2.762   3.756   1.444
  281TCM     h1 1571   2.721   3.595   1.617
  281TCM    cl3 1572   2.547   3.557   1.456
  282TCM     c1 1573   4.391   0.348   3.900
  282TCM    cl1 1574   4.405   0.172   3.933
  282TCM    cl2 1575   4.284   0.374   3.758
  282TCM     h1 1576   4.348   0.397   3.987
  282TCM    cl3 1577   4.554   0.416   3.867
  283TCM     c1 1578   4.426   2.921   4.318
  283TCM    cl1 1579   4.343   3.057   4.401
  283TCM    cl2 1580   4.560   2.984   4.219
  283TCM     h1 1581   4.464   2.851   4.393
  283TCM    cl3 1582   4.310   2.837   4.211
  284TCM     c1 1583   0.923   4.749   2.042
  284TCM    cl1 1584   0.835   4.768   1.887
  284TCM    cl2 1585   0.813   4.681   2.166
  284TCM     h1 1586   1.008   4.682   2.027
  284TCM    cl3 1587   0.984   4.909   2.097
  285TCM     c1 1588   4.865   0.027   0.147
  285TCM    cl1 1589   5.008  -0.049   0.070
  285TCM    cl2 1590   4.733  -0.095   0.156
  285TCM     h1 1591   4.890   0.060   0.248
  285TCM    cl3 1592   4.811   0.167   0.048
  286TCM     c1 1593   4.483   0.288   3.371
  286TCM    cl1 1594   4.400   0.171   3.263
  286TCM    cl2 1595   4.639   0.337   3.298
  286TCM     h1 1596   4.419   0.376   3.385
  286TCM    cl3 1597   4.513   0.210   3.530
  287TCM     c1 1598   3.564   4.928   4.129
  287TCM    cl1 1599   3.686   5.011   4.028
  287TCM    cl2 1600   3.436   4.859   4.024
  287TCM     h1 1601   3.612   4.847   4.185
  287TCM    cl3 1602   3.491   5.045   4.244
  288TCM     c1 1603   1.059   1.701   1.423
  288TCM    cl1 1604   1.116   1.833   1.316
  288TCM    cl2 1605   1.191   1.583   1.448
  288TCM     h1 1606   1.029   1.743   1.520
  288TCM    cl3 1607   0.918   1.619   1.348
  289TCM     c1 1608   0.064   4.913   1.289
  289TCM    cl1 1609   0.129   4.910   1.121
  289TCM    cl2 1610  -0.065   4.789   1.304
  289TCM     h1 1611   0.144   4.892   1.360
  289TCM    cl3 1612  -0.006   5.075   1.322
  290TCM     c1 1613   3.194   1.731   2.474
  290TCM    cl1 1614   3.209   1.592   2.362
  290TCM    cl2 1615   3.244   1.881   2.389
  290TCM     h1 1616   3.091   1.741   2.508
  290TCM    cl3 1617   3.301   1.704   2.615
  291TCM     c1 1618   3.151   0.163   0.270
  291TCM    cl1 1619   3.050   0.020   0.230
  291TCM    cl2 1620   3.046   0.297   0.326
  291TCM     h1 1621   3.222   0.137   0.348
  291TCM    cl3 1622   3.241   0.215   0.123
  292TCM     c1 1623   0.355   1.346   1.870
  292TCM    cl1 1624   0.193   1.275   1.902
  292TCM    cl2 1625   0.463   1.218   1.805
  292TCM     h1 1626   0.346   1.427   1.797
  292TCM    cl3 1627   0.423   1.409   2.023
  293TCM     c1 1628   2.624   3.795   0.952
  293TCM    cl1 1629   2.499   3.714   0.852
  293TCM    cl2 1630   2.672   3.687   1.087
  293TCM     h1 1631   2.712   3.817   0.890
  293TCM    cl3 1632   2.558   3.947   1.019
  294TCM     c1 1633   2.213   2.498   4.449
  294TCM    cl1 1634   2.091   2.621   4.399
  294TCM    cl2 1635   2.367   2.531   4.362
  294TCM     h1 1636   2.229   2.505   4.557
  294TCM    cl3 1637   2.154   2.334   4.406
  295TCM     c1 1638   0.379   2.168   0.309
  295TCM    cl1 1639   0.319   2.046   0.192
  295TCM    cl2 1640   0.239   2.240   0.397
  295TCM     h1 1641   0.447   2.121   0.381
  295TCM    cl3 1642   0.465   2.299   0.221
  296TCM     c1 1643   2.291   0.454   1.223
  296TCM    cl1 1644   2.247   0.622   1.181
  296TCM    cl2 1645   2.438   0.406   1.133
  296TCM     h1 1646   2.309   0.447   1.330
  296TCM    cl3 1647   2.156   0.343   1.180
  297TCM     c1 1648   2.270   3.489   4.820
  297TCM    cl1 1649   2.241   3.378   4.682
  297TCM    cl2 1650   2.205   3.414   4.969
  297TCM     h1 1651   2.377   3.508   4.831
  297TCM    cl3 1652   2.184   3.644   4.790
  298TCM     c1 1653   3.592   1.685   1.439
  298TCM    cl1 1654   3.510   1.711   1.282
  298TCM    cl2 1655   3.469   1.649   1.566
  298TCM     h1 1656   3.662   1.602   1.431
  298TCM    cl3 1657   3.680   1.834   1.485
  299TCM     c1 1658   2.045   2.542   2.409
  299TCM    cl1 1659   2.046   2.605   2.241
  299TCM    cl2 1660   2.191   2.598   2.496
  299TCM     h1 1661   1.956   2.579   2.461
  299TCM    cl3 1662   2.042   2.363   2.405
  300TCM     c1 1663   4.578   2.552   0.558
  300TCM    cl1 1664   4.475   2.441   0.463
  300TCM    cl2 1665   4.533   2.722   0.520
  300TCM     h1 1666   4.562   2.533   0.665
  300TCM    cl3 1667   4.750   2.525   0.517
  301TCM     c1 1668   4.846   4.219   1.317
  301TCM    cl1 1669   4.918   4.377   1.364
  301TCM    cl2 1670   4.905   4.091   1.428
  301TCM     h1 1671   4.737   4.226   1.324
  301TCM    cl3 1672   4.892   4.179   1.149
  302TCM     c1 1673   2.854   1.542   3.531
  302TCM    cl1 1674   3.011   1.546   3.445
  302TCM    cl2 1675   2.845   1.394   3.633
  302TCM     h1 1676   2.844   1.630   3.594
  302TCM    cl3 1677   2.721   1.539   3.410
  303TCM     c1 1678   0.780   3.654   2.032
  303TCM    cl1 1679   0.833   3.690   1.865
  303TCM    cl2 1680   0.923   3.645   2.140
  303TCM     h1 1681   0.713   3.733   2.067
  303TCM    cl3 1682   0.693   3.496   2.034
  304TCM     c1 1683   2.785   4.059   1.857
  304TCM    cl1 1684   2.848   4.018   1.694
  304TCM    cl2 1685   2.748   3.908   1.947
  304TCM     h1 1686   2.860   4.117   1.912
  304TCM    cl3 1687   2.635   4.156   1.840
  305TCM     c1 1688   1.178   2.814   1.969
  305TCM    cl1 1689   1.296   2.706   2.052
  305TCM    cl2 1690   1.150   2.960   2.070
  305TCM     h1 1691   1.219   2.844   1.872
  305TCM    cl3 1692   1.024   2.726   1.946
  306TCM     c1 1693   4.397   4.826   4.535
  306TCM    cl1 1694   4.305   4.788   4.684
  306TCM    cl2 1695   4.307   4.764   4.393
  306TCM     h1 1696   4.409   4.935   4.527
  306TCM    cl3 1697   4.559   4.749   4.542
  307TCM     c1 1698   4.024   4.859   2.354
  307TCM    cl1 1699   4.174   4.796   2.278
  307TCM    cl2 1700   4.024   5.038   2.346
  307TCM     h1 1701   3.937   4.820   2.301
  307TCM    cl3 1702   4.018   4.807   2.526
  308TCM     c1 1703   1.371   0.062   2.879
  308TCM    cl1 1704   1.493   0.191   2.857
  308TCM    cl2 1705   1.258   0.063   2.740
  308TCM     h1 1706   1.421  -0.035   2.885
  308TCM    cl3 1707   1.280   0.091   3.031
  309TCM     c1 1708   3.347   4.982   3.522
  309TCM    cl1 1709   3.408   4.863   3.402
  309TCM    cl2 1710   3.477   5.099   3.562
  309TCM     h1 1711   3.262   5.036   3.479
  309TCM    cl3 1712   3.294   4.897   3.670
  310TCM     c1 1713   3.320   2.037   4.440
  310TCM    cl1 1714   3.421   2.139   4.333
  310TCM    cl2 1715   3.425   1.918   4.524
  310TCM     h1 1716   3.269   2.100   4.513
  310TCM    cl3 1717   3.198   1.951   4.340
  311TCM     c1 1718   4.614   4.078   2.550
  311TCM    cl1 1719   4.791   4.110   2.551
  311TCM    cl2 1720   4.585   3.911   2.494
  311TCM     h1 1721   4.574   4.091   2.651
  311TCM    cl3 1722   4.533   4.194   2.439
  312TCM     c1 1723   4.612   3.013   1.972
  312TCM    cl1 1724   4.600   3.011   2.151
  312TCM    cl2 1725   4.784   3.019   1.924
  312TCM     h1 1726   4.566   2.923   1.931
  312TCM    cl3 1727   4.526   3.158   1.909
  313TCM     c1 1728   1.002   2.215   0.568
  313TCM    cl1 1729   1.089   2.306   0.440
  313TCM    cl2 1730   0.894   2.094   0.492
  313TCM     h1 1731   1.075   2.164   0.632
  313TCM    cl3 1732   0.906   2.329   0.668
  314TCM     c1 1733   0.728   1.703   3.790
  314TCM    cl1 1734   0.617   1.833   3.736
  314TCM    cl2 1735   0.769   1.599   3.649
  314TCM     h1 1736   0.819   1.747   3.831
  314TCM    cl3 1737   0.646   1.602   3.914
  315TCM     c1 1738   4.110   3.654   0.822
  315TCM    cl1 1739   4.071   3.826   0.794
  315TCM    cl2 1740   4.017   3.594   0.963
  315TCM     h1 1741   4.084   3.595   0.733
  315TCM    cl3 1742   4.286   3.638   0.855
  316TCM     c1 1743   0.173   4.957   1.844
  316TCM    cl1 1744   0.170   4.929   1.666
  316TCM    cl2 1745   0.043   5.073   1.887
  316TCM     h1 1746   0.158   4.863   1.897
  316TCM    cl3 1747   0.332   5.028   1.890
  317TCM     c1 1748   1.049   2.219   1.536
  317TCM    cl1 1749   1.083   2.197   1.361
  317TCM    cl2 1750   1.027   2.394   1.570
  317TCM     h1 1751   0.958   2.165   1.563
  317TCM    cl3 1752   1.187   2.156   1.631
  318TCM     c1 1753   0.624   2.221   3.729
  318TCM    cl1 1754   0.686   2.154   3.883
  318TCM    cl2 1755   0.750   2.208   3.603
  318TCM     h1 1756   0.535   2.165   3.698
  318TCM    cl3 1757   0.582   2.393   3.754
  319TCM     c1 1758   0.740   0.747   4.746
  319TCM    cl1 1759   0.821   0.788   4.901
  319TCM    cl2 1760   0.563   0.733   4.773
  319TCM     h1 1761   0.759   0.825   4.672
  319TCM    cl3 1762   0.803   0.590   4.686
  320TCM     c1 1763   3.178   2.806   0.641
  320TCM    cl1 1764   3.107   2.964   0.592
  320TCM    cl2 1765   3.140   2.774   0.813
  320TCM     h1 1766   3.137   2.727   0.579
  320TCM    cl3 1767   3.357   2.812   0.621
  321TCM     c1 1768   3.366   4.753   2.794
  321TCM    cl1 1769   3.189   4.726   2.801
  321TCM    cl2 1770   3.451   4.595   2.802
  321TCM     h1 1771   3.391   4.803   2.700
  321TCM    cl3 1772   3.416   4.856   2.932
  322TCM     c1 1773   4.338   3.256   4.712
  322TCM    cl1 1774   4.178   3.274   4.632
  322TCM    cl2 1775   4.313   3.227   4.887
  322TCM     h1 1776   4.393   3.173   4.667
  322TCM    cl3 1777   4.432   3.408   4.690
  323TCM     c1 1778   4.324   2.529   2.565
  323TCM    cl1 1779   4.368   2.400   2.681
  323TCM    cl2 1780   4.375   2.688   2.632
  323TCM     h1 1781   4.374   2.512   2.469
  323TCM    cl3 1782   4.146   2.530   2.541
  324TCM     c1 1783   2.087   4.543   3.273
  324TCM    cl1 1784   2.225   4.546   3.159
  324TCM    cl2 1785   2.135   4.625   3.425
  324TCM     h1 1786   2.001   4.594   3.229
  324TCM    cl3 1787   2.044   4.372   3.308
  325TCM     c1 1788   3.274   2.001   0.624
  325TCM    cl1 1789   3.329   2.019   0.454
  325TCM    cl2 1790   3.204   1.838   0.648
  325TCM     h1 1791   3.359   2.015   0.691
  325TCM    cl3 1792   3.149   2.125   0.660
  326TCM     c1 1793   2.060   1.958   2.221
  326TCM    cl1 1794   2.081   1.962   2.400
  326TCM    cl2 1795   2.148   1.817   2.153
  326TCM     h1 1796   1.953   1.950   2.198
  326TCM    cl3 1797   2.125   2.109   2.149
  327TCM     c1 1798   2.808   2.582   3.179
  327TCM    cl1 1799   2.744   2.419   3.220
  327TCM    cl2 1800   2.807   2.686   3.326
  327TCM     h1 1801   2.910   2.573   3.142
  327TCM    cl3 1802   2.703   2.657   3.054
  328TCM     c1 1803   4.973   1.736   1.460
  328TCM    cl1 1804   4.972   1.619   1.596
  328TCM    cl2 1805   4.809   1.749   1.389
  328TCM     h1 1806   5.005   1.834   1.496
  328TCM    cl3 1807   5.086   1.678   1.332
  329TCM     c1 1808   1.400   1.313   3.297
  329TCM    cl1 1809   1.514   1.356   3.165
  329TCM    cl2 1810   1.440   1.406   3.444
  329TCM     h1 1811   1.298   1.337   3.265
  329TCM    cl3 1812   1.412   1.137   3.332
  330TCM     c1 1813   3.215   4.051   1.858
  330TCM    cl1 1814   3.134   4.210   1.879
  330TCM    cl2 1815   3.209   4.005   1.685
  330TCM     h1 1816   3.319   4.058   1.891
  330TCM    cl3 1817   3.128   3.928   1.955
  331TCM     c1 1818   1.916   3.757   0.179
  331TCM    cl1 1819   1.938   3.579   0.169
  331TCM    cl2 1820   2.014   3.838   0.053
  331TCM     h1 1821   1.811   3.782   0.165
  331TCM    cl3 1822   1.970   3.810   0.342
  332TCM     c1 1823   4.382   2.137   3.060
  332TCM    cl1 1824   4.302   2.117   2.900
  332TCM    cl2 1825   4.274   2.228   3.170
  332TCM     h1 1826   4.403   2.038   3.103
  332TCM    cl3 1827   4.536   2.227   3.039
  333TCM     c1 1828   2.267   3.738   1.144
  333TCM    cl1 1829   2.320   3.825   1.292
  333TCM    cl2 1830   2.087   3.739   1.138
  333TCM     h1 1831   2.307   3.788   1.056
  333TCM    cl3 1832   2.325   3.569   1.151
  334TCM     c1 1833   0.836   4.847   4.411
  334TCM    cl1 1834   0.963   4.723   4.435
  334TCM    cl2 1835   0.675   4.770   4.419
  334TCM     h1 1836   0.844   4.922   4.490
  334TCM    cl3 1837   0.857   4.926   4.251
  335TCM     c1 1838   3.609   2.793   3.590
  335TCM    cl1 1839   3.524   2.635   3.589
  335TCM    cl2 1840   3.502   2.919   3.521
  335TCM     h1 1841   3.635   2.819   3.693
  335TCM    cl3 1842   3.758   2.781   3.491
  336TCM     c1 1843   3.332   3.727   0.916
  336TCM    cl1 1844   3.409   3.783   0.764
  336TCM    cl2 1845   3.386   3.831   1.052
  336TCM     h1 1846   3.223   3.734   0.906
  336TCM    cl3 1847   3.379   3.557   0.947
  337TCM     c1 1848   2.331   1.220   3.462
  337TCM    cl1 1849   2.425   1.330   3.356
  337TCM    cl2 1850   2.294   1.069   3.373
  337TCM     h1 1851   2.389   1.197   3.552
  337TCM    cl3 1852   2.178   1.301   3.511
  338TCM     c1 1853   1.885   3.611   4.527
  338TCM    cl1 1854   1.728   3.644   4.609
  338TCM    cl2 1855   1.879   3.677   4.361
  338TCM     h1 1856   1.966   3.658   4.583
  338TCM    cl3 1857   1.912   3.434   4.517
  339TCM     c1 1858   4.030   3.811   3.027
  339TCM    cl1 1859   4.200   3.764   2.997
  339TCM    cl2 1860   3.936   3.667   3.078
  339TCM     h1 1861   4.027   3.887   3.106
  339TCM    cl3 1862   3.959   3.878   2.877
  340TCM     c1 1863   3.053   1.839   4.662
  340TCM    cl1 1864   3.090   2.008   4.707
  340TCM    cl2 1865   2.923   1.837   4.539
  340TCM     h1 1866   3.143   1.791   4.621
  340TCM    cl3 1867   2.999   1.749   4.807
  341TCM     c1 1868   0.362   0.525   3.781
  341TCM    cl1 1869   0.410   0.353   3.798
  341TCM    cl2 1870   0.289   0.551   3.619
  341TCM     h1 1871   0.288   0.550   3.859
  341TCM    cl3 1872   0.506   0.630   3.800
  342TCM     c1 1873   3.080   0.886   1.736
  342TCM    cl1 1874   3.136   1.056   1.727
  342TCM    cl2 1875   3.222   0.777   1.737
  342TCM     h1 1876   3.022   0.872   1.828
  342TCM    cl3 1877   2.977   0.849   1.594
  343TCM     c1 1878   2.549   0.001   2.211
  343TCM    cl1 1879   2.477  -0.132   2.114
  343TCM    cl2 1880   2.726  -0.023   2.222
  343TCM     h1 1881   2.527   0.096   2.163
  343TCM    cl3 1882   2.479   0.000   2.376
  344TCM     c1 1883   2.678   4.459   2.118
  344TCM    cl1 1884   2.831   4.379   2.068
  344TCM    cl2 1885   2.717   4.600   2.222
  344TCM     h1 1886   2.624   4.493   2.029
  344TCM    cl3 1887   2.577   4.343   2.209
  345TCM     c1 1888   0.630   0.711   1.920
  345TCM    cl1 1889   0.547   0.648   2.066
  345TCM    cl2 1890   0.712   0.865   1.961
  345TCM     h1 1891   0.704   0.639   1.886
  345TCM    cl3 1892   0.510   0.740   1.790
  346TCM     c1 1893   2.150   4.268   2.835
  346TCM    cl1 1894   2.179   4.339   2.673
  346TCM    cl2 1895   2.019   4.359   2.917
  346TCM     h1 1896   2.120   4.164   2.824
  346TCM    cl3 1897   2.300   4.278   2.932
  347TCM     c1 1898   4.108   1.774   4.305
  347TCM    cl1 1899   4.087   1.952   4.309
  347TCM    cl2 1900   4.146   1.716   4.471
  347TCM     h1 1901   4.017   1.726   4.270
  347TCM    cl3 1902   4.245   1.734   4.196
  348TCM     c1 1903   0.133   0.218   4.858
  348TCM    cl1 1904   0.139   0.235   4.680
  348TCM    cl2 1905   0.111   0.380   4.932
  348TCM     h1 1906   0.048   0.154   4.885
  348TCM    cl3 1907   0.286   0.145   4.916
  349TCM     c1 1908   3.564   3.645   4.699
  349TCM    cl1 1909   3.729   3.666   4.633
  349TCM    cl2 1910   3.572   3.547   4.850
  349TCM     h1 1911   3.520   3.742   4.721
  349TCM    cl3 1912   3.462   3.560   4.579
  350TCM     c1 1913   1.678   2.098   2.370
  350TCM    cl1 1914   1.742   2.182   2.516
  350TCM    cl2 1915   1.712   1.922   2.384
  350TCM     h1 1916   1.570   2.114   2.362
  350TCM    cl3 1917   1.759   2.163   2.224
  351TCM     c1 1918   1.800   3.992   1.361
  351TCM    cl1 1919   1.681   3.879   1.435
  351TCM    cl2 1920   1.799   3.970   1.183
  351TCM     h1 1921   1.774   4.095   1.386
  351TCM    cl3 1922   1.964   3.955   1.425
  352TCM     c1 1923   3.889   3.654   1.617
  352TCM    cl1 1924   3.877   3.522   1.497
  352TCM    cl2 1925   3.829   3.595   1.776
  352TCM     h1 1926   3.993   3.686   1.627
  352TCM    cl3 1927   3.788   3.792   1.563
  353TCM     c1 1928   2.346   4.544   0.346
  353TCM    cl1 1929   2.397   4.410   0.453
  353TCM    cl2 1930   2.179   4.594   0.387
  353TCM     h1 1931   2.414   4.629   0.360
  353TCM    cl3 1932   2.351   4.490   0.175
  354TCM     c1 1933   2.693   2.227   4.419
  354TCM    cl1 1934   2.809   2.231   4.556
  354TCM    cl2 1935   2.711   2.376   4.322
  354TCM     h1 1936   2.713   2.139   4.357
  354TCM    cl3 1937   2.525   2.219   4.483
  355TCM     c1 1938   1.427   3.076   2.282
  355TCM    cl1 1939   1.573   3.169   2.236
  355TCM    cl2 1940   1.357   3.145   2.432
  355TCM     h1 1941   1.353   3.082   2.202
  355TCM    cl3 1942   1.472   2.905   2.311
  356TCM     c1 1943   0.340   4.059   4.497
  356TCM    cl1 1944   0.407   4.191   4.598
  356TCM    cl2 1945   0.301   3.919   4.603
  356TCM     h1 1946   0.249   4.094   4.447
  356TCM    cl3 1947   0.461   4.009   4.374
  357TCM     c1 1948   4.983   2.203   1.490
  357TCM    cl1 1949   5.076   2.186   1.642
  357TCM    cl2 1950   4.929   2.373   1.470
  357TCM     h1 1951   5.046   2.175   1.405
  357TCM    cl3 1952   4.840   2.095   1.497
  358TCM     c1 1953   4.328   0.815   3.868
  358TCM    cl1 1954   4.156   0.794   3.914
  358TCM    cl2 1955   4.365   0.990   3.852
  358TCM     h1 1956   4.392   0.772   3.945
  358TCM    cl3 1957   4.357   0.733   3.711
  359TCM     c1 1958   3.925   0.783   0.053
  359TCM    cl1 1959   3.971   0.700   0.205
  359TCM    cl2 1960   3.914   0.960   0.082
  359TCM     h1 1961   4.001   0.764  -0.023
  359TCM    cl3 1962   3.766   0.721  -0.004
  360TCM     c1 1963   1.849   1.666   3.680
  360TCM    cl1 1964   1.714   1.633   3.566
  360TCM    cl2 1965   1.948   1.518   3.698
  360TCM     h1 1966   1.911   1.747   3.640
  360TCM    cl3 1967   1.782   1.714   3.839
  361TCM     c1 1968   0.045   1.758   1.981
  361TCM    cl1 1969   0.169   1.645   1.920
  361TCM    cl2 1970   0.022   1.888   1.859
  361TCM     h1 1971  -0.049   1.705   1.995
  361TCM    cl3 1972   0.098   1.830   2.136
  362TCM     c1 1973   1.416   0.421   3.112
  362TCM    cl1 1974   1.537   0.518   3.021
  362TCM    cl2 1975   1.305   0.532   3.200
  362TCM     h1 1976   1.359   0.359   3.043
  362TCM    cl3 1977   1.503   0.318   3.230
  363TCM     c1 1978   2.009   3.972   0.866
  363TCM    cl1 1979   1.958   4.138   0.820
  363TCM    cl2 1980   2.188   3.962   0.864
  363TCM     h1 1981   1.972   3.949   0.967
  363TCM    cl3 1982   1.941   3.855   0.749
  364TCM     c1 1983   3.402   1.673   3.987
  364TCM    cl1 1984   3.545   1.581   4.045
  364TCM    cl2 1985   3.399   1.834   4.065
  364TCM     h1 1986   3.407   1.685   3.879
  364TCM    cl3 1987   3.251   1.585   4.030
  365TCM     c1 1988   2.168   3.433   3.764
  365TCM    cl1 1989   2.051   3.525   3.665
  365TCM    cl2 1990   2.079   3.327   3.878
  365TCM     h1 1991   2.231   3.371   3.699
  365TCM    cl3 1992   2.271   3.547   3.856
  366TCM     c1 1993   2.751   0.558   4.553
  366TCM    cl1 1994   2.920   0.512   4.515
  366TCM    cl2 1995   2.752   0.689   4.675
  366TCM     h1 1996   2.701   0.593   4.462
  366TCM    cl3 1997   2.663   0.417   4.620
  367TCM     c1 1998   2.637   2.563   2.321
  367TCM    cl1 1999   2.752   2.685   2.384
  367TCM    cl2 2000   2.542   2.495   2.457
  367TCM     h1 2001   2.569   2.611   2.250
  367TCM    cl3 2002   2.726   2.431   2.238
  368TCM     c1 2003   4.468   4.337   0.419
  368TCM    cl1 2004   4.337   4.253   0.328
  368TCM    cl2 2005   4.559   4.217   0.516
  368TCM     h1 2006   4.535   4.385   0.348
  368TCM    cl3 2007   4.397   4.460   0.528
  369TCM     c1 2008   1.536   2.878   4.210
  369TCM    cl1 2009   1.709   2.830   4.217
  369TCM    cl2 2010   1.443   2.778   4.326
  369TCM     h1 2011   1.526   2.983   4.237
  369TCM    cl3 2012   1.472   2.852   4.044
  370TCM     c1 2013   2.504   3.769   4.026
  370TCM    cl1 2014   2.641   3.772   4.143
  370TCM    cl2 2015   2.531   3.893   3.899
  370TCM     h1 2016   2.497   3.671   3.980
  370TCM    cl3 2017   2.350   3.805   4.112
  371TCM     c1 2018   4.470   0.023   2.439
  371TCM    cl1 2019   4.527  -0.137   2.383
  371TCM    cl2 2020   4.330   0.002   2.549
  371TCM     h1 2021   4.551   0.075   2.491
  371TCM    cl3 2022   4.418   0.120   2.297
  372TCM     c1 2023   1.589   3.428   1.759
  372TCM    cl1 2024   1.611   3.600   1.804
  372TCM    cl2 2025   1.528   3.336   1.900
  372TCM     h1 2026   1.517   3.421   1.677
  372TCM    cl3 2027   1.746   3.359   1.708
  373TCM     c1 2028   3.179   0.605   0.795
  373TCM    cl1 2029   3.279   0.617   0.944
  373TCM    cl2 2030   3.067   0.745   0.787
  373TCM     h1 2031   3.245   0.605   0.707
  373TCM    cl3 2032   3.084   0.453   0.798
  374TCM     c1 2033   4.861   3.441   2.913
  374TCM    cl1 2034   5.031   3.465   2.862
  374TCM    cl2 2035   4.810   3.581   3.013
  374TCM     h1 2036   4.797   3.434   2.825
  374TCM    cl3 2037   4.848   3.291   3.010
  375TCM     c1 2038   2.624   2.557   4.644
  375TCM    cl1 2039   2.742   2.533   4.777
  375TCM    cl2 2040   2.667   2.705   4.552
  375TCM     h1 2041   2.626   2.471   4.577
  375TCM    cl3 2042   2.460   2.576   4.713
  376TCM     c1 2043   1.943   0.264   0.070
  376TCM    cl1 2044   1.844   0.411   0.039
  376TCM    cl2 2045   1.994   0.262   0.242
  376TCM     h1 2046   1.884   0.175   0.049
  376TCM    cl3 2047   2.089   0.266  -0.035
  377TCM     c1 2048   2.630   0.290   1.833
  377TCM    cl1 2049   2.654   0.128   1.906
  377TCM    cl2 2050   2.454   0.325   1.823
  377TCM     h1 2051   2.679   0.367   1.894
  377TCM    cl3 2052   2.701   0.288   1.669
  378TCM     c1 2053   1.580   3.273   4.535
  378TCM    cl1 2054   1.454   3.177   4.619
  378TCM    cl2 2055   1.503   3.411   4.449
  378TCM     h1 2056   1.653   3.311   4.607
  378TCM    cl3 2057   1.663   3.169   4.415
  379TCM     c1 2058   0.419   2.635   0.587
  379TCM    cl1 2059   0.381   2.601   0.415
  379TCM    cl2 2060   0.592   2.601   0.618
  379TCM     h1 2061   0.398   2.740   0.609
  379TCM    cl3 2062   0.317   2.530   0.692
  380TCM     c1 2063   2.745   0.108   3.185
  380TCM    cl1 2064   2.723   0.069   3.358
  380TCM    cl2 2065   2.853   0.251   3.171
  380TCM     h1 2066   2.790   0.023   3.133
  380TCM    cl3 2067   2.586   0.146   3.112
  381TCM     c1 2068   1.962   2.941   0.658
  381TCM    cl1 2069   2.071   2.890   0.524
  381TCM    cl2 2070   1.974   2.824   0.793
  381TCM     h1 2071   1.991   3.040   0.693
  381TCM    cl3 2072   1.793   2.945   0.598
  382TCM     c1 2073   2.804   0.041   3.717
  382TCM    cl1 2074   2.849   0.150   3.853
  382TCM    cl2 2075   2.719  -0.103   3.782
  382TCM     h1 2076   2.738   0.094   3.648
  382TCM    cl3 2077   2.953  -0.010   3.633
  383TCM     c1 2078   2.697   3.304   4.790
  383TCM    cl1 2079   2.871   3.325   4.750
  383TCM    cl2 2080   2.601   3.304   4.638
  383TCM     h1 2081   2.683   3.210   4.842
  383TCM    cl3 2082   2.643   3.440   4.893
  384TCM     c1 2083   4.965   0.425   3.985
  384TCM    cl1 2084   4.853   0.504   4.101
  384TCM    cl2 2085   5.128   0.414   4.059
  384TCM     h1 2086   4.929   0.326   3.960
  384TCM    cl3 2087   4.976   0.526   3.837
  385TCM     c1 2088   2.097   2.427   3.639
  385TCM    cl1 2089   1.972   2.324   3.562
  385TCM    cl2 2090   2.120   2.377   3.809
  385TCM     h1 2091   2.191   2.417   3.584
  385TCM    cl3 2092   2.044   2.598   3.634
  386TCM     c1 2093   0.403   1.227   4.849
  386TCM    cl1 2094   0.536   1.110   4.820
  386TCM    cl2 2095   0.271   1.146   4.940
  386TCM     h1 2096   0.441   1.311   4.908
  386TCM    cl3 2097   0.340   1.287   4.692
  387TCM     c1 2098   4.503   2.950   1.463
  387TCM    cl1 2099   4.537   2.911   1.635
  387TCM    cl2 2100   4.637   3.048   1.396
  387TCM     h1 2101   4.494   2.857   1.406
  387TCM    cl3 2102   4.350   3.042   1.452
  388TCM     c1 2103   2.866   3.204   0.227
  388TCM    cl1 2104   2.945   3.046   0.260
  388TCM    cl2 2105   2.711   3.176   0.141
  388TCM     h1 2106   2.846   3.255   0.322
  388TCM    cl3 2107   2.974   3.306   0.126
  389TCM     c1 2108   2.525   4.663   1.205
  389TCM    cl1 2109   2.360   4.597   1.231
  389TCM    cl2 2110   2.590   4.724   1.360
  389TCM     h1 2111   2.590   4.583   1.166
  389TCM    cl3 2112   2.517   4.796   1.085
  390TCM     c1 2113   2.534   3.834   4.521
  390TCM    cl1 2114   2.428   3.953   4.604
  390TCM    cl2 2115   2.541   3.684   4.619
  390TCM     h1 2116   2.493   3.812   4.422
  390TCM    cl3 2117   2.699   3.902   4.504
  391TCM     c1 2118   3.754   3.985   2.528
  391TCM    cl1 2119   3.833   3.824   2.538
  391TCM    cl2 2120   3.681   4.005   2.365
  391TCM     h1 2121   3.676   3.992   2.604
  391TCM    cl3 2122   3.877   4.113   2.555
  392TCM     c1 2123   2.248   1.321   2.189
  392TCM    cl1 2124   2.153   1.249   2.322
  392TCM    cl2 2125   2.139   1.361   2.052
  392TCM     h1 2126   2.298   1.412   2.224
  392TCM    cl3 2127   2.370   1.201   2.135
  393TCM     c1 2128   4.726   2.263   0.270
  393TCM    cl1 2129   4.692   2.147   0.402
  393TCM    cl2 2130   4.643   2.209   0.120
  393TCM     h1 2131   4.690   2.363   0.297
  393TCM    cl3 2132   4.903   2.270   0.241
  394TCM     c1 2133   3.880   0.531   2.861
  394TCM    cl1 2134   3.860   0.686   2.774
  394TCM    cl2 2135   4.052   0.480   2.849
  394TCM     h1 2136   3.852   0.543   2.966
  394TCM    cl3 2137   3.775   0.407   2.785
  395TCM     c1 2138   4.820   2.382   4.775
  395TCM    cl1 2139   4.856   2.477   4.923
  395TCM    cl2 2140   4.844   2.487   4.631
  395TCM     h1 2141   4.886   2.296   4.770
  395TCM    cl3 2142   4.649   2.327   4.781
  396TCM     c1 2143   3.227   1.063   0.709
  396TCM    cl1 2144   3.365   0.959   0.758
  396TCM    cl2 2145   3.289   1.207   0.622
  396TCM     h1 2146   3.160   1.006   0.643
  396TCM    cl3 2147   3.136   1.116   0.854
  397TCM     c1 2148   2.586   4.249   4.292
  397TCM    cl1 2149   2.489   4.307   4.431
  397TCM    cl2 2150   2.522   4.091   4.236
  397TCM     h1 2151   2.580   4.321   4.210
  397TCM    cl3 2152   2.757   4.229   4.343
  398TCM     c1 2153   1.134   0.132   0.175
  398TCM    cl1 2154   0.997   0.197   0.079
  398TCM    cl2 2155   1.248   0.048   0.064
  398TCM     h1 2156   1.186   0.215   0.225
  398TCM    cl3 2157   1.072   0.016   0.296
  399TCM     c1 2158   1.263   3.287   4.205
  399TCM    cl1 2159   1.153   3.387   4.306
  399TCM    cl2 2160   1.187   3.257   4.045
  399TCM     h1 2161   1.358   3.340   4.190
  399TCM    cl3 2162   1.294   3.131   4.287
  400TCM     c1 2163   0.957   2.317   1.974
  400TCM    cl1 2164   0.950   2.241   2.136
  400TCM    cl2 2165   0.895   2.200   1.852
  400TCM     h1 2166   0.895   2.407   1.973
  400TCM    cl3 2167   1.127   2.360   1.936
  401TCM     c1 2168   0.976   1.261   0.277
  401TCM    cl1 2169   1.091   1.307   0.406
  401TCM    cl2 2170   0.824   1.353   0.299
  401TCM     h1 2171   1.019   1.284   0.179
  401TCM    cl3 2172   0.940   1.085   0.286
  402TCM     c1 2173   0.092   4.955   3.155
  402TCM    cl1 2174   0.232   4.906   3.054
  402TCM    cl2 2175   0.065   5.132   3.138
  402TCM     h1 2176   0.003   4.901   3.122
  402TCM    cl3 2177   0.127   4.918   3.327
  403TCM     c1 2178   2.376   3.815   0.116
  403TCM    cl1 2179   2.467   3.902   0.244
  403TCM    cl2 2180   2.303   3.668   0.188
  403TCM     h1 2181   2.297   3.880   0.077
  403TCM    cl3 2182   2.486   3.765  -0.016
  404TCM     c1 2183   0.065   1.911   0.478
  404TCM    cl1 2184   0.007   2.039   0.589
  404TCM    cl2 2185  -0.038   1.765   0.498
  404TCM     h1 2186   0.059   1.946   0.374
  404TCM    cl3 2187   0.236   1.869   0.517
  405TCM     c1 2188   3.099   4.709   3.930
  405TCM    cl1 2189   3.192   4.567   3.990
  405TCM    cl2 2190   3.006   4.782   4.065
  405TCM     h1 2191   3.168   4.783   3.889
  405TCM    cl3 2192   2.984   4.655   3.804
  406TCM     c1 2193   0.211   3.118   3.189
  406TCM    cl1 2194   0.124   3.026   3.061
  406TCM    cl2 2195   0.144   3.074   3.349
  406TCM     h1 2196   0.317   3.093   3.185
  406TCM    cl3 2197   0.188   3.293   3.161
  407TCM     c1 2198   2.599   0.674   1.547
  407TCM    cl1 2199   2.531   0.528   1.470
  407TCM    cl2 2200   2.633   0.639   1.719
  407TCM     h1 2201   2.692   0.703   1.496
  407TCM    cl3 2202   2.481   0.809   1.536
  408TCM     c1 2203   4.539   4.783   3.961
  408TCM    cl1 2204   4.519   4.865   4.119
  408TCM    cl2 2205   4.623   4.892   3.846
  408TCM     h1 2206   4.598   4.692   3.976
  408TCM    cl3 2207   4.377   4.739   3.896
  409TCM     c1 2208   3.632   0.878   1.712
  409TCM    cl1 2209   3.692   0.879   1.881
  409TCM    cl2 2210   3.766   0.918   1.599
  409TCM     h1 2211   3.592   0.780   1.687
  409TCM    cl3 2212   3.503   1.001   1.695
  410TCM     c1 2213   2.218   4.630   2.025
  410TCM    cl1 2214   2.150   4.732   1.894
  410TCM    cl2 2215   2.345   4.523   1.958
  410TCM     h1 2216   2.261   4.694   2.102
  410TCM    cl3 2217   2.087   4.531   2.098
  411TCM     c1 2218   2.092   2.518   0.493
  411TCM    cl1 2219   2.184   2.375   0.551
  411TCM    cl2 2220   1.929   2.520   0.570
  411TCM     h1 2221   2.145   2.609   0.520
  411TCM    cl3 2222   2.073   2.507   0.315
  412TCM     c1 2223   1.975   4.440   0.108
  412TCM    cl1 2224   1.968   4.302  -0.007
  412TCM    cl2 2225   1.818   4.455   0.192
  412TCM     h1 2226   2.055   4.422   0.181
  412TCM    cl3 2227   2.009   4.591   0.018
  413TCM     c1 2228   3.379   0.907   2.082
  413TCM    cl1 2229   3.400   1.077   2.029
  413TCM    cl2 2230   3.204   0.873   2.099
  413TCM     h1 2231   3.423   0.840   2.008
  413TCM    cl3 2232   3.460   0.885   2.240
  414TCM     c1 2233   3.514   4.069   0.588
  414TCM    cl1 2234   3.457   4.170   0.724
  414TCM    cl2 2235   3.687   4.026   0.614
  414TCM     h1 2236   3.454   3.977   0.583
  414TCM    cl3 2237   3.497   4.159   0.434
  415TCM     c1 2238   1.563   3.999   1.795
  415TCM    cl1 2239   1.514   4.079   1.947
  415TCM    cl2 2240   1.721   4.066   1.741
  415TCM     h1 2241   1.572   3.892   1.811
  415TCM    cl3 2242   1.439   4.031   1.669
  416TCM     c1 2243   4.693   2.476   2.821
  416TCM    cl1 2244   4.635   2.614   2.921
  416TCM    cl2 2245   4.851   2.418   2.884
  416TCM     h1 2246   4.620   2.395   2.825
  416TCM    cl3 2247   4.715   2.530   2.651
  417TCM     c1 2248   1.360   1.243   2.019
  417TCM    cl1 2249   1.327   1.074   1.969
  417TCM    cl2 2250   1.500   1.307   1.926
  417TCM     h1 2251   1.272   1.305   2.001
  417TCM    cl3 2252   1.400   1.245   2.193
  418TCM     c1 2253   0.850   4.055   4.768
  418TCM    cl1 2254   0.944   4.165   4.661
  418TCM    cl2 2255   0.705   3.996   4.681
  418TCM     h1 2256   0.913   3.970   4.797
  418TCM    cl3 2257   0.800   4.145   4.915
  419TCM     c1 2258   2.879   2.551   0.558
  419TCM    cl1 2259   2.824   2.702   0.638
  419TCM    cl2 2260   2.986   2.461   0.670
  419TCM     h1 2261   2.793   2.489   0.532
  419TCM    cl3 2262   2.969   2.593   0.408
  420TCM     c1 2263   0.468   1.848   2.260
  420TCM    cl1 2264   0.637   1.879   2.313
  420TCM    cl2 2265   0.404   1.703   2.344
  420TCM     h1 2266   0.406   1.935   2.283
  420TCM    cl3 2267   0.467   1.820   2.082
  421TCM     c1 2268   2.289   0.579   4.387
  421TCM    cl1 2269   2.189   0.676   4.274
  421TCM    cl2 2270   2.417   0.682   4.459
  421TCM     h1 2271   2.226   0.539   4.467
  421TCM    cl3 2272   2.367   0.444   4.298
  422TCM     c1 2273   0.176   4.162   3.797
  422TCM    cl1 2274   0.159   4.305   3.692
  422TCM    cl2 2275   0.014   4.097   3.839
  422TCM     h1 2276   0.234   4.085   3.746
  422TCM    cl3 2277   0.261   4.209   3.949
  423TCM     c1 2278   4.555   4.119   0.970
  423TCM    cl1 2279   4.459   3.979   0.911
  423TCM    cl2 2280   4.525   4.141   1.145
  423TCM     h1 2281   4.661   4.101   0.953
  423TCM    cl3 2282   4.503   4.268   0.883
  424TCM     c1 2283   2.206   2.294   4.951
  424TCM    cl1 2284   2.221   2.299   4.772
  424TCM    cl2 2285   2.303   2.428   5.023
  424TCM     h1 2286   2.101   2.306   4.979
  424TCM    cl3 2287   2.267   2.137   5.012
  425TCM     c1 2288   4.761   4.818   3.403
  425TCM    cl1 2289   4.758   4.990   3.353
  425TCM    cl2 2290   4.804   4.715   3.262
  425TCM     h1 2291   4.836   4.804   3.482
  425TCM    cl3 2292   4.600   4.771   3.466
  426TCM     c1 2293   3.116   2.340   1.999
  426TCM    cl1 2294   2.981   2.442   1.938
  426TCM    cl2 2295   3.271   2.429   1.984
  426TCM     h1 2296   3.098   2.316   2.104
  426TCM    cl3 2297   3.125   2.190   1.902
  427TCM     c1 2298   3.544   1.231   4.761
  427TCM    cl1 2299   3.639   1.365   4.689
  427TCM    cl2 2300   3.599   1.074   4.694
  427TCM     h1 2301   3.557   1.231   4.870
  427TCM    cl3 2302   3.370   1.255   4.721
  428TCM     c1 2303   0.938   1.792   4.172
  428TCM    cl1 2304   1.012   1.695   4.041
  428TCM    cl2 2305   0.802   1.889   4.105
  428TCM     h1 2306   0.899   1.725   4.249
  428TCM    cl3 2307   1.060   1.901   4.244
  429TCM     c1 2308   0.271   0.389   1.976
  429TCM    cl1 2309   0.364   0.326   2.116
  429TCM    cl2 2310   0.381   0.402   1.834
  429TCM     h1 2311   0.188   0.322   1.953
  429TCM    cl3 2312   0.208   0.552   2.017
  430TCM     c1 2313   3.417   0.079   0.575
  430TCM    cl1 2314   3.538   0.082   0.443
  430TCM    cl2 2315   3.297  -0.051   0.543
  430TCM     h1 2316   3.467   0.059   0.670
  430TCM    cl3 2317   3.334   0.238   0.583
  431TCM     c1 2318   2.910   1.910   3.348
  431TCM    cl1 2319   2.798   1.896   3.488
  431TCM    cl2 2320   3.080   1.901   3.406
  431TCM     h1 2321   2.892   1.828   3.278
  431TCM    cl3 2322   2.883   2.067   3.267
  432TCM     c1 2323   3.486   2.573   3.214
  432TCM    cl1 2324   3.314   2.536   3.179
  432TCM    cl2 2325   3.518   2.746   3.181
  432TCM     h1 2326   3.508   2.551   3.319
  432TCM    cl3 2327   3.591   2.472   3.109
  433TCM     c1 2328   2.997   4.422   1.543
  433TCM    cl1 2329   3.041   4.262   1.475
  433TCM    cl2 2330   2.871   4.399   1.670
  433TCM     h1 2331   3.085   4.469   1.587
  433TCM    cl3 2332   2.931   4.525   1.412
  434TCM     c1 2333   0.293   1.042   3.737
  434TCM    cl1 2334   0.255   0.887   3.818
  434TCM    cl2 2335   0.404   1.011   3.599
  434TCM     h1 2336   0.201   1.088   3.700
  434TCM    cl3 2337   0.373   1.152   3.853
  435TCM     c1 2338   0.362   1.930   1.269
  435TCM    cl1 2339   0.256   1.980   1.404
  435TCM    cl2 2340   0.519   1.874   1.336
  435TCM     h1 2341   0.316   1.849   1.213
  435TCM    cl3 2342   0.388   2.070   1.161
  436TCM     c1 2343   4.863   2.675   1.002
  436TCM    cl1 2344   4.749   2.641   0.868
  436TCM    cl2 2345   4.858   2.541   1.120
  436TCM     h1 2346   4.965   2.685   0.962
  436TCM    cl3 2347   4.815   2.828   1.083
  437TCM     c1 2348   3.211   1.037   1.204
  437TCM    cl1 2349   3.347   0.954   1.121
  437TCM    cl2 2350   3.242   1.039   1.380
  437TCM     h1 2351   3.203   1.139   1.166
  437TCM    cl3 2352   3.059   0.947   1.171
  438TCM     c1 2353   3.402   1.496   4.436
  438TCM    cl1 2354   3.552   1.594   4.413
  438TCM    cl2 2355   3.401   1.360   4.319
  438TCM     h1 2356   3.400   1.457   4.537
  438TCM    cl3 2357   3.258   1.600   4.409
  439TCM     c1 2358   0.227   3.707   3.821
  439TCM    cl1 2359   0.108   3.752   3.694
  439TCM    cl2 2360   0.352   3.835   3.830
  439TCM     h1 2361   0.176   3.699   3.917
  439TCM    cl3 2362   0.302   3.550   3.779
  440TCM     c1 2363   3.305   3.306   4.771
  440TCM    cl1 2364   3.219   3.228   4.634
  440TCM    cl2 2365   3.331   3.185   4.901
  440TCM     h1 2366   3.402   3.343   4.737
  440TCM    cl3 2367   3.207   3.442   4.834
  441TCM     c1 2368   0.733   2.289   1.249
  441TCM    cl1 2369   0.761   2.120   1.195
  441TCM    cl2 2370   0.686   2.288   1.422
  441TCM     h1 2371   0.825   2.347   1.236
  441TCM    cl3 2372   0.601   2.363   1.152
  442TCM     c1 2373   4.271   0.978   0.210
  442TCM    cl1 2374   4.313   1.112   0.098
  442TCM    cl2 2375   4.351   1.006   0.368
  442TCM     h1 2376   4.162   0.975   0.225
  442TCM    cl3 2377   4.327   0.823   0.141
  443TCM     c1 2378   2.861   0.705   3.163
  443TCM    cl1 2379   2.747   0.601   3.254
  443TCM    cl2 2380   2.790   0.746   3.004
  443TCM     h1 2381   2.880   0.796   3.220
  443TCM    cl3 2382   3.015   0.615   3.140
  444TCM     c1 2383   4.015   1.292   4.315
  444TCM    cl1 2384   3.960   1.397   4.451
  444TCM    cl2 2385   4.147   1.375   4.227
  444TCM     h1 2386   4.051   1.196   4.354
  444TCM    cl3 2387   3.877   1.264   4.204
  445TCM     c1 2388   4.713   1.946   3.393
  445TCM    cl1 2389   4.741   2.035   3.546
  445TCM    cl2 2390   4.804   2.025   3.259
  445TCM     h1 2391   4.748   1.842   3.404
  445TCM    cl3 2392   4.538   1.947   3.354
  446TCM     c1 2393   2.997   0.411   3.462
  446TCM    cl1 2394   2.846   0.361   3.545
  446TCM    cl2 2395   3.126   0.292   3.499
  446TCM     h1 2396   2.980   0.415   3.354
  446TCM    cl3 2397   3.045   0.574   3.521
  447TCM     c1 2398   3.526   3.601   1.368
  447TCM    cl1 2399   3.461   3.764   1.406
  447TCM    cl2 2400   3.638   3.611   1.228
  447TCM     h1 2401   3.579   3.562   1.455
  447TCM    cl3 2402   3.389   3.492   1.327
  448TCM     c1 2403   0.445   4.935   0.928
  448TCM    cl1 2404   0.446   5.110   0.965
  448TCM    cl2 2405   0.538   4.847   1.054
  448TCM     h1 2406   0.342   4.898   0.927
  448TCM    cl3 2407   0.519   4.907   0.767
  449TCM     c1 2408   2.141   3.840   3.497
  449TCM    cl1 2409   2.264   3.837   3.627
  449TCM    cl2 2410   2.213   3.771   3.347
  449TCM     h1 2411   2.054   3.780   3.527
  449TCM    cl3 2412   2.088   4.008   3.466
  450TCM     c1 2413   4.214   3.817   1.184
  450TCM    cl1 2414   4.087   3.743   1.286
  450TCM    cl2 2415   4.358   3.852   1.285
  450TCM     h1 2416   4.242   3.749   1.103
  450TCM    cl3 2417   4.153   3.971   1.114
  451TCM     c1 2418   3.049   4.066   4.123
  451TCM    cl1 2419   2.888   4.059   4.045
  451TCM    cl2 2420   3.051   3.957   4.266
  451TCM     h1 2421   3.125   4.033   4.051
  451TCM    cl3 2422   3.086   4.234   4.174
  452TCM     c1 2423   1.532   2.015   4.274
  452TCM    cl1 2424   1.431   2.157   4.232
  452TCM    cl2 2425   1.424   1.878   4.320
  452TCM     h1 2426   1.593   1.987   4.189
  452TCM    cl3 2427   1.637   2.055   4.414
  453TCM     c1 2428   1.275   3.192   1.586
  453TCM    cl1 2429   1.235   3.102   1.736
  453TCM    cl2 2430   1.447   3.165   1.545
  453TCM     h1 2431   1.211   3.157   1.504
  453TCM    cl3 2432   1.248   3.368   1.612
  454TCM     c1 2433   1.957   4.815   1.384
  454TCM    cl1 2434   1.851   4.906   1.272
  454TCM    cl2 2435   2.102   4.913   1.422
  454TCM     h1 2436   1.902   4.792   1.476
  454TCM    cl3 2437   2.008   4.662   1.306
  455TCM     c1 2438   3.811   4.256   3.524
  455TCM    cl1 2439   3.817   4.310   3.353
  455TCM    cl2 2440   3.872   4.088   3.536
  455TCM     h1 2441   3.873   4.322   3.585
  455TCM    cl3 2442   3.642   4.258   3.582
  456TCM     c1 2443   0.537   0.741   3.255
  456TCM    cl1 2444   0.649   0.809   3.378
  456TCM    cl2 2445   0.580   0.806   3.093
  456TCM     h1 2446   0.545   0.632   3.254
  456TCM    cl3 2447   0.369   0.789   3.295
  457TCM     c1 2448   1.687   4.156   0.353
  457TCM    cl1 2449   1.735   4.063   0.207
  457TCM    cl2 2450   1.741   4.067   0.499
  457TCM     h1 2451   1.733   4.255   0.351
  457TCM    cl3 2452   1.509   4.173   0.357
  458TCM     c1 2453   3.568   0.676   3.162
  458TCM    cl1 2454   3.390   0.692   3.177
  458TCM    cl2 2455   3.626   0.782   3.030
  458TCM     h1 2456   3.615   0.706   3.256
  458TCM    cl3 2457   3.612   0.506   3.125
  459TCM     c1 2458   4.827   4.460   3.711
  459TCM    cl1 2459   4.670   4.532   3.756
  459TCM    cl2 2460   4.914   4.571   3.601
  459TCM     h1 2461   4.888   4.443   3.800
  459TCM    cl3 2462   4.798   4.303   3.629
  460TCM     c1 2463   4.265   1.646   4.909
  460TCM    cl1 2464   4.347   1.663   5.067
  460TCM    cl2 2465   4.206   1.477   4.888
  460TCM     h1 2466   4.180   1.715   4.904
  460TCM    cl3 2467   4.381   1.684   4.777
  461TCM     c1 2468   0.366   0.613   2.386
  461TCM    cl1 2469   0.320   0.764   2.472
  461TCM    cl2 2470   0.262   0.478   2.441
  461TCM     h1 2471   0.354   0.627   2.278
  461TCM    cl3 2472   0.538   0.576   2.423
  462TCM     c1 2473   0.502   1.996   1.751
  462TCM    cl1 2474   0.446   2.150   1.678
  462TCM    cl2 2475   0.657   1.947   1.674
  462TCM     h1 2476   0.517   2.010   1.859
  462TCM    cl3 2477   0.378   1.870   1.723
  463TCM     c1 2478   3.330   2.081   1.623
  463TCM    cl1 2479   3.337   2.005   1.460
  463TCM    cl2 2480   3.426   2.233   1.622
  463TCM     h1 2481   3.226   2.104   1.648
  463TCM    cl3 2482   3.399   1.967   1.744
  464TCM     c1 2483   2.436   0.812   3.979
  464TCM    cl1 2484   2.536   0.858   3.837
  464TCM    cl2 2485   2.534   0.828   4.129
  464TCM     h1 2486   2.349   0.877   3.985
  464TCM    cl3 2487   2.382   0.642   3.960
  465TCM     c1 2488   4.522   2.532   4.467
  465TCM    cl1 2489   4.361   2.605   4.495
  465TCM    cl2 2490   4.589   2.592   4.312
  465TCM     h1 2491   4.589   2.559   4.550
  465TCM    cl3 2492   4.507   2.353   4.460
  466TCM     c1 2493   3.533   0.666   2.622
  466TCM    cl1 2494   3.433   0.629   2.767
  466TCM    cl2 2495   3.558   0.843   2.609
  466TCM     h1 2496   3.630   0.616   2.632
  466TCM    cl3 2497   3.450   0.605   2.475
  467TCM     c1 2498   2.932   1.933   2.897
  467TCM    cl1 2499   3.027   1.839   3.017
  467TCM    cl2 2500   2.949   1.857   2.735
  467TCM     h1 2501   2.826   1.933   2.926
  467TCM    cl3 2502   2.993   2.101   2.890
  468TCM     c1 2503   3.360   1.448   0.980
  468TCM    cl1 2504   3.451   1.294   0.967
  468TCM    cl2 2505   3.203   1.416   1.061
  468TCM     h1 2506   3.418   1.519   1.040
  468TCM    cl3 2507   3.331   1.516   0.817
  469TCM     c1 2508   4.923   3.249   1.130
  469TCM    cl1 2509   4.770   3.195   1.053
  469TCM    cl2 2510   4.982   3.122   1.243
  469TCM     h1 2511   4.998   3.267   1.053
  469TCM    cl3 2512   4.892   3.401   1.220
  470TCM     c1 2513   2.274   3.505   4.351
  470TCM    cl1 2514   2.169   3.477   4.209
  470TCM    cl2 2515   2.231   3.663   4.426
  470TCM     h1 2516   2.259   3.424   4.423
  470TCM    cl3 2517   2.445   3.508   4.299
  471TCM     c1 2518   1.689   1.473   1.499
  471TCM    cl1 2519   1.544   1.494   1.602
  471TCM    cl2 2520   1.703   1.300   1.453
  471TCM     h1 2521   1.681   1.535   1.410
  471TCM    cl3 2522   1.836   1.520   1.592
  472TCM     c1 2523   4.321   2.334   4.956
  472TCM    cl1 2524   4.288   2.431   4.809
  472TCM    cl2 2525   4.179   2.232   4.996
  472TCM     h1 2526   4.409   2.271   4.939
  472TCM    cl3 2527   4.354   2.447   5.092
  473TCM     c1 2528   2.982   4.543   3.468
  473TCM    cl1 2529   3.149   4.603   3.488
  473TCM    cl2 2530   2.971   4.446   3.317
  473TCM     h1 2531   2.954   4.480   3.553
  473TCM    cl3 2532   2.871   4.683   3.457
  474TCM     c1 2533   4.849   3.795   4.735
  474TCM    cl1 2534   4.987   3.843   4.839
  474TCM    cl2 2535   4.711   3.906   4.764
  474TCM     h1 2536   4.878   3.801   4.630
  474TCM    cl3 2537   4.799   3.627   4.775
  475TCM     c1 2538   0.928   2.430   3.192
  475TCM    cl1 2539   0.965   2.551   3.064
  475TCM    cl2 2540   0.791   2.487   3.292
  475TCM     h1 2541   0.903   2.334   3.145
  475TCM    cl3 2542   1.074   2.409   3.295
  476TCM     c1 2543   2.382   2.708   0.912
  476TCM    cl1 2544   2.550   2.757   0.869
  476TCM    cl2 2545   2.388   2.563   1.017
  476TCM     h1 2546   2.332   2.789   0.965
  476TCM    cl3 2547   2.293   2.669   0.761
  477TCM     c1 2548   4.660   3.242   3.369
  477TCM    cl1 2549   4.824   3.234   3.440
  477TCM    cl2 2550   4.642   3.397   3.281
  477TCM     h1 2551   4.645   3.158   3.300
  477TCM    cl3 2552   4.538   3.234   3.500
  478TCM     c1 2553   2.201   4.847   2.912
  478TCM    cl1 2554   2.177   4.979   2.793
  478TCM    cl2 2555   2.179   4.689   2.831
  478TCM     h1 2556   2.302   4.854   2.954
  478TCM    cl3 2557   2.080   4.864   3.044
  479TCM     c1 2558   4.582   2.839   3.835
  479TCM    cl1 2559   4.408   2.876   3.857
  479TCM    cl2 2560   4.632   2.720   3.959
  479TCM     h1 2561   4.599   2.798   3.735
  479TCM    cl3 2562   4.679   2.990   3.854
  480TCM     c1 2563   2.491   2.151   3.122
  480TCM    cl1 2564   2.511   2.037   3.258
  480TCM    cl2 2565   2.335   2.119   3.039
  480TCM     h1 2566   2.492   2.254   3.160
  480TCM    cl3 2567   2.626   2.129   3.005
  481TCM     c1 2568   1.590   0.768   3.849
  481TCM    cl1 2569   1.456   0.835   3.751
  481TCM    cl2 2570   1.526   0.709   4.006
  481TCM     h1 2571   1.637   0.685   3.795
  481TCM    cl3 2572   1.712   0.896   3.878
  482TCM     c1 2573   0.703   0.059   0.269
  482TCM    cl1 2574   0.737   0.222   0.337
  482TCM    cl2 2575   0.632   0.077   0.105
  482TCM     h1 2576   0.796   0.002   0.262
  482TCM    cl3 2577   0.588  -0.028   0.376
  483TCM     c1 2578   3.760   1.257   3.219
  483TCM    cl1 2579   3.676   1.401   3.154
  483TCM    cl2 2580   3.722   1.239   3.394
  483TCM     h1 2581   3.727   1.167   3.166
  483TCM    cl3 2582   3.937   1.277   3.198
  484TCM     c1 2583   3.091   4.881   3.120
  484TCM    cl1 2584   3.063   5.006   2.995
  484TCM    cl2 2585   2.971   4.749   3.098
  484TCM     h1 2586   3.192   4.841   3.111
  484TCM    cl3 2587   3.069   4.953   3.283
  485TCM     c1 2588   2.004   2.317   2.771
  485TCM    cl1 2589   1.896   2.456   2.731
  485TCM    cl2 2590   1.943   2.235   2.918
  485TCM     h1 2591   2.005   2.247   2.687
  485TCM    cl3 2592   2.170   2.378   2.802
  486TCM     c1 2593   1.231   0.704   4.795
  486TCM    cl1 2594   1.137   0.563   4.854
  486TCM    cl2 2595   1.127   0.802   4.687
  486TCM     h1 2596   1.264   0.765   4.880
  486TCM    cl3 2597   1.374   0.646   4.704
  487TCM     c1 2598   2.191   4.299   3.990
  487TCM    cl1 2599   2.315   4.375   4.094
  487TCM    cl2 2600   2.033   4.301   4.074
  487TCM     h1 2601   2.183   4.355   3.896
  487TCM    cl3 2602   2.237   4.129   3.954
  488TCM     c1 2603   0.569   3.685   4.525
  488TCM    cl1 2604   0.442   3.615   4.419
  488TCM    cl2 2605   0.725   3.692   4.435
  488TCM     h1 2606   0.540   3.786   4.555
  488TCM    cl3 2607   0.589   3.582   4.670
  489TCM     c1 2608   4.911   2.807   1.431
  489TCM    cl1 2609   4.769   2.698   1.442
  489TCM    cl2 2610   5.058   2.712   1.392
  489TCM     h1 2611   4.894   2.882   1.353
  489TCM    cl3 2612   4.934   2.890   1.589
  490TCM     c1 2613   3.086   1.067   3.314
  490TCM    cl1 2614   3.074   0.987   3.154
  490TCM    cl2 2615   3.065   0.943   3.442
  490TCM     h1 2616   3.184   1.115   3.324
  490TCM    cl3 2617   2.956   1.190   3.329
  491TCM     c1 2618   1.589   4.800   0.967
  491TCM    cl1 2619   1.474   4.731   0.848
  491TCM    cl2 2620   1.723   4.684   0.997
  491TCM     h1 2621   1.630   4.894   0.928
  491TCM    cl3 2622   1.502   4.832   1.121
  492TCM     c1 2623   2.514   2.502   3.478
  492TCM    cl1 2624   2.422   2.353   3.438
  492TCM    cl2 2625   2.651   2.459   3.586
  492TCM     h1 2626   2.553   2.547   3.386
  492TCM    cl3 2627   2.407   2.618   3.561
  493TCM     c1 2628   4.783   2.969   0.575
  493TCM    cl1 2629   4.839   3.131   0.523
  493TCM    cl2 2630   4.708   2.983   0.738
  493TCM     h1 2631   4.710   2.931   0.504
  493TCM    cl3 2632   4.923   2.857   0.584
  494TCM     c1 2633   1.499   0.215   4.813
  494TCM    cl1 2634   1.504   0.298   4.654
  494TCM    cl2 2635   1.455   0.334   4.940
  494TCM     h1 2636   1.424   0.135   4.810
  494TCM    cl3 2637   1.660   0.145   4.849
  495TCM     c1 2638   0.732   1.893   2.746
  495TCM    cl1 2639   0.658   1.757   2.656
  495TCM    cl2 2640   0.625   1.939   2.882
  495TCM     h1 2641   0.829   1.863   2.784
  495TCM    cl3 2642   0.752   2.033   2.634
  496TCM     c1 2643   2.548   3.526   1.990
  496TCM    cl1 2644   2.560   3.410   2.127
  496TCM    cl2 2645   2.378   3.578   1.970
  496TCM     h1 2646   2.611   3.613   2.010
  496TCM    cl3 2647   2.602   3.444   1.840
  497TCM     c1 2648   1.252   0.526   2.644
  497TCM    cl1 2649   1.207   0.700   2.646
  497TCM    cl2 2650   1.221   0.454   2.806
  497TCM     h1 2651   1.192   0.473   2.569
  497TCM    cl3 2652   1.426   0.510   2.605
  498TCM     c1 2653   4.693   0.049   2.845
  498TCM    cl1 2654   4.788  -0.003   2.702
  498TCM    cl2 2655   4.768  -0.016   2.994
  498TCM     h1 2656   4.691   0.158   2.850
  498TCM    cl3 2657   4.526  -0.014   2.832
  499TCM     c1 2658   2.242   3.864   2.997
  499TCM    cl1 2659   2.320   3.924   2.846
  499TCM    cl2 2660   2.184   3.697   2.970
  499TCM     h1 2661   2.314   3.866   3.079
  499TCM    cl3 2662   2.102   3.969   3.037
  500TCM     c1 2663   4.932   4.671   4.866
  500TCM    cl1 2664   4.921   4.563   5.008
  500TCM    cl2 2665   4.840   4.601   4.729
  500TCM     h1 2666   4.891   4.769   4.891
  500TCM    cl3 2667   5.104   4.690   4.818
  501TCM     c1 2668   1.286   3.925   4.918
  501TCM    cl1 2669   1.116   3.887   4.962
  501TCM    cl2 2670   1.376   3.975   5.065
  501TCM     h1 2671   1.333   3.836   4.875
  501TCM    cl3 2672   1.288   4.057   4.796
  502TCM     c1 2673   0.123   1.684   3.282
  502TCM    cl1 2674   0.074   1.775   3.136
  502TCM    cl2 2675   0.064   1.515   3.271
  502TCM     h1 2676   0.232   1.685   3.291
  502TCM    cl3 2677   0.052   1.763   3.427
  503TCM     c1 2678   4.248   0.180   4.344
  503TCM    cl1 2679   4.239   0.356   4.376
  503TCM    cl2 2680   4.171   0.090   4.478
  503TCM     h1 2681   4.197   0.156   4.250
  503TCM    cl3 2682   4.421   0.132   4.333
  504TCM     c1 2683   4.094   2.260   2.181
  504TCM    cl1 2684   4.113   2.090   2.236
  504TCM    cl2 2685   4.238   2.355   2.228
  504TCM     h1 2686   4.083   2.261   2.073
  504TCM    cl3 2687   3.948   2.331   2.258
  505TCM     c1 2688   3.351   4.555   1.253
  505TCM    cl1 2689   3.322   4.500   1.421
  505TCM    cl2 2690   3.215   4.661   1.201
  505TCM     h1 2691   3.445   4.610   1.247
  505TCM    cl3 2692   3.358   4.412   1.144
  506TCM     c1 2693   0.053   4.943   0.719
  506TCM    cl1 2694  -0.063   4.955   0.584
  506TCM    cl2 2695   0.163   5.085   0.718
  506TCM     h1 2696  -0.001   4.940   0.814
  506TCM    cl3 2697   0.150   4.793   0.702
  507TCM     c1 2698   3.527   4.866   0.080
  507TCM    cl1 2699   3.492   4.771  -0.068
  507TCM    cl2 2700   3.391   4.846   0.196
  507TCM     h1 2701   3.620   4.830   0.126
  507TCM    cl3 2702   3.544   5.040   0.038
  508TCM     c1 2703   0.610   0.103   2.226
  508TCM    cl1 2704   0.670  -0.030   2.330
  508TCM    cl2 2705   0.663   0.077   2.057
  508TCM     h1 2706   0.501   0.105   2.229
  508TCM    cl3 2707   0.674   0.259   2.287
  509TCM     c1 2708   2.588   0.049   4.262
  509TCM    cl1 2709   2.572  -0.078   4.387
  509TCM    cl2 2710   2.699  -0.011   4.134
  509TCM     h1 2711   2.491   0.072   4.219
  509TCM    cl3 2712   2.659   0.195   4.338
  510TCM     c1 2713   4.078   4.055   1.474
  510TCM    cl1 2714   4.217   4.165   1.445
  510TCM    cl2 2715   3.937   4.149   1.532
  510TCM     h1 2716   4.052   4.004   1.382
  510TCM    cl3 2717   4.125   3.934   1.599
  511TCM     c1 2718   2.945   3.619   4.464
  511TCM    cl1 2719   2.809   3.525   4.395
  511TCM    cl2 2720   3.096   3.522   4.455
  511TCM     h1 2721   2.958   3.712   4.408
  511TCM    cl3 2722   2.911   3.657   4.636
  512TCM     c1 2723   2.724   0.430   4.034
  512TCM    cl1 2724   2.716   0.527   4.185
  512TCM    cl2 2725   2.738   0.540   3.892
  512TCM     h1 2726   2.812   0.365   4.038
  512TCM    cl3 2727   2.576   0.330   4.018
  513TCM     c1 2728   2.978   3.215   1.613
  513TCM    cl1 2729   2.947   3.041   1.650
  513TCM    cl2 2730   3.077   3.287   1.744
  513TCM     h1 2731   3.031   3.223   1.518
  513TCM    cl3 2732   2.821   3.302   1.601
  514TCM     c1 2733   1.385   3.187   2.806
  514TCM    cl1 2734   1.251   3.071   2.830
  514TCM    cl2 2735   1.530   3.130   2.895
  514TCM     h1 2736   1.408   3.196   2.700
  514TCM    cl3 2737   1.336   3.348   2.871
  515TCM     c1 2738   2.705   4.175   1.377
  515TCM    cl1 2739   2.806   4.082   1.261
  515TCM    cl2 2740   2.567   4.073   1.430
  515TCM     h1 2741   2.765   4.203   1.464
  515TCM    cl3 2742   2.643   4.322   1.296
  516TCM     c1 2743   0.014   1.515   2.659
  516TCM    cl1 2744   0.178   1.497   2.588
  516TCM    cl2 2745   0.024   1.617   2.806
  516TCM     h1 2746  -0.052   1.563   2.586
  516TCM    cl3 2747  -0.051   1.354   2.702
  517TCM     c1 2748   4.111   3.307   2.913
  517TCM    cl1 2749   4.155   3.352   3.081
  517TCM    cl2 2750   4.244   3.211   2.839
  517TCM     h1 2751   4.019   3.247   2.914
  517TCM    cl3 2752   4.085   3.456   2.816
  518TCM     c1 2753   2.408   4.594   2.544
  518TCM    cl1 2754   2.370   4.625   2.371
  518TCM    cl2 2755   2.461   4.747   2.622
  518TCM     h1 2756   2.319   4.557   2.595
  518TCM    cl3 2757   2.540   4.473   2.555
  519TCM     c1 2758   2.680   3.075   2.002
  519TCM    cl1 2759   2.844   3.149   2.002
  519TCM    cl2 2760   2.687   2.914   2.082
  519TCM     h1 2761   2.611   3.140   2.056
  519TCM    cl3 2762   2.623   3.054   1.833
  520TCM     c1 2763   1.740   3.302   4.013
  520TCM    cl1 2764   1.798   3.389   4.159
  520TCM    cl2 2765   1.710   3.421   3.882
  520TCM     h1 2766   1.815   3.230   3.980
  520TCM    cl3 2767   1.587   3.217   4.052
  521TCM     c1 2768   4.703   1.821   0.119
  521TCM    cl1 2769   4.850   1.905   0.179
  521TCM    cl2 2770   4.729   1.644   0.129
  521TCM     h1 2771   4.617   1.849   0.181
  521TCM    cl3 2772   4.672   1.868  -0.051
  522TCM     c1 2773   1.704   2.951   1.868
  522TCM    cl1 2774   1.807   3.063   1.963
  522TCM    cl2 2775   1.725   2.987   1.693
  522TCM     h1 2776   1.733   2.848   1.888
  522TCM    cl3 2777   1.532   2.974   1.914
  523TCM     c1 2778   1.836   0.374   4.504
  523TCM    cl1 2779   1.851   0.439   4.670
  523TCM    cl2 2780   1.999   0.363   4.430
  523TCM     h1 2781   1.789   0.275   4.507
  523TCM    cl3 2782   1.735   0.486   4.405
  524TCM     c1 2783   0.231   0.043   3.987
  524TCM    cl1 2784   0.055   0.069   4.002
  524TCM    cl2 2785   0.321  -0.088   3.905
  524TCM     h1 2786   0.206   0.066   3.883
  524TCM    cl3 2787   0.184  -0.097   4.088
  525TCM     c1 2788   1.595   4.411   1.313
  525TCM    cl1 2789   1.687   4.341   1.176
  525TCM    cl2 2790   1.658   4.575   1.351
  525TCM     h1 2791   1.489   4.419   1.286
  525TCM    cl3 2792   1.612   4.307   1.458
  526TCM     c1 2793   4.843   0.855   3.965
  526TCM    cl1 2794   4.898   0.935   3.814
  526TCM    cl2 2795   4.680   0.784   3.939
  526TCM     h1 2796   4.914   0.776   3.992
  526TCM    cl3 2797   4.836   0.976   4.097
  527TCM     c1 2798   2.302   2.988   4.833
  527TCM    cl1 2799   2.404   3.125   4.889
  527TCM    cl2 2800   2.349   2.943   4.666
  527TCM     h1 2801   2.316   2.902   4.899
  527TCM    cl3 2802   2.130   3.039   4.836
  528TCM     c1 2803   2.541   4.318   0.923
  528TCM    cl1 2804   2.529   4.223   0.770
  528TCM    cl2 2805   2.396   4.289   1.023
  528TCM     h1 2806   2.630   4.287   0.978
  528TCM    cl3 2807   2.551   4.492   0.883
  529TCM     c1 2808   1.118   0.764   3.515
  529TCM    cl1 2809   1.212   0.832   3.378
  529TCM    cl2 2810   1.112   0.885   3.647
  529TCM     h1 2811   1.016   0.742   3.482
  529TCM    cl3 2812   1.197   0.614   3.574
  530TCM     c1 2813   1.517   0.843   2.440
  530TCM    cl1 2814   1.680   0.770   2.459
  530TCM    cl2 2815   1.486   0.874   2.266
  530TCM     h1 2816   1.442   0.775   2.480
  530TCM    cl3 2817   1.511   0.998   2.529
  531TCM     c1 2818   1.737   2.525   3.213
  531TCM    cl1 2819   1.837   2.580   3.075
  531TCM    cl2 2820   1.792   2.608   3.363
  531TCM     h1 2821   1.632   2.549   3.194
  531TCM    cl3 2822   1.755   2.347   3.233
  532TCM     c1 2823   3.621   4.177   2.876
  532TCM    cl1 2824   3.796   4.208   2.903
  532TCM    cl2 2825   3.592   4.000   2.868
  532TCM     h1 2826   3.563   4.220   2.958
  532TCM    cl3 2827   3.571   4.251   2.720
  533TCM     c1 2828   2.272   4.944   0.180
  533TCM    cl1 2829   2.392   4.899   0.305
  533TCM    cl2 2830   2.106   4.916   0.243
  533TCM     h1 2831   2.284   5.049   0.154
  533TCM    cl3 2832   2.297   4.842   0.034
  534TCM     c1 2833   1.606   3.708   4.112
  534TCM    cl1 2834   1.586   3.832   4.241
  534TCM    cl2 2835   1.600   3.788   3.952
  534TCM     h1 2836   1.703   3.659   4.125
  534TCM    cl3 2837   1.474   3.587   4.124
  535TCM     c1 2838   1.956   2.265   0.924
  535TCM    cl1 2839   1.924   2.189   0.764
  535TCM    cl2 2840   2.066   2.405   0.903
  535TCM     h1 2841   1.862   2.299   0.968
  535TCM    cl3 2842   2.032   2.144   1.032
  536TCM     c1 2843   1.784   1.049   1.831
  536TCM    cl1 2844   1.843   1.219   1.833
  536TCM    cl2 2845   1.655   1.033   1.708
  536TCM     h1 2846   1.867   0.982   1.806
  536TCM    cl3 2847   1.718   1.007   1.992
  537TCM     c1 2848   2.006   2.687   4.916
  537TCM    cl1 2849   2.106   2.660   4.770
  537TCM    cl2 2850   2.110   2.749   5.048
  537TCM     h1 2851   1.928   2.760   4.893
  537TCM    cl3 2852   1.930   2.532   4.965
  538TCM     c1 2853   3.364   2.344   3.981
  538TCM    cl1 2854   3.298   2.434   3.840
  538TCM    cl2 2855   3.268   2.196   4.008
  538TCM     h1 2856   3.468   2.317   3.961
  538TCM    cl3 2857   3.356   2.449   4.127
  539TCM     c1 2858   0.603   0.183   1.662
  539TCM    cl1 2859   0.690   0.319   1.585
  539TCM    cl2 2860   0.712   0.041   1.674
  539TCM     h1 2861   0.571   0.211   1.763
  539TCM    cl3 2862   0.460   0.140   1.563
  540TCM     c1 2863   4.874   2.824   3.344
  540TCM    cl1 2864   4.815   2.874   3.506
  540TCM    cl2 2865   4.807   2.934   3.219
  540TCM     h1 2866   4.983   2.827   3.341
  540TCM    cl3 2867   4.818   2.657   3.311
  541TCM     c1 2868   4.030   4.830   0.406
  541TCM    cl1 2869   3.884   4.738   0.456
  541TCM    cl2 2870   3.989   4.933   0.264
  541TCM     h1 2871   4.063   4.894   0.488
  541TCM    cl3 2872   4.162   4.717   0.362
  542TCM     c1 2873   4.895   4.262   0.619
  542TCM    cl1 2874   5.044   4.361   0.633
  542TCM    cl2 2875   4.853   4.194   0.779
  542TCM     h1 2876   4.813   4.324   0.583
  542TCM    cl3 2877   4.923   4.128   0.503
  543TCM     c1 2878   1.966   2.047   3.328
  543TCM    cl1 2879   2.142   2.017   3.342
  543TCM    cl2 2880   1.882   1.974   3.469
  543TCM     h1 2881   1.946   2.155   3.325
  543TCM    cl3 2882   1.904   1.972   3.177
  544TCM     c1 2883   0.137   3.906   0.686
  544TCM    cl1 2884   0.178   3.753   0.771
  544TCM    cl2 2885   0.219   3.909   0.526
  544TCM     h1 2886   0.029   3.912   0.672
  544TCM    cl3 2887   0.194   4.045   0.784
  545TCM     c1 2888   1.514   3.552   0.005
  545TCM    cl1 2889   1.607   3.700  -0.037
  545TCM    cl2 2890   1.512   3.441  -0.136
  545TCM     h1 2891   1.562   3.502   0.090
  545TCM    cl3 2892   1.346   3.597   0.048
  546TCM     c1 2893   2.922   2.154   2.411
  546TCM    cl1 2894   3.054   2.150   2.533
  546TCM    cl2 2895   2.798   2.032   2.452
  546TCM     h1 2896   2.877   2.253   2.409
  546TCM    cl3 2897   2.990   2.116   2.250
  547TCM     c1 2898   1.699   2.526   2.177
  547TCM    cl1 2899   1.708   2.697   2.121
  547TCM    cl2 2900   1.553   2.448   2.108
  547TCM     h1 2901   1.788   2.472   2.144
  547TCM    cl3 2902   1.689   2.522   2.356
  548TCM     c1 2903   2.889   4.936   1.680
  548TCM    cl1 2904   2.998   5.069   1.732
  548TCM    cl2 2905   2.984   4.784   1.669
  548TCM     h1 2906   2.808   4.924   1.753
  548TCM    cl3 2907   2.820   4.976   1.520
  549TCM     c1 2908   0.685   2.405   4.196
  549TCM    cl1 2909   0.719   2.235   4.242
  549TCM    cl2 2910   0.519   2.416   4.127
  549TCM     h1 2911   0.691   2.469   4.285
  549TCM    cl3 2912   0.805   2.461   4.074
  550TCM     c1 2913   4.243   3.628   4.453
  550TCM    cl1 2914   4.272   3.492   4.339
  550TCM    cl2 2915   4.088   3.600   4.540
  550TCM     h1 2916   4.325   3.634   4.525
  550TCM    cl3 2917   4.229   3.781   4.362
  551TCM     c1 2918   4.933   1.909   3.947
  551TCM    cl1 2919   4.876   1.790   3.826
  551TCM    cl2 2920   4.985   2.059   3.863
  551TCM     h1 2921   4.851   1.933   4.016
  551TCM    cl3 2922   5.072   1.842   4.039
  552TCM     c1 2923   3.906   2.114   2.568
  552TCM    cl1 2924   3.795   2.252   2.596
  552TCM    cl2 2925   3.876   1.987   2.692
  552TCM     h1 2926   3.890   2.072   2.468
  552TCM    cl3 2927   4.076   2.171   2.583
  553TCM     c1 2928   1.081   2.608   4.877
  553TCM    cl1 2929   0.917   2.598   4.805
  553TCM    cl2 2930   1.078   2.533   5.041
  553TCM     h1 2931   1.153   2.555   4.814
  553TCM    cl3 2932   1.130   2.780   4.891
  554TCM     c1 2933   3.481   2.014   2.782
  554TCM    cl1 2934   3.422   2.095   2.633
  554TCM    cl2 2935   3.341   1.964   2.882
  554TCM     h1 2936   3.540   1.926   2.755
  554TCM    cl3 2937   3.584   2.128   2.876
  555TCM     c1 2938   2.491   4.803   0.708
  555TCM    cl1 2939   2.593   4.721   0.585
  555TCM    cl2 2940   2.322   4.746   0.692
  555TCM     h1 2941   2.528   4.780   0.808
  555TCM    cl3 2942   2.496   4.980   0.681
  556TCM     c1 2943   1.501   3.798   0.427
  556TCM    cl1 2944   1.330   3.754   0.395
  556TCM    cl2 2945   1.608   3.689   0.332
  556TCM     h1 2946   1.519   3.902   0.397
  556TCM    cl3 2947   1.537   3.780   0.602
  557TCM     c1 2948   4.785   3.057   4.568
  557TCM    cl1 2949   4.941   3.070   4.480
  557TCM    cl2 2950   4.712   2.896   4.535
  557TCM     h1 2951   4.803   3.068   4.675
  557TCM    cl3 2952   4.673   3.186   4.513
  558TCM     c1 2953   2.840   4.815   2.731
  558TCM    cl1 2954   2.725   4.878   2.855
  558TCM    cl2 2955   2.790   4.869   2.568
  558TCM     h1 2956   2.940   4.853   2.753
  558TCM    cl3 2957   2.841   4.636   2.735
  559TCM     c1 2958   4.475   3.686   3.413
  559TCM    cl1 2959   4.347   3.596   3.324
  559TCM    cl2 2960   4.508   3.603   3.568
  559TCM     h1 2961   4.566   3.689   3.352
  559TCM    cl3 2962   4.418   3.853   3.445
  560TCM     c1 2963   1.469   0.933   2.923
  560TCM    cl1 2964   1.327   1.016   2.850
  560TCM    cl2 2965   1.523   0.801   2.815
  560TCM     h1 2966   1.550   1.005   2.937
  560TCM    cl3 2967   1.421   0.864   3.081
  561TCM     c1 2968   3.140   2.437   4.432
  561TCM    cl1 2969   3.083   2.306   4.325
  561TCM    cl2 2970   3.201   2.365   4.585
  561TCM     h1 2971   3.220   2.493   4.383
  561TCM    cl3 2972   3.004   2.548   4.469
  562TCM     c1 2973   2.102   4.124   0.424
  562TCM    cl1 2974   2.240   4.102   0.536
  562TCM    cl2 2975   2.160   4.115   0.255
  562TCM     h1 2976   2.028   4.046   0.443
  562TCM    cl3 2977   2.025   4.284   0.450
  563TCM     c1 2978   3.360   1.609   4.948
  563TCM    cl1 2979   3.517   1.536   4.995
  563TCM    cl2 2980   3.229   1.490   4.975
  563TCM     h1 2981   3.341   1.698   5.008
  563TCM    cl3 2982   3.366   1.654   4.774
  564TCM     c1 2983   2.291   1.650   3.534
  564TCM    cl1 2984   2.206   1.782   3.621
  564TCM    cl2 2985   2.410   1.573   3.644
  564TCM     h1 2986   2.219   1.576   3.500
  564TCM    cl3 2987   2.377   1.718   3.391
  565TCM     c1 2988   1.163   1.141   2.542
  565TCM    cl1 2989   0.995   1.203   2.553
  565TCM    cl2 2990   1.276   1.279   2.525
  565TCM     h1 2991   1.187   1.085   2.632
  565TCM    cl3 2992   1.176   1.033   2.399
  566TCM     c1 2993   2.575   4.254   4.868
  566TCM    cl1 2994   2.455   4.359   4.788
  566TCM    cl2 2995   2.684   4.181   4.745
  566TCM     h1 2996   2.634   4.313   4.939
  566TCM    cl3 2997   2.488   4.123   4.956
  567TCM     c1 2998   2.123   4.301   1.289
  567TCM    cl1 2999   1.975   4.315   1.389
  567TCM    cl2 3000   2.105   4.163   1.176
  567TCM     h1 3001   2.139   4.393   1.232
  567TCM    cl3 3002   2.264   4.273   1.397
  568TCM     c1 3003   0.560   2.499   4.655
  568TCM    cl1 3004   0.478   2.635   4.573
  568TCM    cl2 3005   0.538   2.349   4.558
  568TCM     h1 3006   0.667   2.521   4.665
  568TCM    cl3 3007   0.489   2.475   4.818
  569TCM     c1 3008   1.340   1.201   1.586
  569TCM    cl1 3009   1.224   1.298   1.682
  569TCM    cl2 3010   1.323   1.242   1.412
  569TCM     h1 3011   1.443   1.222   1.619
  569TCM    cl3 3012   1.305   1.026   1.609
  570TCM     c1 3013   4.981   3.547   3.345
  570TCM    cl1 3014   4.859   3.643   3.436
  570TCM    cl2 3015   5.092   3.468   3.460
  570TCM     h1 3016   4.930   3.472   3.284
  570TCM    cl3 3017   5.075   3.657   3.239
  571TCM     c1 3018   2.141   4.992   1.036
  571TCM    cl1 3019   2.153   4.814   1.012
  571TCM    cl2 3020   1.990   5.051   0.960
  571TCM     h1 3021   2.140   5.015   1.143
  571TCM    cl3 3022   2.282   5.072   0.958
  572TCM     c1 3023   4.949   0.121   3.633
  572TCM    cl1 3024   4.822   0.189   3.740
  572TCM    cl2 3025   4.973  -0.052   3.671
  572TCM     h1 3026   4.918   0.132   3.528
  572TCM    cl3 3027   5.103   0.210   3.659
  573TCM     c1 3028   4.131   0.044   2.864
  573TCM    cl1 3029   4.037  -0.027   2.999
  573TCM    cl2 3030   4.234   0.176   2.928
  573TCM     h1 3031   4.194  -0.032   2.817
  573TCM    cl3 3032   4.019   0.112   2.741
  574TCM     c1 3033   3.004   3.786   1.172
  574TCM    cl1 3034   3.063   3.621   1.134
  574TCM    cl2 3035   3.008   3.885   1.022
  574TCM     h1 3036   2.902   3.781   1.209
  574TCM    cl3 3037   3.109   3.861   1.297
  575TCM     c1 3038   4.518   4.240   3.358
  575TCM    cl1 3039   4.580   4.409   3.358
  575TCM    cl2 3040   4.655   4.125   3.360
  575TCM     h1 3041   4.456   4.225   3.447
  575TCM    cl3 3042   4.419   4.212   3.211
  576TCM     c1 3043   0.449   3.842   0.006
  576TCM    cl1 3044   0.427   4.007  -0.062
  576TCM    cl2 3045   0.621   3.794  -0.006
  576TCM     h1 3046   0.417   3.842   0.111
  576TCM    cl3 3047   0.348   3.726  -0.086
  577TCM     c1 3048   0.179   2.221   4.901
  577TCM    cl1 3049   0.182   2.362   5.013
  577TCM    cl2 3050   0.173   2.281   4.732
  577TCM     h1 3051   0.269   2.161   4.916
  577TCM    cl3 3052   0.033   2.121   4.934
  578TCM     c1 3053   1.106   0.164   2.325
  578TCM    cl1 3054   1.022   0.280   2.217
  578TCM    cl2 3055   0.990   0.097   2.444
  578TCM     h1 3056   1.148   0.082   2.266
  578TCM    cl3 3057   1.239   0.249   2.412
  579TCM     c1 3058   0.819   1.084   3.677
  579TCM    cl1 3059   0.851   1.094   3.500
  579TCM    cl2 3060   0.735   0.929   3.713
  579TCM     h1 3061   0.914   1.088   3.731
  579TCM    cl3 3062   0.715   1.221   3.727
  580TCM     c1 3063   3.726   2.641   3.990
  580TCM    cl1 3064   3.708   2.464   4.012
  580TCM    cl2 3065   3.566   2.713   3.953
  580TCM     h1 3066   3.766   2.686   4.081
  580TCM    cl3 3067   3.838   2.671   3.853
  581TCM     c1 3068   1.853   3.260   4.945
  581TCM    cl1 3069   1.775   3.146   4.831
  581TCM    cl2 3070   1.752   3.274   5.093
  581TCM     h1 3071   1.953   3.224   4.972
  581TCM    cl3 3072   1.866   3.421   4.866
  582TCM     c1 3073   1.009   0.414   0.648
  582TCM    cl1 3074   1.091   0.573   0.633
  582TCM    cl2 3075   1.062   0.307   0.513
  582TCM     h1 3076   1.035   0.368   0.743
  582TCM    cl3 3077   0.831   0.438   0.639
  583TCM     c1 3078   0.081   3.571   0.218
  583TCM    cl1 3079   0.259   3.556   0.229
  583TCM    cl2 3080   0.031   3.551   0.047
  583TCM     h1 3081   0.034   3.493   0.279
  583TCM    cl3 3082   0.030   3.733   0.277
  584TCM     c1 3083   2.997   1.409   2.932
  584TCM    cl1 3084   3.123   1.289   2.974
  584TCM    cl2 3085   3.072   1.538   2.832
  584TCM     h1 3086   2.917   1.361   2.876
  584TCM    cl3 3087   2.932   1.481   3.083
  585TCM     c1 3088   2.630   4.699   0.060
  585TCM    cl1 3089   2.660   4.871   0.016
  585TCM    cl2 3090   2.689   4.669   0.226
  585TCM     h1 3091   2.523   4.679   0.054
  585TCM    cl3 3092   2.717   4.591  -0.054
  586TCM     c1 3093   3.239   3.677   3.035
  586TCM    cl1 3094   3.117   3.736   2.918
  586TCM    cl2 3095   3.296   3.515   2.983
  586TCM     h1 3096   3.324   3.747   3.038
  586TCM    cl3 3097   3.165   3.665   3.197
  587TCM     c1 3098   2.595   3.582   0.412
  587TCM    cl1 3099   2.579   3.436   0.517
  587TCM    cl2 3100   2.689   3.540   0.265
  587TCM     h1 3101   2.496   3.617   0.383
  587TCM    cl3 3102   2.681   3.710   0.504
  588TCM     c1 3103   4.146   4.215   0.807
  588TCM    cl1 3104   3.970   4.178   0.811
  588TCM    cl2 3105   4.167   4.393   0.799
  588TCM     h1 3106   4.194   4.176   0.897
  588TCM    cl3 3107   4.219   4.140   0.662
  589TCM     c1 3108   4.413   2.775   4.842
  589TCM    cl1 3109   4.390   2.898   4.714
  589TCM    cl2 3110   4.419   2.858   5.002
  589TCM     h1 3111   4.330   2.704   4.841
  589TCM    cl3 3112   4.567   2.688   4.814
  590TCM     c1 3113   2.592   0.999   1.945
  590TCM    cl1 3114   2.659   0.945   2.102
  590TCM    cl2 3115   2.447   0.901   1.905
  590TCM     h1 3116   2.564   1.104   1.951
  590TCM    cl3 3117   2.715   0.977   1.816
  591TCM     c1 3118   3.133   4.299   2.863
  591TCM    cl1 3119   3.288   4.279   2.949
  591TCM    cl2 3120   3.161   4.383   2.707
  591TCM     h1 3121   3.088   4.201   2.844
  591TCM    cl3 3122   3.021   4.398   2.963
  592TCM     c1 3123   3.692   3.365   3.812
  592TCM    cl1 3124   3.564   3.448   3.907
  592TCM    cl2 3125   3.793   3.488   3.729
  592TCM     h1 3126   3.754   3.305   3.879
  592TCM    cl3 3127   3.615   3.259   3.689
  593TCM     c1 3128   3.929   4.887   4.731
  593TCM    cl1 3129   3.849   4.911   4.890
  593TCM    cl2 3130   3.833   4.967   4.603
  593TCM     h1 3131   4.029   4.930   4.734
  593TCM    cl3 3132   3.940   4.711   4.695
  594TCM     c1 3133   3.114   2.926   3.118
  594TCM    cl1 3134   3.257   3.006   3.045
  594TCM    cl2 3135   3.156   2.860   3.279
  594TCM     h1 3136   3.033   2.999   3.128
  594TCM    cl3 3137   3.059   2.793   3.010
  595TCM     c1 3138   0.370   2.458   1.515
  595TCM    cl1 3139   0.289   2.361   1.387
  595TCM    cl2 3140   0.252   2.501   1.643
  595TCM     h1 3141   0.452   2.400   1.558
  595TCM    cl3 3142   0.436   2.608   1.441
  596TCM     c1 3143   2.042   3.236   1.171
  596TCM    cl1 3144   2.023   3.381   1.067
  596TCM    cl2 3145   2.217   3.209   1.203
  596TCM     h1 3146   1.990   3.252   1.265
  596TCM    cl3 3147   1.973   3.094   1.086
  597TCM     c1 3148   4.971   1.353   2.183
  597TCM    cl1 3149   4.880   1.302   2.328
  597TCM    cl2 3150   5.109   1.456   2.232
  597TCM     h1 3151   5.008   1.265   2.129
  597TCM    cl3 3152   4.863   1.448   2.075
  598TCM     c1 3153   3.942   3.084   3.951
  598TCM    cl1 3154   4.000   3.170   3.804
  598TCM    cl2 3155   4.050   2.944   3.981
  598TCM     h1 3156   3.943   3.151   4.037
  598TCM    cl3 3157   3.776   3.024   3.922
  599TCM     c1 3158   1.315   3.152   3.207
  599TCM    cl1 3159   1.304   3.043   3.349
  599TCM    cl2 3160   1.441   3.277   3.237
  599TCM     h1 3161   1.342   3.094   3.118
  599TCM    cl3 3162   1.157   3.232   3.181
  600TCM     c1 3163   2.320   2.942   2.157
  600TCM    cl1 3164   2.141   2.947   2.142
  600TCM    cl2 3165   2.368   2.800   2.255
  600TCM     h1 3166   2.365   2.934   2.058
  600TCM    cl3 3167   2.378   3.091   2.237
  601TCM     c1 3168   1.551   2.830   4.748
  601TCM    cl1 3169   1.442   2.695   4.703
  601TCM    cl2 3170   1.661   2.866   4.611
  601TCM     h1 3171   1.492   2.919   4.771
  601TCM    cl3 3172   1.649   2.783   4.891
  602TCM     c1 3173   4.689   0.509   2.641
  602TCM    cl1 3174   4.653   0.337   2.602
  602TCM    cl2 3175   4.552   0.612   2.589
  602TCM     h1 3176   4.704   0.519   2.749
  602TCM    cl3 3177   4.838   0.560   2.556
  603TCM     c1 3178   4.968   1.887   1.045
  603TCM    cl1 3179   5.128   1.844   0.977
  603TCM    cl2 3180   4.857   1.936   0.912
  603TCM     h1 3181   4.926   1.800   1.096
  603TCM    cl3 3182   4.987   2.022   1.161
  604TCM     c1 3183   2.848   3.819   4.966
  604TCM    cl1 3184   2.806   3.895   5.123
  604TCM    cl2 3185   2.947   3.673   4.996
  604TCM     h1 3186   2.757   3.792   4.912
  604TCM    cl3 3187   2.942   3.938   4.869
  605TCM     c1 3188   2.532   4.062   3.256
  605TCM    cl1 3189   2.555   3.929   3.374
  605TCM    cl2 3190   2.359   4.107   3.250
  605TCM     h1 3191   2.593   4.149   3.285
  605TCM    cl3 3192   2.582   4.006   3.093
  606TCM     c1 3193   1.884   4.403   1.732
  606TCM    cl1 3194   1.797   4.407   1.889
  606TCM    cl2 3195   2.055   4.355   1.759
  606TCM     h1 3196   1.835   4.330   1.666
  606TCM    cl3 3197   1.879   4.566   1.657
  607TCM     c1 3198   1.191   1.900   0.379
  607TCM    cl1 3199   1.306   2.018   0.449
  607TCM    cl2 3200   1.275   1.743   0.356
  607TCM     h1 3201   1.106   1.887   0.446
  607TCM    cl3 3202   1.132   1.960   0.220
  608TCM     c1 3203   4.984   2.688   3.884
  608TCM    cl1 3204   5.137   2.610   3.936
  608TCM    cl2 3205   4.910   2.592   3.753
  608TCM     h1 3206   4.915   2.694   3.969
  608TCM    cl3 3207   5.019   2.853   3.824
  609TCM     c1 3208   0.426   1.596   4.306
  609TCM    cl1 3209   0.371   1.660   4.464
  609TCM    cl2 3210   0.396   1.419   4.301
  609TCM     h1 3211   0.372   1.645   4.225
  609TCM    cl3 3212   0.602   1.627   4.289
  610TCM     c1 3213   4.773   2.747   0.150
  610TCM    cl1 3214   4.927   2.693   0.225
  610TCM    cl2 3215   4.720   2.902   0.223
  610TCM     h1 3216   4.787   2.760   0.042
  610TCM    cl3 3217   4.647   2.622   0.179
  611TCM     c1 3218   2.025   4.004   4.428
  611TCM    cl1 3219   1.895   4.126   4.407
  611TCM    cl2 3220   2.052   3.974   4.603
  611TCM     h1 3221   1.995   3.911   4.379
  611TCM    cl3 3222   2.177   4.063   4.351
  612TCM     c1 3223   3.010   3.297   2.887
  612TCM    cl1 3224   2.984   3.293   3.065
  612TCM    cl2 3225   2.900   3.418   2.814
  612TCM     h1 3226   3.114   3.323   2.866
  612TCM    cl3 3227   2.974   3.135   2.819
  613TCM     c1 3228   2.832   4.246   0.220
  613TCM    cl1 3229   2.882   4.267   0.049
  613TCM    cl2 3230   2.659   4.289   0.235
  613TCM     h1 3231   2.847   4.142   0.250
  613TCM    cl3 3232   2.931   4.354   0.323
  614TCM     c1 3233   3.227   4.274   0.085
  614TCM    cl1 3234   3.380   4.350   0.139
  614TCM    cl2 3235   3.203   4.117   0.167
  614TCM     h1 3236   3.143   4.341   0.107
  614TCM    cl3 3237   3.235   4.246  -0.092
  615TCM     c1 3238   2.158   3.626   0.582
  615TCM    cl1 3239   2.165   3.492   0.464
  615TCM    cl2 3240   2.294   3.740   0.551
  615TCM     h1 3241   2.063   3.679   0.570
  615TCM    cl3 3242   2.171   3.562   0.749
  616TCM     c1 3243   3.978   3.717   3.489
  616TCM    cl1 3244   3.802   3.728   3.455
  616TCM    cl2 3245   4.008   3.770   3.658
  616TCM     h1 3246   4.011   3.614   3.476
  616TCM    cl3 3247   4.067   3.825   3.378
  617TCM     c1 3248   0.022   4.581   4.044
  617TCM    cl1 3249  -0.046   4.415   4.055
  617TCM    cl2 3250  -0.105   4.694   3.989
  617TCM     h1 3251   0.060   4.612   4.142
  617TCM    cl3 3252   0.156   4.579   3.925
  618TCM     c1 3253   3.985   0.214   3.313
  618TCM    cl1 3254   4.010   0.330   3.179
  618TCM    cl2 3255   3.812   0.218   3.362
  618TCM     h1 3256   4.011   0.113   3.281
  618TCM    cl3 3257   4.088   0.260   3.453
  619TCM     c1 3258   2.189   2.522   3.151
  619TCM    cl1 3259   2.168   2.653   3.271
  619TCM    cl2 3260   2.126   2.368   3.220
  619TCM     h1 3261   2.133   2.546   3.060
  619TCM    cl3 3262   2.363   2.503   3.113
  620TCM     c1 3263   4.745   4.511   2.667
  620TCM    cl1 3264   4.794   4.465   2.500
  620TCM    cl2 3265   4.633   4.387   2.734
  620TCM     h1 3266   4.834   4.518   2.730
  620TCM    cl3 3267   4.663   4.670   2.660
  621TCM     c1 3268   2.168   0.664   1.812
  621TCM    cl1 3269   2.216   0.576   1.663
  621TCM    cl2 3270   2.187   0.556   1.954
  621TCM     h1 3271   2.231   0.752   1.824
  621TCM    cl3 3272   1.996   0.714   1.798
  622TCM     c1 3273   0.113   2.303   2.494
  622TCM    cl1 3274   0.193   2.192   2.379
  622TCM    cl2 3275   0.124   2.236   2.660
  622TCM     h1 3276   0.162   2.401   2.491
  622TCM    cl3 3277  -0.060   2.321   2.449
  623TCM     c1 3278   0.548   4.060   0.580
  623TCM    cl1 3279   0.707   4.060   0.495
  623TCM    cl2 3280   0.525   4.218   0.662
  623TCM     h1 3281   0.468   4.045   0.507
  623TCM    cl3 3282   0.546   3.928   0.701
  624TCM     c1 3283   2.272   3.146   0.286
  624TCM    cl1 3284   2.344   3.002   0.207
  624TCM    cl2 3285   2.109   3.175   0.218
  624TCM     h1 3286   2.265   3.129   0.394
  624TCM    cl3 3287   2.378   3.288   0.254
  625TCM     c1 3288   0.464   0.424   0.626
  625TCM    cl1 3289   0.287   0.445   0.652
  625TCM    cl2 3290   0.510   0.503   0.471
  625TCM     h1 3291   0.519   0.470   0.708
  625TCM    cl3 3292   0.502   0.249   0.617
  626TCM     c1 3293   4.825   2.028   2.710
  626TCM    cl1 3294   4.778   1.861   2.662
  626TCM    cl2 3295   4.892   2.025   2.876
  626TCM     h1 3296   4.901   2.066   2.641
  626TCM    cl3 3297   4.681   2.134   2.705
  627TCM     c1 3298   2.206   0.738   3.157
  627TCM    cl1 3299   2.382   0.722   3.184
  627TCM    cl2 3300   2.121   0.742   3.315
  627TCM     h1 3301   2.186   0.830   3.102
  627TCM    cl3 3302   2.147   0.598   3.061
  628TCM     c1 3303   4.977   0.821   2.062
  628TCM    cl1 3304   4.832   0.723   2.020
  628TCM    cl2 3305   5.026   0.786   2.231
  628TCM     h1 3306   5.059   0.795   1.994
  628TCM    cl3 3307   4.939   0.995   2.046
  629TCM     c1 3308   3.777   0.323   4.350
  629TCM    cl1 3309   3.863   0.169   4.316
  629TCM    cl2 3310   3.893   0.443   4.417
  629TCM     h1 3311   3.734   0.362   4.257
  629TCM    cl3 3312   3.646   0.293   4.468
  630TCM     c1 3313   4.665   0.799   4.740
  630TCM    cl1 3314   4.721   0.899   4.602
  630TCM    cl2 3315   4.552   0.674   4.679
  630TCM     h1 3316   4.750   0.751   4.788
  630TCM    cl3 3317   4.580   0.906   4.857
  631TCM     c1 3318   2.762   0.247   1.085
  631TCM    cl1 3319   2.742   0.232   1.262
  631TCM    cl2 3320   2.656   0.128   1.002
  631TCM     h1 3321   2.735   0.348   1.053
  631TCM    cl3 3322   2.932   0.214   1.041
  632TCM     c1 3323   1.837   1.199   3.534
  632TCM    cl1 3324   1.818   1.304   3.390
  632TCM    cl2 3325   1.918   1.046   3.486
  632TCM     h1 3326   1.898   1.250   3.609
  632TCM    cl3 3327   1.677   1.161   3.604
  633TCM     c1 3328   3.092   1.266   2.040
  633TCM    cl1 3329   3.148   1.269   2.210
  633TCM    cl2 3330   3.027   1.427   1.996
  633TCM     h1 3331   3.175   1.240   1.974
  633TCM    cl3 3332   2.962   1.143   2.024
  634TCM     c1 3333   3.772   2.049   4.171
  634TCM    cl1 3334   3.782   2.156   4.314
  634TCM    cl2 3335   3.650   2.112   4.055
  634TCM     h1 3336   3.869   2.045   4.122
  634TCM    cl3 3337   3.725   1.883   4.222
  635TCM     c1 3338   1.120   2.082   3.871
  635TCM    cl1 3339   1.037   2.181   3.996
  635TCM    cl2 3340   1.001   1.973   3.792
  635TCM     h1 3341   1.164   2.148   3.796
  635TCM    cl3 3342   1.249   1.984   3.947
  636TCM     c1 3343   0.942   0.371   1.839
  636TCM    cl1 3344   1.004   0.204   1.857
  636TCM    cl2 3345   1.059   0.487   1.911
  636TCM     h1 3346   0.929   0.393   1.733
  636TCM    cl3 3347   0.785   0.386   1.924
  637TCM     c1 3348   3.052   0.113   4.170
  637TCM    cl1 3349   3.011   0.279   4.223
  637TCM    cl2 3350   3.125   0.022   4.307
  637TCM     h1 3351   2.961   0.062   4.138
  637TCM    cl3 3352   3.168   0.119   4.034
  638TCM     c1 3353   3.177   2.769   0.106
  638TCM    cl1 3354   3.149   2.594   0.080
  638TCM    cl2 3355   3.304   2.826  -0.008
  638TCM     h1 3356   3.085   2.824   0.088
  638TCM    cl3 3357   3.234   2.797   0.274
  639TCM     c1 3358   3.822   3.188   4.760
  639TCM    cl1 3359   3.737   3.294   4.644
  639TCM    cl2 3360   3.898   3.050   4.674
  639TCM     h1 3361   3.899   3.245   4.812
  639TCM    cl3 3362   3.704   3.125   4.880
  640TCM     c1 3363   1.856   2.134   3.982
  640TCM    cl1 3364   1.679   2.142   3.950
  640TCM    cl2 3365   1.938   2.055   3.843
  640TCM     h1 3366   1.895   2.236   3.996
  640TCM    cl3 3367   1.884   2.038   4.131
   5.00000   5.00000   5.00000
