FOO
 3367
    1PMP     C1    1   0.726   4.457   0.811
    1PMP     O2    2   0.772   4.323   0.845
    1PMP     C3    3   0.704   4.215   0.791
    1PMP     C4    4   0.592   4.228   0.705
    1PMP     C5    5   0.528   4.113   0.653
    1PMP     C6    6   0.413   4.127   0.560
    1PMP     C7    7   0.312   4.222   0.586
    1PMP     C8    8   0.205   4.238   0.496
    1PMP     C9    9   0.198   4.162   0.377
    1PMP    C10   10   0.086   4.181   0.281
    1PMP    O11   11   0.004   4.269   0.303
    1PMP    C12   12   0.299   4.066   0.351
    1PMP    C13   13   0.406   4.048   0.443
    1PMP    C14   14   0.574   3.985   0.690
    1PMP    C15   15   0.683   3.970   0.779
    1PMP    C16   16   0.726   3.835   0.824
    1PMP    C17   17   0.633   3.728   0.831
    1PMP    C18   18   0.674   3.599   0.870
    1PMP    C19   19   0.809   3.574   0.904
    1PMP    C20   20   0.849   3.431   0.944
    1PMP    C21   21   0.980   3.420   1.025
    1PMP    N22   22   0.858   3.337   0.829
    1PMP    C23   23   0.902   3.681   0.900
    1PMP    C24   24   0.861   3.810   0.860
    1PMP    C25   25   0.749   4.087   0.826
    1PMP    H26   26   0.623   4.471   0.846
    1PMP    H27   27   0.790   4.530   0.861
    1PMP    H28   28   0.733   4.472   0.703
    1PMP    H29   29   0.554   4.325   0.676
    1PMP    H30   30   0.315   4.282   0.676
    1PMP    H31   31   0.127   4.311   0.519
    1PMP    H32   32   0.297   4.006   0.261
    1PMP    H33   33   0.483   3.976   0.421
    1PMP    H34   34   0.525   3.898   0.649
    1PMP    H35   35   0.528   3.744   0.808
    1PMP    H36   36   0.601   3.519   0.874
    1PMP    H37   37   0.770   3.394   1.010
    1PMP    H38   38   1.065   3.447   0.962
    1PMP    H39   39   0.974   3.487   1.111
    1PMP    H40   40   0.992   3.317   1.060
    1PMP    H41   41   0.848   3.238   0.850
    1PMP    H42   42   1.007   3.665   0.923
    1PMP    H43   43   0.936   3.888   0.853
    1PMP    H44   44   0.834   4.080   0.893
    2PMP    C45   45   0.594   2.886   0.034
    2PMP    O46   46   0.698   2.786   0.045
    2PMP    C47   47   0.805   2.812   0.131
    2PMP    C48   48   0.810   2.924   0.218
    2PMP    C49   49   0.921   2.942   0.304
    2PMP    C50   50   0.921   3.050   0.404
    2PMP    C51   51   0.921   3.186   0.365
    2PMP    C52   52   0.918   3.288   0.462
    2PMP    C53   53   0.913   3.256   0.600
    2PMP    C54   54   0.908   3.364   0.702
    2PMP    O55   55   0.967   3.469   0.681
    2PMP    C56   56   0.916   3.119   0.639
    2PMP    C57   57   0.920   3.018   0.541
    2PMP    C58   58   1.029   2.852   0.298
    2PMP    C59   59   1.026   2.741   0.211
    2PMP    C60   60   1.139   2.645   0.207
    2PMP    C61   61   1.272   2.692   0.208
    2PMP    C62   62   1.380   2.601   0.204
    2PMP    C63   63   1.356   2.462   0.204
    2PMP    C64   64   1.473   2.363   0.205
    2PMP    C65   65   1.478   2.288   0.071
    2PMP    N66   66   1.468   2.263   0.315
    2PMP    C67   67   1.222   2.415   0.204
    2PMP    C68   68   1.115   2.506   0.204
    2PMP    C69   69   0.912   2.720   0.130
    2PMP    H70   70   0.636   2.980  -0.004
    2PMP    H71   71   0.519   2.850  -0.037
    2PMP    H72   72   0.546   2.902   0.131
    2PMP    H73   73   0.730   2.996   0.225
    2PMP    H74   74   0.925   3.211   0.259
    2PMP    H75   75   0.920   3.392   0.431
    2PMP    H76   76   0.916   3.090   0.744
    2PMP    H77   77   0.922   2.913   0.572
    2PMP    H78   78   1.114   2.866   0.365
    2PMP    H79   79   1.293   2.799   0.209
    2PMP    H80   80   1.482   2.639   0.203
    2PMP    H81   81   1.566   2.419   0.215
    2PMP    H82   82   1.385   2.233   0.057
    2PMP    H83   83   1.490   2.361  -0.010
    2PMP    H84   84   1.563   2.220   0.071
    2PMP    H85   85   1.528   2.181   0.305
    2PMP    H86   86   1.202   2.308   0.205
    2PMP    H87   87   1.013   2.470   0.205
    2PMP    H88   88   0.906   2.635   0.064
    3PMP    C89   89   1.708   2.037   1.228
    3PMP    O90   90   1.693   1.895   1.204
    3PMP    C91   91   1.631   1.855   1.086
    3PMP    C92   92   1.593   1.945   0.983
    3PMP    C93   93   1.525   1.899   0.867
    3PMP    C94   94   1.489   1.993   0.758
    3PMP    C95   95   1.440   2.122   0.789
    3PMP    C96   96   1.417   2.215   0.687
    3PMP    C97   97   1.443   2.183   0.551
    3PMP    C98   98   1.431   2.288   0.446
    3PMP    O99   99   1.417   2.404   0.482
    3PMP   C100  100   1.485   2.051   0.520
    3PMP   C101  101   1.509   1.957   0.623
    3PMP   C102  102   1.495   1.761   0.856
    3PMP   C103  103   1.535   1.670   0.956
    3PMP   C104  104   1.501   1.526   0.943
    3PMP   C105  105   1.373   1.488   0.897
    3PMP   C106  106   1.341   1.352   0.883
    3PMP   C107  107   1.435   1.252   0.915
    3PMP   C108  108   1.398   1.105   0.899
    3PMP   C109  109   1.383   1.037   1.037
    3PMP   N110  110   1.498   1.031   0.820
    3PMP   C111  111   1.563   1.290   0.961
    3PMP   C112  112   1.596   1.427   0.976
    3PMP   C113  113   1.604   1.718   1.070
    3PMP   H114  114   1.609   2.085   1.227
    3PMP   H115  115   1.753   2.051   1.326
    3PMP   H116  116   1.773   2.081   1.152
    3PMP   H117  117   1.615   2.051   0.990
    3PMP   H118  118   1.421   2.150   0.892
    3PMP   H119  119   1.382   2.315   0.713
    3PMP   H120  120   1.503   2.019   0.417
    3PMP   H121  121   1.546   1.858   0.597
    3PMP   H122  122   1.442   1.725   0.768
    3PMP   H123  123   1.299   1.563   0.873
    3PMP   H124  124   1.241   1.324   0.848
    3PMP   H125  125   1.301   1.098   0.848
    3PMP   H126  126   1.478   1.040   1.090
    3PMP   H127  127   1.306   1.090   1.094
    3PMP   H128  128   1.351   0.933   1.022
    3PMP   H129  129   1.574   0.986   0.869
    3PMP   H130  130   1.638   1.215   0.987
    3PMP   H131  131   1.695   1.455   1.011
    3PMP   H132  132   1.633   1.650   1.149
    4PMP   C133  133   1.822   0.617  -0.016
    4PMP   O134  134   1.939   0.565   0.053
    4PMP   C135  135   1.961   0.604   0.184
    4PMP   C136  136   1.872   0.687   0.257
    4PMP   C137  137   1.899   0.721   0.391
    4PMP   C138  138   1.803   0.805   0.468
    4PMP   C139  139   1.745   0.919   0.408
    4PMP   C140  140   1.650   0.996   0.479
    4PMP   C141  141   1.613   0.961   0.611
    4PMP   C142  142   1.511   1.041   0.683
    4PMP   O143  143   1.433   1.113   0.621
    4PMP   C144  144   1.672   0.847   0.670
    4PMP   C145  145   1.767   0.770   0.600
    4PMP   C146  146   2.017   0.673   0.453
    4PMP   C147  147   2.108   0.591   0.382
    4PMP   C148  148   2.233   0.540   0.447
    4PMP   C149  149   2.293   0.611   0.554
    4PMP   C150  150   2.409   0.561   0.617
    4PMP   C151  151   2.467   0.439   0.575
    4PMP   C152  152   2.591   0.385   0.646
    4PMP   C153  153   2.717   0.420   0.565
    4PMP   N154  154   2.583   0.239   0.659
    4PMP   C155  155   2.409   0.369   0.467
    4PMP   C156  156   2.293   0.419   0.403
    4PMP   C157  157   2.077   0.557   0.247
    4PMP   H158  158   1.827   0.726  -0.020
    4PMP   H159  159   1.822   0.577  -0.118
    4PMP   H160  160   1.731   0.584   0.035
    4PMP   H161  161   1.780   0.724   0.213
    4PMP   H162  162   1.771   0.947   0.307
    4PMP   H163  163   1.605   1.082   0.430
    4PMP   H164  164   1.643   0.814   0.770
    4PMP   H165  165   1.809   0.681   0.646
    4PMP   H166  166   2.036   0.698   0.557
    4PMP   H167  167   2.252   0.705   0.588
    4PMP   H168  168   2.453   0.616   0.700
    4PMP   H169  169   2.600   0.432   0.745
    4PMP   H170  170   2.710   0.376   0.465
    4PMP   H171  171   2.725   0.529   0.556
    4PMP   H172  172   2.805   0.381   0.616
    4PMP   H173  173   2.588   0.182   0.576
    4PMP   H174  174   2.451   0.276   0.431
    4PMP   H175  175   2.250   0.360   0.323
    4PMP   H176  176   2.145   0.495   0.189
    5CAP   C177  177  -0.036   4.117   0.085
    5CAP   O178  178   0.075   4.093   0.176
    5CAP   H179  179  -0.130   4.117   0.141
    5CAP   H180  180  -0.038   4.036   0.012
    5CAP   H181  181  -0.022   4.212   0.034
    6CAP   C182  182   2.416  -0.168   0.801
    6CAP   C183  183   2.468  -0.038   0.866
    6CAP   C184  184   2.347   0.028   0.941
    6CAP   C185  185   2.582  -0.076   0.964
    6CAP   O186  186   2.516   0.040   0.753
    6CAP   C187  187   2.552   0.171   0.773
    6CAP   O188  188   2.574   0.224   0.881
    6CAP   H189  189   2.378  -0.236   0.878
    6CAP   H190  190   2.336  -0.145   0.731
    6CAP   H191  191   2.499  -0.217   0.748
    6CAP   H192  192   2.273   0.061   0.867
    6CAP   H193  193   2.381   0.113   1.000
    6CAP   H194  194   2.302  -0.046   1.008
    6CAP   H195  195   2.667  -0.113   0.906
    6CAP   H196  196   2.611   0.011   1.022
    6CAP   H197  197   2.547  -0.155   1.031
    7TCM     c1  198   4.270   0.461   2.713
    7TCM    cl1  199   4.239   0.287   2.745
    7TCM    cl2  200   4.332   0.479   2.545
    7TCM     h1  201   4.178   0.518   2.724
    7TCM    cl3  202   4.394   0.521   2.829
    8TCM     c1  203   1.645   2.421   4.467
    8TCM    cl1  204   1.521   2.393   4.340
    8TCM    cl2  205   1.680   2.596   4.478
    8TCM     h1  206   1.607   2.385   4.563
    8TCM    cl3  207   1.795   2.332   4.425
    9TCM     c1  208   1.775   2.221   0.723
    9TCM    cl1  209   1.888   2.097   0.786
    9TCM    cl2  210   1.854   2.313   0.591
    9TCM     h1  211   1.685   2.172   0.685
    9TCM    cl3  212   1.731   2.333   0.857
   10TCM     c1  213   2.713   0.511   3.670
   10TCM    cl1  214   2.781   0.425   3.528
   10TCM    cl2  215   2.784   0.445   3.821
   10TCM     h1  216   2.737   0.618   3.662
   10TCM    cl3  217   2.535   0.490   3.674
   11TCM     c1  218   2.337   1.607   2.858
   11TCM    cl1  219   2.170   1.588   2.794
   11TCM    cl2  220   2.374   1.469   2.965
   11TCM     h1  221   2.408   1.609   2.775
   11TCM    cl3  222   2.348   1.761   2.950
   12TCM     c1  223   0.221   1.338   0.224
   12TCM    cl1  224   0.371   1.240   0.223
   12TCM    cl2  225   0.132   1.311   0.378
   12TCM     h1  226   0.247   1.444   0.215
   12TCM    cl3  227   0.116   1.290   0.087
   13TCM     c1  228   2.677   0.736   2.569
   13TCM    cl1  229   2.568   0.872   2.525
   13TCM    cl2  230   2.594   0.581   2.537
   13TCM     h1  231   2.769   0.742   2.510
   13TCM    cl3  232   2.717   0.748   2.743
   14TCM     c1  233   3.473   3.938   4.391
   14TCM    cl1  234   3.355   3.898   4.262
   14TCM    cl2  235   3.397   4.051   4.508
   14TCM     h1  236   3.504   3.847   4.443
   14TCM    cl3  237   3.617   4.017   4.319
   15TCM     c1  238   0.278   4.088   3.552
   15TCM    cl1  239   0.153   4.116   3.677
   15TCM    cl2  240   0.266   3.920   3.492
   15TCM     h1  241   0.264   4.158   3.469
   15TCM    cl3  242   0.440   4.113   3.625
   16TCM     c1  243   3.884   1.248   2.761
   16TCM    cl1  244   3.891   1.415   2.827
   16TCM    cl2  245   4.051   1.181   2.752
   16TCM     h1  246   3.823   1.185   2.826
   16TCM    cl3  247   3.813   1.253   2.597
   17TCM     c1  248   4.861   2.886   4.422
   17TCM    cl1  249   4.759   2.741   4.451
   17TCM    cl2  250   5.034   2.840   4.428
   17TCM     h1  251   4.838   2.928   4.323
   17TCM    cl3  252   4.829   3.009   4.549
   18TCM     c1  253   0.628   2.617   1.305
   18TCM    cl1  254   0.543   2.766   1.253
   18TCM    cl2  255   0.550   2.473   1.232
   18TCM     h1  256   0.732   2.622   1.273
   18TCM    cl3  257   0.621   2.603   1.484
   19TCM     c1  258   1.269   1.739   2.263
   19TCM    cl1  259   1.128   1.645   2.322
   19TCM    cl2  260   1.247   1.780   2.090
   19TCM     h1  261   1.279   1.831   2.321
   19TCM    cl3  262   1.418   1.640   2.282
   20TCM     c1  263   4.430   4.326   0.502
   20TCM    cl1  264   4.479   4.496   0.530
   20TCM    cl2  265   4.455   4.285   0.329
   20TCM     h1  266   4.491   4.259   0.564
   20TCM    cl3  267   4.257   4.305   0.545
   21TCM     c1  268   2.492   4.985   3.852
   21TCM    cl1  269   2.512   4.955   4.028
   21TCM    cl2  270   2.583   5.132   3.806
   21TCM     h1  271   2.529   4.900   3.796
   21TCM    cl3  272   2.318   5.011   3.815
   22TCM     c1  273   2.768   1.617   2.848
   22TCM    cl1  274   2.935   1.637   2.786
   22TCM    cl2  275   2.690   1.478   2.765
   22TCM     h1  276   2.771   1.598   2.956
   22TCM    cl3  277   2.674   1.766   2.816
   23TCM     c1  278   0.943   2.877   4.802
   23TCM    cl1  279   1.068   2.885   4.673
   23TCM    cl2  280   0.787   2.832   4.728
   23TCM     h1  281   0.972   2.803   4.877
   23TCM    cl3  282   0.929   3.038   4.880
   24TCM     c1  283   4.521   3.359   2.215
   24TCM    cl1  284   4.468   3.500   2.119
   24TCM    cl2  285   4.428   3.214   2.164
   24TCM     h1  286   4.628   3.341   2.199
   24TCM    cl3  287   4.491   3.390   2.390
   25TCM     c1  288   0.290   3.717   4.844
   25TCM    cl1  289   0.151   3.635   4.766
   25TCM    cl2  290   0.238   3.790   4.999
   25TCM     h1  291   0.369   3.644   4.863
   25TCM    cl3  292   0.353   3.846   4.735
   26TCM     c1  293   2.253   1.178   3.340
   26TCM    cl1  294   2.362   1.312   3.391
   26TCM    cl2  295   2.314   1.107   3.187
   26TCM     h1  296   2.250   1.101   3.418
   26TCM    cl3  297   2.087   1.244   3.315
   27TCM     c1  298   1.197   1.937   2.616
   27TCM    cl1  299   1.358   1.869   2.577
   27TCM    cl2  300   1.091   1.807   2.680
   27TCM     h1  301   1.207   2.016   2.691
   27TCM    cl3  302   1.123   2.005   2.466
   28TCM     c1  303   3.176   4.401   4.685
   28TCM    cl1  304   3.162   4.336   4.519
   28TCM    cl2  305   3.201   4.264   4.799
   28TCM     h1  306   3.261   4.469   4.691
   28TCM    cl3  307   3.026   4.488   4.729
   29TCM     c1  308   2.610   2.104   2.518
   29TCM    cl1  309   2.472   2.130   2.630
   29TCM    cl2  310   2.702   2.258   2.502
   29TCM     h1  311   2.675   2.026   2.558
   29TCM    cl3  312   2.548   2.055   2.357
   30TCM     c1  313   2.915   2.199   4.983
   30TCM    cl1  314   2.832   2.227   5.140
   30TCM    cl2  315   3.068   2.291   4.978
   30TCM     h1  316   2.936   2.092   4.972
   30TCM    cl3  317   2.808   2.253   4.850
   31TCM     c1  318   0.071   0.114   1.193
   31TCM    cl1  319   0.023  -0.053   1.235
   31TCM    cl2  320   0.121   0.202   1.341
   31TCM     h1  321   0.155   0.111   1.122
   31TCM    cl3  322  -0.068   0.199   1.117
   32TCM     c1  323   3.170   0.693   1.118
   32TCM    cl1  324   3.034   0.582   1.084
   32TCM    cl2  325   3.106   0.854   1.163
   32TCM     h1  326   3.231   0.653   1.200
   32TCM    cl3  327   3.271   0.708   0.970
   33TCM     c1  328   3.833   3.226   1.860
   33TCM    cl1  329   3.682   3.129   1.849
   33TCM    cl2  330   3.809   3.360   1.978
   33TCM     h1  331   3.915   3.162   1.894
   33TCM    cl3  332   3.872   3.295   1.699
   34TCM     c1  333   1.075   0.793   3.461
   34TCM    cl1  334   0.977   0.915   3.374
   34TCM    cl2  335   1.112   0.854   3.626
   34TCM     h1  336   1.019   0.700   3.468
   34TCM    cl3  337   1.229   0.764   3.373
   35TCM     c1  338   0.665   0.169   4.180
   35TCM    cl1  339   0.753   0.226   4.327
   35TCM    cl2  340   0.632  -0.006   4.196
   35TCM     h1  341   0.572   0.224   4.170
   35TCM    cl3  342   0.768   0.196   4.036
   36TCM     c1  343   2.758   3.526   3.340
   36TCM    cl1  344   2.821   3.436   3.482
   36TCM    cl2  345   2.886   3.635   3.278
   36TCM     h1  346   2.728   3.456   3.261
   36TCM    cl3  347   2.618   3.625   3.391
   37TCM     c1  348   0.349   1.064   2.515
   37TCM    cl1  349   0.239   1.024   2.650
   37TCM    cl2  350   0.420   0.913   2.448
   37TCM     h1  351   0.294   1.117   2.437
   37TCM    cl3  352   0.482   1.168   2.576
   38TCM     c1  353   0.038   2.013   2.076
   38TCM    cl1  354   0.157   1.964   2.201
   38TCM    cl2  355   0.040   2.192   2.059
   38TCM     h1  356   0.062   1.966   1.981
   38TCM    cl3  357  -0.126   1.962   2.128
   39TCM     c1  358   1.420   3.443   1.975
   39TCM    cl1  359   1.452   3.396   2.145
   39TCM    cl2  360   1.417   3.295   1.872
   39TCM     h1  361   1.324   3.494   1.968
   39TCM    cl3  362   1.550   3.551   1.917
   40TCM     c1  363   3.659   1.453   2.120
   40TCM    cl1  364   3.512   1.368   2.062
   40TCM    cl2  365   3.684   1.419   2.294
   40TCM     h1  366   3.746   1.419   2.063
   40TCM    cl3  367   3.638   1.630   2.097
   41TCM     c1  368   0.951   1.953   1.974
   41TCM    cl1  369   1.041   2.101   2.022
   41TCM    cl2  370   0.809   1.999   1.875
   41TCM     h1  371   1.017   1.888   1.916
   41TCM    cl3  372   0.897   1.868   2.123
   42TCM     c1  373   2.269   3.709   1.821
   42TCM    cl1  374   2.390   3.676   1.693
   42TCM    cl2  375   2.115   3.760   1.745
   42TCM     h1  376   2.252   3.618   1.880
   42TCM    cl3  377   2.329   3.839   1.928
   43TCM     c1  378   0.981   4.495   1.142
   43TCM    cl1  379   1.033   4.596   1.004
   43TCM    cl2  380   1.020   4.324   1.107
   43TCM     h1  381   1.034   4.527   1.233
   43TCM    cl3  382   0.804   4.512   1.167
   44TCM     c1  383   0.232   1.078   4.521
   44TCM    cl1  384   0.066   1.010   4.529
   44TCM    cl2  385   0.288   1.120   4.686
   44TCM     h1  386   0.299   1.005   4.476
   44TCM    cl3  387   0.229   1.227   4.420
   45TCM     c1  388   1.326   3.704   4.725
   45TCM    cl1  389   1.436   3.813   4.634
   45TCM    cl2  390   1.394   3.672   4.888
   45TCM     h1  391   1.228   3.753   4.735
   45TCM    cl3  392   1.307   3.549   4.637
   46TCM     c1  393   0.193   0.540   4.596
   46TCM    cl1  394   0.368   0.564   4.564
   46TCM    cl2  395   0.152   0.367   4.569
   46TCM     h1  396   0.171   0.566   4.700
   46TCM    cl3  397   0.097   0.643   4.485
   47TCM     c1  398   1.221   3.967   1.793
   47TCM    cl1  399   1.156   4.009   1.954
   47TCM    cl2  400   1.088   3.968   1.673
   47TCM     h1  401   1.297   4.040   1.764
   47TCM    cl3  402   1.294   3.803   1.799
   48TCM     c1  403   3.391   3.950   4.860
   48TCM    cl1  404   3.518   3.851   4.781
   48TCM    cl2  405   3.411   3.938   5.038
   48TCM     h1  406   3.400   4.054   4.829
   48TCM    cl3  407   3.229   3.887   4.814
   49TCM     c1  408   1.523   1.508   1.496
   49TCM    cl1  409   1.354   1.528   1.550
   49TCM    cl2  410   1.605   1.668   1.491
   49TCM     h1  411   1.576   1.443   1.565
   49TCM    cl3  412   1.526   1.435   1.332
   50TCM     c1  413   3.252   0.575   2.246
   50TCM    cl1  414   3.099   0.572   2.151
   50TCM    cl2  415   3.264   0.426   2.346
   50TCM     h1  416   3.337   0.579   2.178
   50TCM    cl3  417   3.253   0.719   2.354
   51TCM     c1  418   0.174   0.540   1.792
   51TCM    cl1  419   0.065   0.631   1.902
   51TCM    cl2  420   0.344   0.564   1.845
   51TCM     h1  421   0.149   0.433   1.796
   51TCM    cl3  422   0.154   0.600   1.625
   52TCM     c1  423   3.501   2.518   1.211
   52TCM    cl1  424   3.537   2.348   1.256
   52TCM    cl2  425   3.617   2.571   1.083
   52TCM     h1  426   3.399   2.526   1.173
   52TCM    cl3  427   3.519   2.624   1.355
   53TCM     c1  428   3.860   4.951   0.802
   53TCM    cl1  429   3.844   4.773   0.783
   53TCM    cl2  430   3.774   5.033   0.668
   53TCM     h1  431   3.816   4.981   0.898
   53TCM    cl3  432   4.033   4.996   0.799
   54TCM     c1  433   4.893   1.494   3.282
   54TCM    cl1  434   4.820   1.530   3.123
   54TCM    cl2  435   4.991   1.344   3.271
   54TCM     h1  436   4.958   1.577   3.312
   54TCM    cl3  437   4.764   1.470   3.404
   55TCM     c1  438   2.071   3.394   2.475
   55TCM    cl1  439   2.187   3.403   2.339
   55TCM    cl2  440   1.966   3.539   2.472
   55TCM     h1  441   2.010   3.304   2.466
   55TCM    cl3  442   2.160   3.389   2.631
   56TCM     c1  443   0.364   0.096   4.690
   56TCM    cl1  444   0.287   0.167   4.836
   56TCM    cl2  445   0.435  -0.063   4.734
   56TCM     h1  446   0.290   0.083   4.611
   56TCM    cl3  447   0.494   0.206   4.633
   57TCM     c1  448   4.671   0.604   4.410
   57TCM    cl1  449   4.689   0.742   4.523
   57TCM    cl2  450   4.499   0.556   4.399
   57TCM     h1  451   4.707   0.633   4.311
   57TCM    cl3  452   4.766   0.464   4.470
   58TCM     c1  453   3.568   4.295   1.556
   58TCM    cl1  454   3.609   4.468   1.531
   58TCM    cl2  455   3.447   4.244   1.433
   58TCM     h1  456   3.659   4.234   1.545
   58TCM    cl3  457   3.500   4.274   1.720
   59TCM     c1  458   4.645   4.677   4.669
   59TCM    cl1  459   4.568   4.648   4.828
   59TCM    cl2  460   4.681   4.519   4.592
   59TCM     h1  461   4.578   4.735   4.606
   59TCM    cl3  462   4.797   4.769   4.695
   60TCM     c1  463   3.950   4.120   1.704
   60TCM    cl1  464   3.882   4.075   1.544
   60TCM    cl2  465   3.905   3.996   1.825
   60TCM     h1  466   4.059   4.127   1.696
   60TCM    cl3  467   3.883   4.279   1.754
   61TCM     c1  468   3.655   3.906   3.314
   61TCM    cl1  469   3.629   3.828   3.473
   61TCM    cl2  470   3.782   4.031   3.329
   61TCM     h1  471   3.686   3.831   3.240
   61TCM    cl3  472   3.502   3.983   3.260
   62TCM     c1  473   0.597   0.671   3.281
   62TCM    cl1  474   0.660   0.828   3.220
   62TCM    cl2  475   0.715   0.602   3.397
   62TCM     h1  476   0.501   0.687   3.331
   62TCM    cl3  477   0.576   0.558   3.143
   63TCM     c1  478   3.062   2.413   2.863
   63TCM    cl1  479   3.134   2.324   3.001
   63TCM    cl2  480   2.989   2.565   2.924
   63TCM     h1  481   3.140   2.436   2.790
   63TCM    cl3  482   2.935   2.313   2.786
   64TCM     c1  483   3.607   2.116   2.446
   64TCM    cl1  484   3.513   2.062   2.302
   64TCM    cl2  485   3.520   2.068   2.594
   64TCM     h1  486   3.706   2.070   2.444
   64TCM    cl3  487   3.623   2.295   2.440
   65TCM     c1  488   0.034   0.673   2.432
   65TCM    cl1  489   0.158   0.666   2.561
   65TCM    cl2  490   0.092   0.584   2.288
   65TCM     h1  491  -0.059   0.628   2.468
   65TCM    cl3  492   0.004   0.844   2.387
   66TCM     c1  493   0.330   0.332   2.829
   66TCM    cl1  494   0.269   0.177   2.896
   66TCM    cl2  495   0.289   0.342   2.655
   66TCM     h1  496   0.284   0.416   2.883
   66TCM    cl3  497   0.508   0.339   2.849
   67TCM     c1  498   0.158   3.527   1.043
   67TCM    cl1  499   0.018   3.583   0.947
   67TCM    cl2  500   0.115   3.529   1.217
   67TCM     h1  501   0.184   3.425   1.013
   67TCM    cl3  502   0.297   3.636   1.013
   68TCM     c1  503   1.445   3.223   0.825
   68TCM    cl1  504   1.459   3.202   1.002
   68TCM    cl2  505   1.562   3.348   0.771
   68TCM     h1  506   1.467   3.129   0.774
   68TCM    cl3  507   1.278   3.277   0.785
   69TCM     c1  508   2.771   4.281   4.000
   69TCM    cl1  509   2.619   4.363   4.051
   69TCM    cl2  510   2.822   4.344   3.840
   69TCM     h1  511   2.850   4.301   4.074
   69TCM    cl3  512   2.742   4.105   3.989
   70TCM     c1  513   4.800   1.464   0.224
   70TCM    cl1  514   4.624   1.437   0.205
   70TCM    cl2  515   4.829   1.551   0.378
   70TCM     h1  516   4.852   1.368   0.226
   70TCM    cl3  517   4.860   1.562   0.086
   71TCM     c1  518   2.901   4.593   4.278
   71TCM    cl1  519   2.889   4.418   4.309
   71TCM    cl2  520   2.877   4.623   4.102
   71TCM     h1  521   2.824   4.646   4.334
   71TCM    cl3  522   3.063   4.651   4.328
   72TCM     c1  523   3.761   4.077   2.143
   72TCM    cl1  524   3.670   4.205   2.057
   72TCM    cl2  525   3.675   4.037   2.295
   72TCM     h1  526   3.766   3.988   2.080
   72TCM    cl3  527   3.926   4.135   2.179
   73TCM     c1  528   1.039   0.065   3.434
   73TCM    cl1  529   0.995  -0.039   3.574
   73TCM    cl2  530   1.028  -0.031   3.283
   73TCM     h1  531   0.970   0.150   3.429
   73TCM    cl3  532   1.206   0.125   3.454
   74TCM     c1  533   0.811   1.257   2.671
   74TCM    cl1  534   0.804   1.417   2.590
   74TCM    cl2  535   0.720   1.265   2.826
   74TCM     h1  536   0.766   1.181   2.606
   74TCM    cl3  537   0.982   1.214   2.706
   75TCM     c1  538   1.160   0.634   2.227
   75TCM    cl1  539   1.022   0.519   2.218
   75TCM    cl2  540   1.198   0.690   2.061
   75TCM     h1  541   1.133   0.719   2.289
   75TCM    cl3  542   1.303   0.551   2.296
   76TCM     c1  543   2.938   0.958   3.808
   76TCM    cl1  544   3.008   1.031   3.956
   76TCM    cl2  545   2.799   1.055   3.751
   76TCM     h1  546   3.015   0.955   3.730
   76TCM    cl3  547   2.883   0.792   3.844
   77TCM     c1  548   4.655   4.902   0.819
   77TCM    cl1  549   4.763   5.001   0.715
   77TCM    cl2  550   4.705   4.918   0.990
   77TCM     h1  551   4.552   4.936   0.807
   77TCM    cl3  552   4.668   4.729   0.770
   78TCM     c1  553   0.634   4.307   0.347
   78TCM    cl1  554   0.670   4.165   0.244
   78TCM    cl2  555   0.506   4.407   0.269
   78TCM     h1  556   0.599   4.273   0.444
   78TCM    cl3  557   0.783   4.405   0.368
   79TCM     c1  558   2.416   3.334   2.068
   79TCM    cl1  559   2.432   3.512   2.085
   79TCM    cl2  560   2.553   3.252   2.150
   79TCM     h1  561   2.322   3.301   2.113
   79TCM    cl3  562   2.417   3.293   1.893
   80TCM     c1  563   0.474   3.127   0.898
   80TCM    cl1  564   0.638   3.087   0.959
   80TCM    cl2  565   0.419   3.280   0.973
   80TCM     h1  566   0.478   3.140   0.789
   80TCM    cl3  567   0.359   2.995   0.938
   81TCM     c1  568   3.178   3.630   0.965
   81TCM    cl1  569   3.073   3.577   1.100
   81TCM    cl2  570   3.179   3.810   0.957
   81TCM     h1  571   3.280   3.594   0.981
   81TCM    cl3  572   3.116   3.563   0.810
   82TCM     c1  573   3.134   2.977   4.856
   82TCM    cl1  574   3.229   2.842   4.787
   82TCM    cl2  575   3.083   2.937   5.023
   82TCM     h1  576   3.195   3.068   4.857
   82TCM    cl3  577   2.988   3.003   4.754
   83TCM     c1  578   1.084   1.200   1.955
   83TCM    cl1  579   1.135   1.230   1.785
   83TCM    cl2  580   1.162   1.051   2.016
   83TCM     h1  581   1.113   1.284   2.018
   83TCM    cl3  582   0.906   1.179   1.959
   84TCM     c1  583   1.943   2.450   4.820
   84TCM    cl1  584   1.989   2.543   4.673
   84TCM    cl2  585   2.075   2.337   4.862
   84TCM     h1  586   1.926   2.520   4.903
   84TCM    cl3  587   1.792   2.359   4.788
   85TCM     c1  588   2.238   3.956   3.975
   85TCM    cl1  589   2.130   3.936   3.833
   85TCM    cl2  590   2.357   3.822   3.978
   85TCM     h1  591   2.290   4.051   3.968
   85TCM    cl3  592   2.139   3.951   4.125
   86TCM     c1  593   0.625   0.161   4.990
   86TCM    cl1  594   0.743   0.094   4.873
   86TCM    cl2  595   0.711   0.264   5.108
   86TCM     h1  596   0.551   0.221   4.936
   86TCM    cl3  597   0.542   0.027   5.076
   87TCM     c1  598   1.152   0.537   3.086
   87TCM    cl1  599   1.000   0.610   3.147
   87TCM    cl2  600   1.125   0.483   2.917
   87TCM     h1  601   1.233   0.610   3.089
   87TCM    cl3  602   1.194   0.395   3.187
   88TCM     c1  603   4.606   2.956   3.122
   88TCM    cl1  604   4.586   2.779   3.102
   88TCM    cl2  605   4.771   3.003   3.068
   88TCM     h1  606   4.531   3.009   3.062
   88TCM    cl3  607   4.587   2.998   3.295
   89TCM     c1  608   3.129   4.552   0.252
   89TCM    cl1  609   3.289   4.611   0.306
   89TCM    cl2  610   3.063   4.664   0.128
   89TCM     h1  611   3.139   4.452   0.209
   89TCM    cl3  612   3.017   4.546   0.392
   90TCM     c1  613   1.861   0.082   3.493
   90TCM    cl1  614   1.738   0.046   3.368
   90TCM    cl2  615   1.783   0.080   3.655
   90TCM     h1  616   1.941   0.008   3.489
   90TCM    cl3  617   1.928   0.245   3.462
   91TCM     c1  618   0.856   0.700   3.911
   91TCM    cl1  619   0.892   0.556   4.011
   91TCM    cl2  620   0.712   0.784   3.978
   91TCM     h1  621   0.942   0.768   3.911
   91TCM    cl3  622   0.821   0.648   3.743
   92TCM     c1  623   2.034   0.307   2.599
   92TCM    cl1  624   1.901   0.403   2.671
   92TCM    cl2  625   1.988   0.256   2.433
   92TCM     h1  626   2.125   0.368   2.594
   92TCM    cl3  627   2.064   0.161   2.699
   93TCM     c1  628   1.125   1.258   2.375
   93TCM    cl1  629   1.117   1.079   2.387
   93TCM    cl2  630   0.978   1.318   2.291
   93TCM     h1  631   1.132   1.302   2.475
   93TCM    cl3  632   1.269   1.305   2.278
   94TCM     c1  633   1.406   1.370   0.067
   94TCM    cl1  634   1.361   1.532   0.128
   94TCM    cl2  635   1.583   1.361   0.041
   94TCM     h1  636   1.377   1.294   0.141
   94TCM    cl3  637   1.321   1.338  -0.088
   95TCM     c1  638   4.272   2.971   2.403
   95TCM    cl1  639   4.382   3.062   2.511
   95TCM    cl2  640   4.154   2.877   2.501
   95TCM     h1  641   4.218   3.041   2.338
   95TCM    cl3  642   4.368   2.857   2.303
   96TCM     c1  643   2.930   4.929   1.370
   96TCM    cl1  644   2.768   4.918   1.294
   96TCM    cl2  645   3.035   4.801   1.300
   96TCM     h1  646   2.973   5.028   1.351
   96TCM    cl3  647   2.913   4.903   1.546
   97TCM     c1  648   4.436   2.264   2.754
   97TCM    cl1  649   4.523   2.261   2.911
   97TCM    cl2  650   4.261   2.295   2.783
   97TCM     h1  651   4.477   2.344   2.691
   97TCM    cl3  652   4.454   2.106   2.672
   98TCM     c1  653   4.302   0.660   3.694
   98TCM    cl1  654   4.415   0.580   3.808
   98TCM    cl2  655   4.352   0.619   3.526
   98TCM     h1  656   4.200   0.624   3.712
   98TCM    cl3  657   4.310   0.837   3.717
   99TCM     c1  658   4.067   0.838   3.191
   99TCM    cl1  659   3.895   0.840   3.141
   99TCM    cl2  660   4.077   0.825   3.370
   99TCM     h1  661   4.117   0.752   3.145
   99TCM    cl3  662   4.146   0.989   3.136
  100TCM     c1  663   2.135   0.288   3.126
  100TCM    cl1  664   2.093   0.391   2.985
  100TCM    cl2  665   2.307   0.237   3.114
  100TCM     h1  666   2.120   0.344   3.219
  100TCM    cl3  667   2.031   0.142   3.127
  101TCM     c1  668   0.242   4.513   3.531
  101TCM    cl1  669   0.304   4.473   3.695
  101TCM    cl2  670   0.076   4.448   3.511
  101TCM     h1  671   0.241   4.621   3.517
  101TCM    cl3  672   0.348   4.437   3.407
  102TCM     c1  673   0.262   1.641   4.810
  102TCM    cl1  674   0.318   1.576   4.967
  102TCM    cl2  675   0.263   1.509   4.688
  102TCM     h1  676   0.160   1.681   4.820
  102TCM    cl3  677   0.374   1.771   4.757
  103TCM     c1  678   1.022   4.969   0.224
  103TCM    cl1  679   1.112   5.119   0.267
  103TCM    cl2  680   1.012   4.956   0.046
  103TCM     h1  681   1.074   4.882   0.264
  103TCM    cl3  682   0.856   4.976   0.292
  104TCM     c1  683   0.759   2.047   0.924
  104TCM    cl1  684   0.782   1.923   1.052
  104TCM    cl2  685   0.918   2.111   0.874
  104TCM     h1  686   0.708   2.002   0.838
  104TCM    cl3  687   0.659   2.180   0.990
  105TCM     c1  688   4.883   1.642   2.320
  105TCM    cl1  689   4.990   1.737   2.427
  105TCM    cl2  690   4.843   1.486   2.399
  105TCM     h1  691   4.790   1.698   2.301
  105TCM    cl3  692   4.966   1.611   2.164
  106TCM     c1  693   2.918   1.156   2.538
  106TCM    cl1  694   2.743   1.195   2.525
  106TCM    cl2  695   3.005   1.231   2.399
  106TCM     h1  696   2.958   1.195   2.632
  106TCM    cl3  697   2.939   0.978   2.531
  107TCM     c1  698   3.054   0.528   2.649
  107TCM    cl1  699   2.953   0.474   2.788
  107TCM    cl2  700   3.120   0.691   2.685
  107TCM     h1  701   3.137   0.458   2.634
  107TCM    cl3  702   2.953   0.536   2.501
  108TCM     c1  703   2.450   4.423   0.940
  108TCM    cl1  704   2.498   4.507   1.090
  108TCM    cl2  705   2.550   4.484   0.804
  108TCM     h1  706   2.466   4.315   0.951
  108TCM    cl3  707   2.278   4.456   0.905
  109TCM     c1  708   0.160   3.086   3.833
  109TCM    cl1  709   0.234   3.248   3.857
  109TCM    cl2  710   0.238   3.004   3.694
  109TCM     h1  711   0.174   3.026   3.923
  109TCM    cl3  712  -0.016   3.104   3.800
  110TCM     c1  713   2.632   0.068   1.824
  110TCM    cl1  714   2.552   0.219   1.881
  110TCM    cl2  715   2.575  -0.071   1.923
  110TCM     h1  716   2.608   0.051   1.719
  110TCM    cl3  717   2.809   0.086   1.843
  111TCM     c1  718   2.563   4.690   3.596
  111TCM    cl1  719   2.388   4.727   3.598
  111TCM    cl2  720   2.616   4.645   3.761
  111TCM     h1  721   2.583   4.608   3.527
  111TCM    cl3  722   2.652   4.837   3.543
  112TCM     c1  723   3.377   3.505   4.660
  112TCM    cl1  724   3.324   3.638   4.552
  112TCM    cl2  725   3.553   3.476   4.636
  112TCM     h1  726   3.359   3.533   4.765
  112TCM    cl3  727   3.287   3.355   4.621
  113TCM     c1  728   1.876   0.119   4.765
  113TCM    cl1  729   1.752   0.081   4.642
  113TCM    cl2  730   1.941   0.284   4.735
  113TCM     h1  731   1.831   0.116   4.865
  113TCM    cl3  732   2.009  -0.001   4.756
  114TCM     c1  733   3.471   3.802   1.882
  114TCM    cl1  734   3.294   3.797   1.858
  114TCM    cl2  735   3.505   3.842   2.054
  114TCM     h1  736   3.514   3.704   1.859
  114TCM    cl3  737   3.545   3.926   1.776
  115TCM     c1  738   0.110   2.552   2.162
  115TCM    cl1  739   0.192   2.676   2.263
  115TCM    cl2  740   0.216   2.508   2.025
  115TCM     h1  741   0.089   2.463   2.223
  115TCM    cl3  742  -0.045   2.618   2.099
  116TCM     c1  743   1.849   0.701   3.361
  116TCM    cl1  744   1.951   0.847   3.349
  116TCM    cl2  745   1.932   0.565   3.279
  116TCM     h1  746   1.832   0.675   3.466
  116TCM    cl3  747   1.691   0.733   3.281
  117TCM     c1  748   1.590   4.656   3.388
  117TCM    cl1  749   1.591   4.742   3.230
  117TCM    cl2  750   1.736   4.702   3.482
  117TCM     h1  751   1.500   4.683   3.444
  117TCM    cl3  752   1.592   4.479   3.359
  118TCM     c1  753   1.417   3.084   3.143
  118TCM    cl1  754   1.453   2.919   3.202
  118TCM    cl2  755   1.517   3.119   2.999
  118TCM     h1  756   1.311   3.092   3.117
  118TCM    cl3  757   1.456   3.203   3.272
  119TCM     c1  758   4.779   2.170   2.540
  119TCM    cl1  759   4.693   2.293   2.442
  119TCM    cl2  760   4.817   2.240   2.701
  119TCM     h1  761   4.715   2.082   2.553
  119TCM    cl3  762   4.931   2.122   2.458
  120TCM     c1  763   2.316   1.394   1.871
  120TCM    cl1  764   2.434   1.319   1.983
  120TCM    cl2  765   2.204   1.498   1.965
  120TCM     h1  766   2.369   1.455   1.797
  120TCM    cl3  767   2.222   1.266   1.787
  121TCM     c1  768   1.425   0.017   3.774
  121TCM    cl1  769   1.259  -0.012   3.834
  121TCM    cl2  770   1.444   0.192   3.740
  121TCM     h1  771   1.498  -0.014   3.849
  121TCM    cl3  772   1.452  -0.077   3.623
  122TCM     c1  773   4.276   3.689   2.562
  122TCM    cl1  774   4.422   3.659   2.662
  122TCM    cl2  775   4.175   3.540   2.557
  122TCM     h1  776   4.218   3.771   2.606
  122TCM    cl3  777   4.326   3.733   2.395
  123TCM     c1  778   4.811   1.218   3.693
  123TCM    cl1  779   4.887   1.122   3.562
  123TCM    cl2  780   4.900   1.188   3.847
  123TCM     h1  781   4.816   1.324   3.668
  123TCM    cl3  782   4.640   1.169   3.712
  124TCM     c1  783   3.693   1.709   2.498
  124TCM    cl1  784   3.700   1.766   2.668
  124TCM    cl2  785   3.798   1.811   2.395
  124TCM     h1  786   3.726   1.605   2.494
  124TCM    cl3  787   3.524   1.722   2.437
  125TCM     c1  788   4.686   4.109   3.338
  125TCM    cl1  789   4.788   4.010   3.447
  125TCM    cl2  790   4.682   4.033   3.175
  125TCM     h1  791   4.585   4.115   3.378
  125TCM    cl3  792   4.755   4.275   3.324
  126TCM     c1  793   0.560   1.752   0.297
  126TCM    cl1  794   0.581   1.807   0.466
  126TCM    cl2  795   0.447   1.861   0.211
  126TCM     h1  796   0.657   1.752   0.246
  126TCM    cl3  797   0.492   1.586   0.297
  127TCM     c1  798   3.356   1.616   3.422
  127TCM    cl1  799   3.274   1.745   3.329
  127TCM    cl2  800   3.506   1.567   3.336
  127TCM     h1  801   3.381   1.653   3.522
  127TCM    cl3  802   3.247   1.473   3.436
  128TCM     c1  803   1.561   2.321   2.621
  128TCM    cl1  804   1.450   2.392   2.500
  128TCM    cl2  805   1.482   2.178   2.696
  128TCM     h1  806   1.654   2.290   2.573
  128TCM    cl3  807   1.597   2.441   2.749
  129TCM     c1  808   0.220   2.646   0.164
  129TCM    cl1  809   0.274   2.816   0.178
  129TCM    cl2  810   0.310   2.545   0.281
  129TCM     h1  811   0.113   2.639   0.184
  129TCM    cl3  812   0.253   2.587  -0.003
  130TCM     c1  813   0.685   4.724   4.906
  130TCM    cl1  814   0.700   4.682   5.079
  130TCM    cl2  815   0.563   4.617   4.829
  130TCM     h1  816   0.654   4.828   4.896
  130TCM    cl3  817   0.843   4.701   4.825
  131TCM     c1  818   4.780   4.538   0.112
  131TCM    cl1  819   4.959   4.542   0.112
  131TCM    cl2  820   4.721   4.560   0.280
  131TCM     h1  821   4.742   4.618   0.049
  131TCM    cl3  822   4.722   4.380   0.050
  132TCM     c1  823   0.668   1.318   0.463
  132TCM    cl1  824   0.716   1.163   0.537
  132TCM    cl2  825   0.784   1.361   0.332
  132TCM     h1  826   0.568   1.309   0.421
  132TCM    cl3  827   0.669   1.446   0.589
  133TCM     c1  828   2.333   0.221   3.523
  133TCM    cl1  829   2.265   0.372   3.456
  133TCM    cl2  830   2.499   0.197   3.461
  133TCM     h1  831   2.336   0.227   3.632
  133TCM    cl3  832   2.233   0.081   3.473
  134TCM     c1  833   0.517   1.307   3.135
  134TCM    cl1  834   0.382   1.301   3.253
  134TCM    cl2  835   0.647   1.195   3.187
  134TCM     h1  836   0.481   1.277   3.036
  134TCM    cl3  837   0.581   1.475   3.128
  135TCM     c1  838   0.396   4.293   4.942
  135TCM    cl1  839   0.403   4.293   4.763
  135TCM    cl2  840   0.397   4.123   5.001
  135TCM     h1  841   0.482   4.347   4.982
  135TCM    cl3  842   0.245   4.372   4.997
  136TCM     c1  843   4.084   1.061   2.339
  136TCM    cl1  844   4.227   1.108   2.437
  136TCM    cl2  845   4.000   1.210   2.285
  136TCM     h1  846   4.116   1.003   2.252
  136TCM    cl3  847   3.974   0.962   2.440
  137TCM     c1  848   1.499   0.656   1.870
  137TCM    cl1  849   1.487   0.485   1.922
  137TCM    cl2  850   1.533   0.663   1.693
  137TCM     h1  851   1.404   0.707   1.890
  137TCM    cl3  852   1.632   0.738   1.959
  138TCM     c1  853   2.048   1.701   3.254
  138TCM    cl1  854   2.011   1.767   3.091
  138TCM    cl2  855   2.060   1.836   3.372
  138TCM     h1  856   1.968   1.633   3.285
  138TCM    cl3  857   2.203   1.612   3.249
  139TCM     c1  858   2.714   3.609   3.789
  139TCM    cl1  859   2.706   3.777   3.848
  139TCM    cl2  860   2.566   3.521   3.841
  139TCM     h1  861   2.719   3.609   3.680
  139TCM    cl3  862   2.859   3.527   3.856
  140TCM     c1  863   0.844   1.391   3.556
  140TCM    cl1  864   0.903   1.269   3.439
  140TCM    cl2  865   0.698   1.471   3.492
  140TCM     h1  866   0.820   1.342   3.651
  140TCM    cl3  867   0.972   1.514   3.582
  141TCM     c1  868   0.815   4.232   1.637
  141TCM    cl1  869   0.844   4.262   1.462
  141TCM    cl2  870   0.658   4.304   1.685
  141TCM     h1  871   0.813   4.124   1.655
  141TCM    cl3  872   0.947   4.307   1.733
  142TCM     c1  873   3.670   4.326   2.554
  142TCM    cl1  874   3.838   4.299   2.497
  142TCM    cl2  875   3.607   4.175   2.629
  142TCM     h1  876   3.669   4.407   2.628
  142TCM    cl3  877   3.565   4.371   2.415
  143TCM     c1  878   0.424   2.267   3.610
  143TCM    cl1  879   0.493   2.119   3.535
  143TCM    cl2  880   0.248   2.243   3.636
  143TCM     h1  881   0.474   2.287   3.705
  143TCM    cl3  882   0.448   2.406   3.499
  144TCM     c1  883   1.780   3.551   1.498
  144TCM    cl1  884   1.872   3.674   1.405
  144TCM    cl2  885   1.604   3.573   1.469
  144TCM     h1  886   1.810   3.451   1.466
  144TCM    cl3  887   1.813   3.573   1.673
  145TCM     c1  888   1.548   1.424   2.594
  145TCM    cl1  889   1.601   1.594   2.613
  145TCM    cl2  890   1.370   1.416   2.615
  145TCM     h1  891   1.574   1.388   2.494
  145TCM    cl3  892   1.629   1.323   2.718
  146TCM     c1  893   3.989   0.050   4.029
  146TCM    cl1  894   4.006  -0.123   3.987
  146TCM    cl2  895   4.145   0.111   4.095
  146TCM     h1  896   3.962   0.107   3.940
  146TCM    cl3  897   3.860   0.068   4.154
  147TCM     c1  898   0.109   4.503   4.642
  147TCM    cl1  899   0.220   4.624   4.713
  147TCM    cl2  900   0.028   4.576   4.500
  147TCM     h1  901   0.167   4.415   4.610
  147TCM    cl3  902  -0.014   4.454   4.762
  148TCM     c1  903   0.992   1.670   0.695
  148TCM    cl1  904   0.843   1.769   0.716
  148TCM    cl2  905   0.990   1.597   0.531
  148TCM     h1  906   1.080   1.734   0.705
  148TCM    cl3  907   0.996   1.540   0.818
  149TCM     c1  908   2.680   2.896   0.005
  149TCM    cl1  909   2.637   2.884  -0.169
  149TCM    cl2  910   2.534   2.865   0.105
  149TCM     h1  911   2.757   2.822   0.029
  149TCM    cl3  912   2.741   3.061   0.040
  150TCM     c1  913   3.627   1.283   3.142
  150TCM    cl1  914   3.572   1.384   3.004
  150TCM    cl2  915   3.734   1.153   3.081
  150TCM     h1  916   3.682   1.345   3.214
  150TCM    cl3  917   3.484   1.210   3.223
  151TCM     c1  918   3.314   0.218   1.957
  151TCM    cl1  919   3.391   0.380   1.975
  151TCM    cl2  920   3.364   0.146   1.801
  151TCM     h1  921   3.345   0.154   2.039
  151TCM    cl3  922   3.135   0.237   1.961
  152TCM     c1  923   3.798   2.440   1.520
  152TCM    cl1  924   3.799   2.523   1.679
  152TCM    cl2  925   3.889   2.286   1.533
  152TCM     h1  926   3.695   2.419   1.490
  152TCM    cl3  927   3.876   2.544   1.396
  153TCM     c1  928   2.934   4.125   2.650
  153TCM    cl1  929   2.780   4.203   2.699
  153TCM    cl2  930   3.042   4.114   2.793
  153TCM     h1  931   2.914   4.025   2.611
  153TCM    cl3  932   3.013   4.224   2.523
  154TCM     c1  933   4.350   0.915   2.760
  154TCM    cl1  934   4.201   0.828   2.812
  154TCM    cl2  935   4.412   0.839   2.609
  154TCM     h1  936   4.327   1.020   2.741
  154TCM    cl3  937   4.475   0.902   2.888
  155TCM     c1  938   1.137   1.709   4.671
  155TCM    cl1  939   1.034   1.856   4.674
  155TCM    cl2  940   1.193   1.673   4.837
  155TCM     h1  941   1.079   1.625   4.633
  155TCM    cl3  942   1.279   1.738   4.566
  156TCM     c1  943   2.249   4.316   4.536
  156TCM    cl1  944   2.338   4.206   4.646
  156TCM    cl2  945   2.138   4.221   4.432
  156TCM     h1  946   2.191   4.388   4.596
  156TCM    cl3  947   2.365   4.405   4.432
  157TCM     c1  948   2.244   4.924   0.154
  157TCM    cl1  949   2.249   5.056   0.275
  157TCM    cl2  950   2.322   4.978   0.002
  157TCM     h1  951   2.297   4.836   0.193
  157TCM    cl3  952   2.073   4.881   0.120
  158TCM     c1  953   2.065   1.232   2.804
  158TCM    cl1  954   1.999   1.288   2.961
  158TCM    cl2  955   1.950   1.117   2.728
  158TCM     h1  956   2.080   1.318   2.738
  158TCM    cl3  957   2.222   1.148   2.830
  159TCM     c1  958   1.877   2.168   0.177
  159TCM    cl1  959   1.842   2.342   0.156
  159TCM    cl2  960   1.849   2.082   0.021
  159TCM     h1  961   1.981   2.155   0.208
  159TCM    cl3  962   1.767   2.099   0.301
  160TCM     c1  963   1.930   1.558   1.616
  160TCM    cl1  964   1.878   1.610   1.780
  160TCM    cl2  965   1.873   1.391   1.586
  160TCM     h1  966   1.886   1.625   1.541
  160TCM    cl3  967   2.109   1.565   1.606
  161TCM     c1  968   2.557   2.547   0.519
  161TCM    cl1  969   2.704   2.462   0.461
  161TCM    cl2  970   2.487   2.643   0.386
  161TCM     h1  971   2.484   2.473   0.554
  161TCM    cl3  972   2.601   2.657   0.654
  162TCM     c1  973   2.830   1.699   2.343
  162TCM    cl1  974   2.887   1.856   2.278
  162TCM    cl2  975   2.702   1.728   2.465
  162TCM     h1  976   2.790   1.637   2.262
  162TCM    cl3  977   2.967   1.613   2.422
  163TCM     c1  978   4.624   4.412   2.493
  163TCM    cl1  979   4.522   4.406   2.641
  163TCM    cl2  980   4.754   4.534   2.517
  163TCM     h1  981   4.668   4.314   2.474
  163TCM    cl3  982   4.523   4.461   2.353
  164TCM     c1  983   3.184   4.887   4.658
  164TCM    cl1  984   3.279   5.029   4.712
  164TCM    cl2  985   3.081   4.831   4.794
  164TCM     h1  986   3.121   4.915   4.573
  164TCM    cl3  987   3.295   4.755   4.610
  165TCM     c1  988   3.564   3.963   3.869
  165TCM    cl1  989   3.657   3.859   3.982
  165TCM    cl2  990   3.485   4.096   3.959
  165TCM     h1  991   3.631   4.004   3.793
  165TCM    cl3  992   3.438   3.863   3.789
  166TCM     c1  993   1.898   1.388   2.370
  166TCM    cl1  994   1.856   1.216   2.400
  166TCM    cl2  995   1.944   1.464   2.526
  166TCM     h1  996   1.981   1.394   2.300
  166TCM    cl3  997   1.755   1.472   2.301
  167TCM     c1  998   2.689   0.213   0.077
  167TCM    cl1  999   2.690   0.038   0.040
  167TCM    cl2 1000   2.802   0.247   0.212
  167TCM     h1 1001   2.719   0.269  -0.011
  167TCM    cl3 1002   2.523   0.263   0.126
  168TCM     c1 1003   2.472   2.761   2.131
  168TCM    cl1 1004   2.556   2.836   2.270
  168TCM    cl2 1005   2.444   2.886   2.005
  168TCM     h1 1006   2.534   2.681   2.090
  168TCM    cl3 1007   2.314   2.693   2.184
  169TCM     c1 1008   0.985   4.713   1.644
  169TCM    cl1 1009   0.951   4.886   1.608
  169TCM    cl2 1010   1.162   4.689   1.659
  169TCM     h1 1011   0.936   4.685   1.738
  169TCM    cl3 1012   0.923   4.609   1.511
  170TCM     c1 1013   3.885   2.325   4.506
  170TCM    cl1 1014   3.803   2.274   4.658
  170TCM    cl2 1015   3.851   2.205   4.377
  170TCM     h1 1016   3.847   2.423   4.476
  170TCM    cl3 1017   4.062   2.335   4.534
  171TCM     c1 1018   1.769   4.717   4.925
  171TCM    cl1 1019   1.634   4.628   4.848
  171TCM    cl2 1020   1.822   4.628   5.072
  171TCM     h1 1021   1.852   4.725   4.855
  171TCM    cl3 1022   1.713   4.881   4.972
  172TCM     c1 1023   3.134   3.580   0.364
  172TCM    cl1 1024   3.065   3.450   0.263
  172TCM    cl2 1025   3.256   3.511   0.475
  172TCM     h1 1026   3.181   3.655   0.300
  172TCM    cl3 1027   3.003   3.656   0.460
  173TCM     c1 1028   4.706   1.070   0.350
  173TCM    cl1 1029   4.766   1.190   0.470
  173TCM    cl2 1030   4.797   1.090   0.197
  173TCM     h1 1031   4.720   0.969   0.389
  173TCM    cl3 1032   4.532   1.099   0.320
  174TCM     c1 1033   3.997   1.692   2.022
  174TCM    cl1 1034   4.027   1.628   1.857
  174TCM    cl2 1035   4.124   1.810   2.066
  174TCM     h1 1036   3.899   1.741   2.025
  174TCM    cl3 1037   4.000   1.555   2.137
  175TCM     c1 1038   3.949   1.641   4.981
  175TCM    cl1 1039   3.908   1.626   4.807
  175TCM    cl2 1040   3.799   1.632   5.078
  175TCM     h1 1041   4.017   1.560   5.010
  175TCM    cl3 1042   4.030   1.799   5.009
  176TCM     c1 1043   3.918   3.279   0.030
  176TCM    cl1 1044   3.823   3.260  -0.120
  176TCM    cl2 1045   3.815   3.236   0.171
  176TCM     h1 1046   4.005   3.213   0.027
  176TCM    cl3 1047   3.972   3.450   0.046
  177TCM     c1 1048   1.119   0.385   3.674
  177TCM    cl1 1049   1.166   0.529   3.769
  177TCM    cl2 1050   1.035   0.437   3.524
  177TCM     h1 1051   1.208   0.327   3.649
  177TCM    cl3 1052   1.008   0.283   3.772
  178TCM     c1 1053   3.429   0.090   1.413
  178TCM    cl1 1054   3.266   0.080   1.338
  178TCM    cl2 1055   3.461   0.260   1.463
  178TCM     h1 1056   3.434   0.025   1.500
  178TCM    cl3 1057   3.552   0.039   1.293
  179TCM     c1 1058   1.112   0.277   4.131
  179TCM    cl1 1059   1.272   0.307   4.055
  179TCM    cl2 1060   1.096   0.378   4.278
  179TCM     h1 1061   1.032   0.303   4.060
  179TCM    cl3 1062   1.098   0.104   4.176
  180TCM     c1 1063   3.300   0.216   3.309
  180TCM    cl1 1064   3.338   0.372   3.230
  180TCM    cl2 1065   3.164   0.240   3.424
  180TCM     h1 1066   3.272   0.142   3.234
  180TCM    cl3 1067   3.444   0.158   3.399
  181TCM     c1 1068   2.143   0.684   4.219
  181TCM    cl1 1069   2.207   0.758   4.069
  181TCM    cl2 1070   1.972   0.735   4.243
  181TCM     h1 1071   2.147   0.575   4.211
  181TCM    cl3 1072   2.241   0.738   4.359
  182TCM     c1 1073   3.255   0.458   0.119
  182TCM    cl1 1074   3.403   0.539   0.181
  182TCM    cl2 1075   3.170   0.379   0.255
  182TCM     h1 1076   3.190   0.533   0.073
  182TCM    cl3 1077   3.302   0.335  -0.003
  183TCM     c1 1078   1.732   1.919   2.523
  183TCM    cl1 1079   1.772   1.957   2.694
  183TCM    cl2 1080   1.856   1.808   2.458
  183TCM     h1 1081   1.634   1.870   2.519
  183TCM    cl3 1082   1.729   2.069   2.426
  184TCM     c1 1083   4.986   3.960   4.724
  184TCM    cl1 1084   5.007   3.905   4.554
  184TCM    cl2 1085   4.815   4.007   4.750
  184TCM     h1 1086   5.012   3.879   4.792
  184TCM    cl3 1087   5.092   4.102   4.754
  185TCM     c1 1088   0.758   0.868   2.836
  185TCM    cl1 1089   0.589   0.916   2.874
  185TCM    cl2 1090   0.788   0.898   2.662
  185TCM     h1 1091   0.827   0.928   2.896
  185TCM    cl3 1092   0.782   0.694   2.871
  186TCM     c1 1093   4.601   0.970   3.398
  186TCM    cl1 1094   4.647   0.828   3.498
  186TCM    cl2 1095   4.422   0.983   3.392
  186TCM     h1 1096   4.643   1.061   3.442
  186TCM    cl3 1097   4.665   0.949   3.232
  187TCM     c1 1098   0.020   4.598   0.493
  187TCM    cl1 1099   0.008   4.525   0.657
  187TCM    cl2 1100   0.193   4.611   0.447
  187TCM     h1 1101  -0.033   4.535   0.420
  187TCM    cl3 1102  -0.053   4.761   0.499
  188TCM     c1 1103   0.620   3.336   0.241
  188TCM    cl1 1104   0.497   3.463   0.210
  188TCM    cl2 1105   0.670   3.263   0.085
  188TCM     h1 1106   0.707   3.382   0.290
  188TCM    cl3 1107   0.552   3.208   0.346
  189TCM     c1 1108   1.159   2.224   4.436
  189TCM    cl1 1109   0.998   2.170   4.492
  189TCM    cl2 1110   1.271   2.084   4.432
  189TCM     h1 1111   1.150   2.267   4.336
  189TCM    cl3 1112   1.223   2.347   4.549
  190TCM     c1 1113   0.504   2.857   0.475
  190TCM    cl1 1114   0.341   2.809   0.531
  190TCM    cl2 1115   0.598   2.710   0.434
  190TCM     h1 1116   0.495   2.921   0.386
  190TCM    cl3 1117   0.587   2.947   0.606
  191TCM     c1 1118   4.190   1.486   2.477
  191TCM    cl1 1119   4.283   1.606   2.381
  191TCM    cl2 1120   4.020   1.540   2.494
  191TCM     h1 1121   4.193   1.390   2.426
  191TCM    cl3 1122   4.263   1.470   2.640
  192TCM     c1 1123   1.991   0.297   4.384
  192TCM    cl1 1124   1.937   0.343   4.219
  192TCM    cl2 1125   2.138   0.390   4.426
  192TCM     h1 1126   1.911   0.320   4.456
  192TCM    cl3 1127   2.028   0.122   4.391
  193TCM     c1 1128   0.500   4.980   2.596
  193TCM    cl1 1129   0.538   4.948   2.768
  193TCM    cl2 1130   0.570   5.138   2.548
  193TCM     h1 1131   0.542   4.901   2.534
  193TCM    cl3 1132   0.322   4.985   2.575
  194TCM     c1 1133   1.906   4.584   4.500
  194TCM    cl1 1134   1.908   4.463   4.633
  194TCM    cl2 1135   2.075   4.629   4.458
  194TCM     h1 1136   1.856   4.542   4.413
  194TCM    cl3 1137   1.819   4.731   4.555
  195TCM     c1 1138   4.321   4.316   1.322
  195TCM    cl1 1139   4.296   4.204   1.184
  195TCM    cl2 1140   4.496   4.319   1.364
  195TCM     h1 1141   4.289   4.417   1.293
  195TCM    cl3 1142   4.225   4.260   1.463
  196TCM     c1 1143   1.056   2.525   0.612
  196TCM    cl1 1144   1.194   2.634   0.576
  196TCM    cl2 1145   1.088   2.359   0.551
  196TCM     h1 1146   1.041   2.521   0.720
  196TCM    cl3 1147   0.909   2.588   0.532
  197TCM     c1 1148   1.174   0.849   4.135
  197TCM    cl1 1149   1.015   0.844   4.217
  197TCM    cl2 1150   1.156   0.938   3.979
  197TCM     h1 1151   1.247   0.901   4.198
  197TCM    cl3 1152   1.231   0.683   4.100
  198TCM     c1 1153   1.905   1.109   0.716
  198TCM    cl1 1154   1.818   1.264   0.694
  198TCM    cl2 1155   1.865   1.042   0.878
  198TCM     h1 1156   1.874   1.039   0.638
  198TCM    cl3 1157   2.082   1.136   0.704
  199TCM     c1 1158   1.207   4.325   1.476
  199TCM    cl1 1159   1.187   4.173   1.383
  199TCM    cl2 1160   1.281   4.451   1.372
  199TCM     h1 1161   1.109   4.360   1.511
  199TCM    cl3 1162   1.313   4.293   1.618
  200TCM     c1 1163   0.118   2.454   2.659
  200TCM    cl1 1164   0.188   2.289   2.662
  200TCM    cl2 1165   0.020   2.475   2.510
  200TCM     h1 1166   0.056   2.469   2.747
  200TCM    cl3 1167   0.251   2.574   2.658
  201TCM     c1 1168   0.863   2.131   0.284
  201TCM    cl1 1169   0.746   2.048   0.178
  201TCM    cl2 1170   0.867   2.050   0.444
  201TCM     h1 1171   0.963   2.127   0.239
  201TCM    cl3 1172   0.813   2.302   0.303
  202TCM     c1 1173   3.528   4.341   3.513
  202TCM    cl1 1174   3.694   4.401   3.479
  202TCM    cl2 1175   3.539   4.178   3.588
  202TCM     h1 1176   3.477   4.409   3.581
  202TCM    cl3 1177   3.437   4.329   3.359
  203TCM     c1 1178   2.209   0.868   2.462
  203TCM    cl1 1179   2.225   1.046   2.474
  203TCM    cl2 1180   2.085   0.827   2.339
  203TCM     h1 1181   2.305   0.824   2.433
  203TCM    cl3 1182   2.159   0.802   2.622
  204TCM     c1 1183   0.510   4.644   4.438
  204TCM    cl1 1184   0.403   4.501   4.434
  204TCM    cl2 1185   0.412   4.791   4.409
  204TCM     h1 1186   0.559   4.651   4.536
  204TCM    cl3 1187   0.634   4.629   4.309
  205TCM     c1 1188   2.048   4.657   3.759
  205TCM    cl1 1189   2.153   4.684   3.902
  205TCM    cl2 1190   2.039   4.809   3.664
  205TCM     h1 1191   2.089   4.577   3.697
  205TCM    cl3 1192   1.883   4.613   3.815
  206TCM     c1 1193   1.114   4.978   1.193
  206TCM    cl1 1194   1.107   4.821   1.279
  206TCM    cl2 1195   1.030   5.104   1.289
  206TCM     h1 1196   1.218   5.006   1.178
  206TCM    cl3 1197   1.034   4.961   1.033
  207TCM     c1 1198   2.408   3.262   0.958
  207TCM    cl1 1199   2.300   3.173   1.071
  207TCM    cl2 1200   2.575   3.195   0.969
  207TCM     h1 1201   2.371   3.252   0.856
  207TCM    cl3 1202   2.411   3.435   1.005
  208TCM     c1 1203   1.351   3.569   1.020
  208TCM    cl1 1204   1.526   3.590   1.053
  208TCM    cl2 1205   1.307   3.661   0.873
  208TCM     h1 1206   1.329   3.463   1.006
  208TCM    cl3 1207   1.258   3.632   1.160
  209TCM     c1 1208   3.797   2.171   2.101
  209TCM    cl1 1209   3.919   2.200   2.229
  209TCM    cl2 1210   3.785   1.995   2.069
  209TCM     h1 1211   3.700   2.210   2.133
  209TCM    cl3 1212   3.848   2.255   1.950
  210TCM     c1 1213   2.577   2.314   0.890
  210TCM    cl1 1214   2.428   2.362   0.801
  210TCM    cl2 1215   2.635   2.452   0.988
  210TCM     h1 1216   2.555   2.229   0.955
  210TCM    cl3 1217   2.703   2.268   0.771
  211TCM     c1 1218   2.671   3.134   3.920
  211TCM    cl1 1219   2.791   3.212   4.029
  211TCM    cl2 1220   2.705   3.183   3.750
  211TCM     h1 1221   2.679   3.025   3.929
  211TCM    cl3 1222   2.506   3.186   3.965
  212TCM     c1 1223   1.206   2.696   4.265
  212TCM    cl1 1224   1.305   2.688   4.414
  212TCM    cl2 1225   1.067   2.807   4.291
  212TCM     h1 1226   1.267   2.734   4.183
  212TCM    cl3 1227   1.145   2.532   4.225
  213TCM     c1 1228   1.773   2.865   3.009
  213TCM    cl1 1229   1.665   2.734   2.953
  213TCM    cl2 1230   1.820   2.967   2.869
  213TCM     h1 1231   1.721   2.926   3.083
  213TCM    cl3 1232   1.921   2.795   3.083
  214TCM     c1 1233   3.809   4.556   3.894
  214TCM    cl1 1234   3.723   4.403   3.856
  214TCM    cl2 1235   3.718   4.647   4.019
  214TCM     h1 1236   3.909   4.533   3.932
  214TCM    cl3 1237   3.822   4.655   3.745
  215TCM     c1 1238   0.254   3.333   0.571
  215TCM    cl1 1239   0.400   3.423   0.625
  215TCM    cl2 1240   0.283   3.157   0.590
  215TCM     h1 1241   0.168   3.363   0.630
  215TCM    cl3 1242   0.222   3.367   0.398
  216TCM     c1 1243   1.396   1.986   4.834
  216TCM    cl1 1244   1.404   1.943   5.008
  216TCM    cl2 1245   1.553   2.056   4.782
  216TCM     h1 1246   1.374   1.896   4.775
  216TCM    cl3 1247   1.266   2.107   4.808
  217TCM     c1 1248   0.287   1.966   2.790
  217TCM    cl1 1249   0.268   1.849   2.655
  217TCM    cl2 1250   0.444   2.050   2.777
  217TCM     h1 1251   0.205   2.039   2.787
  217TCM    cl3 1252   0.281   1.877   2.946
  218TCM     c1 1253   3.699   0.053   4.821
  218TCM    cl1 1254   3.640  -0.059   4.693
  218TCM    cl2 1255   3.694  -0.032   4.979
  218TCM     h1 1256   3.802   0.083   4.798
  218TCM    cl3 1257   3.594   0.198   4.828
  219TCM     c1 1258   1.907   2.474   2.079
  219TCM    cl1 1259   1.970   2.636   2.038
  219TCM    cl2 1260   1.982   2.351   1.972
  219TCM     h1 1261   1.929   2.451   2.183
  219TCM    cl3 1262   1.729   2.472   2.054
  220TCM     c1 1263   4.119   0.470   4.105
  220TCM    cl1 1264   4.110   0.434   3.929
  220TCM    cl2 1265   3.957   0.445   4.178
  220TCM     h1 1266   4.191   0.403   4.153
  220TCM    cl3 1267   4.170   0.640   4.129
  221TCM     c1 1268   0.454   3.628   1.427
  221TCM    cl1 1269   0.481   3.505   1.298
  221TCM    cl2 1270   0.597   3.630   1.536
  221TCM     h1 1271   0.440   3.726   1.382
  221TCM    cl3 1272   0.308   3.583   1.521
  222TCM     c1 1273   0.341   1.546   0.781
  222TCM    cl1 1274   0.197   1.600   0.873
  222TCM    cl2 1275   0.482   1.646   0.828
  222TCM     h1 1276   0.361   1.441   0.803
  222TCM    cl3 1277   0.309   1.565   0.605
  223TCM     c1 1278   3.488   2.519   2.829
  223TCM    cl1 1279   3.621   2.560   2.716
  223TCM    cl2 1280   3.434   2.350   2.799
  223TCM     h1 1281   3.524   2.528   2.932
  223TCM    cl3 1282   3.350   2.631   2.803
  224TCM     c1 1283   0.222   4.785   2.934
  224TCM    cl1 1284   0.333   4.658   2.871
  224TCM    cl2 1285   0.185   4.750   3.106
  224TCM     h1 1286   0.270   4.883   2.925
  224TCM    cl3 1287   0.071   4.783   2.837
  225TCM     c1 1288   0.186   4.591   2.535
  225TCM    cl1 1289   0.081   4.724   2.477
  225TCM    cl2 1290   0.358   4.633   2.504
  225TCM     h1 1291   0.171   4.576   2.642
  225TCM    cl3 1292   0.145   4.440   2.447
  226TCM     c1 1293   0.429   2.406   2.370
  226TCM    cl1 1294   0.298   2.296   2.318
  226TCM    cl2 1295   0.520   2.462   2.225
  226TCM     h1 1296   0.387   2.492   2.422
  226TCM    cl3 1297   0.540   2.316   2.479
  227TCM     c1 1298   0.404   4.033   3.080
  227TCM    cl1 1299   0.328   3.878   3.129
  227TCM    cl2 1300   0.550   3.999   2.982
  227TCM     h1 1301   0.333   4.092   3.022
  227TCM    cl3 1302   0.452   4.124   3.228
  228TCM     c1 1303   2.355   0.318   4.043
  228TCM    cl1 1304   2.394   0.437   4.172
  228TCM    cl2 1305   2.273   0.402   3.908
  228TCM     h1 1306   2.446   0.271   4.007
  228TCM    cl3 1307   2.245   0.193   4.110
  229TCM     c1 1308   1.860   1.844   2.066
  229TCM    cl1 1309   1.694   1.818   2.129
  229TCM    cl2 1310   1.969   1.717   2.131
  229TCM     h1 1311   1.859   1.839   1.957
  229TCM    cl3 1312   1.919   2.005   2.118
  230TCM     c1 1313   1.175   3.149   2.186
  230TCM    cl1 1314   1.151   3.228   2.345
  230TCM    cl2 1315   1.105   3.253   2.058
  230TCM     h1 1316   1.282   3.136   2.167
  230TCM    cl3 1317   1.095   2.989   2.184
  231TCM     c1 1318   4.646   3.676   3.009
  231TCM    cl1 1319   4.714   3.792   2.890
  231TCM    cl2 1320   4.650   3.511   2.937
  231TCM     h1 1321   4.706   3.677   3.100
  231TCM    cl3 1322   4.477   3.721   3.047
  232TCM     c1 1323   4.269   0.811   4.485
  232TCM    cl1 1324   4.327   0.758   4.647
  232TCM    cl2 1325   4.373   0.943   4.424
  232TCM     h1 1326   4.273   0.726   4.416
  232TCM    cl3 1327   4.099   0.868   4.498
  233TCM     c1 1328   0.288   2.968   4.653
  233TCM    cl1 1329   0.463   3.004   4.666
  233TCM    cl2 1330   0.199   3.119   4.612
  233TCM     h1 1331   0.271   2.894   4.575
  233TCM    cl3 1332   0.228   2.906   4.809
  234TCM     c1 1333   1.082   1.782   0.165
  234TCM    cl1 1334   0.924   1.705   0.201
  234TCM    cl2 1335   1.158   1.842   0.316
  234TCM     h1 1336   1.149   1.709   0.118
  234TCM    cl3 1337   1.055   1.920   0.054
  235TCM     c1 1338   1.919   1.989   1.647
  235TCM    cl1 1339   1.761   1.952   1.721
  235TCM    cl2 1340   1.938   1.895   1.495
  235TCM     h1 1341   1.925   2.096   1.624
  235TCM    cl3 1342   2.050   1.944   1.761
  236TCM     c1 1343   2.470   4.316   3.719
  236TCM    cl1 1344   2.319   4.406   3.751
  236TCM    cl2 1345   2.516   4.336   3.547
  236TCM     h1 1346   2.550   4.355   3.783
  236TCM    cl3 1347   2.444   4.142   3.756
  237TCM     c1 1348   3.079   0.397   1.568
  237TCM    cl1 1349   3.069   0.222   1.603
  237TCM    cl2 1350   3.141   0.420   1.402
  237TCM     h1 1351   2.979   0.442   1.577
  237TCM    cl3 1352   3.190   0.476   1.685
  238TCM     c1 1353   2.327   4.662   4.812
  238TCM    cl1 1354   2.148   4.663   4.826
  238TCM    cl2 1355   2.373   4.716   4.647
  238TCM     h1 1356   2.370   4.730   4.885
  238TCM    cl3 1357   2.389   4.496   4.839
  239TCM     c1 1358   2.593   1.566   3.270
  239TCM    cl1 1359   2.671   1.571   3.432
  239TCM    cl2 1360   2.648   1.419   3.182
  239TCM     h1 1361   2.484   1.564   3.281
  239TCM    cl3 1362   2.642   1.711   3.177
  240TCM     c1 1363   0.696   1.613   4.848
  240TCM    cl1 1364   0.670   1.520   4.999
  240TCM    cl2 1365   0.835   1.542   4.759
  240TCM     h1 1366   0.606   1.608   4.786
  240TCM    cl3 1367   0.731   1.784   4.889
  241TCM     c1 1368   2.969   0.843   2.988
  241TCM    cl1 1369   3.143   0.814   3.026
  241TCM    cl2 1370   2.954   0.994   2.893
  241TCM     h1 1371   2.930   0.759   2.931
  241TCM    cl3 1372   2.876   0.861   3.141
  242TCM     c1 1373   3.514   0.600   1.567
  242TCM    cl1 1374   3.679   0.601   1.498
  242TCM    cl2 1375   3.398   0.664   1.445
  242TCM     h1 1376   3.485   0.498   1.594
  242TCM    cl3 1377   3.511   0.703   1.713
  243TCM     c1 1378   0.620   0.356   0.441
  243TCM    cl1 1379   0.668   0.433   0.596
  243TCM    cl2 1380   0.467   0.430   0.385
  243TCM     h1 1381   0.699   0.371   0.367
  243TCM    cl3 1382   0.594   0.180   0.466
  244TCM     c1 1383   0.352   3.807   3.851
  244TCM    cl1 1384   0.405   3.762   4.016
  244TCM    cl2 1385   0.176   3.776   3.834
  244TCM     h1 1386   0.373   3.913   3.833
  244TCM    cl3 1387   0.441   3.706   3.731
  245TCM     c1 1388   0.032   4.214   4.338
  245TCM    cl1 1389   0.188   4.213   4.426
  245TCM    cl2 1390   0.032   4.350   4.221
  245TCM     h1 1391   0.019   4.119   4.285
  245TCM    cl3 1392  -0.103   4.237   4.454
  246TCM     c1 1393   3.726   2.014   0.639
  246TCM    cl1 1394   3.787   2.163   0.720
  246TCM    cl2 1395   3.699   1.887   0.762
  246TCM     h1 1396   3.631   2.036   0.589
  246TCM    cl3 1397   3.846   1.958   0.519
  247TCM     c1 1398   3.108   4.168   3.664
  247TCM    cl1 1399   3.166   4.084   3.517
  247TCM    cl2 1400   3.209   4.313   3.691
  247TCM     h1 1401   3.004   4.198   3.651
  247TCM    cl3 1402   3.121   4.057   3.805
  248TCM     c1 1403   1.962   4.748   3.150
  248TCM    cl1 1404   1.934   4.571   3.166
  248TCM    cl2 1405   2.075   4.780   3.015
  248TCM     h1 1406   1.867   4.798   3.131
  248TCM    cl3 1407   2.034   4.810   3.303
  249TCM     c1 1408   2.395   0.322   2.384
  249TCM    cl1 1409   2.390   0.252   2.550
  249TCM    cl2 1410   2.291   0.468   2.379
  249TCM     h1 1411   2.498   0.349   2.359
  249TCM    cl3 1412   2.334   0.201   2.267
  250TCM     c1 1413   3.233   2.070   4.121
  250TCM    cl1 1414   3.347   2.091   4.258
  250TCM    cl2 1415   3.326   2.050   3.969
  250TCM     h1 1416   3.171   1.982   4.138
  250TCM    cl3 1417   3.130   2.216   4.107
  251TCM     c1 1418   2.975   2.682   0.354
  251TCM    cl1 1419   2.831   2.777   0.305
  251TCM    cl2 1420   3.120   2.788   0.354
  251TCM     h1 1421   2.960   2.642   0.454
  251TCM    cl3 1422   3.000   2.548   0.238
  252TCM     c1 1423   1.332   0.131   4.865
  252TCM    cl1 1424   1.181   0.226   4.879
  252TCM    cl2 1425   1.390   0.087   5.029
  252TCM     h1 1426   1.314   0.041   4.807
  252TCM    cl3 1427   1.457   0.231   4.784
  253TCM     c1 1428   0.947   1.564   1.820
  253TCM    cl1 1429   0.791   1.648   1.791
  253TCM    cl2 1430   0.968   1.535   1.995
  253TCM     h1 1431   0.948   1.468   1.766
  253TCM    cl3 1432   1.082   1.666   1.761
  254TCM     c1 1433   4.963   3.134   0.332
  254TCM    cl1 1434   4.990   2.957   0.345
  254TCM    cl2 1435   4.919   3.202   0.493
  254TCM     h1 1436   5.054   3.182   0.296
  254TCM    cl3 1437   4.829   3.167   0.217
  255TCM     c1 1438   0.513   1.518   3.820
  255TCM    cl1 1439   0.655   1.419   3.866
  255TCM    cl2 1440   0.426   1.570   3.968
  255TCM     h1 1441   0.545   1.605   3.763
  255TCM    cl3 1442   0.403   1.418   3.719
  256TCM     c1 1443   0.822   0.727   0.307
  256TCM    cl1 1444   0.709   0.627   0.209
  256TCM    cl2 1445   0.943   0.620   0.386
  256TCM     h1 1446   0.873   0.799   0.242
  256TCM    cl3 1447   0.729   0.813   0.433
  257TCM     c1 1448   3.510   4.659   4.938
  257TCM    cl1 1449   3.590   4.626   5.095
  257TCM    cl2 1450   3.348   4.582   4.936
  257TCM     h1 1451   3.499   4.767   4.923
  257TCM    cl3 1452   3.608   4.590   4.804
  258TCM     c1 1453   3.171   3.727   3.578
  258TCM    cl1 1454   2.995   3.754   3.602
  258TCM    cl2 1455   3.210   3.729   3.403
  258TCM     h1 1456   3.227   3.806   3.629
  258TCM    cl3 1457   3.216   3.567   3.647
  259TCM     c1 1458   2.804   4.307   3.054
  259TCM    cl1 1459   2.766   4.468   2.986
  259TCM    cl2 1460   2.683   4.265   3.180
  259TCM     h1 1461   2.801   4.232   2.974
  259TCM    cl3 1462   2.967   4.309   3.127
  260TCM     c1 1463   3.359   1.038   2.810
  260TCM    cl1 1464   3.270   1.038   2.654
  260TCM    cl2 1465   3.281   1.154   2.922
  260TCM     h1 1466   3.357   0.938   2.853
  260TCM    cl3 1467   3.528   1.090   2.781
  261TCM     c1 1468   4.559   1.922   0.098
  261TCM    cl1 1469   4.582   1.815   0.241
  261TCM    cl2 1470   4.398   1.891   0.026
  261TCM     h1 1471   4.566   2.027   0.130
  261TCM    cl3 1472   4.688   1.889  -0.023
  262TCM     c1 1473   3.042   2.308   0.564
  262TCM    cl1 1474   3.055   2.200   0.422
  262TCM    cl2 1475   3.166   2.438   0.551
  262TCM     h1 1476   2.942   2.353   0.567
  262TCM    cl3 1477   3.070   2.214   0.714
  263TCM     c1 1478   4.750   4.581   1.124
  263TCM    cl1 1479   4.812   4.413   1.108
  263TCM    cl2 1480   4.800   4.647   1.283
  263TCM     h1 1481   4.790   4.643   1.044
  263TCM    cl3 1482   4.570   4.580   1.115
  264TCM     c1 1483   4.523   0.597   3.212
  264TCM    cl1 1484   4.477   0.425   3.234
  264TCM    cl2 1485   4.379   0.689   3.157
  264TCM     h1 1486   4.559   0.639   3.306
  264TCM    cl3 1487   4.652   0.609   3.088
  265TCM     c1 1488   3.437   2.233   0.389
  265TCM    cl1 1489   3.615   2.256   0.390
  265TCM    cl2 1490   3.400   2.061   0.428
  265TCM     h1 1491   3.391   2.298   0.464
  265TCM    cl3 1492   3.373   2.272   0.227
  266TCM     c1 1493   1.755   0.131   2.889
  266TCM    cl1 1494   1.713  -0.013   2.988
  266TCM    cl2 1495   1.707   0.280   2.974
  266TCM     h1 1496   1.863   0.132   2.872
  266TCM    cl3 1497   1.669   0.123   2.732
  267TCM     c1 1498   1.177   4.605   4.929
  267TCM    cl1 1499   1.265   4.754   4.881
  267TCM    cl2 1500   1.116   4.623   5.096
  267TCM     h1 1501   1.093   4.588   4.861
  267TCM    cl3 1502   1.289   4.464   4.921
  268TCM     c1 1503   4.954   0.069   4.491
  268TCM    cl1 1504   4.815  -0.003   4.405
  268TCM    cl2 1505   5.078  -0.057   4.519
  268TCM     h1 1506   4.997   0.150   4.430
  268TCM    cl3 1507   4.898   0.135   4.648
  269TCM     c1 1508   4.364   4.605   0.166
  269TCM    cl1 1509   4.327   4.482   0.042
  269TCM    cl2 1510   4.236   4.602   0.292
  269TCM     h1 1511   4.460   4.584   0.212
  269TCM    cl3 1512   4.367   4.768   0.090
  270TCM     c1 1513   0.384   2.509   4.014
  270TCM    cl1 1514   0.509   2.503   3.886
  270TCM    cl2 1515   0.459   2.472   4.172
  270TCM     h1 1516   0.340   2.609   4.016
  270TCM    cl3 1517   0.257   2.387   3.979
  271TCM     c1 1518   3.771   1.245   1.763
  271TCM    cl1 1519   3.890   1.218   1.632
  271TCM    cl2 1520   3.718   1.416   1.761
  271TCM     h1 1521   3.685   1.179   1.749
  271TCM    cl3 1522   3.848   1.210   1.921
  272TCM     c1 1523   1.478   4.832   0.287
  272TCM    cl1 1524   1.615   4.824   0.403
  272TCM    cl2 1525   1.324   4.840   0.378
  272TCM     h1 1526   1.489   4.920   0.224
  272TCM    cl3 1527   1.478   4.684   0.185
  273TCM     c1 1528   3.295   0.763   3.931
  273TCM    cl1 1529   3.248   0.789   3.759
  273TCM    cl2 1530   3.457   0.688   3.937
  273TCM     h1 1531   3.297   0.859   3.983
  273TCM    cl3 1532   3.176   0.655   4.010
  274TCM     c1 1533   4.300   3.342   3.294
  274TCM    cl1 1534   4.462   3.375   3.225
  274TCM    cl2 1535   4.232   3.194   3.219
  274TCM     h1 1536   4.309   3.327   3.402
  274TCM    cl3 1537   4.192   3.481   3.261
  275TCM     c1 1538   1.290   0.719   0.534
  275TCM    cl1 1539   1.231   0.817   0.673
  275TCM    cl2 1540   1.422   0.611   0.589
  275TCM     h1 1541   1.208   0.660   0.494
  275TCM    cl3 1542   1.352   0.828   0.406
  276TCM     c1 1543   1.201   1.854   1.155
  276TCM    cl1 1544   1.280   1.703   1.213
  276TCM    cl2 1545   1.157   1.837   0.982
  276TCM     h1 1546   1.110   1.871   1.214
  276TCM    cl3 1547   1.313   1.993   1.175
  277TCM     c1 1548   3.330   2.773   2.394
  277TCM    cl1 1549   3.384   2.822   2.230
  277TCM    cl2 1550   3.394   2.888   2.516
  277TCM     h1 1551   3.221   2.772   2.398
  277TCM    cl3 1552   3.393   2.609   2.429
  278TCM     c1 1553   3.046   3.413   2.698
  278TCM    cl1 1554   2.897   3.489   2.764
  278TCM    cl2 1555   3.045   3.424   2.519
  278TCM     h1 1556   3.134   3.464   2.738
  278TCM    cl3 1557   3.051   3.240   2.747
  279TCM     c1 1558   1.173   0.977   0.063
  279TCM    cl1 1559   1.135   0.812   0.121
  279TCM    cl2 1560   1.146   0.985  -0.114
  279TCM     h1 1561   1.109   1.049   0.113
  279TCM    cl3 1562   1.345   1.015   0.098
  280TCM     c1 1563   2.876   0.179   1.004
  280TCM    cl1 1564   2.941   0.232   1.163
  280TCM    cl2 1565   2.934   0.013   0.970
  280TCM     h1 1566   2.766   0.181   1.006
  280TCM    cl3 1567   2.936   0.290   0.876
  281TCM     c1 1568   1.878   3.462   0.957
  281TCM    cl1 1569   1.897   3.623   1.033
  281TCM    cl2 1570   1.796   3.351   1.072
  281TCM     h1 1571   1.819   3.471   0.865
  281TCM    cl3 1572   2.040   3.395   0.919
  282TCM     c1 1573   2.725   3.705   1.853
  282TCM    cl1 1574   2.879   3.772   1.789
  282TCM    cl2 1575   2.687   3.784   2.009
  282TCM     h1 1576   2.645   3.725   1.781
  282TCM    cl3 1577   2.742   3.528   1.878
  283TCM     c1 1578   4.630   0.343   4.048
  283TCM    cl1 1579   4.703   0.208   4.142
  283TCM    cl2 1580   4.725   0.492   4.075
  283TCM     h1 1581   4.630   0.318   3.942
  283TCM    cl3 1582   4.461   0.369   4.104
  284TCM     c1 1583   4.884   2.777   4.838
  284TCM    cl1 1584   4.970   2.643   4.756
  284TCM    cl2 1585   4.922   2.774   5.014
  284TCM     h1 1586   4.916   2.872   4.796
  284TCM    cl3 1587   4.707   2.759   4.816
  285TCM     c1 1588   0.947   4.770   2.040
  285TCM    cl1 1589   0.787   4.794   1.962
  285TCM    cl2 1590   1.064   4.889   1.974
  285TCM     h1 1591   0.937   4.783   2.148
  285TCM    cl3 1592   1.005   4.604   2.004
  286TCM     c1 1593   0.184   0.167   0.416
  286TCM    cl1 1594   0.005   0.154   0.419
  286TCM    cl2 1595   0.240   0.192   0.247
  286TCM     h1 1596   0.215   0.251   0.478
  286TCM    cl3 1597   0.255   0.015   0.481
  287TCM     c1 1598   4.676   0.400   3.560
  287TCM    cl1 1599   4.687   0.223   3.532
  287TCM    cl2 1600   4.774   0.486   3.437
  287TCM     h1 1601   4.572   0.432   3.553
  287TCM    cl3 1602   4.740   0.439   3.723
  288TCM     c1 1603   3.533   4.893   4.238
  288TCM    cl1 1604   3.433   4.745   4.250
  288TCM    cl2 1605   3.483   5.009   4.366
  288TCM     h1 1606   3.639   4.867   4.252
  288TCM    cl3 1607   3.510   4.969   4.078
  289TCM     c1 1608   1.336   1.902   1.610
  289TCM    cl1 1609   1.456   2.008   1.529
  289TCM    cl2 1610   1.185   1.899   1.513
  289TCM     h1 1611   1.376   1.801   1.617
  289TCM    cl3 1612   1.300   1.965   1.774
  290TCM     c1 1613   0.463   0.222   1.590
  290TCM    cl1 1614   0.323   0.207   1.701
  290TCM    cl2 1615   0.451   0.378   1.501
  290TCM     h1 1616   0.556   0.221   1.648
  290TCM    cl3 1617   0.464   0.086   1.473
  291TCM     c1 1618   3.338   1.462   2.723
  291TCM    cl1 1619   3.179   1.396   2.672
  291TCM    cl2 1620   3.330   1.642   2.723
  291TCM     h1 1621   3.362   1.427   2.824
  291TCM    cl3 1622   3.465   1.406   2.609
  292TCM     c1 1623   3.553   0.121   0.392
  292TCM    cl1 1624   3.550   0.195   0.229
  292TCM    cl2 1625   3.549  -0.058   0.376
  292TCM     h1 1626   3.645   0.151   0.444
  292TCM    cl3 1627   3.410   0.177   0.485
  293TCM     c1 1628   0.644   1.371   2.140
  293TCM    cl1 1629   0.602   1.393   1.967
  293TCM    cl2 1630   0.507   1.293   2.226
  293TCM     h1 1631   0.733   1.308   2.149
  293TCM    cl3 1632   0.677   1.531   2.213
  294TCM     c1 1633   2.783   3.641   1.308
  294TCM    cl1 1634   2.687   3.510   1.233
  294TCM    cl2 1635   2.711   3.685   1.466
  294TCM     h1 1636   2.886   3.608   1.322
  294TCM    cl3 1637   2.781   3.785   1.200
  295TCM     c1 1638   2.384   2.397   4.536
  295TCM    cl1 1639   2.468   2.406   4.378
  295TCM    cl2 1640   2.488   2.309   4.652
  295TCM     h1 1641   2.365   2.499   4.573
  295TCM    cl3 1642   2.229   2.309   4.516
  296TCM     c1 1643   0.551   2.344   0.523
  296TCM    cl1 1644   0.679   2.310   0.644
  296TCM    cl2 1645   0.411   2.421   0.606
  296TCM     h1 1646   0.589   2.412   0.446
  296TCM    cl3 1647   0.498   2.191   0.446
  297TCM     c1 1648   2.561   0.254   1.424
  297TCM    cl1 1649   2.721   0.226   1.501
  297TCM    cl2 1650   2.440   0.149   1.504
  297TCM     h1 1651   2.533   0.359   1.436
  297TCM    cl3 1652   2.570   0.214   1.250
  298TCM     c1 1653   2.340   3.567   4.942
  298TCM    cl1 1654   2.384   3.614   4.774
  298TCM    cl2 1655   2.177   3.491   4.943
  298TCM     h1 1656   2.414   3.496   4.980
  298TCM    cl3 1657   2.339   3.713   5.046
  299TCM     c1 1658   0.248   3.287   4.954
  299TCM    cl1 1659   0.305   3.159   5.066
  299TCM    cl2 1660   0.389   3.362   4.872
  299TCM     h1 1661   0.182   3.243   4.879
  299TCM    cl3 1662   0.160   3.411   5.048
  300TCM     c1 1663   3.823   1.842   1.648
  300TCM    cl1 1664   3.707   1.774   1.767
  300TCM    cl2 1665   3.923   1.966   1.729
  300TCM     h1 1666   3.887   1.763   1.609
  300TCM    cl3 1667   3.732   1.919   1.513
  301TCM     c1 1668   2.234   2.910   2.683
  301TCM    cl1 1669   2.094   3.003   2.621
  301TCM    cl2 1670   2.310   2.818   2.548
  301TCM     h1 1671   2.308   2.978   2.726
  301TCM    cl3 1672   2.179   2.794   2.808
  302TCM     c1 1673   4.569   2.986   0.647
  302TCM    cl1 1674   4.674   2.937   0.511
  302TCM    cl2 1675   4.671   3.038   0.785
  302TCM     h1 1676   4.505   3.069   0.615
  302TCM    cl3 1677   4.468   2.846   0.695
  303TCM     c1 1678   0.396   4.043   1.629
  303TCM    cl1 1679   0.321   3.899   1.706
  303TCM    cl2 1680   0.277   4.121   1.520
  303TCM     h1 1681   0.427   4.114   1.706
  303TCM    cl3 1682   0.540   3.990   1.534
  304TCM     c1 1683   2.945   1.562   3.683
  304TCM    cl1 1684   2.955   1.388   3.725
  304TCM    cl2 1685   3.100   1.643   3.727
  304TCM     h1 1686   2.928   1.573   3.576
  304TCM    cl3 1687   2.810   1.637   3.774
  305TCM     c1 1688   1.204   3.720   2.212
  305TCM    cl1 1689   1.116   3.641   2.077
  305TCM    cl2 1690   1.368   3.769   2.157
  305TCM     h1 1691   1.148   3.809   2.245
  305TCM    cl3 1692   1.219   3.605   2.349
  306TCM     c1 1693   2.906   4.088   2.165
  306TCM    cl1 1694   2.810   4.142   2.023
  306TCM    cl2 1695   3.015   3.955   2.114
  306TCM     h1 1696   2.965   4.172   2.203
  306TCM    cl3 1697   2.797   4.028   2.293
  307TCM     c1 1698   1.516   2.765   2.124
  307TCM    cl1 1699   1.674   2.816   2.192
  307TCM    cl2 1700   1.444   2.900   2.030
  307TCM     h1 1701   1.531   2.679   2.058
  307TCM    cl3 1702   1.406   2.718   2.258
  308TCM     c1 1703   4.719   0.040   4.970
  308TCM    cl1 1704   4.850   0.153   5.020
  308TCM    cl2 1705   4.559   0.118   4.994
  308TCM     h1 1706   4.732   0.013   4.865
  308TCM    cl3 1707   4.727  -0.108   5.071
  309TCM     c1 1708   4.352   4.783   2.441
  309TCM    cl1 1709   4.309   4.956   2.427
  309TCM    cl2 1710   4.220   4.683   2.370
  309TCM     h1 1711   4.445   4.763   2.388
  309TCM    cl3 1712   4.371   4.740   2.615
  310TCM     c1 1713   1.303   0.073   3.054
  310TCM    cl1 1714   1.429   0.097   3.179
  310TCM    cl2 1715   1.304  -0.098   3.000
  310TCM     h1 1716   1.205   0.097   3.096
  310TCM    cl3 1717   1.336   0.180   2.914
  311TCM     c1 1718   3.520   4.898   3.658
  311TCM    cl1 1719   3.649   4.999   3.733
  311TCM    cl2 1720   3.472   4.768   3.771
  311TCM     h1 1721   3.433   4.961   3.634
  311TCM    cl3 1722   3.584   4.824   3.507
  312TCM     c1 1723   3.733   2.077   0.082
  312TCM    cl1 1724   3.750   2.012  -0.084
  312TCM    cl2 1725   3.895   2.121   0.147
  312TCM     h1 1726   3.669   2.166   0.081
  312TCM    cl3 1727   3.660   1.952   0.187
  313TCM     c1 1728   4.555   4.001   2.640
  313TCM    cl1 1729   4.713   4.083   2.656
  313TCM    cl2 1730   4.473   4.059   2.491
  313TCM     h1 1731   4.570   3.893   2.634
  313TCM    cl3 1732   4.452   4.038   2.783
  314TCM     c1 1733   4.801   2.843   2.356
  314TCM    cl1 1734   4.946   2.864   2.460
  314TCM    cl2 1735   4.707   2.995   2.353
  314TCM     h1 1736   4.833   2.817   2.255
  314TCM    cl3 1737   4.699   2.710   2.422
  315TCM     c1 1738   1.566   2.676   0.486
  315TCM    cl1 1739   1.584   2.668   0.665
  315TCM    cl2 1740   1.709   2.602   0.407
  315TCM     h1 1741   1.476   2.623   0.456
  315TCM    cl3 1742   1.553   2.848   0.436
  316TCM     c1 1743   0.935   1.800   3.818
  316TCM    cl1 1744   0.997   1.661   3.913
  316TCM    cl2 1745   0.958   1.951   3.912
  316TCM     h1 1746   0.990   1.807   3.724
  316TCM    cl3 1747   0.760   1.777   3.784
  317TCM     c1 1748   4.239   3.470   1.351
  317TCM    cl1 1749   4.401   3.527   1.403
  317TCM    cl2 1750   4.150   3.606   1.276
  317TCM     h1 1751   4.250   3.389   1.279
  317TCM    cl3 1752   4.148   3.410   1.494
  318TCM     c1 1753   0.377   4.925   2.122
  318TCM    cl1 1754   0.432   4.916   1.951
  318TCM    cl2 1755   0.519   4.942   2.230
  318TCM     h1 1756   0.310   5.011   2.134
  318TCM    cl3 1757   0.287   4.775   2.165
  319TCM     c1 1758   1.126   2.319   1.633
  319TCM    cl1 1759   1.237   2.295   1.494
  319TCM    cl2 1760   1.221   2.319   1.785
  319TCM     h1 1761   1.074   2.415   1.622
  319TCM    cl3 1762   1.005   2.187   1.636
  320TCM     c1 1763   0.732   2.219   4.147
  320TCM    cl1 1764   0.909   2.248   4.140
  320TCM    cl2 1765   0.698   2.082   4.259
  320TCM     h1 1766   0.682   2.309   4.184
  320TCM    cl3 1767   0.670   2.178   3.984
  321TCM     c1 1768   0.944   0.577   4.856
  321TCM    cl1 1769   0.856   0.730   4.888
  321TCM    cl2 1770   0.977   0.493   5.011
  321TCM     h1 1771   0.883   0.513   4.791
  321TCM    cl3 1772   1.099   0.614   4.774
  322TCM     c1 1773   3.321   2.872   0.835
  322TCM    cl1 1774   3.321   2.776   0.987
  322TCM    cl2 1775   3.196   3.000   0.849
  322TCM     h1 1776   3.419   2.918   0.820
  322TCM    cl3 1777   3.282   2.764   0.698
  323TCM     c1 1778   3.557   4.774   3.032
  323TCM    cl1 1779   3.567   4.910   3.148
  323TCM    cl2 1780   3.395   4.774   2.955
  323TCM     h1 1781   3.634   4.784   2.956
  323TCM    cl3 1782   3.580   4.619   3.120
  324TCM     c1 1783   4.471   3.235   0.181
  324TCM    cl1 1784   4.307   3.196   0.118
  324TCM    cl2 1785   4.472   3.220   0.360
  324TCM     h1 1786   4.544   3.166   0.138
  324TCM    cl3 1787   4.514   3.403   0.135
  325TCM     c1 1788   4.486   2.781   2.719
  325TCM    cl1 1789   4.614   2.904   2.741
  325TCM    cl2 1790   4.344   2.824   2.821
  325TCM     h1 1791   4.456   2.778   2.614
  325TCM    cl3 1792   4.548   2.620   2.768
  326TCM     c1 1793   2.091   4.341   3.416
  326TCM    cl1 1794   2.173   4.199   3.491
  326TCM    cl2 1795   2.203   4.481   3.410
  326TCM     h1 1796   2.060   4.315   3.314
  326TCM    cl3 1797   1.948   4.385   3.514
  327TCM     c1 1798   3.463   2.355   0.828
  327TCM    cl1 1799   3.316   2.422   0.906
  327TCM    cl2 1800   3.512   2.461   0.691
  327TCM     h1 1801   3.545   2.349   0.900
  327TCM    cl3 1802   3.428   2.191   0.765
  328TCM     c1 1803   2.195   1.852   2.538
  328TCM    cl1 1804   2.154   1.952   2.682
  328TCM    cl2 1805   2.362   1.787   2.555
  328TCM     h1 1806   2.125   1.769   2.530
  328TCM    cl3 1807   2.186   1.953   2.390
  329TCM     c1 1808   2.880   2.438   3.261
  329TCM    cl1 1809   2.818   2.603   3.291
  329TCM    cl2 1810   2.772   2.355   3.143
  329TCM     h1 1811   2.981   2.443   3.220
  329TCM    cl3 1812   2.881   2.346   3.415
  330TCM     c1 1813   0.151   1.870   1.586
  330TCM    cl1 1814   0.103   1.932   1.425
  330TCM    cl2 1815   0.040   1.739   1.636
  330TCM     h1 1816   0.254   1.832   1.582
  330TCM    cl3 1817   0.142   2.004   1.706
  331TCM     c1 1818   1.678   1.100   3.318
  331TCM    cl1 1819   1.505   1.064   3.353
  331TCM    cl2 1820   1.759   1.154   3.468
  331TCM     h1 1821   1.727   1.009   3.280
  331TCM    cl3 1822   1.688   1.229   3.193
  332TCM     c1 1823   3.317   4.243   2.174
  332TCM    cl1 1824   3.297   4.119   2.302
  332TCM    cl2 1825   3.184   4.363   2.186
  332TCM     h1 1826   3.414   4.293   2.186
  332TCM    cl3 1827   3.310   4.163   2.013
  333TCM     c1 1828   1.948   3.606   0.436
  333TCM    cl1 1829   2.089   3.554   0.337
  333TCM    cl2 1830   1.977   3.772   0.498
  333TCM     h1 1831   1.858   3.605   0.374
  333TCM    cl3 1832   1.926   3.493   0.574
  334TCM     c1 1833   4.759   1.798   2.766
  334TCM    cl1 1834   4.920   1.875   2.751
  334TCM    cl2 1835   4.676   1.803   2.606
  334TCM     h1 1836   4.770   1.694   2.798
  334TCM    cl3 1837   4.661   1.888   2.886
  335TCM     c1 1838   2.406   3.751   1.159
  335TCM    cl1 1839   2.433   3.861   1.298
  335TCM    cl2 1840   2.471   3.825   1.009
  335TCM     h1 1841   2.456   3.656   1.178
  335TCM    cl3 1842   2.230   3.724   1.140
  336TCM     c1 1843   0.927   4.912   4.501
  336TCM    cl1 1844   1.025   4.976   4.637
  336TCM    cl2 1845   0.752   4.920   4.543
  336TCM     h1 1846   0.945   4.972   4.411
  336TCM    cl3 1847   0.972   4.742   4.469
  337TCM     c1 1848   3.493   3.178   3.587
  337TCM    cl1 1849   3.452   3.073   3.726
  337TCM    cl2 1850   3.451   3.094   3.434
  337TCM     h1 1851   3.436   3.272   3.595
  337TCM    cl3 1852   3.669   3.213   3.588
  338TCM     c1 1853   3.468   3.870   1.226
  338TCM    cl1 1854   3.535   3.900   1.062
  338TCM    cl2 1855   3.597   3.896   1.349
  338TCM     h1 1856   3.385   3.938   1.245
  338TCM    cl3 1857   3.411   3.700   1.236
  339TCM     c1 1858   2.451   0.943   3.767
  339TCM    cl1 1859   2.378   1.041   3.898
  339TCM    cl2 1860   2.457   1.041   3.617
  339TCM     h1 1861   2.552   0.914   3.796
  339TCM    cl3 1862   2.352   0.796   3.739
  340TCM     c1 1863   2.116   3.329   4.566
  340TCM    cl1 1864   1.977   3.260   4.657
  340TCM    cl2 1865   2.269   3.279   4.645
  340TCM     h1 1866   2.114   3.292   4.463
  340TCM    cl3 1867   2.104   3.508   4.566
  341TCM     c1 1868   4.106   3.791   3.063
  341TCM    cl1 1869   4.148   3.805   2.889
  341TCM    cl2 1870   3.938   3.731   3.080
  341TCM     h1 1871   4.175   3.722   3.112
  341TCM    cl3 1872   4.119   3.953   3.140
  342TCM     c1 1873   2.396   0.076   4.588
  342TCM    cl1 1874   2.546   0.038   4.679
  342TCM    cl2 1875   2.438   0.142   4.426
  342TCM     h1 1876   2.336  -0.015   4.576
  342TCM    cl3 1877   2.302   0.198   4.680
  343TCM     c1 1878   3.171   1.830   4.715
  343TCM    cl1 1879   3.121   1.677   4.637
  343TCM    cl2 1880   3.026   1.918   4.774
  343TCM     h1 1881   3.238   1.809   4.799
  343TCM    cl3 1882   3.256   1.933   4.595
  344TCM     c1 1883   0.463   0.569   3.817
  344TCM    cl1 1884   0.366   0.692   3.905
  344TCM    cl2 1885   0.357   0.479   3.704
  344TCM     h1 1886   0.543   0.618   3.761
  344TCM    cl3 1887   0.534   0.453   3.935
  345TCM     c1 1888   3.384   0.925   2.006
  345TCM    cl1 1889   3.495   1.026   1.908
  345TCM    cl2 1890   3.478   0.793   2.084
  345TCM     h1 1891   3.336   0.987   2.083
  345TCM    cl3 1892   3.259   0.852   1.900
  346TCM     c1 1893   2.877   0.086   2.616
  346TCM    cl1 1894   3.040   0.161   2.631
  346TCM    cl2 1895   2.881  -0.038   2.487
  346TCM     h1 1896   2.849   0.039   2.711
  346TCM    cl3 1897   2.757   0.213   2.574
  347TCM     c1 1898   2.509   4.304   2.321
  347TCM    cl1 1899   2.505   4.190   2.459
  347TCM    cl2 1900   2.482   4.214   2.169
  347TCM     h1 1901   2.431   4.380   2.334
  347TCM    cl3 1902   2.670   4.384   2.316
  348TCM     c1 1903   0.728   0.922   2.243
  348TCM    cl1 1904   0.890   0.858   2.203
  348TCM    cl2 1905   0.644   0.971   2.092
  348TCM     h1 1906   0.669   0.845   2.295
  348TCM    cl3 1907   0.747   1.065   2.350
  349TCM     c1 1908   2.370   4.346   3.014
  349TCM    cl1 1909   2.225   4.428   2.947
  349TCM    cl2 1910   2.449   4.249   2.884
  349TCM     h1 1911   2.440   4.420   3.051
  349TCM    cl3 1912   2.320   4.237   3.148
  350TCM     c1 1913   4.170   2.004   4.749
  350TCM    cl1 1914   4.309   2.050   4.645
  350TCM    cl2 1915   4.029   1.961   4.646
  350TCM     h1 1916   4.197   1.918   4.810
  350TCM    cl3 1917   4.126   2.141   4.855
  351TCM     c1 1918   0.343   0.501   0.048
  351TCM    cl1 1919   0.346   0.667   0.116
  351TCM    cl2 1920   0.472   0.485  -0.076
  351TCM     h1 1921   0.359   0.428   0.128
  351TCM    cl3 1922   0.184   0.473  -0.029
  352TCM     c1 1923   3.503   3.596   0.114
  352TCM    cl1 1924   3.621   3.569  -0.018
  352TCM    cl2 1925   3.528   3.473   0.242
  352TCM     h1 1926   3.518   3.696   0.156
  352TCM    cl3 1927   3.337   3.582   0.048
  353TCM     c1 1928   2.096   2.301   2.550
  353TCM    cl1 1929   2.052   2.292   2.376
  353TCM    cl2 1930   1.947   2.285   2.649
  353TCM     h1 1931   2.165   2.220   2.574
  353TCM    cl3 1932   2.175   2.459   2.582
  354TCM     c1 1933   1.947   4.020   1.340
  354TCM    cl1 1934   1.937   4.199   1.341
  354TCM    cl2 1935   2.088   3.967   1.438
  354TCM     h1 1936   1.855   3.978   1.382
  354TCM    cl3 1937   1.968   3.963   1.172
  355TCM     c1 1938   4.151   3.534   1.840
  355TCM    cl1 1939   4.175   3.374   1.917
  355TCM    cl2 1940   4.308   3.592   1.775
  355TCM     h1 1941   4.079   3.524   1.758
  355TCM    cl3 1942   4.089   3.651   1.960
  356TCM     c1 1943   2.489   4.526   0.401
  356TCM    cl1 1944   2.389   4.396   0.474
  356TCM    cl2 1945   2.657   4.516   0.464
  356TCM     h1 1946   2.491   4.514   0.292
  356TCM    cl3 1947   2.420   4.686   0.443
  357TCM     c1 1948   2.887   2.251   4.489
  357TCM    cl1 1949   2.793   2.099   4.492
  357TCM    cl2 1950   2.841   2.348   4.345
  357TCM     h1 1951   2.868   2.309   4.579
  357TCM    cl3 1952   3.062   2.212   4.480
  358TCM     c1 1953   1.582   3.147   2.482
  358TCM    cl1 1954   1.722   3.040   2.514
  358TCM    cl2 1955   1.482   3.161   2.631
  358TCM     h1 1956   1.617   3.246   2.452
  358TCM    cl3 1957   1.482   3.076   2.352
  359TCM     c1 1958   0.773   4.256   4.780
  359TCM    cl1 1959   0.763   4.337   4.939
  359TCM    cl2 1960   0.932   4.173   4.766
  359TCM     h1 1961   0.693   4.182   4.771
  359TCM    cl3 1962   0.757   4.377   4.648
  360TCM     c1 1963   0.330   2.380   1.542
  360TCM    cl1 1964   0.254   2.364   1.704
  360TCM    cl2 1965   0.233   2.493   1.443
  360TCM     h1 1966   0.432   2.419   1.553
  360TCM    cl3 1967   0.335   2.220   1.463
  361TCM     c1 1968   4.560   0.907   3.986
  361TCM    cl1 1969   4.642   1.043   4.069
  361TCM    cl2 1970   4.508   0.786   4.108
  361TCM     h1 1971   4.473   0.944   3.931
  361TCM    cl3 1972   4.674   0.830   3.870
  362TCM     c1 1973   4.180   1.220   0.284
  362TCM    cl1 1974   4.177   1.062   0.200
  362TCM    cl2 1975   4.190   1.193   0.461
  362TCM     h1 1976   4.266   1.278   0.250
  362TCM    cl3 1977   4.029   1.310   0.246
  363TCM     c1 1978   1.989   1.569   3.703
  363TCM    cl1 1979   1.955   1.745   3.712
  363TCM    cl2 1980   1.946   1.507   3.540
  363TCM     h1 1981   2.095   1.551   3.723
  363TCM    cl3 1982   1.890   1.483   3.826
  364TCM     c1 1983   0.419   1.706   1.829
  364TCM    cl1 1984   0.267   1.740   1.918
  364TCM    cl2 1985   0.481   1.858   1.757
  364TCM     h1 1986   0.494   1.665   1.898
  364TCM    cl3 1987   0.386   1.588   1.698
  365TCM     c1 1988   1.566   0.375   3.465
  365TCM    cl1 1989   1.403   0.447   3.482
  365TCM    cl2 1990   1.682   0.463   3.570
  365TCM     h1 1991   1.564   0.269   3.493
  365TCM    cl3 1992   1.617   0.388   3.293
  366TCM     c1 1993   2.171   4.036   0.892
  366TCM    cl1 1994   2.326   4.094   0.821
  366TCM    cl2 1995   2.120   3.886   0.808
  366TCM     h1 1996   2.184   4.016   0.998
  366TCM    cl3 1997   2.045   4.162   0.869
  367TCM     c1 1998   3.387   1.732   4.329
  367TCM    cl1 1999   3.217   1.742   4.273
  367TCM    cl2 2000   3.496   1.745   4.187
  367TCM     h1 2001   3.408   1.814   4.398
  367TCM    cl3 2002   3.414   1.575   4.411
  368TCM     c1 2003   2.292   3.471   4.138
  368TCM    cl1 2004   2.261   3.317   4.224
  368TCM    cl2 2005   2.209   3.605   4.223
  368TCM     h1 2006   2.399   3.490   4.135
  368TCM    cl3 2007   2.230   3.460   3.969
  369TCM     c1 2008   3.023   0.271   4.785
  369TCM    cl1 2009   2.894   0.153   4.745
  369TCM    cl2 2010   2.958   0.394   4.899
  369TCM     h1 2011   3.107   0.219   4.831
  369TCM    cl3 2012   3.079   0.352   4.635
  370TCM     c1 2013   2.930   2.561   2.438
  370TCM    cl1 2014   3.054   2.595   2.564
  370TCM    cl2 2015   2.986   2.628   2.282
  370TCM     h1 2016   2.916   2.453   2.429
  370TCM    cl3 2017   2.775   2.638   2.485
  371TCM     c1 2018   4.793   4.111   0.489
  371TCM    cl1 2019   4.922   4.032   0.585
  371TCM    cl2 2020   4.774   4.280   0.545
  371TCM     h1 2021   4.820   4.111   0.383
  371TCM    cl3 2022   4.639   4.023   0.512
  372TCM     c1 2023   2.070   2.503   4.248
  372TCM    cl1 2024   1.924   2.575   4.171
  372TCM    cl2 2025   2.159   2.631   4.338
  372TCM     h1 2026   2.040   2.424   4.317
  372TCM    cl3 2027   2.176   2.434   4.121
  373TCM     c1 2028   2.477   3.910   4.310
  373TCM    cl1 2029   2.458   4.073   4.238
  373TCM    cl2 2030   2.377   3.898   4.458
  373TCM     h1 2031   2.444   3.835   4.238
  373TCM    cl3 2032   2.649   3.882   4.349
  374TCM     c1 2033   4.560   0.152   2.600
  374TCM    cl1 2034   4.597   0.233   2.444
  374TCM    cl2 2035   4.625   0.250   2.736
  374TCM     h1 2036   4.452   0.141   2.611
  374TCM    cl3 2037   4.637  -0.011   2.602
  375TCM     c1 2038   1.955   3.556   2.027
  375TCM    cl1 2039   2.067   3.430   1.966
  375TCM    cl2 2040   2.049   3.680   2.116
  375TCM     h1 2041   1.902   3.602   1.944
  375TCM    cl3 2042   1.837   3.480   2.139
  376TCM     c1 2043   3.289   0.322   0.975
  376TCM    cl1 2044   3.367   0.385   1.124
  376TCM    cl2 2045   3.291   0.143   0.978
  376TCM     h1 2046   3.186   0.358   0.970
  376TCM    cl3 2047   3.381   0.381   0.832
  377TCM     c1 2048   0.051   3.659   3.123
  377TCM    cl1 2049   0.062   3.675   2.945
  377TCM    cl2 2050  -0.034   3.506   3.164
  377TCM     h1 2051   0.151   3.658   3.166
  377TCM    cl3 2052  -0.042   3.797   3.189
  378TCM     c1 2053   2.918   2.628   4.721
  378TCM    cl1 2054   2.912   2.638   4.900
  378TCM    cl2 2055   2.762   2.564   4.660
  378TCM     h1 2056   2.936   2.728   4.679
  378TCM    cl3 2057   3.051   2.517   4.674
  379TCM     c1 2058   1.897   0.317   0.612
  379TCM    cl1 2059   1.976   0.435   0.721
  379TCM    cl2 2060   2.020   0.237   0.510
  379TCM     h1 2061   1.845   0.241   0.672
  379TCM    cl3 2062   1.779   0.401   0.507
  380TCM     c1 2063   2.800   0.263   2.169
  380TCM    cl1 2064   2.686   0.133   2.218
  380TCM    cl2 2065   2.950   0.251   2.267
  380TCM     h1 2066   2.824   0.253   2.063
  380TCM    cl3 2067   2.723   0.422   2.199
  381TCM     c1 2068   1.762   3.553   4.701
  381TCM    cl1 2069   1.734   3.580   4.526
  381TCM    cl2 2070   1.638   3.439   4.763
  381TCM     h1 2071   1.862   3.511   4.716
  381TCM    cl3 2072   1.750   3.709   4.788
  382TCM     c1 2073   0.706   2.635   0.828
  382TCM    cl1 2074   0.808   2.782   0.829
  382TCM    cl2 2075   0.539   2.676   0.877
  382TCM     h1 2076   0.705   2.592   0.727
  382TCM    cl3 2077   0.775   2.517   0.944
  383TCM     c1 2078   2.797   0.138   3.271
  383TCM    cl1 2079   2.901   0.248   3.174
  383TCM    cl2 2080   2.896   0.003   3.336
  383TCM     h1 2081   2.752   0.193   3.353
  383TCM    cl3 2082   2.669   0.071   3.165
  384TCM     c1 2083   1.977   3.031   0.946
  384TCM    cl1 2084   2.079   3.032   0.799
  384TCM    cl2 2085   2.019   2.888   1.046
  384TCM     h1 2086   1.994   3.122   1.004
  384TCM    cl3 2087   1.804   3.021   0.898
  385TCM     c1 2088   3.172   0.084   4.172
  385TCM    cl1 2089   3.076   0.203   4.078
  385TCM    cl2 2090   3.150  -0.079   4.100
  385TCM     h1 2091   3.277   0.111   4.168
  385TCM    cl3 2092   3.117   0.082   4.343
  386TCM     c1 2093   0.116   0.490   4.149
  386TCM    cl1 2094   0.289   0.475   4.197
  386TCM    cl2 2095   0.020   0.371   4.243
  386TCM     h1 2096   0.081   0.591   4.171
  386TCM    cl3 2097   0.097   0.455   3.975
  387TCM     c1 2098   2.428   2.408   3.817
  387TCM    cl1 2099   2.564   2.503   3.887
  387TCM    cl2 2100   2.493   2.257   3.745
  387TCM     h1 2101   2.356   2.384   3.896
  387TCM    cl3 2102   2.348   2.506   3.690
  388TCM     c1 2103   0.811   1.193   0.007
  388TCM    cl1 2104   0.781   1.142  -0.163
  388TCM    cl2 2105   0.966   1.283   0.015
  388TCM     h1 2106   0.730   1.257   0.041
  388TCM    cl3 2107   0.821   1.048   0.112
  389TCM     c1 2108   4.875   3.025   1.976
  389TCM    cl1 2109   4.748   2.899   1.985
  389TCM    cl2 2110   5.005   2.987   2.093
  389TCM     h1 2111   4.916   3.029   1.875
  389TCM    cl3 2112   4.802   3.184   2.017
  390TCM     c1 2113   2.950   3.177   0.531
  390TCM    cl1 2114   2.914   3.128   0.362
  390TCM    cl2 2115   2.874   3.336   0.566
  390TCM     h1 2116   2.911   3.102   0.600
  390TCM    cl3 2117   3.128   3.188   0.551
  391TCM     c1 2118   2.765   4.549   1.398
  391TCM    cl1 2119   2.593   4.552   1.448
  391TCM    cl2 2120   2.798   4.397   1.309
  391TCM     h1 2121   2.787   4.635   1.335
  391TCM    cl3 2122   2.869   4.555   1.545
  392TCM     c1 2123   2.733   3.798   4.778
  392TCM    cl1 2124   2.733   3.685   4.639
  392TCM    cl2 2125   2.701   3.706   4.929
  392TCM     h1 2126   2.831   3.847   4.785
  392TCM    cl3 2127   2.605   3.922   4.755
  393TCM     c1 2128   3.944   3.940   2.517
  393TCM    cl1 2129   4.101   4.015   2.562
  393TCM    cl2 2130   3.878   3.848   2.656
  393TCM     h1 2131   3.873   4.018   2.488
  393TCM    cl3 2132   3.970   3.827   2.379
  394TCM     c1 2133   2.382   1.377   2.385
  394TCM    cl1 2134   2.384   1.377   2.564
  394TCM    cl2 2135   2.541   1.430   2.323
  394TCM     h1 2136   2.360   1.276   2.348
  394TCM    cl3 2137   2.255   1.491   2.328
  395TCM     c1 2138   0.050   2.283   0.609
  395TCM    cl1 2139  -0.047   2.153   0.532
  395TCM    cl2 2140  -0.026   2.329   0.765
  395TCM     h1 2141   0.152   2.248   0.626
  395TCM    cl3 2142   0.051   2.424   0.498
  396TCM     c1 2143   4.131   0.418   3.106
  396TCM    cl1 2144   4.097   0.471   3.274
  396TCM    cl2 2145   4.052   0.531   2.991
  396TCM     h1 2146   4.239   0.417   3.088
  396TCM    cl3 2147   4.066   0.253   3.081
  397TCM     c1 2148   4.904   2.253   0.170
  397TCM    cl1 2149   4.926   2.164   0.016
  397TCM    cl2 2150   4.735   2.233   0.227
  397TCM     h1 2151   4.973   2.214   0.245
  397TCM    cl3 2152   4.938   2.427   0.140
  398TCM     c1 2153   3.607   0.848   1.232
  398TCM    cl1 2154   3.460   0.946   1.201
  398TCM    cl2 2155   3.753   0.947   1.196
  398TCM     h1 2156   3.609   0.818   1.337
  398TCM    cl3 2157   3.605   0.702   1.127
  399TCM     c1 2158   2.743   4.322   4.612
  399TCM    cl1 2159   2.679   4.487   4.584
  399TCM    cl2 2160   2.662   4.206   4.502
  399TCM     h1 2161   2.851   4.321   4.592
  399TCM    cl3 2162   2.713   4.274   4.782
  400TCM     c1 2163   1.390   0.233   0.582
  400TCM    cl1 2164   1.512   0.267   0.709
  400TCM    cl2 2165   1.286   0.097   0.634
  400TCM     h1 2166   1.328   0.322   0.566
  400TCM    cl3 2167   1.473   0.189   0.429
  401TCM     c1 2168   1.500   3.148   4.606
  401TCM    cl1 2169   1.576   3.054   4.739
  401TCM    cl2 2170   1.375   3.048   4.526
  401TCM     h1 2171   1.455   3.239   4.647
  401TCM    cl3 2172   1.626   3.193   4.485
  402TCM     c1 2173   1.407   2.174   2.080
  402TCM    cl1 2174   1.394   2.348   2.123
  402TCM    cl2 2175   1.406   2.076   2.231
  402TCM     h1 2176   1.323   2.146   2.017
  402TCM    cl3 2177   1.560   2.145   1.992
  403TCM     c1 2178   1.153   1.157   0.460
  403TCM    cl1 2179   1.087   1.237   0.606
  403TCM    cl2 2180   1.164   1.276   0.326
  403TCM     h1 2181   1.252   1.117   0.481
  403TCM    cl3 2182   1.044   1.024   0.410
  404TCM     c1 2183   0.795   0.241   3.073
  404TCM    cl1 2184   0.947   0.182   2.999
  404TCM    cl2 2185   0.829   0.296   3.241
  404TCM     h1 2186   0.755   0.325   3.014
  404TCM    cl3 2187   0.675   0.108   3.079
  405TCM     c1 2188   2.645   3.491   0.292
  405TCM    cl1 2189   2.689   3.665   0.296
  405TCM    cl2 2190   2.726   3.411   0.154
  405TCM     h1 2191   2.676   3.443   0.385
  405TCM    cl3 2192   2.468   3.475   0.271
  406TCM     c1 2193   0.285   1.927   0.703
  406TCM    cl1 2194   0.438   2.009   0.747
  406TCM    cl2 2195   0.249   1.954   0.530
  406TCM     h1 2196   0.294   1.820   0.722
  406TCM    cl3 2197   0.151   1.993   0.802
  407TCM     c1 2198   3.226   4.513   4.026
  407TCM    cl1 2199   3.162   4.606   3.887
  407TCM    cl2 2200   3.397   4.469   3.994
  407TCM     h1 2201   3.220   4.573   4.116
  407TCM    cl3 2202   3.131   4.362   4.047
  408TCM     c1 2203   0.206   3.240   3.211
  408TCM    cl1 2204   0.116   3.133   3.099
  408TCM    cl2 2205   0.311   3.351   3.116
  408TCM     h1 2206   0.135   3.299   3.270
  408TCM    cl3 2207   0.307   3.141   3.321
  409TCM     c1 2208   2.827   0.608   1.911
  409TCM    cl1 2209   2.932   0.727   1.827
  409TCM    cl2 2210   2.843   0.448   1.832
  409TCM     h1 2211   2.856   0.601   2.016
  409TCM    cl3 2212   2.656   0.663   1.900
  410TCM     c1 2213   4.755   4.670   4.227
  410TCM    cl1 2214   4.801   4.796   4.107
  410TCM    cl2 2215   4.726   4.515   4.142
  410TCM     h1 2216   4.835   4.658   4.300
  410TCM    cl3 2217   4.603   4.722   4.309
  411TCM     c1 2218   3.811   0.820   1.933
  411TCM    cl1 2219   3.798   0.641   1.939
  411TCM    cl2 2220   3.844   0.871   1.764
  411TCM     h1 2221   3.717   0.864   1.967
  411TCM    cl3 2222   3.945   0.874   2.040
  412TCM     c1 2223   2.493   4.813   2.300
  412TCM    cl1 2224   2.506   4.913   2.449
  412TCM    cl2 2225   2.390   4.670   2.335
  412TCM     h1 2226   2.449   4.872   2.220
  412TCM    cl3 2227   2.656   4.756   2.252
  413TCM     c1 2228   2.091   2.646   0.767
  413TCM    cl1 2229   1.943   2.697   0.680
  413TCM    cl2 2230   2.228   2.641   0.652
  413TCM     h1 2231   2.113   2.718   0.847
  413TCM    cl3 2232   2.067   2.483   0.838
  414TCM     c1 2233   2.142   4.380   0.162
  414TCM    cl1 2234   2.010   4.380   0.283
  414TCM    cl2 2235   2.224   4.539   0.164
  414TCM     h1 2236   2.214   4.301   0.187
  414TCM    cl3 2237   2.075   4.350  -0.001
  415TCM     c1 2238   3.578   1.080   2.365
  415TCM    cl1 2239   3.678   1.064   2.217
  415TCM    cl2 2240   3.585   0.926   2.457
  415TCM     h1 2241   3.617   1.162   2.427
  415TCM    cl3 2242   3.408   1.114   2.319
  416TCM     c1 2243   3.349   3.910   0.558
  416TCM    cl1 2244   3.370   3.847   0.391
  416TCM    cl2 2245   3.419   3.793   0.674
  416TCM     h1 2246   3.400   4.006   0.568
  416TCM    cl3 2247   3.174   3.931   0.593
  417TCM     c1 2248   1.670   3.904   1.781
  417TCM    cl1 2249   1.762   3.851   1.926
  417TCM    cl2 2250   1.785   3.945   1.649
  417TCM     h1 2251   1.604   3.823   1.748
  417TCM    cl3 2252   1.572   4.049   1.822
  418TCM     c1 2253   4.917   2.670   2.954
  418TCM    cl1 2254   5.081   2.722   3.006
  418TCM    cl2 2255   4.896   2.495   2.987
  418TCM     h1 2256   4.841   2.727   3.008
  418TCM    cl3 2257   4.900   2.700   2.778
  419TCM     c1 2258   1.559   1.030   2.278
  419TCM    cl1 2259   1.569   1.163   2.158
  419TCM    cl2 2260   1.432   0.913   2.228
  419TCM     h1 2261   1.656   0.979   2.284
  419TCM    cl3 2262   1.517   1.099   2.439
  420TCM     c1 2263   1.024   4.120   0.253
  420TCM    cl1 2264   1.069   4.249   0.137
  420TCM    cl2 2265   1.160   4.087   0.365
  420TCM     h1 2266   0.937   4.151   0.310
  420TCM    cl3 2267   0.985   3.970   0.162
  421TCM     c1 2268   2.938   2.744   0.821
  421TCM    cl1 2269   2.922   2.832   0.665
  421TCM    cl2 2270   2.927   2.568   0.790
  421TCM     h1 2271   3.034   2.768   0.866
  421TCM    cl3 2272   2.806   2.795   0.931
  422TCM     c1 2273   0.730   1.924   2.461
  422TCM    cl1 2274   0.781   2.020   2.604
  422TCM    cl2 2275   0.552   1.910   2.461
  422TCM     h1 2276   0.764   1.974   2.370
  422TCM    cl3 2277   0.802   1.760   2.471
  423TCM     c1 2278   2.595   0.544   4.656
  423TCM    cl1 2279   2.488   0.488   4.524
  423TCM    cl2 2280   2.758   0.580   4.590
  423TCM     h1 2281   2.554   0.635   4.701
  423TCM    cl3 2282   2.608   0.415   4.780
  424TCM     c1 2283   0.363   4.214   3.984
  424TCM    cl1 2284   0.376   4.356   4.093
  424TCM    cl2 2285   0.232   4.106   4.040
  424TCM     h1 2286   0.341   4.248   3.882
  424TCM    cl3 2287   0.518   4.124   3.984
  425TCM     c1 2288   0.035   3.873   1.309
  425TCM    cl1 2289   0.025   3.822   1.480
  425TCM    cl2 2290   0.208   3.884   1.261
  425TCM     h1 2291  -0.015   3.799   1.245
  425TCM    cl3 2292  -0.042   4.033   1.289
  426TCM     c1 2293   2.497   2.449   4.991
  426TCM    cl1 2294   2.421   2.575   4.889
  426TCM    cl2 2295   2.376   2.385   5.107
  426TCM     h1 2296   2.533   2.368   4.928
  426TCM    cl3 2297   2.634   2.520   5.082
  427TCM     c1 2298   3.193   2.230   2.334
  427TCM    cl1 2299   3.260   2.343   2.212
  427TCM    cl2 2300   3.016   2.218   2.315
  427TCM     h1 2301   3.238   2.131   2.321
  427TCM    cl3 2302   3.230   2.291   2.498
  428TCM     c1 2303   4.091   1.187   4.768
  428TCM    cl1 2304   4.102   1.317   4.891
  428TCM    cl2 2305   4.156   1.035   4.836
  428TCM     h1 2306   3.987   1.173   4.739
  428TCM    cl3 2307   4.188   1.234   4.624
  429TCM     c1 2308   0.874   1.771   4.321
  429TCM    cl1 2309   0.925   1.618   4.401
  429TCM    cl2 2310   0.767   1.733   4.182
  429TCM     h1 2311   0.820   1.833   4.393
  429TCM    cl3 2312   1.020   1.859   4.264
  430TCM     c1 2313   0.299   0.325   2.140
  430TCM    cl1 2314   0.447   0.274   2.052
  430TCM    cl2 2315   0.291   0.238   2.297
  430TCM     h1 2316   0.301   0.433   2.157
  430TCM    cl3 2317   0.155   0.281   2.043
  431TCM     c1 2318   3.717   0.361   1.038
  431TCM    cl1 2319   3.734   0.360   1.217
  431TCM    cl2 2320   3.665   0.199   0.982
  431TCM     h1 2321   3.643   0.436   1.008
  431TCM    cl3 2322   3.875   0.400   0.963
  432TCM     c1 2323   2.981   1.988   3.557
  432TCM    cl1 2324   3.160   1.999   3.567
  432TCM    cl2 2325   2.913   1.989   3.722
  432TCM     h1 2326   2.942   2.074   3.501
  432TCM    cl3 2327   2.935   1.837   3.472
  433TCM     c1 2328   3.536   2.702   3.695
  433TCM    cl1 2329   3.676   2.798   3.639
  433TCM    cl2 2330   3.577   2.527   3.690
  433TCM     h1 2331   3.511   2.730   3.798
  433TCM    cl3 2332   3.395   2.733   3.589
  434TCM     c1 2333   3.118   4.239   1.719
  434TCM    cl1 2334   3.028   4.363   1.813
  434TCM    cl2 2335   3.082   4.258   1.544
  434TCM     h1 2336   3.225   4.250   1.736
  434TCM    cl3 2337   3.065   4.076   1.771
  435TCM     c1 2338   0.438   1.169   4.039
  435TCM    cl1 2339   0.472   1.076   4.188
  435TCM    cl2 2340   0.270   1.233   4.045
  435TCM     h1 2341   0.509   1.253   4.031
  435TCM    cl3 2342   0.455   1.062   3.896
  436TCM     c1 2343   0.640   1.990   1.466
  436TCM    cl1 2344   0.663   2.132   1.359
  436TCM    cl2 2345   0.793   1.896   1.476
  436TCM     h1 2346   0.611   2.023   1.566
  436TCM    cl3 2347   0.510   1.886   1.398
  437TCM     c1 2348   0.100   2.716   1.186
  437TCM    cl1 2349   0.234   2.631   1.101
  437TCM    cl2 2350  -0.002   2.803   1.068
  437TCM     h1 2351   0.040   2.643   1.240
  437TCM    cl3 2352   0.170   2.833   1.302
  438TCM     c1 2353   1.060   3.572   0.050
  438TCM    cl1 2354   0.907   3.524   0.132
  438TCM    cl2 2355   1.024   3.697  -0.074
  438TCM     h1 2356   1.130   3.612   0.124
  438TCM    cl3 2357   1.131   3.428  -0.030
  439TCM     c1 2358   3.419   1.108   1.523
  439TCM    cl1 2359   3.282   0.997   1.555
  439TCM    cl2 2360   3.574   1.019   1.546
  439TCM     h1 2361   3.414   1.144   1.420
  439TCM    cl3 2362   3.412   1.247   1.636
  440TCM     c1 2363   3.682   1.842   4.609
  440TCM    cl1 2364   3.743   1.728   4.485
  440TCM    cl2 2365   3.561   1.759   4.713
  440TCM     h1 2366   3.765   1.877   4.670
  440TCM    cl3 2367   3.604   1.981   4.527
  441TCM     c1 2368   0.594   4.037   4.384
  441TCM    cl1 2369   0.622   4.015   4.560
  441TCM    cl2 2370   0.598   4.211   4.345
  441TCM     h1 2371   0.672   3.985   4.328
  441TCM    cl3 2372   0.434   3.968   4.340
  442TCM     c1 2373   3.455   3.145   0.101
  442TCM    cl1 2374   3.468   2.969   0.072
  442TCM    cl2 2375   3.308   3.178   0.199
  442TCM     h1 2376   3.543   3.181   0.155
  442TCM    cl3 2377   3.442   3.231  -0.056
  443TCM     c1 2378   0.947   2.298   1.201
  443TCM    cl1 2379   1.001   2.138   1.260
  443TCM    cl2 2380   1.077   2.371   1.101
  443TCM     h1 2381   0.857   2.286   1.140
  443TCM    cl3 2382   0.913   2.405   1.340
  444TCM     c1 2383   4.346   4.910   0.459
  444TCM    cl1 2384   4.356   4.993   0.618
  444TCM    cl2 2385   4.510   4.849   0.416
  444TCM     h1 2386   4.276   4.827   0.465
  444TCM    cl3 2387   4.291   5.027   0.334
  445TCM     c1 2388   4.576   1.139   4.903
  445TCM    cl1 2389   4.521   1.084   4.742
  445TCM    cl2 2390   4.441   1.222   4.988
  445TCM     h1 2391   4.609   1.053   4.962
  445TCM    cl3 2392   4.713   1.254   4.882
  446TCM     c1 2393   3.097   0.650   3.427
  446TCM    cl1 2394   3.031   0.568   3.281
  446TCM    cl2 2395   2.967   0.744   3.506
  446TCM     h1 2396   3.137   0.575   3.496
  446TCM    cl3 2397   3.228   0.763   3.378
  447TCM     c1 2398   4.404   1.512   4.772
  447TCM    cl1 2399   4.534   1.577   4.877
  447TCM    cl2 2400   4.473   1.469   4.612
  447TCM     h1 2401   4.360   1.424   4.818
  447TCM    cl3 2402   4.277   1.638   4.752
  448TCM     c1 2403   0.017   1.961   3.523
  448TCM    cl1 2404  -0.078   1.814   3.482
  448TCM    cl2 2405  -0.084   2.107   3.496
  448TCM     h1 2406   0.048   1.957   3.628
  448TCM    cl3 2407   0.161   1.971   3.418
  449TCM     c1 2408   4.774   4.792   3.745
  449TCM    cl1 2409   4.632   4.897   3.717
  449TCM    cl2 2410   4.875   4.787   3.596
  449TCM     h1 2411   4.834   4.831   3.827
  449TCM    cl3 2412   4.719   4.625   3.784
  450TCM     c1 2413   3.311   0.405   3.747
  450TCM    cl1 2414   3.134   0.430   3.730
  450TCM    cl2 2415   3.394   0.475   3.604
  450TCM     h1 2416   3.346   0.454   3.838
  450TCM    cl3 2417   3.345   0.229   3.757
  451TCM     c1 2418   3.830   3.705   1.579
  451TCM    cl1 2419   4.006   3.738   1.584
  451TCM    cl2 2420   3.777   3.646   1.740
  451TCM     h1 2421   3.776   3.796   1.554
  451TCM    cl3 2422   3.797   3.579   1.456
  452TCM     c1 2423   0.638   4.926   1.162
  452TCM    cl1 2424   0.733   4.859   1.298
  452TCM    cl2 2425   0.675   4.835   1.012
  452TCM     h1 2426   0.531   4.918   1.185
  452TCM    cl3 2427   0.681   5.099   1.139
  453TCM     c1 2428   2.253   3.657   3.634
  453TCM    cl1 2429   2.392   3.769   3.627
  453TCM    cl2 2430   2.305   3.493   3.581
  453TCM     h1 2431   2.214   3.652   3.736
  453TCM    cl3 2432   2.124   3.716   3.523
  454TCM     c1 2433   4.609   3.804   1.277
  454TCM    cl1 2434   4.669   3.781   1.444
  454TCM    cl2 2435   4.725   3.728   1.162
  454TCM     h1 2436   4.511   3.757   1.266
  454TCM    cl3 2437   4.596   3.979   1.240
  455TCM     c1 2438   3.035   3.973   4.448
  455TCM    cl1 2439   2.962   4.061   4.310
  455TCM    cl2 2440   3.008   3.796   4.429
  455TCM     h1 2441   3.143   3.992   4.450
  455TCM    cl3 2442   2.962   4.028   4.602
  456TCM     c1 2443   1.707   1.755   4.956
  456TCM    cl1 2444   1.584   1.672   4.855
  456TCM    cl2 2445   1.869   1.686   4.923
  456TCM     h1 2446   1.707   1.862   4.932
  456TCM    cl3 2447   1.668   1.735   5.130
  457TCM     c1 2448   1.718   3.104   1.887
  457TCM    cl1 2449   1.802   3.230   1.790
  457TCM    cl2 2450   1.710   3.156   2.058
  457TCM     h1 2451   1.617   3.090   1.849
  457TCM    cl3 2452   1.808   2.949   1.875
  458TCM     c1 2453   1.787   4.772   1.361
  458TCM    cl1 2454   1.921   4.699   1.456
  458TCM    cl2 2455   1.824   4.759   1.186
  458TCM     h1 2456   1.694   4.718   1.383
  458TCM    cl3 2457   1.769   4.945   1.405
  459TCM     c1 2458   3.992   4.176   3.590
  459TCM    cl1 2459   4.054   4.316   3.683
  459TCM    cl2 2460   3.876   4.084   3.692
  459TCM     h1 2461   3.941   4.211   3.500
  459TCM    cl3 2462   4.128   4.069   3.545
  460TCM     c1 2463   0.664   0.995   3.560
  460TCM    cl1 2464   0.563   1.143   3.549
  460TCM    cl2 2465   0.558   0.855   3.597
  460TCM     h1 2466   0.715   0.979   3.465
  460TCM    cl3 2467   0.784   1.015   3.692
  461TCM     c1 2468   1.426   4.423   0.437
  461TCM    cl1 2469   1.466   4.539   0.568
  461TCM    cl2 2470   1.255   4.445   0.389
  461TCM     h1 2471   1.492   4.441   0.351
  461TCM    cl3 2472   1.450   4.256   0.497
  462TCM     c1 2473   3.213   0.031   0.170
  462TCM    cl1 2474   3.168  -0.047   0.325
  462TCM    cl2 2475   3.067   0.055   0.070
  462TCM     h1 2476   3.260   0.127   0.190
  462TCM    cl3 2477   3.329  -0.073   0.080
  463TCM     c1 2478   3.529   0.710   3.197
  463TCM    cl1 2479   3.512   0.850   3.086
  463TCM    cl2 2480   3.604   0.765   3.351
  463TCM     h1 2481   3.431   0.667   3.218
  463TCM    cl3 2482   3.634   0.585   3.122
  464TCM     c1 2483   4.851   4.298   3.865
  464TCM    cl1 2484   4.811   4.271   3.692
  464TCM    cl2 2485   5.009   4.383   3.876
  464TCM     h1 2486   4.773   4.358   3.911
  464TCM    cl3 2487   4.863   4.139   3.948
  465TCM     c1 2488   4.268   1.632   0.294
  465TCM    cl1 2489   4.096   1.660   0.337
  465TCM    cl2 2490   4.277   1.551   0.134
  465TCM     h1 2491   4.321   1.728   0.289
  465TCM    cl3 2492   4.344   1.527   0.418
  466TCM     c1 2493   0.579   0.538   2.503
  466TCM    cl1 2494   0.730   0.614   2.442
  466TCM    cl2 2495   0.456   0.541   2.373
  466TCM     h1 2496   0.599   0.434   2.532
  466TCM    cl3 2497   0.518   0.630   2.644
  467TCM     c1 2498   0.498   2.050   2.140
  467TCM    cl1 2499   0.539   1.878   2.108
  467TCM    cl2 2500   0.415   2.120   1.998
  467TCM     h1 2501   0.433   2.056   2.228
  467TCM    cl3 2502   0.650   2.140   2.171
  468TCM     c1 2503   3.531   2.095   1.788
  468TCM    cl1 2504   3.551   2.229   1.670
  468TCM    cl2 2505   3.410   1.978   1.726
  468TCM     h1 2506   3.627   2.045   1.802
  468TCM    cl3 2507   3.474   2.163   1.944
  469TCM     c1 2508   2.674   0.774   4.129
  469TCM    cl1 2509   2.579   0.689   4.003
  469TCM    cl2 2510   2.605   0.736   4.290
  469TCM     h1 2511   2.778   0.741   4.125
  469TCM    cl3 2512   2.666   0.951   4.100
  470TCM     c1 2513   4.564   2.394   4.879
  470TCM    cl1 2514   4.576   2.495   5.026
  470TCM    cl2 2515   4.504   2.231   4.923
  470TCM     h1 2516   4.495   2.440   4.808
  470TCM    cl3 2517   4.726   2.380   4.803
  471TCM     c1 2518   3.764   0.724   2.802
  471TCM    cl1 2519   3.590   0.718   2.757
  471TCM    cl2 2520   3.825   0.892   2.785
  471TCM     h1 2521   3.777   0.691   2.905
  471TCM    cl3 2522   3.858   0.617   2.693
  472TCM     c1 2523   2.958   1.943   3.116
  472TCM    cl1 2524   2.843   2.019   3.002
  472TCM    cl2 2525   3.033   2.069   3.219
  472TCM     h1 2526   2.905   1.871   3.179
  472TCM    cl3 2527   3.087   1.858   3.024
  473TCM     c1 2528   3.681   1.507   1.363
  473TCM    cl1 2529   3.842   1.545   1.433
  473TCM    cl2 2530   3.553   1.582   1.464
  473TCM     h1 2531   3.675   1.546   1.261
  473TCM    cl3 2532   3.658   1.329   1.359
  474TCM     c1 2533   0.304   3.216   1.467
  474TCM    cl1 2534   0.156   3.127   1.515
  474TCM    cl2 2535   0.391   3.125   1.339
  474TCM     h1 2536   0.276   3.314   1.430
  474TCM    cl3 2537   0.411   3.234   1.610
  475TCM     c1 2538   2.633   3.482   4.355
  475TCM    cl1 2539   2.484   3.545   4.432
  475TCM    cl2 2540   2.653   3.557   4.193
  475TCM     h1 2541   2.720   3.506   4.417
  475TCM    cl3 2542   2.618   3.304   4.338
  476TCM     c1 2543   1.506   1.516   1.942
  476TCM    cl1 2544   1.335   1.464   1.961
  476TCM    cl2 2545   1.511   1.673   1.856
  476TCM     h1 2546   1.553   1.526   2.040
  476TCM    cl3 2547   1.592   1.394   1.843
  477TCM     c1 2548   4.615   2.552   0.479
  477TCM    cl1 2549   4.740   2.617   0.368
  477TCM    cl2 2550   4.677   2.403   0.558
  477TCM     h1 2551   4.591   2.626   0.555
  477TCM    cl3 2552   4.467   2.512   0.386
  478TCM     c1 2553   2.947   4.521   3.452
  478TCM    cl1 2554   2.863   4.615   3.325
  478TCM    cl2 2555   2.864   4.364   3.475
  478TCM     h1 2556   3.050   4.504   3.423
  478TCM    cl3 2557   2.941   4.613   3.606
  479TCM     c1 2558   4.944   3.691   0.182
  479TCM    cl1 2559   4.868   3.539   0.242
  479TCM    cl2 2560   4.900   3.827   0.291
  479TCM     h1 2561   5.052   3.679   0.181
  479TCM    cl3 2562   4.885   3.728   0.017
  480TCM     c1 2563   1.366   2.723   2.710
  480TCM    cl1 2564   1.326   2.856   2.823
  480TCM    cl2 2565   1.506   2.772   2.608
  480TCM     h1 2566   1.392   2.633   2.767
  480TCM    cl3 2567   1.225   2.688   2.604
  481TCM     c1 2568   2.452   2.765   1.002
  481TCM    cl1 2569   2.395   2.877   0.875
  481TCM    cl2 2570   2.322   2.647   1.041
  481TCM     h1 2571   2.541   2.711   0.967
  481TCM    cl3 2572   2.494   2.858   1.150
  482TCM     c1 2573   4.732   3.276   3.559
  482TCM    cl1 2574   4.777   3.310   3.389
  482TCM    cl2 2575   4.558   3.233   3.567
  482TCM     h1 2576   4.792   3.193   3.597
  482TCM    cl3 2577   4.759   3.423   3.659
  483TCM     c1 2578   2.516   4.736   3.170
  483TCM    cl1 2579   2.517   4.581   3.260
  483TCM    cl2 2580   2.400   4.848   3.248
  483TCM     h1 2581   2.617   4.780   3.172
  483TCM    cl3 2582   2.466   4.706   3.001
  484TCM     c1 2583   4.963   2.688   4.036
  484TCM    cl1 2584   5.119   2.770   4.007
  484TCM    cl2 2585   4.837   2.812   4.070
  484TCM     h1 2586   4.934   2.630   3.948
  484TCM    cl3 2587   4.980   2.579   4.178
  485TCM     c1 2588   2.531   2.002   3.452
  485TCM    cl1 2589   2.585   1.898   3.588
  485TCM    cl2 2590   2.411   1.912   3.353
  485TCM     h1 2591   2.485   2.094   3.491
  485TCM    cl3 2592   2.673   2.044   3.350
  486TCM     c1 2593   1.982   0.690   3.783
  486TCM    cl1 2594   1.929   0.571   3.907
  486TCM    cl2 2595   1.840   0.785   3.729
  486TCM     h1 2596   2.057   0.756   3.826
  486TCM    cl3 2597   2.051   0.602   3.643
  487TCM     c1 2598   0.929   0.122   0.726
  487TCM    cl1 2599   0.848   0.231   0.844
  487TCM    cl2 2600   0.950   0.209   0.570
  487TCM     h1 2601   1.027   0.092   0.765
  487TCM    cl3 2602   0.828  -0.024   0.699
  488TCM     c1 2603   3.952   1.163   3.393
  488TCM    cl1 2604   3.955   1.326   3.316
  488TCM    cl2 2605   3.787   1.129   3.456
  488TCM     h1 2606   3.978   1.088   3.318
  488TCM    cl3 2607   4.070   1.158   3.527
  489TCM     c1 2608   3.301   4.694   3.339
  489TCM    cl1 2609   3.213   4.594   3.219
  489TCM    cl2 2610   3.286   4.620   3.501
  489TCM     h1 2611   3.406   4.700   3.311
  489TCM    cl3 2612   3.229   4.858   3.342
  490TCM     c1 2613   2.304   2.125   2.987
  490TCM    cl1 2614   2.260   2.275   2.898
  490TCM    cl2 2615   2.189   2.101   3.123
  490TCM     h1 2616   2.299   2.040   2.919
  490TCM    cl3 2617   2.470   2.142   3.052
  491TCM     c1 2618   1.400   0.445   0.178
  491TCM    cl1 2619   1.539   0.524   0.260
  491TCM    cl2 2620   1.373   0.524   0.020
  491TCM     h1 2621   1.422   0.339   0.162
  491TCM    cl3 2622   1.254   0.462   0.281
  492TCM     c1 2623   2.062   4.300   4.085
  492TCM    cl1 2624   2.006   4.274   3.916
  492TCM    cl2 2625   1.984   4.448   4.151
  492TCM     h1 2626   2.034   4.214   4.146
  492TCM    cl3 2627   2.240   4.319   4.086
  493TCM     c1 2628   0.686   3.797   0.038
  493TCM    cl1 2629   0.695   3.944  -0.065
  493TCM    cl2 2630   0.634   3.658  -0.064
  493TCM     h1 2631   0.784   3.776   0.081
  493TCM    cl3 2632   0.567   3.823   0.170
  494TCM     c1 2633   0.258   2.760   1.776
  494TCM    cl1 2634   0.084   2.794   1.751
  494TCM    cl2 2635   0.317   2.854   1.918
  494TCM     h1 2636   0.273   2.654   1.795
  494TCM    cl3 2637   0.351   2.808   1.630
  495TCM     c1 2638   3.018   1.103   3.389
  495TCM    cl1 2639   3.119   1.107   3.537
  495TCM    cl2 2640   3.126   1.108   3.246
  495TCM     h1 2641   2.958   1.012   3.387
  495TCM    cl3 2642   2.910   1.247   3.387
  496TCM     c1 2643   0.089   1.391   1.911
  496TCM    cl1 2644   0.126   1.331   1.746
  496TCM    cl2 2645   0.239   1.392   2.009
  496TCM     h1 2646   0.048   1.492   1.905
  496TCM    cl3 2647  -0.031   1.282   1.988
  497TCM     c1 2648   1.518   4.969   1.117
  497TCM    cl1 2649   1.439   4.972   0.957
  497TCM    cl2 2650   1.461   4.825   1.208
  497TCM     h1 2651   1.627   4.965   1.105
  497TCM    cl3 2652   1.473   5.118   1.208
  498TCM     c1 2653   2.643   2.790   3.653
  498TCM    cl1 2654   2.775   2.794   3.775
  498TCM    cl2 2655   2.690   2.890   3.512
  498TCM     h1 2656   2.625   2.687   3.621
  498TCM    cl3 2657   2.494   2.857   3.726
  499TCM     c1 2658   4.971   3.167   0.993
  499TCM    cl1 2659   5.048   3.242   0.849
  499TCM    cl2 2660   4.828   3.264   1.041
  499TCM     h1 2661   4.941   3.065   0.969
  499TCM    cl3 2662   5.089   3.166   1.128
  500TCM     c1 2663   1.837   0.253   0.171
  500TCM    cl1 2664   1.709   0.281   0.048
  500TCM    cl2 2665   1.995   0.232   0.089
  500TCM     h1 2666   1.842   0.338   0.239
  500TCM    cl3 2667   1.798   0.103   0.262
  501TCM     c1 2668   0.734   1.737   2.843
  501TCM    cl1 2669   0.845   1.609   2.903
  501TCM    cl2 2670   0.719   1.866   2.967
  501TCM     h1 2671   0.774   1.779   2.751
  501TCM    cl3 2672   0.572   1.667   2.811
  502TCM     c1 2673   2.672   3.635   2.358
  502TCM    cl1 2674   2.776   3.519   2.269
  502TCM    cl2 2675   2.769   3.717   2.485
  502TCM     h1 2676   2.633   3.710   2.288
  502TCM    cl3 2677   2.535   3.548   2.435
  503TCM     c1 2678   1.528   0.488   2.719
  503TCM    cl1 2679   1.387   0.411   2.639
  503TCM    cl2 2680   1.474   0.565   2.872
  503TCM     h1 2681   1.605   0.413   2.740
  503TCM    cl3 2682   1.596   0.614   2.610
  504TCM     c1 2683   0.013   0.164   2.519
  504TCM    cl1 2684  -0.052   0.056   2.391
  504TCM    cl2 2685  -0.031   0.100   2.681
  504TCM     h1 2686   0.122   0.169   2.510
  504TCM    cl3 2687  -0.056   0.328   2.499
  505TCM     c1 2688   2.655   3.846   3.073
  505TCM    cl1 2689   2.491   3.917   3.058
  505TCM    cl2 2690   2.773   3.948   2.985
  505TCM     h1 2691   2.683   3.841   3.179
  505TCM    cl3 2692   2.655   3.680   3.003
  506TCM     c1 2693   0.177   4.887   0.046
  506TCM    cl1 2694   0.076   4.885  -0.103
  506TCM    cl2 2695   0.292   4.750   0.046
  506TCM     h1 2696   0.232   4.981   0.051
  506TCM    cl3 2697   0.069   4.874   0.189
  507TCM     c1 2698   1.452   4.103   4.976
  507TCM    cl1 2699   1.296   4.029   4.929
  507TCM    cl2 2700   1.580   3.978   4.980
  507TCM     h1 2701   1.479   4.180   4.903
  507TCM    cl3 2702   1.437   4.177   5.139
  508TCM     c1 2703   0.419   1.680   3.381
  508TCM    cl1 2704   0.247   1.628   3.370
  508TCM    cl2 2705   0.450   1.749   3.543
  508TCM     h1 2706   0.484   1.594   3.364
  508TCM    cl3 2707   0.452   1.805   3.256
  509TCM     c1 2708   4.540   0.178   4.554
  509TCM    cl1 2709   4.488   0.306   4.669
  509TCM    cl2 2710   4.431   0.178   4.411
  509TCM     h1 2711   4.642   0.198   4.522
  509TCM    cl3 2712   4.531   0.018   4.635
  510TCM     c1 2713   4.196   2.436   2.414
  510TCM    cl1 2714   4.260   2.268   2.404
  510TCM    cl2 2715   4.321   2.540   2.492
  510TCM     h1 2716   4.175   2.473   2.314
  510TCM    cl3 2717   4.046   2.438   2.513
  511TCM     c1 2718   3.219   4.655   1.631
  511TCM    cl1 2719   3.251   4.569   1.477
  511TCM    cl2 2720   3.269   4.826   1.614
  511TCM     h1 2721   3.112   4.650   1.654
  511TCM    cl3 2722   3.312   4.577   1.763
  512TCM     c1 2723   0.174   4.893   0.851
  512TCM    cl1 2724   0.116   5.060   0.825
  512TCM    cl2 2725   0.034   4.789   0.895
  512TCM     h1 2726   0.221   4.855   0.760
  512TCM    cl3 2727   0.292   4.891   0.986
  513TCM     c1 2728   3.904   4.890   0.283
  513TCM    cl1 2729   3.971   4.811   0.430
  513TCM    cl2 2730   4.008   4.852   0.142
  513TCM     h1 2731   3.803   4.854   0.265
  513TCM    cl3 2732   3.901   5.068   0.310
  514TCM     c1 2733   0.861   0.189   2.195
  514TCM    cl1 2734   0.736   0.291   2.275
  514TCM    cl2 2735   0.814   0.163   2.024
  514TCM     h1 2736   0.958   0.239   2.200
  514TCM    cl3 2737   0.871   0.031   2.280
  515TCM     c1 2738   2.723   4.916   4.393
  515TCM    cl1 2739   2.809   4.940   4.237
  515TCM    cl2 2740   2.838   4.860   4.517
  515TCM     h1 2741   2.678   5.011   4.424
  515TCM    cl3 2742   2.594   4.794   4.370
  516TCM     c1 2743   4.395   3.923   1.630
  516TCM    cl1 2744   4.314   3.902   1.471
  516TCM    cl2 2745   4.272   3.956   1.756
  516TCM     h1 2746   4.450   3.831   1.656
  516TCM    cl3 2747   4.510   4.060   1.621
  517TCM     c1 2748   2.967   3.445   4.893
  517TCM    cl1 2749   3.090   3.321   4.930
  517TCM    cl2 2750   2.834   3.371   4.798
  517TCM     h1 2751   2.927   3.486   4.986
  517TCM    cl3 2752   3.042   3.577   4.797
  518TCM     c1 2753   2.740   0.367   4.275
  518TCM    cl1 2754   2.794   0.265   4.412
  518TCM    cl2 2755   2.703   0.263   4.134
  518TCM     h1 2756   2.651   0.423   4.304
  518TCM    cl3 2757   2.870   0.483   4.231
  519TCM     c1 2758   3.420   3.437   1.649
  519TCM    cl1 2759   3.442   3.603   1.583
  519TCM    cl2 2760   3.464   3.437   1.823
  519TCM     h1 2761   3.316   3.406   1.637
  519TCM    cl3 2762   3.527   3.324   1.559
  520TCM     c1 2763   0.012   2.865   3.320
  520TCM    cl1 2764   0.168   2.794   3.373
  520TCM    cl2 2765  -0.036   2.997   3.431
  520TCM     h1 2766   0.023   2.905   3.218
  520TCM    cl3 2767  -0.114   2.737   3.320
  521TCM     c1 2768   1.794   3.339   2.896
  521TCM    cl1 2769   1.948   3.407   2.959
  521TCM    cl2 2770   1.802   3.328   2.717
  521TCM     h1 2771   1.778   3.240   2.938
  521TCM    cl3 2772   1.659   3.447   2.943
  522TCM     c1 2773   2.718   4.089   1.665
  522TCM    cl1 2774   2.780   4.049   1.501
  522TCM    cl2 2775   2.573   3.990   1.700
  522TCM     h1 2776   2.795   4.069   1.740
  522TCM    cl3 2777   2.676   4.264   1.671
  523TCM     c1 2778   0.234   1.526   2.854
  523TCM    cl1 2779   0.089   1.534   2.748
  523TCM    cl2 2780   0.318   1.369   2.829
  523TCM     h1 2781   0.302   1.608   2.830
  523TCM    cl3 2782   0.184   1.539   3.025
  524TCM     c1 2783   4.312   3.307   2.800
  524TCM    cl1 2784   4.432   3.203   2.884
  524TCM    cl2 2785   4.263   3.442   2.909
  524TCM     h1 2786   4.355   3.348   2.708
  524TCM    cl3 2787   4.167   3.209   2.760
  525TCM     c1 2788   2.695   4.638   2.611
  525TCM    cl1 2789   2.854   4.556   2.622
  525TCM    cl2 2790   2.690   4.775   2.728
  525TCM     h1 2791   2.681   4.676   2.510
  525TCM    cl3 2792   2.564   4.522   2.650
  526TCM     c1 2793   2.997   3.074   2.387
  526TCM    cl1 2794   2.874   3.019   2.269
  526TCM    cl2 2795   3.153   3.100   2.304
  526TCM     h1 2796   2.964   3.168   2.433
  526TCM    cl3 2797   3.017   2.950   2.515
  527TCM     c1 2798   1.881   3.226   4.190
  527TCM    cl1 2799   1.956   3.217   4.027
  527TCM    cl2 2800   1.903   3.391   4.257
  527TCM     h1 2801   1.774   3.204   4.182
  527TCM    cl3 2802   1.959   3.107   4.299
  528TCM     c1 2803   0.099   1.856   0.218
  528TCM    cl1 2804   0.098   1.852   0.039
  528TCM    cl2 2805   0.141   1.693   0.280
  528TCM     h1 2806   0.173   1.928   0.253
  528TCM    cl3 2807  -0.064   1.902   0.277
  529TCM     c1 2808   2.116   3.012   2.189
  529TCM    cl1 2809   2.267   3.056   2.274
  529TCM    cl2 2810   2.122   3.076   2.022
  529TCM     h1 2811   2.105   2.903   2.187
  529TCM    cl3 2812   1.977   3.086   2.275
  530TCM     c1 2813   2.210   0.613   4.883
  530TCM    cl1 2814   2.352   0.722   4.866
  530TCM    cl2 2815   2.266   0.449   4.930
  530TCM     h1 2816   2.143   0.653   4.960
  530TCM    cl3 2817   2.123   0.604   4.726
  531TCM     c1 2818   0.268   0.048   4.163
  531TCM    cl1 2819   0.308   0.136   4.314
  531TCM    cl2 2820   0.334   0.138   4.023
  531TCM     h1 2821   0.312  -0.053   4.167
  531TCM    cl3 2822   0.090   0.036   4.147
  532TCM     c1 2823   1.487   3.985   1.330
  532TCM    cl1 2824   1.608   3.879   1.251
  532TCM    cl2 2825   1.562   4.144   1.364
  532TCM     h1 2826   1.400   3.998   1.264
  532TCM    cl3 2827   1.435   3.911   1.485
  533TCM     c1 2828   0.014   0.899   4.107
  533TCM    cl1 2829  -0.109   0.805   4.198
  533TCM    cl2 2830   0.028   0.833   3.941
  533TCM     h1 2831  -0.015   1.004   4.103
  533TCM    cl3 2832   0.172   0.882   4.191
  534TCM     c1 2833   2.284   3.121   0.093
  534TCM    cl1 2834   2.152   3.080  -0.021
  534TCM    cl2 2835   2.218   3.219   0.229
  534TCM     h1 2836   2.327   3.029   0.133
  534TCM    cl3 2837   2.410   3.215   0.007
  535TCM     c1 2838   2.739   4.080   0.992
  535TCM    cl1 2839   2.907   4.132   1.030
  535TCM    cl2 2840   2.691   4.143   0.832
  535TCM     h1 2841   2.735   3.970   0.991
  535TCM    cl3 2842   2.628   4.143   1.118
  536TCM     c1 2843   1.448   0.762   3.783
  536TCM    cl1 2844   1.513   0.609   3.849
  536TCM    cl2 2845   1.500   0.783   3.612
  536TCM     h1 2846   1.339   0.760   3.787
  536TCM    cl3 2847   1.509   0.899   3.881
  537TCM     c1 2848   1.495   1.028   2.893
  537TCM    cl1 2849   1.590   0.945   2.765
  537TCM    cl2 2850   1.442   0.907   3.015
  537TCM     h1 2851   1.558   1.103   2.941
  537TCM    cl3 2852   1.352   1.107   2.819
  538TCM     c1 2853   2.220   3.023   3.135
  538TCM    cl1 2854   2.142   3.103   2.995
  538TCM    cl2 2855   2.244   3.143   3.266
  538TCM     h1 2856   2.156   2.941   3.171
  538TCM    cl3 2857   2.379   2.957   3.084
  539TCM     c1 2858   3.814   4.136   2.987
  539TCM    cl1 2859   3.712   4.278   3.025
  539TCM    cl2 2860   3.917   4.173   2.845
  539TCM     h1 2861   3.878   4.113   3.072
  539TCM    cl3 2862   3.709   3.995   2.950
  540TCM     c1 2863   2.722   4.919   0.470
  540TCM    cl1 2864   2.808   4.838   0.336
  540TCM    cl2 2865   2.583   5.011   0.404
  540TCM     h1 2866   2.686   4.844   0.542
  540TCM    cl3 2867   2.835   5.032   0.553
  541TCM     c1 2868   1.828   3.595   3.866
  541TCM    cl1 2869   1.928   3.672   3.993
  541TCM    cl2 2870   1.707   3.487   3.942
  541TCM     h1 2871   1.776   3.673   3.808
  541TCM    cl3 2872   1.934   3.500   3.756
  542TCM     c1 2873   2.095   2.211   1.073
  542TCM    cl1 2874   2.264   2.261   1.110
  542TCM    cl2 2875   1.981   2.309   1.170
  542TCM     h1 2876   2.075   2.226   0.967
  542TCM    cl3 2877   2.075   2.038   1.115
  543TCM     c1 2878   2.963   4.957   3.698
  543TCM    cl1 2879   3.141   4.933   3.710
  543TCM    cl2 2880   2.928   5.131   3.679
  543TCM     h1 2881   2.925   4.902   3.612
  543TCM    cl3 2882   2.883   4.897   3.847
  544TCM     c1 2883   1.995   1.150   2.036
  544TCM    cl1 2884   1.897   1.298   2.011
  544TCM    cl2 2885   1.892   1.018   2.099
  544TCM     h1 2886   2.040   1.119   1.941
  544TCM    cl3 2887   2.125   1.187   2.155
  545TCM     c1 2888   2.174   2.667   0.214
  545TCM    cl1 2889   2.154   2.832   0.283
  545TCM    cl2 2890   2.100   2.661   0.052
  545TCM     h1 2891   2.280   2.644   0.206
  545TCM    cl3 2892   2.095   2.547   0.321
  546TCM     c1 2893   3.455   2.415   4.137
  546TCM    cl1 2894   3.508   2.472   4.298
  546TCM    cl2 2895   3.590   2.328   4.058
  546TCM     h1 2896   3.370   2.347   4.148
  546TCM    cl3 2897   3.406   2.554   4.034
  547TCM     c1 2898   0.764   0.528   1.950
  547TCM    cl1 2899   0.683   0.442   1.816
  547TCM    cl2 2900   0.642   0.590   2.066
  547TCM     h1 2901   0.832   0.460   2.002
  547TCM    cl3 2902   0.859   0.666   1.885
  548TCM     c1 2903   0.029   2.587   3.642
  548TCM    cl1 2904  -0.065   2.734   3.683
  548TCM    cl2 2905  -0.037   2.448   3.734
  548TCM     h1 2906   0.023   2.566   3.535
  548TCM    cl3 2907   0.200   2.613   3.689
  549TCM     c1 2908   4.310   4.627   0.820
  549TCM    cl1 2909   4.326   4.775   0.919
  549TCM    cl2 2910   4.194   4.657   0.686
  549TCM     h1 2911   4.408   4.600   0.778
  549TCM    cl3 2912   4.251   4.492   0.922
  550TCM     c1 2913   0.133   4.085   0.967
  550TCM    cl1 2914   0.035   3.939   0.933
  550TCM    cl2 2915   0.072   4.223   0.870
  550TCM     h1 2916   0.128   4.110   1.073
  550TCM    cl3 2917   0.304   4.052   0.922
  551TCM     c1 2918   2.134   2.097   3.642
  551TCM    cl1 2919   2.206   2.185   3.503
  551TCM    cl2 2920   2.106   2.213   3.777
  551TCM     h1 2921   2.039   2.052   3.612
  551TCM    cl3 2922   2.247   1.969   3.697
  552TCM     c1 2923   0.596   4.035   1.129
  552TCM    cl1 2924   0.490   4.150   1.217
  552TCM    cl2 2925   0.551   3.866   1.170
  552TCM     h1 2926   0.585   4.051   1.022
  552TCM    cl3 2927   0.766   4.062   1.178
  553TCM     c1 2928   1.428   3.829   0.365
  553TCM    cl1 2929   1.373   3.734   0.507
  553TCM    cl2 2930   1.323   3.791   0.224
  553TCM     h1 2931   1.422   3.935   0.388
  553TCM    cl3 2932   1.598   3.784   0.327
  554TCM     c1 2933   3.111   1.922   2.649
  554TCM    cl1 2934   3.193   1.908   2.490
  554TCM    cl2 2935   2.941   1.976   2.624
  554TCM     h1 2936   3.112   1.825   2.699
  554TCM    cl3 2937   3.196   2.043   2.750
  555TCM     c1 2938   1.838   2.685   2.480
  555TCM    cl1 2939   1.875   2.667   2.655
  555TCM    cl2 2940   1.771   2.531   2.418
  555TCM     h1 2941   1.764   2.765   2.467
  555TCM    cl3 2942   1.988   2.725   2.390
  556TCM     c1 2943   3.046   4.780   2.023
  556TCM    cl1 2944   2.954   4.742   1.874
  556TCM    cl2 2945   2.957   4.904   2.118
  556TCM     h1 2946   3.058   4.690   2.083
  556TCM    cl3 2947   3.207   4.847   1.981
  557TCM     c1 2948   0.760   2.555   4.507
  557TCM    cl1 2949   0.938   2.552   4.533
  557TCM    cl2 2950   0.702   2.390   4.468
  557TCM     h1 2951   0.711   2.590   4.598
  557TCM    cl3 2952   0.722   2.666   4.371
  558TCM     c1 2953   4.502   3.853   0.099
  558TCM    cl1 2954   4.540   3.756   0.245
  558TCM    cl2 2955   4.530   3.753  -0.048
  558TCM     h1 2956   4.398   3.885   0.102
  558TCM    cl3 2957   4.609   3.997   0.094
  559TCM     c1 2958   0.080   1.552   3.785
  559TCM    cl1 2959   0.058   1.468   3.628
  559TCM    cl2 2960  -0.080   1.570   3.864
  559TCM     h1 2961   0.146   1.493   3.849
  559TCM    cl3 2962   0.152   1.714   3.757
  560TCM     c1 2963   4.094   1.987   2.600
  560TCM    cl1 2964   3.942   2.083   2.599
  560TCM    cl2 2965   4.132   1.935   2.432
  560TCM     h1 2966   4.175   2.048   2.639
  560TCM    cl3 2967   4.072   1.842   2.703
  561TCM     c1 2968   1.310   2.653   4.778
  561TCM    cl1 2969   1.362   2.789   4.883
  561TCM    cl2 2970   1.169   2.570   4.850
  561TCM     h1 2971   1.282   2.692   4.680
  561TCM    cl3 2972   1.446   2.537   4.759
  562TCM     c1 2973   3.496   1.955   2.949
  562TCM    cl1 2974   3.398   2.055   3.062
  562TCM    cl2 2975   3.506   1.787   3.012
  562TCM     h1 2976   3.449   1.954   2.850
  562TCM    cl3 2977   3.661   2.024   2.937
  563TCM     c1 2978   2.913   4.627   0.880
  563TCM    cl1 2979   2.822   4.659   1.031
  563TCM    cl2 2980   2.831   4.706   0.741
  563TCM     h1 2981   3.015   4.666   0.889
  563TCM    cl3 2982   2.919   4.450   0.852
  564TCM     c1 2983   1.614   3.863   0.790
  564TCM    cl1 2984   1.727   3.930   0.911
  564TCM    cl2 2985   1.672   3.703   0.735
  564TCM     h1 2986   1.514   3.854   0.834
  564TCM    cl3 2987   1.607   3.975   0.650
  565TCM     c1 2988   4.798   3.229   4.827
  565TCM    cl1 2989   4.809   3.390   4.906
  565TCM    cl2 2990   4.647   3.147   4.876
  565TCM     h1 2991   4.800   3.242   4.719
  565TCM    cl3 2992   4.939   3.130   4.878
  566TCM     c1 2993   3.045   4.832   2.972
  566TCM    cl1 2994   3.109   4.991   3.024
  566TCM    cl2 2995   3.051   4.823   2.793
  566TCM     h1 2996   3.106   4.751   3.014
  566TCM    cl3 2997   2.875   4.814   3.027
  567TCM     c1 2998   4.529   3.727   3.486
  567TCM    cl1 2999   4.421   3.592   3.535
  567TCM    cl2 3000   4.432   3.853   3.404
  567TCM     h1 3001   4.578   3.769   3.575
  567TCM    cl3 3002   4.654   3.665   3.374
  568TCM     c1 3003   1.922   0.813   2.930
  568TCM    cl1 3004   2.085   0.782   3.000
  568TCM    cl2 3005   1.842   0.944   3.023
  568TCM     h1 3006   1.933   0.844   2.825
  568TCM    cl3 3007   1.823   0.664   2.938
  569TCM     c1 3008   3.198   2.712   4.388
  569TCM    cl1 3009   3.289   2.810   4.268
  569TCM    cl2 3010   3.152   2.555   4.315
  569TCM     h1 3011   3.261   2.694   4.476
  569TCM    cl3 3012   3.051   2.801   4.436
  570TCM     c1 3013   2.317   3.962   0.469
  570TCM    cl1 3014   2.214   4.048   0.349
  570TCM    cl2 3015   2.472   4.050   0.487
  570TCM     h1 3016   2.265   3.957   0.565
  570TCM    cl3 3017   2.350   3.795   0.410
  571TCM     c1 3018   3.322   1.930   0.085
  571TCM    cl1 3019   3.366   2.034  -0.054
  571TCM    cl2 3020   3.355   1.759   0.043
  571TCM     h1 3021   3.381   1.958   0.172
  571TCM    cl3 3022   3.147   1.950   0.122
  572TCM     c1 3023   2.429   1.590   3.738
  572TCM    cl1 3024   2.319   1.599   3.879
  572TCM    cl2 3025   2.335   1.619   3.588
  572TCM     h1 3026   2.508   1.666   3.748
  572TCM    cl3 3027   2.504   1.427   3.731
  573TCM     c1 3028   1.195   0.729   2.673
  573TCM    cl1 3029   1.299   0.829   2.567
  573TCM    cl2 3030   1.062   0.659   2.575
  573TCM     h1 3031   1.255   0.648   2.716
  573TCM    cl3 3032   1.126   0.829   2.805
  574TCM     c1 3033   2.494   4.122   0.036
  574TCM    cl1 3034   2.488   4.272   0.133
  574TCM    cl2 3035   2.326   4.073  -0.006
  574TCM     h1 3036   2.550   4.139  -0.056
  574TCM    cl3 3037   2.573   3.993   0.132
  575TCM     c1 3038   2.352   4.291   1.333
  575TCM    cl1 3039   2.241   4.425   1.380
  575TCM    cl2 3040   2.281   4.200   1.196
  575TCM     h1 3041   2.449   4.332   1.304
  575TCM    cl3 3042   2.374   4.181   1.473
  576TCM     c1 3043   0.899   2.294   4.829
  576TCM    cl1 3044   0.799   2.441   4.850
  576TCM    cl2 3045   0.791   2.154   4.798
  576TCM     h1 3046   0.968   2.307   4.745
  576TCM    cl3 3047   0.992   2.264   4.979
  577TCM     c1 3048   1.592   1.031   1.691
  577TCM    cl1 3049   1.553   1.151   1.563
  577TCM    cl2 3050   1.468   1.041   1.820
  577TCM     h1 3051   1.592   0.931   1.648
  577TCM    cl3 3052   1.753   1.067   1.760
  578TCM     c1 3053   0.158   3.534   3.540
  578TCM    cl1 3054   0.016   3.641   3.518
  578TCM    cl2 3055   0.274   3.562   3.406
  578TCM     h1 3056   0.206   3.556   3.636
  578TCM    cl3 3057   0.105   3.363   3.538
  579TCM     c1 3058   2.238   4.800   1.298
  579TCM    cl1 3059   2.150   4.956   1.305
  579TCM    cl2 3060   2.414   4.831   1.300
  579TCM     h1 3061   2.210   4.738   1.384
  579TCM    cl3 3062   2.194   4.714   1.146
  580TCM     c1 3063   0.079   0.170   3.757
  580TCM    cl1 3064   0.165   0.021   3.705
  580TCM    cl2 3065  -0.077   0.125   3.833
  580TCM     h1 3066   0.141   0.224   3.830
  580TCM    cl3 3067   0.050   0.274   3.615
  581TCM     c1 3068   3.115   3.889   1.464
  581TCM    cl1 3069   3.279   3.934   1.522
  581TCM    cl2 3070   3.094   3.712   1.479
  581TCM     h1 3071   3.039   3.940   1.524
  581TCM    cl3 3072   3.099   3.938   1.293
  582TCM     c1 3073   4.429   4.175   3.737
  582TCM    cl1 3074   4.488   4.279   3.870
  582TCM    cl2 3075   4.527   4.024   3.731
  582TCM     h1 3076   4.324   4.150   3.753
  582TCM    cl3 3077   4.447   4.262   3.581
  583TCM     c1 3078   0.885   3.723   0.514
  583TCM    cl1 3079   1.028   3.676   0.417
  583TCM    cl2 3080   0.740   3.635   0.455
  583TCM     h1 3081   0.902   3.699   0.620
  583TCM    cl3 3082   0.858   3.899   0.494
  584TCM     c1 3083   0.357   2.239   0.031
  584TCM    cl1 3084   0.258   2.197   0.176
  584TCM    cl2 3085   0.392   2.091  -0.063
  584TCM     h1 3086   0.302   2.309  -0.031
  584TCM    cl3 3087   0.511   2.314   0.084
  585TCM     c1 3088   0.992   0.254   2.649
  585TCM    cl1 3089   0.854   0.363   2.684
  585TCM    cl2 3090   1.061   0.293   2.489
  585TCM     h1 3091   1.069   0.265   2.726
  585TCM    cl3 3092   0.933   0.084   2.647
  586TCM     c1 3093   0.957   1.231   4.037
  586TCM    cl1 3094   0.920   1.383   4.126
  586TCM    cl2 3095   0.997   1.269   3.867
  586TCM     h1 3096   1.041   1.181   4.085
  586TCM    cl3 3097   0.813   1.124   4.043
  587TCM     c1 3098   3.799   2.731   4.151
  587TCM    cl1 3099   3.743   2.671   3.992
  587TCM    cl2 3100   3.862   2.592   4.247
  587TCM     h1 3101   3.878   2.804   4.137
  587TCM    cl3 3102   3.662   2.807   4.238
  588TCM     c1 3103   1.891   3.320   0.099
  588TCM    cl1 3104   1.802   3.211  -0.013
  588TCM    cl2 3105   1.861   3.267   0.268
  588TCM     h1 3106   1.998   3.317   0.077
  588TCM    cl3 3107   1.830   3.488   0.080
  589TCM     c1 3108   1.182   0.446   0.910
  589TCM    cl1 3109   1.137   0.456   0.737
  589TCM    cl2 3110   1.332   0.540   0.938
  589TCM     h1 3111   1.101   0.488   0.971
  589TCM    cl3 3112   1.209   0.275   0.956
  590TCM     c1 3113   0.161   3.762   0.534
  590TCM    cl1 3114   0.258   3.719   0.389
  590TCM    cl2 3115   0.269   3.776   0.676
  590TCM     h1 3116   0.110   3.857   0.517
  590TCM    cl3 3117   0.040   3.633   0.565
  591TCM     c1 3118   3.074   1.443   3.127
  591TCM    cl1 3119   2.974   1.573   3.199
  591TCM    cl2 3120   3.218   1.514   3.048
  591TCM     h1 3121   3.106   1.374   3.205
  591TCM    cl3 3122   2.976   1.354   3.005
  592TCM     c1 3123   2.716   4.679   0.024
  592TCM    cl1 3124   2.710   4.717  -0.151
  592TCM    cl2 3125   2.760   4.507   0.048
  592TCM     h1 3126   2.791   4.743   0.072
  592TCM    cl3 3127   2.555   4.708   0.097
  593TCM     c1 3128   3.559   3.480   3.231
  593TCM    cl1 3129   3.725   3.500   3.296
  593TCM    cl2 3130   3.514   3.626   3.137
  593TCM     h1 3131   3.555   3.392   3.166
  593TCM    cl3 3132   3.444   3.460   3.367
  594TCM     c1 3133   2.763   3.685   0.738
  594TCM    cl1 3134   2.864   3.823   0.793
  594TCM    cl2 3135   2.608   3.749   0.674
  594TCM     h1 3136   2.816   3.631   0.659
  594TCM    cl3 3137   2.732   3.576   0.876
  595TCM     c1 3138   4.564   4.192   0.917
  595TCM    cl1 3139   4.580   4.353   0.841
  595TCM    cl2 3140   4.715   4.099   0.892
  595TCM     h1 3141   4.545   4.203   1.025
  595TCM    cl3 3142   4.428   4.105   0.840
  596TCM     c1 3143   4.461   2.804   0.170
  596TCM    cl1 3144   4.370   2.866   0.312
  596TCM    cl2 3145   4.613   2.896   0.152
  596TCM     h1 3146   4.484   2.698   0.185
  596TCM    cl3 3147   4.362   2.823   0.022
  597TCM     c1 3148   2.870   0.959   2.185
  597TCM    cl1 3149   2.807   0.797   2.229
  597TCM    cl2 3150   2.800   1.009   2.027
  597TCM     h1 3151   2.842   1.031   2.262
  597TCM    cl3 3152   3.048   0.951   2.170
  598TCM     c1 3153   3.292   4.371   2.839
  598TCM    cl1 3154   3.431   4.467   2.777
  598TCM    cl2 3155   3.151   4.480   2.863
  598TCM     h1 3156   3.267   4.294   2.766
  598TCM    cl3 3157   3.337   4.296   2.995
  599TCM     c1 3158   3.578   3.513   3.861
  599TCM    cl1 3159   3.735   3.443   3.912
  599TCM    cl2 3160   3.446   3.396   3.894
  599TCM     h1 3161   3.559   3.605   3.917
  599TCM    cl3 3162   3.584   3.547   3.686
  600TCM     c1 3163   4.179   0.162   4.962
  600TCM    cl1 3164   4.246   0.326   4.929
  600TCM    cl2 3165   4.216   0.053   4.824
  600TCM     h1 3166   4.223   0.122   5.054
  600TCM    cl3 3167   4.001   0.176   4.979
  601TCM     c1 3168   3.053   3.158   3.599
  601TCM    cl1 3169   3.106   3.215   3.760
  601TCM    cl2 3170   3.099   2.986   3.577
  601TCM     h1 3171   2.944   3.168   3.590
  601TCM    cl3 3172   3.133   3.257   3.472
  602TCM     c1 3173   0.645   2.366   1.861
  602TCM    cl1 3174   0.820   2.402   1.881
  602TCM    cl2 3175   0.622   2.266   1.714
  602TCM     h1 3176   0.609   2.312   1.949
  602TCM    cl3 3177   0.553   2.519   1.844
  603TCM     c1 3178   0.048   4.222   3.101
  603TCM    cl1 3179   0.180   4.338   3.065
  603TCM    cl2 3180   0.082   4.143   3.258
  603TCM     h1 3181  -0.048   4.275   3.106
  603TCM    cl3 3182   0.042   4.097   2.972
  604TCM     c1 3183   2.184   3.492   1.421
  604TCM    cl1 3184   2.360   3.470   1.393
  604TCM    cl2 3185   2.141   3.428   1.583
  604TCM     h1 3186   2.160   3.598   1.415
  604TCM    cl3 3187   2.092   3.402   1.296
  605TCM     c1 3188   0.294   1.555   2.431
  605TCM    cl1 3189   0.323   1.635   2.273
  605TCM    cl2 3190   0.451   1.527   2.512
  605TCM     h1 3191   0.232   1.620   2.493
  605TCM    cl3 3192   0.211   1.398   2.406
  606TCM     c1 3193   3.886   3.037   3.814
  606TCM    cl1 3194   3.758   3.055   3.939
  606TCM    cl2 3195   3.992   2.900   3.858
  606TCM     h1 3196   3.840   3.019   3.717
  606TCM    cl3 3197   3.984   3.187   3.807
  607TCM     c1 3198   1.901   3.296   3.303
  607TCM    cl1 3199   1.838   3.152   3.215
  607TCM    cl2 3200   1.949   3.247   3.469
  607TCM     h1 3201   1.988   3.336   3.251
  607TCM    cl3 3202   1.772   3.421   3.312
  608TCM     c1 3203   2.599   3.118   2.508
  608TCM    cl1 3204   2.646   2.977   2.609
  608TCM    cl2 3205   2.722   3.247   2.529
  608TCM     h1 3206   2.594   3.089   2.403
  608TCM    cl3 3207   2.440   3.180   2.563
  609TCM     c1 3208   1.735   2.822   4.997
  609TCM    cl1 3209   1.694   2.648   5.008
  609TCM    cl2 3210   1.850   2.847   4.862
  609TCM     h1 3211   1.644   2.880   4.979
  609TCM    cl3 3212   1.811   2.874   5.151
  610TCM     c1 3213   4.754   0.647   2.741
  610TCM    cl1 3214   4.889   0.540   2.793
  610TCM    cl2 3215   4.691   0.591   2.583
  610TCM     h1 3216   4.674   0.645   2.816
  610TCM    cl3 3217   4.815   0.815   2.723
  611TCM     c1 3218   0.284   2.249   1.100
  611TCM    cl1 3219   0.333   2.077   1.115
  611TCM    cl2 3220   0.109   2.265   1.138
  611TCM     h1 3221   0.342   2.310   1.170
  611TCM    cl3 3222   0.314   2.306   0.932
  612TCM     c1 3223   2.960   3.950   0.137
  612TCM    cl1 3224   3.007   3.781   0.099
  612TCM    cl2 3225   2.921   4.037  -0.016
  612TCM     h1 3226   2.872   3.950   0.202
  612TCM    cl3 3227   3.097   4.031   0.218
  613TCM     c1 3228   2.726   3.960   3.479
  613TCM    cl1 3229   2.763   4.059   3.624
  613TCM    cl2 3230   2.850   3.989   3.354
  613TCM     h1 3231   2.726   3.854   3.507
  613TCM    cl3 3232   2.565   4.004   3.414
  614TCM     c1 3233   2.147   4.140   1.771
  614TCM    cl1 3234   2.047   4.086   1.910
  614TCM    cl2 3235   2.300   4.212   1.831
  614TCM     h1 3236   2.169   4.054   1.706
  614TCM    cl3 3237   2.056   4.263   1.678
  615TCM     c1 3238   1.494   1.435   0.563
  615TCM    cl1 3239   1.339   1.524   0.549
  615TCM    cl2 3240   1.626   1.552   0.598
  615TCM     h1 3241   1.488   1.360   0.642
  615TCM    cl3 3242   1.529   1.355   0.406
  616TCM     c1 3243   0.424   2.931   4.223
  616TCM    cl1 3244   0.283   3.041   4.209
  616TCM    cl2 3245   0.465   2.867   4.060
  616TCM     h1 3246   0.509   2.986   4.263
  616TCM    cl3 3247   0.382   2.795   4.332
  617TCM     c1 3248   0.521   1.456   4.436
  617TCM    cl1 3249   0.570   1.621   4.485
  617TCM    cl2 3250   0.592   1.337   4.551
  617TCM     h1 3251   0.412   1.448   4.439
  617TCM    cl3 3252   0.578   1.421   4.270
  618TCM     c1 3253   0.008   2.741   0.676
  618TCM    cl1 3254  -0.154   2.687   0.730
  618TCM    cl2 3255   0.135   2.650   0.763
  618TCM     h1 3256   0.018   2.724   0.568
  618TCM    cl3 3257   0.026   2.916   0.711
  619TCM     c1 3258   2.086   3.943   4.684
  619TCM    cl1 3259   2.085   3.819   4.814
  619TCM    cl2 3260   1.996   4.088   4.741
  619TCM     h1 3261   2.189   3.970   4.660
  619TCM    cl3 3262   2.006   3.876   4.538
  620TCM     c1 3263   3.141   3.402   3.143
  620TCM    cl1 3264   2.980   3.327   3.118
  620TCM    cl2 3265   3.160   3.543   3.034
  620TCM     h1 3266   3.150   3.435   3.247
  620TCM    cl3 3267   3.269   3.282   3.107
  621TCM     c1 3268   2.815   4.166   0.476
  621TCM    cl1 3269   2.821   3.987   0.470
  621TCM    cl2 3270   2.809   4.230   0.308
  621TCM     h1 3271   2.726   4.198   0.531
  621TCM    cl3 3272   2.962   4.227   0.558
  622TCM     c1 3273   3.441   4.282   0.307
  622TCM    cl1 3274   3.366   4.282   0.144
  622TCM    cl2 3275   3.563   4.150   0.318
  622TCM     h1 3276   3.490   4.378   0.325
  622TCM    cl3 3277   3.314   4.256   0.431
  623TCM     c1 3278   2.329   3.448   0.594
  623TCM    cl1 3279   2.501   3.408   0.626
  623TCM    cl2 3280   2.275   3.576   0.707
  623TCM     h1 3281   2.318   3.483   0.491
  623TCM    cl3 3282   2.231   3.300   0.617
  624TCM     c1 3283   3.920   3.634   3.566
  624TCM    cl1 3284   3.997   3.740   3.443
  624TCM    cl2 3285   3.920   3.719   3.724
  624TCM     h1 3286   3.817   3.613   3.536
  624TCM    cl3 3287   4.012   3.481   3.580
  625TCM     c1 3288   0.206   4.658   4.020
  625TCM    cl1 3289   0.094   4.733   3.903
  625TCM    cl2 3290   0.146   4.687   4.187
  625TCM     h1 3291   0.212   4.550   4.001
  625TCM    cl3 3292   0.369   4.730   4.003
  626TCM     c1 3293   4.326   0.134   3.651
  626TCM    cl1 3294   4.417   0.207   3.787
  626TCM    cl2 3295   4.310   0.255   3.519
  626TCM     h1 3296   4.379   0.046   3.614
  626TCM    cl3 3297   4.163   0.086   3.708
  627TCM     c1 3298   2.434   2.491   3.269
  627TCM    cl1 3299   2.448   2.652   3.347
  627TCM    cl2 3300   2.262   2.456   3.234
  627TCM     h1 3301   2.492   2.489   3.176
  627TCM    cl3 3302   2.499   2.366   3.381
  628TCM     c1 3303   4.810   4.467   2.893
  628TCM    cl1 3304   4.864   4.548   3.043
  628TCM    cl2 3305   4.724   4.316   2.937
  628TCM     h1 3306   4.743   4.533   2.837
  628TCM    cl3 3307   4.953   4.426   2.792
  629TCM     c1 3308   2.461   0.899   2.104
  629TCM    cl1 3309   2.311   0.923   2.008
  629TCM    cl2 3310   2.447   0.748   2.200
  629TCM     h1 3311   2.547   0.892   2.036
  629TCM    cl3 3312   2.484   1.038   2.215
  630TCM     c1 3313   0.289   2.354   3.176
  630TCM    cl1 3314   0.268   2.409   3.006
  630TCM    cl2 3315   0.331   2.179   3.177
  630TCM     h1 3316   0.370   2.411   3.222
  630TCM    cl3 3317   0.137   2.380   3.268
  631TCM     c1 3318   1.217   4.069   0.936
  631TCM    cl1 3319   1.207   3.993   0.774
  631TCM    cl2 3320   1.389   4.084   0.985
  631TCM     h1 3321   1.171   4.168   0.933
  631TCM    cl3 3322   1.132   3.966   1.056
  632TCM     c1 3323   2.543   3.000   0.486
  632TCM    cl1 3324   2.554   3.132   0.365
  632TCM    cl2 3325   2.371   2.971   0.526
  632TCM     h1 3326   2.588   2.908   0.445
  632TCM    cl3 3327   2.631   3.048   0.634
  633TCM     c1 3328   0.447   0.276   0.855
  633TCM    cl1 3329   0.497   0.111   0.803
  633TCM    cl2 3330   0.366   0.265   1.015
  633TCM     h1 3331   0.536   0.340   0.863
  633TCM    cl3 3332   0.334   0.343   0.734
  634TCM     c1 3333   4.959   2.076   3.127
  634TCM    cl1 3334   4.792   2.137   3.147
  634TCM    cl2 3335   5.027   2.140   2.974
  634TCM     h1 3336   5.020   2.110   3.211
  634TCM    cl3 3337   4.957   1.896   3.122
  635TCM     c1 3338   2.489   0.726   3.308
  635TCM    cl1 3339   2.517   0.554   3.264
  635TCM    cl2 3340   2.609   0.774   3.433
  635TCM     h1 3341   2.501   0.789   3.220
  635TCM    cl3 3342   2.323   0.746   3.374
  636TCM     c1 3343   0.227   0.950   2.052
  636TCM    cl1 3344   0.210   1.071   2.182
  636TCM    cl2 3345   0.320   0.809   2.115
  636TCM     h1 3346   0.128   0.917   2.020
  636TCM    cl3 3347   0.315   1.023   1.914
  637TCM     c1 3348   4.095   0.299   4.573
  637TCM    cl1 3349   3.942   0.336   4.657
  637TCM    cl2 3350   4.153   0.444   4.485
  637TCM     h1 3351   4.171   0.268   4.646
  637TCM    cl3 3352   4.067   0.166   4.456
  638TCM     c1 3353   4.929   0.775   4.786
  638TCM    cl1 3354   4.894   0.599   4.794
  638TCM    cl2 3355   5.098   0.805   4.840
  638TCM     h1 3356   4.917   0.810   4.683
  638TCM    cl3 3357   4.816   0.863   4.893
  639TCM     c1 3358   2.825   0.712   1.402
  639TCM    cl1 3359   2.988   0.732   1.474
  639TCM    cl2 3360   2.701   0.762   1.522
  639TCM     h1 3361   2.817   0.775   1.312
  639TCM    cl3 3362   2.799   0.540   1.359
  640TCM     c1 3363   2.040   1.150   3.718
  640TCM    cl1 3364   2.013   1.096   3.887
  640TCM    cl2 3365   2.091   1.010   3.619
  640TCM     h1 3366   1.948   1.192   3.678
  640TCM    cl3 3367   2.170   1.273   3.714
   5.00000   5.00000   5.00000
