FOO
 3367
    1PMP     C1    1   0.946   4.455   0.007
    1PMP     O2    2   0.916   4.314  -0.016
    1PMP     C3    3   0.813   4.283  -0.104
    1PMP     C4    4   0.739   4.380  -0.176
    1PMP     C5    5   0.637   4.340  -0.266
    1PMP     C6    6   0.561   4.441  -0.342
    1PMP     C7    7   0.500   4.549  -0.275
    1PMP     C8    8   0.428   4.646  -0.348
    1PMP     C9    9   0.420   4.638  -0.489
    1PMP    C10   10   0.352   4.746  -0.568
    1PMP    O11   11   0.308   4.844  -0.508
    1PMP    C12   12   0.479   4.528  -0.556
    1PMP    C13   13   0.549   4.430  -0.482
    1PMP    C14   14   0.609   4.203  -0.282
    1PMP    C15   15   0.680   4.105  -0.209
    1PMP    C16   16   0.646   3.961  -0.223
    1PMP    C17   17   0.512   3.921  -0.246
    1PMP    C18   18   0.479   3.785  -0.258
    1PMP    C19   19   0.579   3.685  -0.249
    1PMP    C20   20   0.536   3.538  -0.254
    1PMP    C21   21   0.645   3.439  -0.207
    1PMP    N22   22   0.486   3.484  -0.382
    1PMP    C23   23   0.713   3.725  -0.226
    1PMP    C24   24   0.746   3.861  -0.213
    1PMP    C25   25   0.783   4.147  -0.121
    1PMP    H26   26   0.858   4.504   0.050
    1PMP    H27   27   1.029   4.461   0.078
    1PMP    H28   28   0.975   4.502  -0.087
    1PMP    H29   29   0.759   4.486  -0.166
    1PMP    H30   30   0.508   4.557  -0.167
    1PMP    H31   31   0.381   4.728  -0.294
    1PMP    H32   32   0.473   4.519  -0.664
    1PMP    H33   33   0.595   4.347  -0.535
    1PMP    H34   34   0.532   4.173  -0.353
    1PMP    H35   35   0.433   3.995  -0.252
    1PMP    H36   36   0.375   3.756  -0.273
    1PMP    H37   37   0.455   3.528  -0.181
    1PMP    H38   38   0.726   3.438  -0.279
    1PMP    H39   39   0.681   3.469  -0.108
    1PMP    H40   40   0.601   3.339  -0.200
    1PMP    H41   41   0.446   3.391  -0.379
    1PMP    H42   42   0.793   3.652  -0.219
    1PMP    H43   43   0.850   3.889  -0.198
    1PMP    H44   44   0.839   4.074  -0.062
    2PMP    C45   45   0.023   3.275  -1.207
    2PMP    O46   46   0.093   3.148  -1.221
    2PMP    C47   47   0.198   3.122  -1.134
    2PMP    C48   48   0.243   3.212  -1.033
    2PMP    C49   49   0.350   3.177  -0.948
    2PMP    C50   50   0.392   3.268  -0.838
    2PMP    C51   51   0.385   3.409  -0.853
    2PMP    C52   52   0.422   3.495  -0.747
    2PMP    C53   53   0.467   3.441  -0.624
    2PMP    C54   54   0.504   3.531  -0.512
    2PMP    O55   55   0.551   3.642  -0.535
    2PMP    C56   56   0.477   3.301  -0.610
    2PMP    C57   57   0.439   3.216  -0.715
    2PMP    C58   58   0.413   3.051  -0.964
    2PMP    C59   59   0.368   2.959  -1.061
    2PMP    C60   60   0.429   2.822  -1.072
    2PMP    C61   61   0.562   2.798  -1.031
    2PMP    C62   62   0.617   2.669  -1.037
    2PMP    C63   63   0.541   2.560  -1.086
    2PMP    C64   64   0.605   2.421  -1.094
    2PMP    C65   65   0.525   2.315  -1.173
    2PMP    N66   66   0.638   2.360  -0.963
    2PMP    C67   67   0.408   2.584  -1.128
    2PMP    C68   68   0.352   2.713  -1.120
    2PMP    C69   69   0.261   2.997  -1.146
    2PMP    H70   70   0.092   3.358  -1.224
    2PMP    H71   71  -0.057   3.278  -1.281
    2PMP    H72   72  -0.021   3.281  -1.107
    2PMP    H73   73   0.194   3.307  -1.018
    2PMP    H74   74   0.351   3.453  -0.946
    2PMP    H75   75   0.416   3.603  -0.760
    2PMP    H76   76   0.515   3.256  -0.518
    2PMP    H77   77   0.446   3.109  -0.699
    2PMP    H78   78   0.494   3.023  -0.898
    2PMP    H79   79   0.625   2.879  -0.995
    2PMP    H80   80   0.720   2.652  -1.005
    2PMP    H81   81   0.699   2.433  -1.148
    2PMP    H82   82   0.431   2.294  -1.121
    2PMP    H83   83   0.505   2.353  -1.273
    2PMP    H84   84   0.584   2.223  -1.180
    2PMP    H85   85   0.707   2.285  -0.961
    2PMP    H86   86   0.345   2.504  -1.165
    2PMP    H87   87   0.249   2.726  -1.150
    2PMP    H88   88   0.226   2.930  -1.224
    3PMP    C89   89   0.967   2.193  -0.077
    3PMP    O90   90   0.924   2.055  -0.076
    3PMP    C91   91   0.843   2.012  -0.181
    3PMP    C92   92   0.803   2.093  -0.289
    3PMP    C93   93   0.717   2.041  -0.390
    3PMP    C94   94   0.678   2.126  -0.507
    3PMP    C95   95   0.656   2.265  -0.492
    3PMP    C96   96   0.619   2.344  -0.602
    3PMP    C97   97   0.603   2.285  -0.730
    3PMP    C98   98   0.564   2.369  -0.846
    3PMP    O99   99   0.453   2.421  -0.846
    3PMP   C100  100   0.625   2.146  -0.746
    3PMP   C101  101   0.662   2.067  -0.635
    3PMP   C102  102   0.671   1.908  -0.379
    3PMP   C103  103   0.714   1.824  -0.273
    3PMP   C104  104   0.664   1.684  -0.261
    3PMP   C105  105   0.536   1.649  -0.308
    3PMP   C106  106   0.486   1.518  -0.290
    3PMP   C107  107   0.564   1.420  -0.225
    3PMP   C108  108   0.504   1.279  -0.207
    3PMP   C109  109   0.568   1.196  -0.093
    3PMP   N110  110   0.502   1.196  -0.330
    3PMP   C111  111   0.693   1.454  -0.180
    3PMP   C112  112   0.743   1.585  -0.197
    3PMP   C113  113   0.800   1.878  -0.175
    3PMP   H114  114   0.879   2.258  -0.075
    3PMP   H115  115   1.026   2.210   0.014
    3PMP   H116  116   1.028   2.213  -0.165
    3PMP   H117  117   0.837   2.195  -0.298
    3PMP   H118  118   0.666   2.312  -0.394
    3PMP   H119  119   0.601   2.450  -0.589
    3PMP   H120  120   0.611   2.099  -0.843
    3PMP   H121  121   0.678   1.961  -0.650
    3PMP   H122  122   0.603   1.869  -0.454
    3PMP   H123  123   0.472   1.722  -0.355
    3PMP   H124  124   0.386   1.493  -0.326
    3PMP   H125  125   0.400   1.294  -0.176
    3PMP   H126  126   0.671   1.171  -0.120
    3PMP   H127  127   0.566   1.254  -0.001
    3PMP   H128  128   0.510   1.104  -0.080
    3PMP   H129  129   0.438   1.118  -0.332
    3PMP   H130  130   0.757   1.380  -0.131
    3PMP   H131  131   0.843   1.607  -0.162
    3PMP   H132  132   0.833   1.819  -0.090
    4PMP   C133  133   0.183   0.931  -1.163
    4PMP   O134  134   0.269   0.815  -1.182
    4PMP   C135  135   0.373   0.795  -1.091
    4PMP   C136  136   0.401   0.882  -0.983
    4PMP   C137  137   0.507   0.853  -0.893
    4PMP   C138  138   0.532   0.942  -0.776
    4PMP   C139  139   0.521   1.083  -0.789
    4PMP   C140  140   0.542   1.166  -0.677
    4PMP   C141  141   0.570   1.111  -0.551
    4PMP   C142  142   0.592   1.199  -0.435
    4PMP   O143  143   0.700   1.255  -0.423
    4PMP   C144  144   0.582   0.970  -0.537
    4PMP   C145  145   0.564   0.887  -0.650
    4PMP   C146  146   0.585   0.737  -0.914
    4PMP   C147  147   0.559   0.649  -1.022
    4PMP   C148  148   0.639   0.524  -1.039
    4PMP   C149  149   0.772   0.516  -0.993
    4PMP   C150  150   0.845   0.395  -1.003
    4PMP   C151  151   0.785   0.280  -1.058
    4PMP   C152  152   0.862   0.147  -1.061
    4PMP   C153  153   0.884   0.103  -1.207
    4PMP   N154  154   0.793   0.037  -0.991
    4PMP   C155  155   0.653   0.288  -1.107
    4PMP   C156  156   0.580   0.409  -1.098
    4PMP   C157  157   0.452   0.680  -1.110
    4PMP   H158  158   0.243   1.022  -1.171
    4PMP   H159  159   0.108   0.930  -1.242
    4PMP   H160  160   0.134   0.925  -1.065
    4PMP   H161  161   0.341   0.970  -0.964
    4PMP   H162  162   0.500   1.127  -0.886
    4PMP   H163  163   0.536   1.274  -0.689
    4PMP   H164  164   0.607   0.926  -0.441
    4PMP   H165  165   0.573   0.779  -0.638
    4PMP   H166  166   0.665   0.715  -0.844
    4PMP   H167  167   0.822   0.602  -0.950
    4PMP   H168  168   0.947   0.392  -0.966
    4PMP   H169  169   0.960   0.162  -1.015
    4PMP   H170  170   0.788   0.083  -1.255
    4PMP   H171  171   0.936   0.183  -1.261
    4PMP   H172  172   0.946   0.012  -1.208
    4PMP   H173  173   0.761  -0.042  -1.047
    4PMP   H174  174   0.605   0.201  -1.150
    4PMP   H175  175   0.478   0.410  -1.134
    4PMP   H176  176   0.430   0.617  -1.195
    5CAP   C177  177   0.281   4.841  -0.776
    5CAP   O178  178   0.346   4.733  -0.704
    5CAP   H179  179   0.177   4.849  -0.744
    5CAP   H180  180   0.285   4.820  -0.883
    5CAP   H181  181   0.334   4.935  -0.756
    6CAP   C182  182   0.670   0.326  -0.645
    6CAP   C183  183   0.623   0.191  -0.705
    6CAP   C184  184   0.608   0.090  -0.589
    6CAP   C185  185   0.488   0.217  -0.775
    6CAP   O186  186   0.730   0.155  -0.797
    6CAP   C187  187   0.709   0.051  -0.883
    6CAP   O188  188   0.639  -0.046  -0.860
    6CAP   H189  189   0.596   0.362  -0.573
    6CAP   H190  190   0.766   0.312  -0.594
    6CAP   H191  191   0.682   0.399  -0.725
    6CAP   H192  192   0.706   0.066  -0.548
    6CAP   H193  193   0.559  -0.001  -0.624
    6CAP   H194  194   0.545   0.135  -0.511
    6CAP   H195  195   0.501   0.292  -0.853
    6CAP   H196  196   0.449   0.125  -0.819
    6CAP   H197  197   0.416   0.253  -0.701
    7TCM     c1  198   4.455   0.346   2.469
    7TCM    cl1  199   4.566   0.287   2.341
    7TCM    cl2  200   4.417   0.519   2.440
    7TCM     h1  201   4.362   0.288   2.467
    7TCM    cl3  202   4.534   0.330   2.629
    8TCM     c1  203   1.584   2.408   4.219
    8TCM    cl1  204   1.512   2.307   4.089
    8TCM    cl2  205   1.516   2.574   4.210
    8TCM     h1  206   1.562   2.364   4.316
    8TCM    cl3  207   1.762   2.416   4.195
    9TCM     c1  208   1.661   2.161   0.617
    9TCM    cl1  209   1.504   2.100   0.682
    9TCM    cl2  210   1.668   2.127   0.441
    9TCM     h1  211   1.668   2.268   0.634
    9TCM    cl3  212   1.796   2.076   0.700
   10TCM     c1  213   2.890   0.479   3.554
   10TCM    cl1  214   2.868   0.516   3.379
   10TCM    cl2  215   3.048   0.398   3.576
   10TCM     h1  216   2.887   0.571   3.612
   10TCM    cl3  217   2.759   0.369   3.610
   11TCM     c1  218   2.219   1.438   2.613
   11TCM    cl1  219   2.091   1.564   2.614
   11TCM    cl2  220   2.246   1.379   2.780
   11TCM     h1  221   2.189   1.355   2.548
   11TCM    cl3  222   2.372   1.510   2.552
   12TCM     c1  223   0.042   1.224   4.969
   12TCM    cl1  224   0.004   1.248   4.795
   12TCM    cl2  225   0.201   1.144   4.984
   12TCM     h1  226   0.044   1.321   5.019
   12TCM    cl3  227  -0.086   1.121   5.041
   13TCM     c1  228   2.754   0.558   2.193
   13TCM    cl1  229   2.713   0.691   2.080
   13TCM    cl2  230   2.766   0.405   2.101
   13TCM     h1  231   2.850   0.580   2.242
   13TCM    cl3  232   2.625   0.544   2.316
   14TCM     c1  233   3.461   3.777   4.074
   14TCM    cl1  234   3.428   3.653   3.949
   14TCM    cl2  235   3.376   3.929   4.032
   14TCM     h1  236   3.427   3.742   4.171
   14TCM    cl3  237   3.638   3.808   4.081
   15TCM     c1  238   0.550   3.943   3.047
   15TCM    cl1  239   0.408   3.872   3.130
   15TCM    cl2  240   0.669   3.814   3.011
   15TCM     h1  241   0.519   3.991   2.954
   15TCM    cl3  242   0.627   4.066   3.154
   16TCM     c1  243   3.825   1.090   2.521
   16TCM    cl1  244   3.908   1.140   2.672
   16TCM    cl2  245   3.944   1.014   2.411
   16TCM     h1  246   3.746   1.019   2.545
   16TCM    cl3  247   3.754   1.234   2.440
   17TCM     c1  248   4.967   2.917   4.037
   17TCM    cl1  249   4.790   2.890   4.028
   17TCM    cl2  250   5.048   2.762   4.076
   17TCM     h1  251   5.003   2.954   3.940
   17TCM    cl3  252   5.002   3.038   4.165
   18TCM     c1  253   0.489   2.645   0.915
   18TCM    cl1  254   0.453   2.672   1.089
   18TCM    cl2  255   0.356   2.550   0.840
   18TCM     h1  256   0.497   2.742   0.864
   18TCM    cl3  257   0.643   2.555   0.898
   19TCM     c1  258   1.357   1.782   2.047
   19TCM    cl1  259   1.221   1.737   2.155
   19TCM    cl2  260   1.337   1.698   1.890
   19TCM     h1  261   1.356   1.890   2.030
   19TCM    cl3  262   1.513   1.735   2.123
   20TCM     c1  263   4.663   4.394   0.278
   20TCM    cl1  264   4.717   4.554   0.338
   20TCM    cl2  265   4.517   4.341   0.368
   20TCM     h1  266   4.640   4.400   0.172
   20TCM    cl3  267   4.794   4.274   0.304
   21TCM     c1  268   2.543   4.963   3.696
   21TCM    cl1  269   2.401   4.857   3.721
   21TCM    cl2  270   2.564   5.073   3.836
   21TCM     h1  271   2.632   4.902   3.683
   21TCM    cl3  272   2.518   5.064   3.550
   22TCM     c1  273   2.835   1.830   2.536
   22TCM    cl1  274   2.932   1.682   2.565
   22TCM    cl2  275   2.660   1.792   2.549
   22TCM     h1  276   2.861   1.906   2.610
   22TCM    cl3  277   2.871   1.890   2.371
   23TCM     c1  278   0.871   3.037   4.520
   23TCM    cl1  279   1.036   3.102   4.492
   23TCM    cl2  280   0.796   2.995   4.362
   23TCM     h1  281   0.878   2.947   4.582
   23TCM    cl3  282   0.770   3.160   4.602
   24TCM     c1  283   4.434   3.363   2.024
   24TCM    cl1  284   4.286   3.464   2.028
   24TCM    cl2  285   4.393   3.199   1.963
   24TCM     h1  286   4.508   3.409   1.958
   24TCM    cl3  287   4.501   3.351   2.190
   25TCM     c1  288   0.286   3.836   4.431
   25TCM    cl1  289   0.181   3.708   4.501
   25TCM    cl2  290   0.248   3.994   4.507
   25TCM     h1  291   0.391   3.811   4.449
   25TCM    cl3  292   0.254   3.847   4.255
   26TCM     c1  293   2.430   1.181   3.121
   26TCM    cl1  294   2.534   1.290   3.023
   26TCM    cl2  295   2.432   1.017   3.049
   26TCM     h1  296   2.469   1.176   3.223
   26TCM    cl3  297   2.263   1.245   3.124
   27TCM     c1  298   1.228   2.069   2.352
   27TCM    cl1  299   1.296   1.931   2.444
   27TCM    cl2  300   1.058   2.032   2.305
   27TCM     h1  301   1.230   2.159   2.415
   27TCM    cl3  302   1.326   2.098   2.205
   28TCM     c1  303   3.254   4.511   4.646
   28TCM    cl1  304   3.352   4.587   4.516
   28TCM    cl2  305   3.218   4.342   4.600
   28TCM     h1  306   3.310   4.513   4.740
   28TCM    cl3  307   3.101   4.603   4.664
   29TCM     c1  308   2.535   2.323   1.900
   29TCM    cl1  309   2.387   2.357   1.804
   29TCM    cl2  310   2.545   2.437   2.038
   29TCM     h1  311   2.532   2.220   1.937
   29TCM    cl3  312   2.679   2.345   1.795
   30TCM     c1  313   2.941   2.177   4.666
   30TCM    cl1  314   2.932   2.049   4.792
   30TCM    cl2  315   3.088   2.276   4.692
   30TCM     h1  316   2.945   2.131   4.567
   30TCM    cl3  317   2.795   2.281   4.678
   31TCM     c1  318   4.923   0.026   0.992
   31TCM    cl1  319   4.875  -0.121   0.901
   31TCM    cl2  320   4.900  -0.003   1.168
   31TCM     h1  321   5.028   0.048   0.972
   31TCM    cl3  322   4.821   0.164   0.941
   32TCM     c1  323   3.041   0.538   0.957
   32TCM    cl1  324   2.893   0.436   0.951
   32TCM    cl2  325   3.002   0.694   1.038
   32TCM     h1  326   3.119   0.486   1.013
   32TCM    cl3  327   3.097   0.571   0.790
   33TCM     c1  328   4.062   3.209   1.644
   33TCM    cl1  329   3.997   3.043   1.623
   33TCM    cl2  330   4.044   3.260   1.815
   33TCM     h1  331   4.168   3.210   1.617
   33TCM    cl3  332   3.973   3.323   1.538
   34TCM     c1  333   0.888   0.913   3.203
   34TCM    cl1  334   0.838   0.913   3.030
   34TCM    cl2  335   0.854   1.075   3.272
   34TCM     h1  336   0.831   0.837   3.258
   34TCM    cl3  337   1.064   0.879   3.215
   35TCM     c1  338   0.822   4.992   3.389
   35TCM    cl1  339   0.748   5.155   3.389
   35TCM    cl2  340   0.986   5.002   3.461
   35TCM     h1  341   0.760   4.924   3.448
   35TCM    cl3  342   0.834   4.932   3.220
   36TCM     c1  343   2.746   3.609   3.117
   36TCM    cl1  344   2.779   3.439   3.165
   36TCM    cl2  345   2.864   3.662   2.993
   36TCM     h1  346   2.645   3.616   3.076
   36TCM    cl3  347   2.762   3.714   3.261
   37TCM     c1  348   0.313   1.006   2.259
   37TCM    cl1  349   0.155   0.965   2.332
   37TCM    cl2  350   0.398   0.855   2.212
   37TCM     h1  351   0.298   1.069   2.170
   37TCM    cl3  352   0.414   1.094   2.378
   38TCM     c1  353   0.093   2.034   1.820
   38TCM    cl1  354   0.211   1.955   1.930
   38TCM    cl2  355   0.172   2.171   1.737
   38TCM     h1  356   0.058   1.961   1.747
   38TCM    cl3  357  -0.046   2.094   1.916
   39TCM     c1  358   1.397   3.561   1.839
   39TCM    cl1  359   1.498   3.479   1.963
   39TCM    cl2  360   1.388   3.459   1.691
   39TCM     h1  361   1.297   3.576   1.878
   39TCM    cl3  362   1.471   3.719   1.797
   40TCM     c1  363   3.568   1.473   1.961
   40TCM    cl1  364   3.449   1.437   1.831
   40TCM    cl2  365   3.491   1.446   2.120
   40TCM     h1  366   3.654   1.407   1.951
   40TCM    cl3  367   3.622   1.644   1.947
   41TCM     c1  368   0.991   1.864   1.848
   41TCM    cl1  369   1.075   2.000   1.929
   41TCM    cl2  370   0.869   1.930   1.733
   41TCM     h1  371   1.063   1.803   1.794
   41TCM    cl3  372   0.908   1.765   1.973
   42TCM     c1  373   2.433   3.709   1.598
   42TCM    cl1  374   2.567   3.626   1.512
   42TCM    cl2  375   2.290   3.714   1.491
   42TCM     h1  376   2.409   3.654   1.690
   42TCM    cl3  377   2.481   3.877   1.641
   43TCM     c1  378   1.003   4.456   0.729
   43TCM    cl1  379   0.834   4.449   0.667
   43TCM    cl2  380   1.117   4.465   0.590
   43TCM     h1  381   1.015   4.544   0.792
   43TCM    cl3  382   1.038   4.308   0.825
   44TCM     c1  383   0.192   1.158   4.355
   44TCM    cl1  384   0.026   1.091   4.363
   44TCM    cl2  385   0.218   1.265   4.497
   44TCM     h1  386   0.265   1.077   4.356
   44TCM    cl3  387   0.210   1.253   4.204
   45TCM     c1  388   1.380   3.800   4.399
   45TCM    cl1  389   1.501   3.902   4.314
   45TCM    cl2  390   1.465   3.683   4.505
   45TCM     h1  391   1.314   3.864   4.459
   45TCM    cl3  392   1.282   3.711   4.277
   46TCM     c1  393   0.253   0.634   4.377
   46TCM    cl1  394   0.363   0.633   4.520
   46TCM    cl2  395   0.327   0.538   4.246
   46TCM     h1  396   0.156   0.592   4.405
   46TCM    cl3  397   0.230   0.803   4.321
   47TCM     c1  398   1.094   4.105   1.708
   47TCM    cl1  399   1.013   4.102   1.868
   47TCM    cl2  400   0.984   4.035   1.585
   47TCM     h1  401   1.119   4.208   1.681
   47TCM    cl3  402   1.245   4.007   1.716
   48TCM     c1  403   3.319   3.970   4.551
   48TCM    cl1  404   3.435   3.932   4.420
   48TCM    cl2  405   3.407   3.983   4.707
   48TCM     h1  406   3.268   4.065   4.529
   48TCM    cl3  407   3.198   3.838   4.563
   49TCM     c1  408   1.172   1.523   1.133
   49TCM    cl1  409   1.071   1.669   1.112
   49TCM    cl2  410   1.307   1.559   1.245
   49TCM     h1  411   1.111   1.442   1.174
   49TCM    cl3  412   1.239   1.473   0.974
   50TCM     c1  413   3.270   0.528   1.988
   50TCM    cl1  414   3.107   0.463   2.025
   50TCM    cl2  415   3.394   0.402   2.018
   50TCM     h1  416   3.274   0.559   1.883
   50TCM    cl3  417   3.302   0.670   2.094
   51TCM     c1  418   0.120   0.426   1.588
   51TCM    cl1  419   0.051   0.479   1.745
   51TCM    cl2  420   0.296   0.463   1.587
   51TCM     h1  421   0.105   0.319   1.574
   51TCM    cl3  422   0.041   0.516   1.454
   52TCM     c1  423   3.443   2.233   1.059
   52TCM    cl1  424   3.481   2.144   1.211
   52TCM    cl2  425   3.581   2.219   0.945
   52TCM     h1  426   3.353   2.190   1.014
   52TCM    cl3  427   3.415   2.406   1.097
   53TCM     c1  428   4.081   0.039   0.458
   53TCM    cl1  429   4.107  -0.070   0.318
   53TCM    cl2  430   3.976   0.176   0.409
   53TCM     h1  431   4.033  -0.017   0.539
   53TCM    cl3  432   4.239   0.102   0.515
   54TCM     c1  433   4.987   1.664   3.185
   54TCM    cl1  434   4.845   1.681   3.077
   54TCM    cl2  435   5.023   1.489   3.209
   54TCM     h1  436   5.074   1.713   3.140
   54TCM    cl3  437   4.950   1.738   3.344
   55TCM     c1  438   2.176   3.381   2.162
   55TCM    cl1  439   2.327   3.435   2.081
   55TCM    cl2  440   2.135   3.492   2.296
   55TCM     h1  441   2.094   3.380   2.090
   55TCM    cl3  442   2.199   3.216   2.227
   56TCM     c1  443   0.408   0.006   4.764
   56TCM    cl1  444   0.385  -0.036   4.936
   56TCM    cl2  445   0.573  -0.045   4.717
   56TCM     h1  446   0.334  -0.045   4.702
   56TCM    cl3  447   0.391   0.184   4.743
   57TCM     c1  448   4.652   0.475   4.352
   57TCM    cl1  449   4.678   0.652   4.348
   57TCM    cl2  450   4.476   0.440   4.369
   57TCM     h1  451   4.689   0.430   4.260
   57TCM    cl3  452   4.738   0.404   4.492
   58TCM     c1  453   3.677   4.390   1.295
   58TCM    cl1  454   3.811   4.509   1.287
   58TCM    cl2  455   3.567   4.416   1.156
   58TCM     h1  456   3.718   4.289   1.291
   58TCM    cl3  457   3.586   4.411   1.448
   59TCM     c1  458   4.586   4.499   4.402
   59TCM    cl1  459   4.421   4.456   4.460
   59TCM    cl2  460   4.705   4.383   4.469
   59TCM     h1  461   4.588   4.496   4.293
   59TCM    cl3  462   4.625   4.665   4.457
   60TCM     c1  463   3.981   4.087   1.445
   60TCM    cl1  464   3.859   4.050   1.319
   60TCM    cl2  465   3.967   3.966   1.577
   60TCM     h1  466   4.081   4.083   1.402
   60TCM    cl3  467   3.950   4.251   1.511
   61TCM     c1  468   3.682   3.892   3.134
   61TCM    cl1  469   3.648   3.853   3.306
   61TCM    cl2  470   3.831   3.991   3.124
   61TCM     h1  471   3.695   3.800   3.078
   61TCM    cl3  472   3.544   3.985   3.066
   62TCM     c1  473   0.542   0.567   3.135
   62TCM    cl1  474   0.553   0.741   3.176
   62TCM    cl2  475   0.564   0.468   3.283
   62TCM     h1  476   0.444   0.546   3.091
   62TCM    cl3  477   0.670   0.527   3.016
   63TCM     c1  478   3.076   2.318   2.629
   63TCM    cl1  479   3.184   2.296   2.770
   63TCM    cl2  480   2.977   2.466   2.650
   63TCM     h1  481   3.137   2.327   2.538
   63TCM    cl3  482   2.967   2.176   2.615
   64TCM     c1  483   3.772   2.092   2.202
   64TCM    cl1  484   3.676   2.008   2.076
   64TCM    cl2  485   3.681   2.092   2.357
   64TCM     h1  486   3.868   2.041   2.216
   64TCM    cl3  487   3.801   2.262   2.151
   65TCM     c1  488   0.112   0.554   2.138
   65TCM    cl1  489   0.151   0.580   2.310
   65TCM    cl2  490   0.264   0.530   2.045
   65TCM     h1  491   0.048   0.466   2.127
   65TCM    cl3  492   0.027   0.698   2.074
   66TCM     c1  493   0.252   0.302   2.744
   66TCM    cl1  494   0.273   0.128   2.779
   66TCM    cl2  495   0.214   0.323   2.569
   66TCM     h1  496   0.169   0.342   2.804
   66TCM    cl3  497   0.403   0.390   2.783
   67TCM     c1  498   0.155   3.523   0.682
   67TCM    cl1  499   0.083   3.550   0.520
   67TCM    cl2  500   0.062   3.616   0.804
   67TCM     h1  501   0.151   3.417   0.707
   67TCM    cl3  502   0.325   3.579   0.681
   68TCM     c1  503   1.335   3.385   0.426
   68TCM    cl1  504   1.270   3.484   0.562
   68TCM    cl2  505   1.439   3.488   0.322
   68TCM     h1  506   1.395   3.303   0.466
   68TCM    cl3  507   1.199   3.320   0.330
   69TCM     c1  508   2.773   4.550   3.858
   69TCM    cl1  509   2.600   4.550   3.905
   69TCM    cl2  510   2.793   4.658   3.716
   69TCM     h1  511   2.834   4.587   3.941
   69TCM    cl3  512   2.823   4.384   3.813
   70TCM     c1  513   4.688   1.406   4.993
   70TCM    cl1  514   4.534   1.441   5.078
   70TCM    cl2  515   4.824   1.484   5.082
   70TCM     h1  516   4.704   1.298   4.990
   70TCM    cl3  517   4.681   1.470   4.826
   71TCM     c1  518   2.979   4.620   4.311
   71TCM    cl1  519   3.047   4.455   4.291
   71TCM    cl2  520   2.816   4.625   4.237
   71TCM     h1  521   2.971   4.645   4.417
   71TCM    cl3  522   3.086   4.738   4.229
   72TCM     c1  523   3.802   4.071   1.880
   72TCM    cl1  524   3.716   4.210   1.807
   72TCM    cl2  525   3.718   4.019   2.029
   72TCM     h1  526   3.804   3.988   1.808
   72TCM    cl3  527   3.970   4.118   1.920
   73TCM     c1  528   1.101   0.265   3.055
   73TCM    cl1  529   0.929   0.276   3.101
   73TCM    cl2  530   1.114   0.256   2.876
   73TCM     h1  531   1.154   0.354   3.091
   73TCM    cl3  532   1.173   0.118   3.128
   74TCM     c1  533   0.684   1.262   2.565
   74TCM    cl1  534   0.746   1.397   2.464
   74TCM    cl2  535   0.544   1.319   2.662
   74TCM     h1  536   0.653   1.180   2.501
   74TCM    cl3  537   0.813   1.207   2.676
   75TCM     c1  538   1.150   0.549   2.107
   75TCM    cl1  539   0.993   0.479   2.158
   75TCM    cl2  540   1.172   0.520   1.931
   75TCM     h1  541   1.150   0.657   2.127
   75TCM    cl3  542   1.282   0.470   2.198
   76TCM     c1  543   3.109   0.916   3.712
   76TCM    cl1  544   2.969   0.932   3.824
   76TCM    cl2  545   3.088   1.028   3.574
   76TCM     h1  546   3.201   0.939   3.766
   76TCM    cl3  547   3.116   0.748   3.651
   77TCM     c1  548   4.578   4.956   0.626
   77TCM    cl1  549   4.716   5.068   0.597
   77TCM    cl2  550   4.505   4.990   0.786
   77TCM     h1  551   4.503   4.970   0.547
   77TCM    cl3  552   4.637   4.787   0.623
   78TCM     c1  553   0.473   4.275   0.068
   78TCM    cl1  554   0.599   4.338   0.179
   78TCM    cl2  555   0.315   4.343   0.116
   78TCM     h1  556   0.497   4.304  -0.035
   78TCM    cl3  557   0.466   4.096   0.080
   79TCM     c1  558   2.602   3.321   1.834
   79TCM    cl1  559   2.599   3.500   1.851
   79TCM    cl2  560   2.763   3.259   1.882
   79TCM     h1  561   2.526   3.278   1.898
   79TCM    cl3  562   2.569   3.278   1.662
   80TCM     c1  563   0.549   2.981   0.616
   80TCM    cl1  564   0.679   2.882   0.690
   80TCM    cl2  565   0.572   3.153   0.661
   80TCM     h1  566   0.552   2.970   0.508
   80TCM    cl3  567   0.390   2.922   0.677
   81TCM     c1  568   3.309   3.616   0.789
   81TCM    cl1  569   3.244   3.617   0.956
   81TCM    cl2  570   3.313   3.785   0.728
   81TCM     h1  571   3.411   3.575   0.790
   81TCM    cl3  572   3.204   3.517   0.684
   82TCM     c1  573   3.134   2.951   4.533
   82TCM    cl1  574   3.202   2.807   4.452
   82TCM    cl2  575   3.086   2.908   4.701
   82TCM     h1  576   3.209   3.031   4.536
   82TCM    cl3  577   2.990   3.008   4.442
   83TCM     c1  578   1.157   1.082   1.938
   83TCM    cl1  579   1.264   1.145   1.808
   83TCM    cl2  580   1.144   0.904   1.923
   83TCM     h1  581   1.198   1.108   2.035
   83TCM    cl3  582   0.994   1.155   1.920
   84TCM     c1  583   1.819   2.554   4.587
   84TCM    cl1  584   1.752   2.673   4.471
   84TCM    cl2  585   1.995   2.539   4.560
   84TCM     h1  586   1.800   2.588   4.690
   84TCM    cl3  587   1.740   2.395   4.561
   85TCM     c1  588   2.294   3.979   3.773
   85TCM    cl1  589   2.149   3.924   3.683
   85TCM    cl2  590   2.431   3.868   3.740
   85TCM     h1  591   2.320   4.080   3.742
   85TCM    cl3  592   2.258   3.978   3.949
   86TCM     c1  593   0.837   0.239   4.699
   86TCM    cl1  594   0.996   0.317   4.673
   86TCM    cl2  595   0.715   0.364   4.740
   86TCM     h1  596   0.806   0.187   4.608
   86TCM    cl3  597   0.850   0.122   4.834
   87TCM     c1  598   1.127   0.655   2.838
   87TCM    cl1  599   1.123   0.834   2.825
   87TCM    cl2  600   1.026   0.604   2.977
   87TCM     h1  601   1.089   0.610   2.746
   87TCM    cl3  602   1.297   0.602   2.864
   88TCM     c1  603   4.801   3.071   2.905
   88TCM    cl1  604   4.739   2.917   2.973
   88TCM    cl2  605   4.910   3.035   2.767
   88TCM     h1  606   4.718   3.133   2.871
   88TCM    cl3  607   4.894   3.159   3.032
   89TCM     c1  608   3.237   4.594   0.100
   89TCM    cl1  609   3.144   4.746   0.097
   89TCM    cl2  610   3.403   4.624   0.038
   89TCM     h1  611   3.243   4.556   0.202
   89TCM    cl3  612   3.156   4.473  -0.005
   90TCM     c1  613   2.031   4.980   3.241
   90TCM    cl1  614   2.014   5.059   3.081
   90TCM    cl2  615   1.870   4.923   3.295
   90TCM     h1  616   2.100   4.895   3.233
   90TCM    cl3  617   2.095   5.100   3.359
   91TCM     c1  618   0.945   0.860   3.747
   91TCM    cl1  619   0.997   0.694   3.792
   91TCM    cl2  620   0.776   0.885   3.801
   91TCM     h1  621   1.010   0.933   3.796
   91TCM    cl3  622   0.957   0.878   3.569
   92TCM     c1  623   2.170   0.064   2.331
   92TCM    cl1  624   1.991   0.069   2.317
   92TCM    cl2  625   2.224  -0.107   2.345
   92TCM     h1  626   2.215   0.110   2.243
   92TCM    cl3  627   2.220   0.154   2.478
   93TCM     c1  628   1.126   1.398   2.211
   93TCM    cl1  629   1.123   1.235   2.286
   93TCM    cl2  630   0.961   1.442   2.158
   93TCM     h1  631   1.162   1.471   2.284
   93TCM    cl3  632   1.235   1.395   2.069
   94TCM     c1  633   1.312   1.620   4.914
   94TCM    cl1  634   1.429   1.751   4.881
   94TCM    cl2  635   1.385   1.461   4.873
   94TCM     h1  636   1.284   1.620   5.020
   94TCM    cl3  637   1.165   1.645   4.815
   95TCM     c1  638   4.435   2.844   2.137
   95TCM    cl1  639   4.530   2.968   2.226
   95TCM    cl2  640   4.284   2.809   2.226
   95TCM     h1  641   4.411   2.881   2.037
   95TCM    cl3  642   4.532   2.694   2.124
   96TCM     c1  643   3.064   4.858   1.018
   96TCM    cl1  644   2.945   4.940   0.911
   96TCM    cl2  645   3.005   4.694   1.060
   96TCM     h1  646   3.160   4.850   0.967
   96TCM    cl3  647   3.084   4.955   1.169
   97TCM     c1  648   4.500   2.267   2.722
   97TCM    cl1  649   4.655   2.286   2.813
   97TCM    cl2  650   4.388   2.161   2.815
   97TCM     h1  651   4.455   2.365   2.707
   97TCM    cl3  652   4.533   2.191   2.563
   98TCM     c1  653   4.249   0.651   3.374
   98TCM    cl1  654   4.282   0.582   3.536
   98TCM    cl2  655   4.330   0.550   3.251
   98TCM     h1  656   4.141   0.652   3.356
   98TCM    cl3  657   4.314   0.817   3.366
   99TCM     c1  658   4.151   0.817   2.942
   99TCM    cl1  659   4.077   0.980   2.948
   99TCM    cl2  660   4.062   0.708   3.054
   99TCM     h1  661   4.145   0.778   2.840
   99TCM    cl3  662   4.323   0.827   2.994
  100TCM     c1  663   2.224   0.400   2.842
  100TCM    cl1  664   2.189   0.479   2.685
  100TCM    cl2  665   2.389   0.448   2.895
  100TCM     h1  666   2.151   0.432   2.917
  100TCM    cl3  667   2.218   0.222   2.823
  101TCM     c1  668   0.289   4.174   3.427
  101TCM    cl1  669   0.340   4.291   3.553
  101TCM    cl2  670   0.372   4.018   3.454
  101TCM     h1  671   0.181   4.159   3.433
  101TCM    cl3  672   0.331   4.240   3.265
  102TCM     c1  673   0.121   1.911   4.448
  102TCM    cl1  674  -0.015   1.905   4.564
  102TCM    cl2  675   0.106   1.778   4.329
  102TCM     h1  676   0.120   2.007   4.396
  102TCM    cl3  677   0.276   1.894   4.538
  103TCM     c1  678   1.160   4.976   4.901
  103TCM    cl1  679   1.252   4.858   5.000
  103TCM    cl2  680   1.210   4.962   4.729
  103TCM     h1  681   1.053   4.955   4.910
  103TCM    cl3  682   1.194   5.142   4.960
  104TCM     c1  683   0.749   2.246   0.622
  104TCM    cl1  684   0.765   2.086   0.544
  104TCM    cl2  685   0.851   2.251   0.769
  104TCM     h1  686   0.781   2.325   0.552
  104TCM    cl3  687   0.578   2.273   0.668
  105TCM     c1  688   4.960   1.821   2.255
  105TCM    cl1  689   5.125   1.879   2.293
  105TCM    cl2  690   4.918   1.686   2.365
  105TCM     h1  691   4.888   1.902   2.267
  105TCM    cl3  692   4.955   1.761   2.086
  106TCM     c1  693   2.884   0.961   2.313
  106TCM    cl1  694   2.741   0.884   2.388
  106TCM    cl2  695   2.835   1.038   2.158
  106TCM     h1  696   2.923   1.038   2.381
  106TCM    cl3  697   3.010   0.838   2.282
  107TCM     c1  698   2.926   0.452   2.619
  107TCM    cl1  699   2.787   0.346   2.578
  107TCM    cl2  700   2.868   0.591   2.717
  107TCM     h1  701   3.000   0.395   2.677
  107TCM    cl3  702   3.002   0.513   2.468
  108TCM     c1  703   2.638   4.356   0.826
  108TCM    cl1  704   2.672   4.466   0.963
  108TCM    cl2  705   2.787   4.331   0.730
  108TCM     h1  706   2.604   4.259   0.866
  108TCM    cl3  707   2.509   4.427   0.724
  109TCM     c1  708   0.490   3.201   3.691
  109TCM    cl1  709   0.405   3.358   3.673
  109TCM    cl2  710   0.666   3.224   3.669
  109TCM     h1  711   0.472   3.161   3.791
  109TCM    cl3  712   0.429   3.086   3.568
  110TCM     c1  713   2.508   4.984   1.668
  110TCM    cl1  714   2.466   5.100   1.798
  110TCM    cl2  715   2.410   4.835   1.687
  110TCM     h1  716   2.489   5.029   1.570
  110TCM    cl3  717   2.682   4.942   1.681
  111TCM     c1  718   2.524   4.794   3.283
  111TCM    cl1  719   2.358   4.844   3.328
  111TCM    cl2  720   2.600   4.711   3.423
  111TCM     h1  721   2.521   4.727   3.197
  111TCM    cl3  722   2.622   4.939   3.244
  112TCM     c1  723   3.411   3.416   4.483
  112TCM    cl1  724   3.377   3.549   4.367
  112TCM    cl2  725   3.572   3.345   4.449
  112TCM     h1  726   3.409   3.455   4.585
  112TCM    cl3  727   3.286   3.288   4.466
  113TCM     c1  728   1.701   4.920   4.373
  113TCM    cl1  729   1.556   4.899   4.476
  113TCM    cl2  730   1.653   4.993   4.216
  113TCM     h1  731   1.773   4.986   4.423
  113TCM    cl3  732   1.777   4.760   4.343
  114TCM     c1  733   3.556   3.806   1.588
  114TCM    cl1  734   3.382   3.776   1.620
  114TCM    cl2  735   3.651   3.772   1.736
  114TCM     h1  736   3.590   3.740   1.507
  114TCM    cl3  737   3.580   3.977   1.540
  115TCM     c1  738   4.975   2.596   2.029
  115TCM    cl1  739   5.086   2.737   2.038
  115TCM    cl2  740   5.067   2.452   1.975
  115TCM     h1  741   4.933   2.577   2.128
  115TCM    cl3  742   4.844   2.631   1.912
  116TCM     c1  743   2.099   0.737   3.203
  116TCM    cl1  744   2.159   0.897   3.259
  116TCM    cl2  745   2.163   0.704   3.039
  116TCM     h1  746   2.133   0.660   3.272
  116TCM    cl3  747   1.920   0.741   3.200
  117TCM     c1  748   1.711   4.604   3.262
  117TCM    cl1  749   1.628   4.618   3.104
  117TCM    cl2  750   1.744   4.431   3.298
  117TCM     h1  751   1.806   4.658   3.258
  117TCM    cl3  752   1.606   4.673   3.390
  118TCM     c1  753   1.380   3.034   2.976
  118TCM    cl1  754   1.476   2.986   3.119
  118TCM    cl2  755   1.487   3.037   2.831
  118TCM     h1  756   1.299   2.963   2.960
  118TCM    cl3  757   1.312   3.198   3.002
  119TCM     c1  758   4.809   2.279   2.359
  119TCM    cl1  759   4.753   2.421   2.265
  119TCM    cl2  760   4.873   2.333   2.517
  119TCM     h1  761   4.725   2.210   2.375
  119TCM    cl3  762   4.939   2.195   2.269
  120TCM     c1  763   2.313   1.474   1.749
  120TCM    cl1  764   2.391   1.319   1.795
  120TCM    cl2  765   2.369   1.604   1.859
  120TCM     h1  766   2.340   1.499   1.646
  120TCM    cl3  767   2.135   1.458   1.762
  121TCM     c1  768   1.484   0.083   3.409
  121TCM    cl1  769   1.423   0.249   3.380
  121TCM    cl2  770   1.514   0.003   3.251
  121TCM     h1  771   1.577   0.087   3.466
  121TCM    cl3  772   1.361  -0.011   3.499
  122TCM     c1  773   4.376   3.702   2.406
  122TCM    cl1  774   4.531   3.632   2.463
  122TCM    cl2  775   4.248   3.577   2.411
  122TCM     h1  776   4.349   3.786   2.471
  122TCM    cl3  777   4.397   3.760   2.238
  123TCM     c1  778   4.654   1.145   3.607
  123TCM    cl1  779   4.528   1.081   3.497
  123TCM    cl2  780   4.816   1.124   3.532
  123TCM     h1  781   4.636   1.251   3.627
  123TCM    cl3  782   4.650   1.054   3.762
  124TCM     c1  783   3.787   1.668   2.359
  124TCM    cl1  784   3.623   1.735   2.334
  124TCM    cl2  785   3.909   1.797   2.343
  124TCM     h1  786   3.793   1.624   2.459
  124TCM    cl3  787   3.819   1.541   2.236
  125TCM     c1  788   4.915   4.142   3.115
  125TCM    cl1  789   5.025   4.036   3.210
  125TCM    cl2  790   4.868   4.057   2.963
  125TCM     h1  791   4.825   4.163   3.173
  125TCM    cl3  792   4.998   4.295   3.074
  126TCM     c1  793   0.530   1.759   0.043
  126TCM    cl1  794   0.580   1.827   0.201
  126TCM    cl2  795   0.424   1.875  -0.042
  126TCM     h1  796   0.619   1.739  -0.017
  126TCM    cl3  797   0.441   1.605   0.070
  127TCM     c1  798   3.436   1.665   3.292
  127TCM    cl1  799   3.287   1.585   3.234
  127TCM    cl2  800   3.568   1.638   3.173
  127TCM     h1  801   3.419   1.772   3.303
  127TCM    cl3  802   3.484   1.595   3.450
  128TCM     c1  803   1.598   2.361   2.406
  128TCM    cl1  804   1.484   2.421   2.281
  128TCM    cl2  805   1.512   2.248   2.516
  128TCM     h1  806   1.681   2.308   2.358
  128TCM    cl3  807   1.662   2.500   2.499
  129TCM     c1  808   0.490   2.836   4.693
  129TCM    cl1  809   0.450   2.979   4.593
  129TCM    cl2  810   0.440   2.866   4.863
  129TCM     h1  811   0.438   2.748   4.654
  129TCM    cl3  812   0.667   2.808   4.687
  130TCM     c1  813   0.907   4.699   4.562
  130TCM    cl1  814   0.897   4.754   4.733
  130TCM    cl2  815   0.760   4.752   4.474
  130TCM     h1  816   0.996   4.742   4.515
  130TCM    cl3  817   0.919   4.520   4.558
  131TCM     c1  818   4.763   4.560   4.853
  131TCM    cl1  819   4.871   4.580   4.711
  131TCM    cl2  820   4.831   4.433   4.961
  131TCM     h1  821   4.757   4.654   4.908
  131TCM    cl3  822   4.599   4.511   4.800
  132TCM     c1  823   0.683   1.300   0.282
  132TCM    cl1  824   0.763   1.308   0.442
  132TCM    cl2  825   0.743   1.435   0.180
  132TCM     h1  826   0.707   1.205   0.234
  132TCM    cl3  827   0.505   1.313   0.302
  133TCM     c1  828   2.393   0.267   3.273
  133TCM    cl1  829   2.300   0.418   3.246
  133TCM    cl2  830   2.566   0.308   3.293
  133TCM     h1  831   2.356   0.217   3.363
  133TCM    cl3  832   2.373   0.159   3.132
  134TCM     c1  833   0.544   1.352   3.103
  134TCM    cl1  834   0.367   1.332   3.121
  134TCM    cl2  835   0.618   1.385   3.264
  134TCM     h1  836   0.587   1.261   3.061
  134TCM    cl3  837   0.577   1.491   2.994
  135TCM     c1  838   0.134   4.335   4.676
  135TCM    cl1  839   0.187   4.347   4.505
  135TCM    cl2  840   0.266   4.264   4.774
  135TCM     h1  841   0.110   4.434   4.713
  135TCM    cl3  842  -0.010   4.228   4.686
  136TCM     c1  843   4.023   1.128   2.043
  136TCM    cl1  844   4.167   1.158   2.145
  136TCM    cl2  845   3.886   1.226   2.104
  136TCM     h1  846   4.045   1.156   1.940
  136TCM    cl3  847   3.978   0.954   2.051
  137TCM     c1  848   1.517   0.518   1.787
  137TCM    cl1  849   1.530   0.388   1.910
  137TCM    cl2  850   1.487   0.446   1.626
  137TCM     h1  851   1.435   0.585   1.814
  137TCM    cl3  852   1.671   0.611   1.783
  138TCM     c1  853   2.213   1.675   2.964
  138TCM    cl1  854   2.322   1.741   2.837
  138TCM    cl2  855   2.115   1.808   3.033
  138TCM     h1  856   2.147   1.600   2.920
  138TCM    cl3  857   2.312   1.600   3.093
  139TCM     c1  858   2.696   3.576   3.590
  139TCM    cl1  859   2.779   3.722   3.655
  139TCM    cl2  860   2.566   3.526   3.703
  139TCM     h1  861   2.652   3.600   3.492
  139TCM    cl3  862   2.815   3.443   3.570
  140TCM     c1  863   0.884   1.339   3.513
  140TCM    cl1  864   0.823   1.500   3.562
  140TCM    cl2  865   0.809   1.212   3.614
  140TCM     h1  866   0.860   1.321   3.408
  140TCM    cl3  867   1.062   1.333   3.535
  141TCM     c1  868   0.900   4.298   1.334
  141TCM    cl1  869   0.945   4.229   1.175
  141TCM    cl2  870   0.779   4.428   1.311
  141TCM     h1  871   0.857   4.219   1.397
  141TCM    cl3  872   1.046   4.365   1.415
  142TCM     c1  873   3.719   4.300   2.312
  142TCM    cl1  874   3.891   4.261   2.281
  142TCM    cl2  875   3.633   4.152   2.364
  142TCM     h1  876   3.712   4.376   2.391
  142TCM    cl3  877   3.645   4.364   2.161
  143TCM     c1  878   0.757   2.391   3.170
  143TCM    cl1  879   0.808   2.354   3.002
  143TCM    cl2  880   0.653   2.257   3.229
  143TCM     h1  881   0.845   2.401   3.234
  143TCM    cl3  882   0.663   2.544   3.170
  144TCM     c1  883   1.872   3.659   1.257
  144TCM    cl1  884   1.970   3.718   1.119
  144TCM    cl2  885   1.775   3.794   1.324
  144TCM     h1  886   1.806   3.579   1.223
  144TCM    cl3  887   1.982   3.597   1.384
  145TCM     c1  888   1.544   1.454   2.370
  145TCM    cl1  889   1.398   1.543   2.423
  145TCM    cl2  890   1.493   1.297   2.300
  145TCM     h1  891   1.597   1.512   2.294
  145TCM    cl3  892   1.652   1.425   2.510
  146TCM     c1  893   4.033   0.014   3.647
  146TCM    cl1  894   4.011  -0.145   3.566
  146TCM    cl2  895   4.182   0.009   3.747
  146TCM     h1  896   4.041   0.093   3.572
  146TCM    cl3  897   3.893   0.046   3.755
  147TCM     c1  898   0.008   4.484   4.208
  147TCM    cl1  899   0.117   4.561   4.088
  147TCM    cl2  900  -0.153   4.456   4.132
  147TCM     h1  901   0.050   4.388   4.240
  147TCM    cl3  902  -0.011   4.593   4.349
  148TCM     c1  903   1.115   1.550   0.644
  148TCM    cl1  904   0.991   1.634   0.743
  148TCM    cl2  905   1.110   1.615   0.477
  148TCM     h1  906   1.214   1.566   0.687
  148TCM    cl3  907   1.079   1.374   0.639
  149TCM     c1  908   2.737   2.873   4.823
  149TCM    cl1  909   2.731   2.993   4.690
  149TCM    cl2  910   2.604   2.754   4.800
  149TCM     h1  911   2.833   2.821   4.821
  149TCM    cl3  912   2.716   2.957   4.980
  150TCM     c1  913   3.614   1.351   2.945
  150TCM    cl1  914   3.439   1.350   2.983
  150TCM    cl2  915   3.634   1.347   2.767
  150TCM     h1  916   3.660   1.441   2.986
  150TCM    cl3  917   3.692   1.206   3.017
  151TCM     c1  918   3.470   0.302   1.667
  151TCM    cl1  919   3.550   0.461   1.640
  151TCM    cl2  920   3.509   0.193   1.529
  151TCM     h1  921   3.506   0.259   1.760
  151TCM    cl3  922   3.293   0.327   1.674
  152TCM     c1  923   3.824   2.254   1.305
  152TCM    cl1  924   3.971   2.288   1.402
  152TCM    cl2  925   3.865   2.137   1.175
  152TCM     h1  926   3.746   2.212   1.369
  152TCM    cl3  927   3.765   2.407   1.232
  153TCM     c1  928   2.996   4.082   2.415
  153TCM    cl1  929   2.925   4.151   2.565
  153TCM    cl2  930   3.150   3.999   2.456
  153TCM     h1  931   2.926   4.011   2.370
  153TCM    cl3  932   3.030   4.214   2.299
  154TCM     c1  933   4.333   0.920   2.437
  154TCM    cl1  934   4.252   0.873   2.590
  154TCM    cl2  935   4.258   0.831   2.300
  154TCM     h1  936   4.321   1.028   2.421
  154TCM    cl3  937   4.508   0.880   2.446
  155TCM     c1  938   1.097   1.880   4.558
  155TCM    cl1  939   1.007   1.970   4.432
  155TCM    cl2  940   1.174   1.995   4.672
  155TCM     h1  941   1.028   1.815   4.613
  155TCM    cl3  942   1.224   1.782   4.479
  156TCM     c1  943   2.305   4.665   4.210
  156TCM    cl1  944   2.383   4.507   4.244
  156TCM    cl2  945   2.138   4.666   4.275
  156TCM     h1  946   2.363   4.745   4.258
  156TCM    cl3  947   2.299   4.695   4.034
  157TCM     c1  948   2.299   4.944   0.005
  157TCM    cl1  949   2.406   5.028   0.122
  157TCM    cl2  950   2.394   4.891  -0.138
  157TCM     h1  951   2.252   4.857   0.052
  157TCM    cl3  952   2.172   5.058  -0.050
  158TCM     c1  953   2.045   1.034   2.722
  158TCM    cl1  954   1.923   1.164   2.705
  158TCM    cl2  955   2.099   1.027   2.893
  158TCM     h1  956   2.001   0.938   2.693
  158TCM    cl3  957   2.186   1.069   2.616
  159TCM     c1  958   2.003   2.182   4.827
  159TCM    cl1  959   1.947   2.345   4.879
  159TCM    cl2  960   2.035   2.184   4.650
  159TCM     h1  961   2.094   2.156   4.881
  159TCM    cl3  962   1.876   2.060   4.863
  160TCM     c1  963   2.160   1.861   1.555
  160TCM    cl1  964   2.111   1.833   1.726
  160TCM    cl2  965   2.225   1.708   1.487
  160TCM     h1  966   2.073   1.893   1.497
  160TCM    cl3  967   2.287   1.988   1.550
  161TCM     c1  968   2.658   2.590   0.363
  161TCM    cl1  969   2.787   2.471   0.325
  161TCM    cl2  970   2.629   2.693   0.220
  161TCM     h1  971   2.567   2.536   0.389
  161TCM    cl3  972   2.708   2.691   0.502
  162TCM     c1  973   2.873   2.066   1.966
  162TCM    cl1  974   2.806   2.153   2.107
  162TCM    cl2  975   2.740   1.978   1.883
  162TCM     h1  976   2.919   2.137   1.896
  162TCM    cl3  977   2.997   1.948   2.020
  163TCM     c1  978   4.719   4.417   2.220
  163TCM    cl1  979   4.620   4.398   2.369
  163TCM    cl2  980   4.814   4.569   2.230
  163TCM     h1  981   4.786   4.332   2.210
  163TCM    cl3  982   4.610   4.425   2.078
  164TCM     c1  983   3.212   0.038   4.428
  164TCM    cl1  984   3.247   0.190   4.517
  164TCM    cl2  985   3.087  -0.054   4.518
  164TCM     h1  986   3.175   0.061   4.328
  164TCM    cl3  987   3.362  -0.060   4.417
  165TCM     c1  988   3.567   3.972   3.651
  165TCM    cl1  989   3.692   3.849   3.688
  165TCM    cl2  990   3.567   4.096   3.781
  165TCM     h1  991   3.589   4.019   3.555
  165TCM    cl3  992   3.406   3.893   3.644
  166TCM     c1  993   1.965   1.168   2.257
  166TCM    cl1  994   1.970   1.007   2.335
  166TCM    cl2  995   1.970   1.297   2.381
  166TCM     h1  996   2.051   1.179   2.190
  166TCM    cl3  997   1.813   1.183   2.162
  167TCM     c1  998   2.712   0.187   4.784
  167TCM    cl1  999   2.742   0.010   4.781
  167TCM    cl2 1000   2.832   0.266   4.892
  167TCM     h1 1001   2.721   0.228   4.682
  167TCM    cl3 1002   2.548   0.220   4.847
  168TCM     c1 1003   2.511   2.755   1.832
  168TCM    cl1 1004   2.576   2.827   1.984
  168TCM    cl2 1005   2.533   2.872   1.698
  168TCM     h1 1006   2.565   2.662   1.810
  168TCM    cl3 1007   2.337   2.720   1.853
  169TCM     c1 1008   1.121   4.657   1.209
  169TCM    cl1 1009   1.012   4.742   1.324
  169TCM    cl2 1010   1.248   4.770   1.151
  169TCM     h1 1011   1.168   4.572   1.260
  169TCM    cl3 1012   1.026   4.598   1.069
  170TCM     c1 1013   4.127   2.349   4.211
  170TCM    cl1 1014   4.002   2.393   4.333
  170TCM    cl2 1015   4.094   2.184   4.149
  170TCM     h1 1016   4.123   2.420   4.128
  170TCM    cl3 1017   4.290   2.353   4.287
  171TCM     c1 1018   1.979   4.732   4.696
  171TCM    cl1 1019   1.800   4.722   4.696
  171TCM    cl2 1020   2.038   4.729   4.865
  171TCM     h1 1021   2.021   4.648   4.640
  171TCM    cl3 1022   2.028   4.886   4.619
  172TCM     c1 1023   3.243   3.630   0.235
  172TCM    cl1 1024   3.128   3.555   0.120
  172TCM    cl2 1025   3.332   3.501   0.323
  172TCM     h1 1026   3.315   3.692   0.181
  172TCM    cl3 1027   3.153   3.731   0.353
  173TCM     c1 1028   4.971   1.151   0.466
  173TCM    cl1 1029   5.041   1.238   0.607
  173TCM    cl2 1030   5.103   1.096   0.359
  173TCM     h1 1031   4.914   1.065   0.501
  173TCM    cl3 1032   4.862   1.262   0.376
  174TCM     c1 1033   4.017   1.644   1.879
  174TCM    cl1 1034   4.136   1.705   1.759
  174TCM    cl2 1035   3.976   1.774   1.995
  174TCM     h1 1036   3.926   1.612   1.826
  174TCM    cl3 1037   4.087   1.504   1.967
  175TCM     c1 1038   3.874   1.685   4.779
  175TCM    cl1 1039   3.758   1.624   4.657
  175TCM    cl2 1040   3.789   1.711   4.934
  175TCM     h1 1041   3.955   1.613   4.792
  175TCM    cl3 1042   3.943   1.841   4.721
  176TCM     c1 1043   3.791   3.163   4.686
  176TCM    cl1 1044   3.855   3.330   4.700
  176TCM    cl2 1045   3.781   3.089   4.849
  176TCM     h1 1046   3.692   3.166   4.640
  176TCM    cl3 1047   3.902   3.066   4.583
  177TCM     c1 1048   1.391   0.619   3.349
  177TCM    cl1 1049   1.290   0.661   3.492
  177TCM    cl2 1050   1.473   0.767   3.287
  177TCM     h1 1051   1.466   0.545   3.377
  177TCM    cl3 1052   1.286   0.551   3.221
  178TCM     c1 1053   3.351   0.132   0.892
  178TCM    cl1 1054   3.414   0.081   1.052
  178TCM    cl2 1055   3.199   0.224   0.916
  178TCM     h1 1056   3.425   0.196   0.841
  178TCM    cl3 1057   3.318  -0.013   0.792
  179TCM     c1 1058   1.259   0.237   3.749
  179TCM    cl1 1059   1.429   0.294   3.738
  179TCM    cl2 1060   1.156   0.373   3.805
  179TCM     h1 1061   1.224   0.203   3.651
  179TCM    cl3 1062   1.248   0.103   3.867
  180TCM     c1 1063   3.276   0.233   3.062
  180TCM    cl1 1064   3.297   0.361   2.937
  180TCM    cl2 1065   3.205   0.304   3.210
  180TCM     h1 1066   3.210   0.155   3.023
  180TCM    cl3 1067   3.436   0.162   3.101
  181TCM     c1 1068   2.181   0.661   4.033
  181TCM    cl1 1069   2.241   0.742   3.884
  181TCM    cl2 1070   2.038   0.752   4.093
  181TCM     h1 1071   2.152   0.558   4.010
  181TCM    cl3 1072   2.310   0.662   4.158
  182TCM     c1 1073   3.170   0.410   0.002
  182TCM    cl1 1074   3.197   0.577   0.063
  182TCM    cl2 1075   3.178   0.295   0.139
  182TCM     h1 1076   3.072   0.404  -0.046
  182TCM    cl3 1077   3.298   0.369  -0.117
  183TCM     c1 1078   1.766   1.875   2.355
  183TCM    cl1 1079   1.643   1.814   2.471
  183TCM    cl2 1080   1.924   1.888   2.438
  183TCM     h1 1081   1.774   1.806   2.271
  183TCM    cl3 1082   1.716   2.037   2.295
  184TCM     c1 1083   4.896   3.984   4.426
  184TCM    cl1 1084   4.888   3.838   4.322
  184TCM    cl2 1085   4.734   4.014   4.497
  184TCM     h1 1086   4.969   3.968   4.506
  184TCM    cl3 1087   4.946   4.125   4.327
  185TCM     c1 1088   0.724   0.840   2.698
  185TCM    cl1 1089   0.571   0.832   2.792
  185TCM    cl2 1090   0.688   0.894   2.531
  185TCM     h1 1091   0.792   0.911   2.746
  185TCM    cl3 1092   0.799   0.677   2.693
  186TCM     c1 1093   4.722   0.774   3.434
  186TCM    cl1 1094   4.619   0.708   3.566
  186TCM    cl2 1095   4.677   0.697   3.279
  186TCM     h1 1096   4.707   0.882   3.427
  186TCM    cl3 1097   4.895   0.741   3.471
  187TCM     c1 1098   0.367   4.629   0.344
  187TCM    cl1 1099   0.409   4.737   0.482
  187TCM    cl2 1100   0.445   4.690   0.195
  187TCM     h1 1101   0.402   4.527   0.366
  187TCM    cl3 1102   0.189   4.628   0.322
  188TCM     c1 1103   0.848   3.189   4.942
  188TCM    cl1 1104   0.898   3.289   5.082
  188TCM    cl2 1105   0.699   3.099   4.983
  188TCM     h1 1106   0.829   3.254   4.856
  188TCM    cl3 1107   0.979   3.074   4.899
  189TCM     c1 1108   1.264   2.257   4.448
  189TCM    cl1 1109   1.393   2.289   4.568
  189TCM    cl2 1110   1.315   2.125   4.339
  189TCM     h1 1111   1.171   2.229   4.500
  189TCM    cl3 1112   1.236   2.406   4.352
  190TCM     c1 1113   0.901   3.058   0.352
  190TCM    cl1 1114   0.940   3.071   0.526
  190TCM    cl2 1115   0.763   2.947   0.329
  190TCM     h1 1116   0.876   3.157   0.313
  190TCM    cl3 1117   1.043   2.992   0.265
  191TCM     c1 1118   4.090   1.399   2.426
  191TCM    cl1 1119   4.183   1.521   2.332
  191TCM    cl2 1120   4.008   1.480   2.564
  191TCM     h1 1121   4.016   1.352   2.361
  191TCM    cl3 1122   4.203   1.274   2.489
  192TCM     c1 1123   2.175   0.180   4.112
  192TCM    cl1 1124   2.250   0.060   4.003
  192TCM    cl2 1125   2.067   0.287   4.017
  192TCM     h1 1126   2.116   0.128   4.188
  192TCM    cl3 1127   2.302   0.278   4.190
  193TCM     c1 1128   0.510   0.047   2.406
  193TCM    cl1 1129   0.602  -0.105   2.393
  193TCM    cl2 1130   0.566   0.137   2.551
  193TCM     h1 1131   0.526   0.108   2.317
  193TCM    cl3 1132   0.335   0.010   2.424
  194TCM     c1 1133   1.891   4.367   4.336
  194TCM    cl1 1134   2.040   4.317   4.250
  194TCM    cl2 1135   1.933   4.432   4.498
  194TCM     h1 1136   1.840   4.444   4.278
  194TCM    cl3 1137   1.783   4.225   4.356
  195TCM     c1 1138   4.209   4.374   1.069
  195TCM    cl1 1139   4.277   4.309   0.917
  195TCM    cl2 1140   4.340   4.388   1.192
  195TCM     h1 1141   4.166   4.473   1.051
  195TCM    cl3 1142   4.082   4.264   1.131
  196TCM     c1 1143   1.246   2.616   0.108
  196TCM    cl1 1144   1.392   2.552   0.027
  196TCM    cl2 1145   1.114   2.494   0.103
  196TCM     h1 1146   1.270   2.640   0.212
  196TCM    cl3 1147   1.192   2.765   0.024
  197TCM     c1 1148   1.285   0.799   4.036
  197TCM    cl1 1149   1.119   0.830   4.098
  197TCM    cl2 1150   1.305   0.878   3.876
  197TCM     h1 1151   1.359   0.839   4.107
  197TCM    cl3 1152   1.310   0.622   4.018
  198TCM     c1 1153   1.559   1.325   0.402
  198TCM    cl1 1154   1.528   1.336   0.225
  198TCM    cl2 1155   1.415   1.384   0.492
  198TCM     h1 1156   1.579   1.221   0.429
  198TCM    cl3 1157   1.700   1.427   0.444
  199TCM     c1 1158   1.372   4.370   0.947
  199TCM    cl1 1159   1.548   4.333   0.943
  199TCM    cl2 1160   1.343   4.534   0.879
  199TCM     h1 1161   1.318   4.296   0.888
  199TCM    cl3 1162   1.314   4.365   1.117
  200TCM     c1 1163   0.208   2.495   2.492
  200TCM    cl1 1164   0.244   2.320   2.494
  200TCM    cl2 1165   0.113   2.533   2.345
  200TCM     h1 1166   0.151   2.522   2.582
  200TCM    cl3 1167   0.361   2.588   2.487
  201TCM     c1 1168   0.765   2.592   0.020
  201TCM    cl1 1169   0.783   2.516  -0.141
  201TCM    cl2 1170   0.591   2.594   0.065
  201TCM     h1 1171   0.822   2.535   0.094
  201TCM    cl3 1172   0.827   2.761   0.014
  202TCM     c1 1173   3.623   4.500   3.141
  202TCM    cl1 1174   3.778   4.574   3.089
  202TCM    cl2 1175   3.651   4.329   3.187
  202TCM     h1 1176   3.583   4.554   3.227
  202TCM    cl3 1177   3.504   4.508   3.006
  203TCM     c1 1178   2.376   0.810   2.192
  203TCM    cl1 1179   2.448   0.945   2.098
  203TCM    cl2 1180   2.213   0.774   2.128
  203TCM     h1 1181   2.439   0.721   2.184
  203TCM    cl3 1182   2.363   0.858   2.365
  204TCM     c1 1183   0.592   4.652   4.063
  204TCM    cl1 1184   0.467   4.529   4.023
  204TCM    cl2 1185   0.661   4.718   3.911
  204TCM     h1 1186   0.547   4.733   4.122
  204TCM    cl3 1187   0.723   4.574   4.158
  205TCM     c1 1188   2.042   4.665   3.582
  205TCM    cl1 1189   2.049   4.840   3.620
  205TCM    cl2 1190   2.076   4.641   3.407
  205TCM     h1 1191   2.116   4.611   3.642
  205TCM    cl3 1192   1.878   4.603   3.618
  206TCM     c1 1193   1.096   4.938   0.844
  206TCM    cl1 1194   1.032   4.819   0.726
  206TCM    cl2 1195   0.980   4.957   0.979
  206TCM     h1 1196   1.192   4.902   0.883
  206TCM    cl3 1197   1.119   5.095   0.762
  207TCM     c1 1198   2.586   3.193   0.820
  207TCM    cl1 1199   2.636   3.127   0.979
  207TCM    cl2 1200   2.734   3.229   0.724
  207TCM     h1 1201   2.525   3.120   0.767
  207TCM    cl3 1202   2.491   3.343   0.843
  208TCM     c1 1203   0.935   3.637   0.547
  208TCM    cl1 1204   0.851   3.772   0.464
  208TCM    cl2 1205   0.891   3.482   0.467
  208TCM     h1 1206   1.043   3.652   0.542
  208TCM    cl3 1207   0.884   3.630   0.719
  209TCM     c1 1208   3.825   2.205   1.790
  209TCM    cl1 1209   3.891   2.368   1.759
  209TCM    cl2 1210   3.959   2.089   1.816
  209TCM     h1 1211   3.761   2.208   1.879
  209TCM    cl3 1212   3.727   2.151   1.649
  210TCM     c1 1213   2.717   2.305   0.706
  210TCM    cl1 1214   2.577   2.332   0.597
  210TCM    cl2 1215   2.749   2.455   0.799
  210TCM     h1 1216   2.693   2.224   0.776
  210TCM    cl3 1217   2.861   2.261   0.610
  211TCM     c1 1218   2.708   3.170   3.895
  211TCM    cl1 1219   2.710   3.328   3.980
  211TCM    cl2 1220   2.862   3.149   3.807
  211TCM     h1 1221   2.696   3.090   3.968
  211TCM    cl3 1222   2.571   3.166   3.779
  212TCM     c1 1223   1.130   2.493   3.784
  212TCM    cl1 1224   1.272   2.507   3.893
  212TCM    cl2 1225   0.980   2.498   3.882
  212TCM     h1 1226   1.130   2.576   3.713
  212TCM    cl3 1227   1.137   2.337   3.694
  213TCM     c1 1228   1.739   2.779   2.954
  213TCM    cl1 1229   1.636   2.666   3.047
  213TCM    cl2 1230   1.717   2.750   2.778
  213TCM     h1 1231   1.711   2.882   2.978
  213TCM    cl3 1232   1.911   2.751   2.998
  214TCM     c1 1233   3.758   4.581   3.647
  214TCM    cl1 1234   3.689   4.434   3.724
  214TCM    cl2 1235   3.717   4.725   3.745
  214TCM     h1 1236   3.866   4.571   3.639
  214TCM    cl3 1237   3.687   4.598   3.483
  215TCM     c1 1238   0.398   3.261   0.208
  215TCM    cl1 1239   0.546   3.224   0.302
  215TCM    cl2 1240   0.328   3.110   0.142
  215TCM     h1 1241   0.324   3.311   0.272
  215TCM    cl3 1242   0.441   3.370   0.072
  216TCM     c1 1243   1.476   2.136   4.928
  216TCM    cl1 1244   1.534   2.070   5.084
  216TCM    cl2 1245   1.589   2.263   4.870
  216TCM     h1 1246   1.469   2.056   4.854
  216TCM    cl3 1247   1.314   2.210   4.951
  217TCM     c1 1248   0.532   1.832   2.774
  217TCM    cl1 1249   0.554   1.698   2.656
  217TCM    cl2 1250   0.684   1.855   2.867
  217TCM     h1 1251   0.507   1.924   2.721
  217TCM    cl3 1252   0.400   1.789   2.888
  218TCM     c1 1253   3.696   0.206   4.551
  218TCM    cl1 1254   3.603   0.261   4.407
  218TCM    cl2 1255   3.583   0.133   4.669
  218TCM     h1 1256   3.770   0.132   4.520
  218TCM    cl3 1257   3.779   0.346   4.627
  219TCM     c1 1258   1.878   2.681   1.760
  219TCM    cl1 1259   1.932   2.791   1.891
  219TCM    cl2 1260   1.809   2.779   1.627
  219TCM     h1 1261   1.963   2.623   1.723
  219TCM    cl3 1262   1.753   2.570   1.825
  220TCM     c1 1263   3.926   0.470   3.750
  220TCM    cl1 1264   4.076   0.371   3.744
  220TCM    cl2 1265   3.794   0.382   3.666
  220TCM     h1 1266   3.898   0.489   3.854
  220TCM    cl3 1267   3.955   0.626   3.667
  221TCM     c1 1268   0.427   3.685   1.014
  221TCM    cl1 1269   0.550   3.786   1.097
  221TCM    cl2 1270   0.272   3.691   1.104
  221TCM     h1 1271   0.411   3.722   0.912
  221TCM    cl3 1272   0.485   3.515   1.007
  222TCM     c1 1273   0.172   1.512   0.402
  222TCM    cl1 1274   0.165   1.438   0.238
  222TCM    cl2 1275   0.021   1.604   0.432
  222TCM     h1 1276   0.184   1.434   0.477
  222TCM    cl3 1277   0.313   1.624   0.411
  223TCM     c1 1278   3.531   2.392   2.505
  223TCM    cl1 1279   3.666   2.489   2.436
  223TCM    cl2 1280   3.378   2.485   2.491
  223TCM     h1 1281   3.522   2.298   2.451
  223TCM    cl3 1282   3.565   2.358   2.678
  224TCM     c1 1283   0.424   4.787   2.714
  224TCM    cl1 1284   0.518   4.643   2.662
  224TCM    cl2 1285   0.446   4.813   2.890
  224TCM     h1 1286   0.458   4.875   2.659
  224TCM    cl3 1287   0.250   4.758   2.680
  225TCM     c1 1288   0.271   4.529   2.316
  225TCM    cl1 1289   0.175   4.680   2.329
  225TCM    cl2 1290   0.445   4.570   2.299
  225TCM     h1 1291   0.256   4.468   2.406
  225TCM    cl3 1292   0.217   4.437   2.171
  226TCM     c1 1293   0.398   2.362   2.169
  226TCM    cl1 1294   0.286   2.223   2.150
  226TCM    cl2 1295   0.449   2.419   2.006
  226TCM     h1 1296   0.347   2.443   2.222
  226TCM    cl3 1297   0.541   2.309   2.262
  227TCM     c1 1298   0.393   3.803   2.633
  227TCM    cl1 1299   0.407   3.690   2.772
  227TCM    cl2 1300   0.463   3.725   2.487
  227TCM     h1 1301   0.288   3.827   2.616
  227TCM    cl3 1302   0.485   3.953   2.670
  228TCM     c1 1303   2.405   0.367   3.702
  228TCM    cl1 1304   2.395   0.420   3.873
  228TCM    cl2 1305   2.415   0.511   3.595
  228TCM     h1 1306   2.494   0.305   3.688
  228TCM    cl3 1307   2.258   0.273   3.661
  229TCM     c1 1308   1.935   1.670   2.013
  229TCM    cl1 1309   1.816   1.664   1.880
  229TCM    cl2 1310   1.872   1.578   2.154
  229TCM     h1 1311   2.030   1.626   1.980
  229TCM    cl3 1312   1.961   1.841   2.059
  230TCM     c1 1313   1.196   3.187   1.995
  230TCM    cl1 1314   1.132   3.353   1.968
  230TCM    cl2 1315   1.331   3.156   1.881
  230TCM     h1 1316   1.233   3.178   2.098
  230TCM    cl3 1317   1.066   3.068   1.967
  231TCM     c1 1318   4.736   3.735   2.793
  231TCM    cl1 1319   4.824   3.791   2.647
  231TCM    cl2 1320   4.720   3.557   2.789
  231TCM     h1 1321   4.792   3.765   2.883
  231TCM    cl3 1322   4.573   3.810   2.796
  232TCM     c1 1323   4.254   0.711   4.433
  232TCM    cl1 1324   4.344   0.770   4.577
  232TCM    cl2 1325   4.329   0.778   4.285
  232TCM     h1 1326   4.257   0.601   4.430
  232TCM    cl3 1327   4.083   0.764   4.443
  233TCM     c1 1328   0.387   2.697   4.282
  233TCM    cl1 1329   0.559   2.723   4.325
  233TCM    cl2 1330   0.302   2.855   4.291
  233TCM     h1 1331   0.378   2.654   4.182
  233TCM    cl3 1332   0.312   2.589   4.404
  234TCM     c1 1333   1.060   1.831   0.195
  234TCM    cl1 1334   0.933   1.947   0.246
  234TCM    cl2 1335   1.169   1.908   0.076
  234TCM     h1 1336   1.117   1.800   0.283
  234TCM    cl3 1337   0.983   1.687   0.121
  235TCM     c1 1338   1.711   1.805   1.523
  235TCM    cl1 1339   1.573   1.761   1.629
  235TCM    cl2 1340   1.833   1.673   1.523
  235TCM     h1 1341   1.675   1.820   1.421
  235TCM    cl3 1342   1.786   1.956   1.583
  236TCM     c1 1343   2.517   4.395   3.561
  236TCM    cl1 1344   2.369   4.494   3.583
  236TCM    cl2 1345   2.525   4.334   3.393
  236TCM     h1 1346   2.606   4.455   3.583
  236TCM    cl3 1347   2.510   4.255   3.674
  237TCM     c1 1348   3.319   0.427   1.321
  237TCM    cl1 1349   3.203   0.290   1.312
  237TCM    cl2 1350   3.229   0.581   1.301
  237TCM     h1 1351   3.369   0.426   1.418
  237TCM    cl3 1352   3.439   0.411   1.189
  238TCM     c1 1353   2.484   4.633   4.624
  238TCM    cl1 1354   2.312   4.672   4.591
  238TCM    cl2 1355   2.587   4.718   4.505
  238TCM     h1 1356   2.510   4.666   4.725
  238TCM    cl3 1357   2.507   4.456   4.612
  239TCM     c1 1358   2.675   1.694   2.915
  239TCM    cl1 1359   2.662   1.652   3.089
  239TCM    cl2 1360   2.681   1.545   2.817
  239TCM     h1 1361   2.588   1.754   2.886
  239TCM    cl3 1362   2.825   1.789   2.890
  240TCM     c1 1363   0.808   1.516   4.449
  240TCM    cl1 1364   0.967   1.532   4.529
  240TCM    cl2 1365   0.823   1.404   4.310
  240TCM     h1 1366   0.733   1.479   4.520
  240TCM    cl3 1367   0.759   1.677   4.387
  241TCM     c1 1368   3.030   0.899   2.832
  241TCM    cl1 1369   3.195   0.832   2.810
  241TCM    cl2 1370   2.967   0.952   2.673
  241TCM     h1 1371   2.964   0.823   2.874
  241TCM    cl3 1372   3.038   1.040   2.942
  242TCM     c1 1373   3.641   0.734   1.281
  242TCM    cl1 1374   3.757   0.871   1.270
  242TCM    cl2 1375   3.526   0.762   1.416
  242TCM     h1 1376   3.585   0.726   1.187
  242TCM    cl3 1377   3.731   0.582   1.311
  243TCM     c1 1378   0.601   0.281   0.120
  243TCM    cl1 1379   0.651   0.376   0.264
  243TCM    cl2 1380   0.423   0.296   0.098
  243TCM     h1 1381   0.652   0.319   0.031
  243TCM    cl3 1382   0.643   0.108   0.144
  244TCM     c1 1383   0.687   3.745   3.580
  244TCM    cl1 1384   0.732   3.572   3.573
  244TCM    cl2 1385   0.527   3.762   3.660
  244TCM     h1 1386   0.762   3.800   3.637
  244TCM    cl3 1387   0.677   3.810   3.413
  245TCM     c1 1388   0.408   4.114   4.071
  245TCM    cl1 1389   0.571   4.188   4.087
  245TCM    cl2 1390   0.361   4.107   3.898
  245TCM     h1 1391   0.410   4.013   4.112
  245TCM    cl3 1392   0.289   4.214   4.161
  246TCM     c1 1393   3.670   1.817   0.262
  246TCM    cl1 1394   3.510   1.817   0.182
  246TCM    cl2 1395   3.650   1.766   0.433
  246TCM     h1 1396   3.737   1.747   0.211
  246TCM    cl3 1397   3.741   1.981   0.257
  247TCM     c1 1398   3.358   4.418   3.509
  247TCM    cl1 1399   3.199   4.375   3.580
  247TCM    cl2 1400   3.333   4.500   3.351
  247TCM     h1 1401   3.412   4.484   3.577
  247TCM    cl3 1402   3.453   4.268   3.481
  248TCM     c1 1403   1.955   4.752   2.755
  248TCM    cl1 1404   2.084   4.630   2.734
  248TCM    cl2 1405   2.015   4.912   2.700
  248TCM     h1 1406   1.868   4.724   2.695
  248TCM    cl3 1407   1.908   4.762   2.927
  249TCM     c1 1408   2.591   0.091   2.241
  249TCM    cl1 1409   2.587   0.051   2.416
  249TCM    cl2 1410   2.475   0.224   2.209
  249TCM     h1 1411   2.691   0.122   2.213
  249TCM    cl3 1412   2.541  -0.052   2.146
  250TCM     c1 1413   3.294   1.952   3.799
  250TCM    cl1 1414   3.467   1.965   3.844
  250TCM    cl2 1415   3.276   1.826   3.673
  250TCM     h1 1416   3.235   1.924   3.887
  250TCM    cl3 1417   3.236   2.109   3.736
  251TCM     c1 1418   3.022   2.487   0.060
  251TCM    cl1 1419   2.954   2.632  -0.021
  251TCM    cl2 1420   3.194   2.466   0.011
  251TCM     h1 1421   3.016   2.499   0.168
  251TCM    cl3 1422   2.928   2.343   0.011
  252TCM     c1 1423   1.392   0.252   4.514
  252TCM    cl1 1424   1.291   0.396   4.478
  252TCM    cl2 1425   1.428   0.248   4.690
  252TCM     h1 1426   1.339   0.161   4.485
  252TCM    cl3 1427   1.546   0.265   4.423
  253TCM     c1 1428   0.934   1.482   1.630
  253TCM    cl1 1429   0.798   1.592   1.668
  253TCM    cl2 1430   1.060   1.499   1.757
  253TCM     h1 1431   0.898   1.379   1.628
  253TCM    cl3 1432   1.004   1.526   1.471
  254TCM     c1 1433   0.084   2.838   0.103
  254TCM    cl1 1434   0.191   2.696   0.079
  254TCM    cl2 1435   0.077   2.881   0.277
  254TCM     h1 1436   0.121   2.922   0.045
  254TCM    cl3 1437  -0.081   2.795   0.047
  255TCM     c1 1438   0.491   1.801   3.797
  255TCM    cl1 1439   0.604   1.663   3.793
  255TCM    cl2 1440   0.559   1.931   3.901
  255TCM     h1 1441   0.475   1.840   3.696
  255TCM    cl3 1442   0.335   1.745   3.866
  256TCM     c1 1443   0.924   0.577   0.063
  256TCM    cl1 1444   0.760   0.627   0.009
  256TCM    cl2 1445   0.942   0.400   0.040
  256TCM     h1 1446   1.000   0.629   0.004
  256TCM    cl3 1447   0.944   0.617   0.237
  257TCM     c1 1448   3.651   4.749   4.655
  257TCM    cl1 1449   3.694   4.824   4.812
  257TCM    cl2 1450   3.694   4.575   4.660
  257TCM     h1 1451   3.544   4.760   4.637
  257TCM    cl3 1452   3.741   4.831   4.523
  258TCM     c1 1453   3.124   3.706   3.280
  258TCM    cl1 1454   3.082   3.773   3.441
  258TCM    cl2 1455   3.124   3.527   3.288
  258TCM     h1 1456   3.051   3.739   3.206
  258TCM    cl3 1457   3.287   3.765   3.233
  259TCM     c1 1458   2.833   4.359   2.938
  259TCM    cl1 1459   2.852   4.505   2.835
  259TCM    cl2 1460   2.696   4.385   3.051
  259TCM     h1 1461   2.814   4.272   2.875
  259TCM    cl3 1462   2.984   4.333   3.032
  260TCM     c1 1463   3.278   1.079   2.540
  260TCM    cl1 1464   3.165   1.165   2.430
  260TCM    cl2 1465   3.298   1.175   2.690
  260TCM     h1 1466   3.238   0.981   2.564
  260TCM    cl3 1467   3.437   1.061   2.459
  261TCM     c1 1468   4.509   1.895   4.810
  261TCM    cl1 1469   4.535   1.796   4.958
  261TCM    cl2 1470   4.336   1.890   4.765
  261TCM     h1 1471   4.539   1.998   4.830
  261TCM    cl3 1472   4.608   1.829   4.676
  262TCM     c1 1473   3.079   2.008   0.155
  262TCM    cl1 1474   3.202   2.098   0.060
  262TCM    cl2 1475   2.999   2.118   0.272
  262TCM     h1 1476   3.004   1.965   0.088
  262TCM    cl3 1477   3.161   1.876   0.246
  263TCM     c1 1478   4.588   4.682   0.989
  263TCM    cl1 1479   4.667   4.535   1.056
  263TCM    cl2 1480   4.563   4.801   1.121
  263TCM     h1 1481   4.651   4.725   0.911
  263TCM    cl3 1482   4.429   4.636   0.920
  264TCM     c1 1483   4.639   0.632   2.903
  264TCM    cl1 1484   4.544   0.495   2.971
  264TCM    cl2 1485   4.561   0.688   2.752
  264TCM     h1 1486   4.644   0.713   2.975
  264TCM    cl3 1487   4.805   0.574   2.866
  265TCM     c1 1488   3.525   2.236   4.951
  265TCM    cl1 1489   3.665   2.344   4.982
  265TCM    cl2 1490   3.582   2.066   4.942
  265TCM     h1 1491   3.452   2.247   5.032
  265TCM    cl3 1492   3.449   2.280   4.794
  266TCM     c1 1493   1.873   0.225   2.622
  266TCM    cl1 1494   1.862   0.254   2.798
  266TCM    cl2 1495   1.879   0.381   2.534
  266TCM     h1 1496   1.963   0.167   2.599
  266TCM    cl3 1497   1.727   0.134   2.568
  267TCM     c1 1498   1.350   4.645   4.659
  267TCM    cl1 1499   1.486   4.527   4.650
  267TCM    cl2 1500   1.226   4.586   4.773
  267TCM     h1 1501   1.389   4.741   4.693
  267TCM    cl3 1502   1.276   4.664   4.497
  268TCM     c1 1503   0.123   0.231   4.216
  268TCM    cl1 1504   0.075   0.115   4.088
  268TCM    cl2 1505   0.142   0.144   4.372
  268TCM     h1 1506   0.218   0.278   4.188
  268TCM    cl3 1507  -0.003   0.357   4.234
  269TCM     c1 1508   4.240   4.675   4.727
  269TCM    cl1 1509   4.067   4.690   4.681
  269TCM    cl2 1510   4.252   4.647   4.904
  269TCM     h1 1511   4.285   4.591   4.674
  269TCM    cl3 1512   4.327   4.827   4.686
  270TCM     c1 1513   0.307   2.372   3.449
  270TCM    cl1 1514   0.456   2.471   3.461
  270TCM    cl2 1515   0.210   2.391   3.598
  270TCM     h1 1516   0.248   2.403   3.362
  270TCM    cl3 1517   0.353   2.199   3.432
  271TCM     c1 1518   3.819   1.370   1.575
  271TCM    cl1 1519   3.963   1.464   1.524
  271TCM    cl2 1520   3.671   1.460   1.532
  271TCM     h1 1521   3.819   1.272   1.526
  271TCM    cl3 1522   3.826   1.348   1.753
  272TCM     c1 1523   1.646   4.625   0.013
  272TCM    cl1 1524   1.708   4.695   0.166
  272TCM    cl2 1525   1.480   4.560   0.039
  272TCM     h1 1526   1.642   4.703  -0.064
  272TCM    cl3 1527   1.754   4.493  -0.041
  273TCM     c1 1528   3.587   0.878   3.535
  273TCM    cl1 1529   3.556   0.827   3.366
  273TCM    cl2 1530   3.607   0.732   3.638
  273TCM     h1 1531   3.678   0.938   3.540
  273TCM    cl3 1532   3.448   0.973   3.595
  274TCM     c1 1533   4.412   3.395   3.102
  274TCM    cl1 1534   4.510   3.279   3.005
  274TCM    cl2 1535   4.244   3.333   3.115
  274TCM     h1 1536   4.455   3.404   3.201
  274TCM    cl3 1537   4.411   3.555   3.021
  275TCM     c1 1538   1.425   0.737   0.278
  275TCM    cl1 1539   1.275   0.723   0.375
  275TCM    cl2 1540   1.522   0.587   0.295
  275TCM     h1 1541   1.399   0.752   0.172
  275TCM    cl3 1542   1.520   0.878   0.335
  276TCM     c1 1543   1.137   1.965   0.837
  276TCM    cl1 1544   1.272   1.850   0.864
  276TCM    cl2 1545   1.113   1.988   0.660
  276TCM     h1 1546   1.045   1.926   0.881
  276TCM    cl3 1547   1.178   2.123   0.912
  277TCM     c1 1548   3.448   2.686   2.142
  277TCM    cl1 1549   3.308   2.633   2.043
  277TCM    cl2 1550   3.470   2.863   2.122
  277TCM     h1 1551   3.429   2.663   2.247
  277TCM    cl3 1552   3.596   2.601   2.087
  278TCM     c1 1553   3.062   3.381   2.496
  278TCM    cl1 1554   3.203   3.475   2.554
  278TCM    cl2 1555   2.911   3.456   2.556
  278TCM     h1 1556   3.062   3.380   2.386
  278TCM    cl3 1557   3.074   3.212   2.557
  279TCM     c1 1558   1.238   0.983   4.936
  279TCM    cl1 1559   1.166   0.854   5.037
  279TCM    cl2 1560   1.286   0.914   4.778
  279TCM     h1 1561   1.166   1.063   4.921
  279TCM    cl3 1562   1.383   1.049   5.019
  280TCM     c1 1563   3.131   0.147   0.467
  280TCM    cl1 1564   3.260   0.250   0.538
  280TCM    cl2 1565   3.003   0.122   0.589
  280TCM     h1 1566   3.089   0.197   0.379
  280TCM    cl3 1567   3.200  -0.011   0.419
  281TCM     c1 1568   2.025   3.543   0.704
  281TCM    cl1 1569   1.985   3.710   0.756
  281TCM    cl2 1570   1.874   3.453   0.669
  281TCM     h1 1571   2.087   3.546   0.614
  281TCM    cl3 1572   2.115   3.459   0.835
  282TCM     c1 1573   2.899   3.659   1.649
  282TCM    cl1 1574   3.022   3.756   1.562
  282TCM    cl2 1575   2.805   3.768   1.756
  282TCM     h1 1576   2.832   3.612   1.576
  282TCM    cl3 1577   2.979   3.533   1.747
  283TCM     c1 1578   4.426   0.294   3.857
  283TCM    cl1 1579   4.509   0.136   3.856
  283TCM    cl2 1580   4.517   0.410   3.754
  283TCM     h1 1581   4.324   0.282   3.819
  283TCM    cl3 1582   4.421   0.357   4.025
  284TCM     c1 1583   4.780   2.589   4.263
  284TCM    cl1 1584   4.685   2.449   4.204
  284TCM    cl2 1585   4.920   2.531   4.360
  284TCM     h1 1586   4.817   2.646   4.177
  284TCM    cl3 1587   4.676   2.694   4.365
  285TCM     c1 1588   0.832   4.477   1.753
  285TCM    cl1 1589   0.768   4.327   1.679
  285TCM    cl2 1590   0.804   4.615   1.641
  285TCM     h1 1591   0.781   4.496   1.848
  285TCM    cl3 1592   1.008   4.459   1.781
  286TCM     c1 1593   0.097   0.132   0.228
  286TCM    cl1 1594  -0.064   0.080   0.288
  286TCM    cl2 1595   0.090   0.154   0.050
  286TCM     h1 1596   0.125   0.226   0.275
  286TCM    cl3 1597   0.218   0.005   0.266
  287TCM     c1 1598   4.642   0.299   3.439
  287TCM    cl1 1599   4.607   0.276   3.264
  287TCM    cl2 1600   4.795   0.391   3.457
  287TCM     h1 1601   4.560   0.354   3.486
  287TCM    cl3 1602   4.661   0.139   3.517
  288TCM     c1 1603   3.591   0.004   3.944
  288TCM    cl1 1604   3.506  -0.102   4.061
  288TCM    cl2 1605   3.624   0.163   4.021
  288TCM     h1 1606   3.686  -0.043   3.914
  288TCM    cl3 1607   3.488   0.028   3.800
  289TCM     c1 1608   1.233   1.893   1.363
  289TCM    cl1 1609   1.409   1.918   1.340
  289TCM    cl2 1610   1.145   2.036   1.299
  289TCM     h1 1611   1.202   1.804   1.308
  289TCM    cl3 1612   1.198   1.870   1.538
  290TCM     c1 1613   0.297   0.104   1.190
  290TCM    cl1 1614   0.218   0.158   1.342
  290TCM    cl2 1615   0.238   0.204   1.053
  290TCM     h1 1616   0.406   0.115   1.199
  290TCM    cl3 1617   0.257  -0.068   1.159
  291TCM     c1 1618   3.276   1.529   2.485
  291TCM    cl1 1619   3.197   1.519   2.324
  291TCM    cl2 1620   3.300   1.702   2.527
  291TCM     h1 1621   3.212   1.481   2.560
  291TCM    cl3 1622   3.435   1.448   2.479
  292TCM     c1 1623   3.678   0.205   0.177
  292TCM    cl1 1624   3.647   0.260   0.009
  292TCM    cl2 1625   3.727   0.032   0.173
  292TCM     h1 1626   3.759   0.265   0.220
  292TCM    cl3 1627   3.530   0.224   0.275
  293TCM     c1 1628   0.652   1.336   1.989
  293TCM    cl1 1629   0.665   1.285   1.817
  293TCM    cl2 1630   0.509   1.259   2.064
  293TCM     h1 1631   0.743   1.306   2.042
  293TCM    cl3 1632   0.633   1.514   1.996
  294TCM     c1 1633   2.932   3.564   1.149
  294TCM    cl1 1634   2.832   3.490   1.019
  294TCM    cl2 1635   2.866   3.518   1.309
  294TCM     h1 1636   3.035   3.529   1.140
  294TCM    cl3 1637   2.929   3.743   1.134
  295TCM     c1 1638   2.520   2.442   4.009
  295TCM    cl1 1639   2.529   2.334   3.865
  295TCM    cl2 1640   2.676   2.528   4.027
  295TCM     h1 1641   2.439   2.515   3.995
  295TCM    cl3 1642   2.489   2.343   4.155
  296TCM     c1 1643   0.649   2.204   0.214
  296TCM    cl1 1644   0.810   2.283   0.225
  296TCM    cl2 1645   0.605   2.189   0.041
  296TCM     h1 1646   0.653   2.106   0.261
  296TCM    cl3 1647   0.530   2.308   0.299
  297TCM     c1 1648   2.751   0.149   1.304
  297TCM    cl1 1649   2.766  -0.024   1.347
  297TCM    cl2 1650   2.616   0.221   1.400
  297TCM     h1 1651   2.844   0.200   1.328
  297TCM    cl3 1652   2.716   0.164   1.129
  298TCM     c1 1653   2.408   3.601   4.943
  298TCM    cl1 1654   2.278   3.575   4.822
  298TCM    cl2 1655   2.357   3.532   5.100
  298TCM     h1 1656   2.499   3.551   4.909
  298TCM    cl3 1657   2.436   3.777   4.959
  299TCM     c1 1658   0.153   3.336   4.725
  299TCM    cl1 1659   0.289   3.236   4.784
  299TCM    cl2 1660   0.159   3.339   4.545
  299TCM     h1 1661   0.058   3.293   4.757
  299TCM    cl3 1662   0.169   3.502   4.790
  300TCM     c1 1663   3.829   1.809   1.477
  300TCM    cl1 1664   3.789   1.785   1.650
  300TCM    cl2 1665   3.973   1.916   1.465
  300TCM     h1 1666   3.851   1.713   1.431
  300TCM    cl3 1667   3.690   1.886   1.394
  301TCM     c1 1668   2.328   2.852   2.264
  301TCM    cl1 1669   2.190   2.865   2.151
  301TCM    cl2 1670   2.383   2.682   2.273
  301TCM     h1 1671   2.410   2.915   2.228
  301TCM    cl3 1672   2.277   2.908   2.427
  302TCM     c1 1673   4.745   2.714   0.352
  302TCM    cl1 1674   4.878   2.597   0.380
  302TCM    cl2 1675   4.712   2.804   0.503
  302TCM     h1 1676   4.774   2.785   0.274
  302TCM    cl3 1677   4.597   2.626   0.300
  303TCM     c1 1678   0.458   4.123   1.313
  303TCM    cl1 1679   0.349   3.983   1.340
  303TCM    cl2 1680   0.494   4.139   1.138
  303TCM     h1 1681   0.410   4.214   1.349
  303TCM    cl3 1682   0.611   4.096   1.403
  304TCM     c1 1683   3.044   1.467   3.489
  304TCM    cl1 1684   3.188   1.370   3.535
  304TCM    cl2 1685   3.004   1.578   3.624
  304TCM     h1 1686   3.065   1.525   3.399
  304TCM    cl3 1687   2.906   1.356   3.459
  305TCM     c1 1688   0.990   3.732   1.832
  305TCM    cl1 1689   1.079   3.667   1.690
  305TCM    cl2 1690   1.104   3.750   1.970
  305TCM     h1 1691   0.947   3.829   1.807
  305TCM    cl3 1692   0.859   3.618   1.878
  306TCM     c1 1693   3.043   3.986   1.964
  306TCM    cl1 1694   3.012   4.058   1.802
  306TCM    cl2 1695   3.118   3.825   1.945
  306TCM     h1 1696   3.109   4.052   2.021
  306TCM    cl3 1697   2.888   3.968   2.052
  307TCM     c1 1698   1.517   2.778   2.026
  307TCM    cl1 1699   1.586   2.898   1.912
  307TCM    cl2 1700   1.370   2.848   2.103
  307TCM     h1 1701   1.490   2.687   1.972
  307TCM    cl3 1702   1.638   2.740   2.152
  308TCM     c1 1703   4.718   0.070   4.783
  308TCM    cl1 1704   4.860   0.121   4.687
  308TCM    cl2 1705   4.746   0.109   4.956
  308TCM     h1 1706   4.629   0.123   4.748
  308TCM    cl3 1707   4.693  -0.106   4.765
  309TCM     c1 1708   4.252   4.385   2.128
  309TCM    cl1 1709   4.275   4.492   2.271
  309TCM    cl2 1710   4.102   4.434   2.042
  309TCM     h1 1711   4.337   4.396   2.061
  309TCM    cl3 1712   4.240   4.214   2.182
  310TCM     c1 1713   1.465   0.068   2.902
  310TCM    cl1 1714   1.480   0.235   2.966
  310TCM    cl2 1715   1.627  -0.009   2.901
  310TCM     h1 1716   1.397   0.010   2.965
  310TCM    cl3 1717   1.400   0.073   2.735
  311TCM     c1 1718   3.508   4.931   3.386
  311TCM    cl1 1719   3.664   4.977   3.462
  311TCM    cl2 1720   3.413   4.830   3.499
  311TCM     h1 1721   3.451   5.021   3.361
  311TCM    cl3 1722   3.541   4.837   3.237
  312TCM     c1 1723   3.685   2.145   4.538
  312TCM    cl1 1724   3.756   2.121   4.375
  312TCM    cl2 1725   3.812   2.198   4.653
  312TCM     h1 1726   3.606   2.220   4.534
  312TCM    cl3 1727   3.617   1.988   4.594
  313TCM     c1 1728   4.668   3.990   2.344
  313TCM    cl1 1729   4.830   4.061   2.376
  313TCM    cl2 1730   4.601   4.063   2.194
  313TCM     h1 1731   4.678   3.881   2.331
  313TCM    cl3 1732   4.559   4.025   2.481
  314TCM     c1 1733   4.947   2.918   2.337
  314TCM    cl1 1734   5.079   2.885   2.453
  314TCM    cl2 1735   4.853   3.061   2.391
  314TCM     h1 1736   4.989   2.938   2.238
  314TCM    cl3 1737   4.839   2.775   2.327
  315TCM     c1 1738   1.256   2.286   0.486
  315TCM    cl1 1739   1.287   2.395   0.625
  315TCM    cl2 1740   1.355   2.338   0.345
  315TCM     h1 1741   1.283   2.183   0.513
  315TCM    cl3 1742   1.082   2.293   0.444
  316TCM     c1 1743   1.073   1.772   3.679
  316TCM    cl1 1744   1.103   1.624   3.777
  316TCM    cl2 1745   1.191   1.899   3.726
  316TCM     h1 1746   1.084   1.749   3.573
  316TCM    cl3 1747   0.908   1.833   3.711
  317TCM     c1 1748   4.350   3.497   1.179
  317TCM    cl1 1749   4.431   3.627   1.274
  317TCM    cl2 1750   4.270   3.570   1.036
  317TCM     h1 1751   4.424   3.424   1.146
  317TCM    cl3 1752   4.227   3.417   1.283
  318TCM     c1 1753   0.443   4.837   1.922
  318TCM    cl1 1754   0.534   4.682   1.923
  318TCM    cl2 1755   0.386   4.874   2.088
  318TCM     h1 1756   0.508   4.917   1.886
  318TCM    cl3 1757   0.301   4.822   1.813
  319TCM     c1 1758   1.193   2.334   1.563
  319TCM    cl1 1759   1.347   2.263   1.506
  319TCM    cl2 1760   1.227   2.446   1.700
  319TCM     h1 1761   1.145   2.389   1.482
  319TCM    cl3 1762   1.083   2.204   1.620
  320TCM     c1 1763   0.820   2.152   3.576
  320TCM    cl1 1764   0.792   2.329   3.566
  320TCM    cl2 1765   0.918   2.099   3.435
  320TCM     h1 1766   0.873   2.128   3.668
  320TCM    cl3 1767   0.662   2.067   3.573
  321TCM     c1 1768   1.027   0.663   4.551
  321TCM    cl1 1769   0.885   0.607   4.455
  321TCM    cl2 1770   0.976   0.694   4.720
  321TCM     h1 1771   1.104   0.586   4.550
  321TCM    cl3 1772   1.091   0.814   4.478
  322TCM     c1 1773   3.440   2.483   0.724
  322TCM    cl1 1774   3.303   2.369   0.747
  322TCM    cl2 1775   3.386   2.649   0.767
  322TCM     h1 1776   3.524   2.454   0.788
  322TCM    cl3 1777   3.492   2.480   0.552
  323TCM     c1 1778   3.531   4.835   2.694
  323TCM    cl1 1779   3.575   4.873   2.864
  323TCM    cl2 1780   3.452   4.978   2.619
  323TCM     h1 1781   3.622   4.810   2.637
  323TCM    cl3 1782   3.418   4.696   2.691
  324TCM     c1 1783   4.778   3.093   4.863
  324TCM    cl1 1784   4.812   3.139   4.693
  324TCM    cl2 1785   4.625   3.170   4.916
  324TCM     h1 1786   4.769   2.984   4.871
  324TCM    cl3 1787   4.913   3.150   4.968
  325TCM     c1 1788   4.513   2.741   2.524
  325TCM    cl1 1789   4.611   2.862   2.613
  325TCM    cl2 1790   4.345   2.743   2.586
  325TCM     h1 1791   4.514   2.764   2.417
  325TCM    cl3 1792   4.583   2.577   2.549
  326TCM     c1 1793   2.207   4.400   3.123
  326TCM    cl1 1794   2.185   4.300   3.271
  326TCM    cl2 1795   2.334   4.524   3.154
  326TCM     h1 1796   2.238   4.337   3.040
  326TCM    cl3 1797   2.053   4.482   3.083
  327TCM     c1 1798   3.421   2.070   0.458
  327TCM    cl1 1799   3.546   2.110   0.580
  327TCM    cl2 1800   3.433   2.183   0.320
  327TCM     h1 1801   3.436   1.967   0.423
  327TCM    cl3 1802   3.259   2.084   0.533
  328TCM     c1 1803   2.349   1.806   2.347
  328TCM    cl1 1804   2.302   1.891   2.497
  328TCM    cl2 1805   2.404   1.926   2.225
  328TCM     h1 1806   2.430   1.736   2.368
  328TCM    cl3 1807   2.208   1.716   2.283
  329TCM     c1 1808   3.023   2.642   3.224
  329TCM    cl1 1809   2.974   2.806   3.169
  329TCM    cl2 1810   2.951   2.518   3.116
  329TCM     h1 1811   3.132   2.633   3.222
  329TCM    cl3 1812   2.964   2.616   3.392
  330TCM     c1 1813   0.211   1.904   1.326
  330TCM    cl1 1814   0.156   1.965   1.167
  330TCM    cl2 1815   0.240   1.727   1.316
  330TCM     h1 1816   0.304   1.954   1.354
  330TCM    cl3 1817   0.085   1.936   1.450
  331TCM     c1 1818   1.770   1.041   3.326
  331TCM    cl1 1819   1.619   1.123   3.378
  331TCM    cl2 1820   1.902   1.081   3.442
  331TCM     h1 1821   1.755   0.933   3.325
  331TCM    cl3 1822   1.816   1.098   3.162
  332TCM     c1 1823   3.389   4.184   1.978
  332TCM    cl1 1824   3.345   4.124   2.141
  332TCM    cl2 1825   3.269   4.305   1.925
  332TCM     h1 1826   3.488   4.230   1.981
  332TCM    cl3 1827   3.391   4.046   1.863
  333TCM     c1 1828   1.932   3.694   0.198
  333TCM    cl1 1829   2.033   3.727   0.053
  333TCM    cl2 1830   2.028   3.604   0.320
  333TCM     h1 1831   1.898   3.788   0.241
  333TCM    cl3 1832   1.790   3.596   0.150
  334TCM     c1 1833   4.743   1.853   2.657
  334TCM    cl1 1834   4.842   1.976   2.571
  334TCM    cl2 1835   4.602   1.811   2.554
  334TCM     h1 1836   4.803   1.764   2.676
  334TCM    cl3 1837   4.684   1.922   2.812
  335TCM     c1 1838   2.480   3.668   0.992
  335TCM    cl1 1839   2.557   3.742   1.136
  335TCM    cl2 1840   2.583   3.695   0.848
  335TCM     h1 1841   2.467   3.560   1.008
  335TCM    cl3 1842   2.320   3.744   0.965
  336TCM     c1 1843   1.043   0.072   4.284
  336TCM    cl1 1844   1.046   0.251   4.271
  336TCM    cl2 1845   0.996   0.027   4.451
  336TCM     h1 1846   0.971   0.031   4.213
  336TCM    cl3 1847   1.207   0.008   4.251
  337TCM     c1 1848   3.468   3.185   3.374
  337TCM    cl1 1849   3.450   3.061   3.502
  337TCM    cl2 1850   3.356   3.147   3.239
  337TCM     h1 1851   3.444   3.284   3.415
  337TCM    cl3 1852   3.636   3.184   3.313
  338TCM     c1 1853   3.562   3.813   1.042
  338TCM    cl1 1854   3.622   3.674   0.944
  338TCM    cl2 1855   3.674   3.951   1.020
  338TCM     h1 1856   3.461   3.840   1.009
  338TCM    cl3 1857   3.558   3.766   1.215
  339TCM     c1 1858   2.733   1.000   3.522
  339TCM    cl1 1859   2.647   1.060   3.668
  339TCM    cl2 1860   2.634   1.032   3.376
  339TCM     h1 1861   2.829   1.051   3.512
  339TCM    cl3 1862   2.760   0.823   3.538
  340TCM     c1 1863   2.259   3.466   4.397
  340TCM    cl1 1864   2.112   3.388   4.329
  340TCM    cl2 1865   2.319   3.367   4.534
  340TCM     h1 1866   2.336   3.472   4.320
  340TCM    cl3 1867   2.217   3.630   4.455
  341TCM     c1 1868   4.040   3.651   2.754
  341TCM    cl1 1869   4.199   3.734   2.749
  341TCM    cl2 1870   3.917   3.760   2.826
  341TCM     h1 1871   4.010   3.624   2.652
  341TCM    cl3 1872   4.052   3.502   2.853
  342TCM     c1 1873   2.370   0.042   4.529
  342TCM    cl1 1874   2.529   0.110   4.483
  342TCM    cl2 1875   2.288  -0.022   4.383
  342TCM     h1 1876   2.384  -0.039   4.601
  342TCM    cl3 1877   2.268   0.170   4.603
  343TCM     c1 1878   3.295   2.023   4.357
  343TCM    cl1 1879   3.340   2.003   4.185
  343TCM    cl2 1880   3.117   2.008   4.375
  343TCM     h1 1881   3.344   1.946   4.417
  343TCM    cl3 1882   3.347   2.186   4.414
  344TCM     c1 1883   0.961   0.492   3.495
  344TCM    cl1 1884   0.823   0.432   3.593
  344TCM    cl2 1885   0.902   0.569   3.344
  344TCM     h1 1886   1.017   0.566   3.554
  344TCM    cl3 1887   1.069   0.356   3.453
  345TCM     c1 1888   3.338   0.852   1.766
  345TCM    cl1 1889   3.351   1.008   1.678
  345TCM    cl2 1890   3.502   0.793   1.811
  345TCM     h1 1891   3.279   0.867   1.857
  345TCM    cl3 1892   3.259   0.730   1.661
  346TCM     c1 1893   3.082   0.064   2.390
  346TCM    cl1 1894   3.159   0.170   2.513
  346TCM    cl2 1895   3.209  -0.008   2.285
  346TCM     h1 1896   3.027  -0.016   2.440
  346TCM    cl3 1897   2.969   0.161   2.290
  347TCM     c1 1898   2.615   4.234   2.119
  347TCM    cl1 1899   2.652   4.146   2.272
  347TCM    cl2 1900   2.556   4.119   1.995
  347TCM     h1 1901   2.538   4.309   2.139
  347TCM    cl3 1902   2.764   4.315   2.060
  348TCM     c1 1903   0.752   0.932   2.174
  348TCM    cl1 1904   0.903   0.835   2.176
  348TCM    cl2 1905   0.695   0.952   2.005
  348TCM     h1 1906   0.675   0.880   2.233
  348TCM    cl3 1907   0.784   1.094   2.245
  349TCM     c1 1908   2.535   4.465   2.658
  349TCM    cl1 1909   2.444   4.502   2.509
  349TCM    cl2 1910   2.593   4.295   2.654
  349TCM     h1 1911   2.621   4.532   2.666
  349TCM    cl3 1912   2.429   4.487   2.801
  350TCM     c1 1913   4.178   1.934   4.443
  350TCM    cl1 1914   4.325   1.955   4.342
  350TCM    cl2 1915   4.041   1.876   4.342
  350TCM     h1 1916   4.198   1.862   4.522
  350TCM    cl3 1917   4.133   2.092   4.516
  351TCM     c1 1918   0.080   0.395   4.783
  351TCM    cl1 1919  -0.079   0.453   4.844
  351TCM    cl2 1920   0.211   0.493   4.856
  351TCM     h1 1921   0.093   0.290   4.809
  351TCM    cl3 1922   0.085   0.413   4.605
  352TCM     c1 1923   3.593   3.705   4.845
  352TCM    cl1 1924   3.583   3.663   4.671
  352TCM    cl2 1925   3.722   3.606   4.923
  352TCM     h1 1926   3.616   3.811   4.857
  352TCM    cl3 1927   3.436   3.669   4.924
  353TCM     c1 1928   2.121   2.207   2.391
  353TCM    cl1 1929   2.091   2.142   2.226
  353TCM    cl2 1930   1.967   2.268   2.460
  353TCM     h1 1931   2.160   2.127   2.455
  353TCM    cl3 1932   2.240   2.340   2.381
  354TCM     c1 1933   2.189   3.968   1.259
  354TCM    cl1 1934   2.133   4.054   1.112
  354TCM    cl2 1935   2.086   4.015   1.398
  354TCM     h1 1936   2.182   3.861   1.244
  354TCM    cl3 1937   2.359   4.013   1.294
  355TCM     c1 1938   4.187   3.620   1.609
  355TCM    cl1 1939   4.301   3.485   1.643
  355TCM    cl2 1940   4.281   3.771   1.583
  355TCM     h1 1941   4.129   3.597   1.520
  355TCM    cl3 1942   4.077   3.641   1.749
  356TCM     c1 1943   2.544   4.468   0.306
  356TCM    cl1 1944   2.393   4.371   0.306
  356TCM    cl2 1945   2.671   4.379   0.395
  356TCM     h1 1946   2.577   4.485   0.203
  356TCM    cl3 1947   2.514   4.626   0.385
  357TCM     c1 1948   2.832   2.275   4.250
  357TCM    cl1 1949   2.757   2.140   4.341
  357TCM    cl2 1950   2.889   2.215   4.090
  357TCM     h1 1951   2.759   2.355   4.235
  357TCM    cl3 1952   2.971   2.338   4.344
  358TCM     c1 1953   1.748   3.148   2.124
  358TCM    cl1 1954   1.857   3.025   2.196
  358TCM    cl2 1955   1.818   3.311   2.147
  358TCM     h1 1956   1.736   3.128   2.017
  358TCM    cl3 1957   1.587   3.140   2.204
  359TCM     c1 1958   0.743   3.896   4.439
  359TCM    cl1 1959   0.867   4.011   4.498
  359TCM    cl2 1960   0.810   3.808   4.298
  359TCM     h1 1961   0.716   3.825   4.518
  359TCM    cl3 1962   0.597   3.988   4.388
  360TCM     c1 1963   0.353   2.356   1.257
  360TCM    cl1 1964   0.193   2.431   1.228
  360TCM    cl2 1965   0.411   2.278   1.106
  360TCM     h1 1966   0.424   2.433   1.288
  360TCM    cl3 1967   0.339   2.232   1.386
  361TCM     c1 1968   4.369   0.737   3.841
  361TCM    cl1 1969   4.306   0.882   3.756
  361TCM    cl2 1970   4.233   0.652   3.922
  361TCM     h1 1971   4.416   0.670   3.769
  361TCM    cl3 1972   4.489   0.787   3.964
  362TCM     c1 1973   3.960   1.099   0.065
  362TCM    cl1 1974   4.041   0.940   0.082
  362TCM    cl2 1975   3.915   1.161   0.228
  362TCM     h1 1976   4.028   1.170   0.017
  362TCM    cl3 1977   3.812   1.081  -0.035
  363TCM     c1 1978   2.104   1.466   3.387
  363TCM    cl1 1979   2.072   1.412   3.556
  363TCM    cl2 1980   2.106   1.645   3.382
  363TCM     h1 1981   2.200   1.427   3.354
  363TCM    cl3 1982   1.973   1.407   3.280
  364TCM     c1 1983   0.355   1.692   1.724
  364TCM    cl1 1984   0.178   1.665   1.710
  364TCM    cl2 1985   0.400   1.838   1.630
  364TCM     h1 1986   0.383   1.705   1.829
  364TCM    cl3 1987   0.442   1.550   1.656
  365TCM     c1 1988   1.787   0.339   3.160
  365TCM    cl1 1989   1.672   0.476   3.142
  365TCM    cl2 1990   1.777   0.275   3.327
  365TCM     h1 1991   1.761   0.260   3.088
  365TCM    cl3 1992   1.954   0.396   3.128
  366TCM     c1 1993   2.404   3.995   0.703
  366TCM    cl1 1994   2.506   4.083   0.584
  366TCM    cl2 1995   2.239   3.972   0.634
  366TCM     h1 1996   2.448   3.897   0.724
  366TCM    cl3 1997   2.391   4.090   0.854
  367TCM     c1 1998   3.432   1.599   3.943
  367TCM    cl1 1999   3.284   1.669   4.018
  367TCM    cl2 2000   3.385   1.500   3.801
  367TCM     h1 2001   3.499   1.679   3.912
  367TCM    cl3 2002   3.515   1.494   4.063
  368TCM     c1 2003   2.289   3.595   3.962
  368TCM    cl1 2004   2.345   3.436   4.025
  368TCM    cl2 2005   2.166   3.661   4.075
  368TCM     h1 2006   2.374   3.663   3.956
  368TCM    cl3 2007   2.217   3.573   3.799
  369TCM     c1 2008   3.000   0.454   4.506
  369TCM    cl1 2009   2.901   0.304   4.494
  369TCM    cl2 2010   3.018   0.498   4.679
  369TCM     h1 2011   3.099   0.436   4.462
  369TCM    cl3 2012   2.918   0.588   4.419
  370TCM     c1 2013   2.914   2.481   2.221
  370TCM    cl1 2014   3.079   2.498   2.290
  370TCM    cl2 2015   2.919   2.515   2.045
  370TCM     h1 2016   2.879   2.379   2.238
  370TCM    cl3 2017   2.803   2.597   2.302
  371TCM     c1 2018   4.881   4.007   0.539
  371TCM    cl1 2019   4.920   3.901   0.400
  371TCM    cl2 2020   5.011   4.129   0.559
  371TCM     h1 2021   4.786   4.057   0.522
  371TCM    cl3 2022   4.872   3.907   0.688
  372TCM     c1 2023   2.108   2.560   4.211
  372TCM    cl1 2024   2.016   2.713   4.187
  372TCM    cl2 2025   2.262   2.597   4.295
  372TCM     h1 2026   2.049   2.491   4.271
  372TCM    cl3 2027   2.144   2.486   4.051
  373TCM     c1 2028   2.588   4.215   4.063
  373TCM    cl1 2029   2.726   4.291   4.148
  373TCM    cl2 2030   2.473   4.150   4.184
  373TCM     h1 2031   2.538   4.289   4.000
  373TCM    cl3 2032   2.648   4.080   3.961
  374TCM     c1 2033   4.532   4.940   2.454
  374TCM    cl1 2034   4.582   4.958   2.625
  374TCM    cl2 2035   4.362   4.998   2.436
  374TCM     h1 2036   4.598   5.000   2.390
  374TCM    cl3 2037   4.541   4.768   2.406
  375TCM     c1 2038   2.101   3.566   1.768
  375TCM    cl1 2039   2.215   3.434   1.722
  375TCM    cl2 2040   2.192   3.696   1.852
  375TCM     h1 2041   2.053   3.605   1.679
  375TCM    cl3 2042   1.977   3.501   1.881
  376TCM     c1 2043   3.497   0.642   0.859
  376TCM    cl1 2044   3.383   0.693   0.987
  376TCM    cl2 2045   3.450   0.480   0.799
  376TCM     h1 2046   3.495   0.714   0.777
  376TCM    cl3 2047   3.663   0.634   0.927
  377TCM     c1 2048   0.149   3.648   3.017
  377TCM    cl1 2049   0.083   3.780   2.915
  377TCM    cl2 2050   0.094   3.490   2.953
  377TCM     h1 2051   0.258   3.653   3.016
  377TCM    cl3 2052   0.090   3.668   3.185
  378TCM     c1 2053   2.785   2.675   4.449
  378TCM    cl1 2054   2.891   2.625   4.585
  378TCM    cl2 2055   2.654   2.553   4.429
  378TCM     h1 2056   2.741   2.772   4.471
  378TCM    cl3 2057   2.881   2.684   4.298
  379TCM     c1 2058   1.965   0.362   4.963
  379TCM    cl1 2059   2.013   0.459   5.106
  379TCM    cl2 2060   2.077   0.396   4.827
  379TCM     h1 2061   1.968   0.256   4.988
  379TCM    cl3 2062   1.798   0.407   4.914
  380TCM     c1 2063   2.993   4.993   1.899
  380TCM    cl1 2064   3.038   4.844   1.987
  380TCM    cl2 2065   3.122   5.115   1.918
  380TCM     h1 2066   2.979   4.970   1.793
  380TCM    cl3 2067   2.841   5.060   1.967
  381TCM     c1 2068   1.870   3.680   4.312
  381TCM    cl1 2069   1.804   3.753   4.162
  381TCM    cl2 2070   1.777   3.532   4.352
  381TCM     h1 2071   1.975   3.656   4.298
  381TCM    cl3 2072   1.852   3.798   4.447
  382TCM     c1 2073   0.955   2.679   0.496
  382TCM    cl1 2074   1.128   2.682   0.449
  382TCM    cl2 2075   0.935   2.586   0.648
  382TCM     h1 2076   0.920   2.782   0.511
  382TCM    cl3 2077   0.859   2.602   0.366
  383TCM     c1 2078   2.806   0.175   3.009
  383TCM    cl1 2079   2.930   0.283   2.937
  383TCM    cl2 2080   2.875   0.010   3.024
  383TCM     h1 2081   2.778   0.213   3.108
  383TCM    cl3 2082   2.661   0.171   2.904
  384TCM     c1 2083   2.155   3.061   0.890
  384TCM    cl1 2084   2.221   3.109   0.730
  384TCM    cl2 2085   2.270   3.108   1.019
  384TCM     h1 2086   2.059   3.111   0.906
  384TCM    cl3 2087   2.131   2.883   0.892
  385TCM     c1 2088   3.161   0.146   3.879
  385TCM    cl1 2089   2.987   0.166   3.843
  385TCM    cl2 2090   3.180   0.067   4.039
  385TCM     h1 2091   3.207   0.084   3.801
  385TCM    cl3 2092   3.241   0.307   3.881
  386TCM     c1 2093   0.070   0.460   3.792
  386TCM    cl1 2094   0.186   0.438   3.926
  386TCM    cl2 2095  -0.028   0.311   3.772
  386TCM     h1 2096   0.004   0.544   3.814
  386TCM    cl3 2097   0.160   0.494   3.641
  387TCM     c1 2098   2.754   2.308   3.552
  387TCM    cl1 2099   2.871   2.375   3.670
  387TCM    cl2 2100   2.838   2.271   3.398
  387TCM     h1 2101   2.709   2.217   3.592
  387TCM    cl3 2102   2.625   2.429   3.520
  388TCM     c1 2103   0.990   1.219   4.707
  388TCM    cl1 2104   1.130   1.193   4.597
  388TCM    cl2 2105   1.045   1.308   4.853
  388TCM     h1 2106   0.913   1.277   4.656
  388TCM    cl3 2107   0.924   1.060   4.758
  389TCM     c1 2108   4.761   3.003   1.837
  389TCM    cl1 2109   4.606   2.914   1.823
  389TCM    cl2 2110   4.821   2.994   2.006
  389TCM     h1 2111   4.835   2.959   1.769
  389TCM    cl3 2112   4.734   3.176   1.793
  390TCM     c1 2113   2.891   3.353   0.416
  390TCM    cl1 2114   2.897   3.518   0.485
  390TCM    cl2 2115   3.055   3.279   0.423
  390TCM     h1 2116   2.821   3.292   0.473
  390TCM    cl3 2117   2.838   3.362   0.245
  391TCM     c1 2118   2.797   4.616   1.386
  391TCM    cl1 2119   2.698   4.593   1.535
  391TCM    cl2 2120   2.819   4.457   1.306
  391TCM     h1 2121   2.745   4.684   1.318
  391TCM    cl3 2122   2.957   4.685   1.431
  392TCM     c1 2123   2.632   3.767   4.649
  392TCM    cl1 2124   2.772   3.802   4.542
  392TCM    cl2 2125   2.603   3.590   4.649
  392TCM     h1 2126   2.654   3.801   4.751
  392TCM    cl3 2127   2.486   3.851   4.587
  393TCM     c1 2128   3.988   3.912   2.351
  393TCM    cl1 2129   4.137   3.957   2.440
  393TCM    cl2 2130   3.902   3.784   2.442
  393TCM     h1 2131   3.924   4.000   2.341
  393TCM    cl3 2132   4.032   3.851   2.188
  394TCM     c1 2133   2.353   1.325   2.161
  394TCM    cl1 2134   2.327   1.227   2.309
  394TCM    cl2 2135   2.476   1.452   2.194
  394TCM     h1 2136   2.388   1.260   2.080
  394TCM    cl3 2137   2.198   1.402   2.115
  395TCM     c1 2138   4.890   2.202   0.266
  395TCM    cl1 2139   4.861   2.056   0.165
  395TCM    cl2 2140   4.731   2.271   0.314
  395TCM     h1 2141   4.946   2.174   0.355
  395TCM    cl3 2142   4.982   2.323   0.171
  396TCM     c1 2143   4.241   0.359   2.830
  396TCM    cl1 2144   4.152   0.350   2.986
  396TCM    cl2 2145   4.219   0.521   2.757
  396TCM     h1 2146   4.347   0.340   2.848
  396TCM    cl3 2147   4.177   0.235   2.717
  397TCM     c1 2148   4.950   2.213   4.821
  397TCM    cl1 2149   5.080   2.101   4.873
  397TCM    cl2 2150   4.796   2.122   4.806
  397TCM     h1 2151   4.938   2.293   4.895
  397TCM    cl3 2152   4.993   2.284   4.662
  398TCM     c1 2153   3.163   0.956   0.840
  398TCM    cl1 2154   3.010   0.935   0.748
  398TCM    cl2 2155   3.172   1.123   0.904
  398TCM     h1 2156   3.167   0.884   0.922
  398TCM    cl3 2157   3.302   0.927   0.730
  399TCM     c1 2158   2.844   4.220   4.493
  399TCM    cl1 2159   2.844   4.375   4.584
  399TCM    cl2 2160   2.677   4.155   4.487
  399TCM     h1 2161   2.881   4.237   4.391
  399TCM    cl3 2162   2.950   4.103   4.577
  400TCM     c1 2163   1.549   0.206   0.223
  400TCM    cl1 2164   1.724   0.235   0.247
  400TCM    cl2 2165   1.521   0.030   0.197
  400TCM     h1 2166   1.493   0.240   0.311
  400TCM    cl3 2167   1.494   0.295   0.077
  401TCM     c1 2168   1.502   3.403   4.165
  401TCM    cl1 2169   1.329   3.354   4.170
  401TCM    cl2 2170   1.528   3.518   4.030
  401TCM     h1 2171   1.529   3.452   4.260
  401TCM    cl3 2172   1.604   3.258   4.141
  402TCM     c1 2173   1.557   2.127   1.830
  402TCM    cl1 2174   1.528   2.280   1.921
  402TCM    cl2 2175   1.400   2.050   1.793
  402TCM     h1 2176   1.610   2.149   1.737
  402TCM    cl3 2177   1.655   2.016   1.931
  403TCM     c1 2178   1.095   1.233   0.284
  403TCM    cl1 2179   1.169   1.370   0.194
  403TCM    cl2 2180   1.224   1.121   0.341
  403TCM     h1 2181   1.040   1.272   0.370
  403TCM    cl3 2182   0.984   1.144   0.175
  404TCM     c1 2183   0.407   0.113   3.110
  404TCM    cl1 2184   0.422   0.036   3.272
  404TCM    cl2 2185   0.571   0.150   3.046
  404TCM     h1 2186   0.356   0.044   3.042
  404TCM    cl3 2187   0.313   0.265   3.124
  405TCM     c1 2188   2.792   3.704   0.183
  405TCM    cl1 2189   2.844   3.875   0.191
  405TCM    cl2 2190   2.768   3.657   0.012
  405TCM     h1 2191   2.869   3.641   0.228
  405TCM    cl3 2192   2.638   3.686   0.273
  406TCM     c1 2193   0.270   1.970   0.338
  406TCM    cl1 2194   0.402   2.012   0.453
  406TCM    cl2 2195   0.260   2.094   0.209
  406TCM     h1 2196   0.291   1.873   0.293
  406TCM    cl3 2197   0.114   1.964   0.427
  407TCM     c1 2198   3.227   4.689   3.891
  407TCM    cl1 2199   3.141   4.800   3.779
  407TCM    cl2 2200   3.378   4.631   3.813
  407TCM     h1 2201   3.251   4.741   3.984
  407TCM    cl3 2202   3.122   4.547   3.927
  408TCM     c1 2203   0.356   3.224   2.933
  408TCM    cl1 2204   0.235   3.095   2.905
  408TCM    cl2 2205   0.389   3.310   2.779
  408TCM     h1 2206   0.319   3.294   3.007
  408TCM    cl3 2207   0.508   3.148   2.993
  409TCM     c1 2208   2.905   0.344   1.724
  409TCM    cl1 2209   2.976   0.500   1.670
  409TCM    cl2 2210   2.943   0.216   1.604
  409TCM     h1 2211   2.946   0.318   1.822
  409TCM    cl3 2212   2.727   0.361   1.737
  410TCM     c1 2213   4.949   4.864   3.841
  410TCM    cl1 2214   4.993   4.947   3.688
  410TCM    cl2 2215   4.916   4.691   3.808
  410TCM     h1 2216   5.032   4.873   3.912
  410TCM    cl3 2217   4.802   4.940   3.910
  411TCM     c1 2218   3.816   0.937   1.696
  411TCM    cl1 2219   3.836   0.772   1.627
  411TCM    cl2 2220   3.703   1.032   1.594
  411TCM     h1 2221   3.777   0.930   1.798
  411TCM    cl3 2222   3.975   1.020   1.697
  412TCM     c1 2223   2.546   4.630   1.961
  412TCM    cl1 2224   2.527   4.584   2.134
  412TCM    cl2 2225   2.497   4.493   1.857
  412TCM     h1 2226   2.484   4.717   1.940
  412TCM    cl3 2227   2.718   4.670   1.930
  413TCM     c1 2228   2.211   2.802   0.514
  413TCM    cl1 2229   2.064   2.713   0.568
  413TCM    cl2 2230   2.168   2.910   0.377
  413TCM     h1 2231   2.250   2.861   0.597
  413TCM    cl3 2232   2.335   2.685   0.460
  414TCM     c1 2233   2.242   4.399   4.949
  414TCM    cl1 2234   2.111   4.430   5.068
  414TCM    cl2 2235   2.362   4.533   4.957
  414TCM     h1 2236   2.291   4.304   4.971
  414TCM    cl3 2237   2.171   4.393   4.784
  415TCM     c1 2238   3.530   1.075   2.102
  415TCM    cl1 2239   3.596   1.118   1.941
  415TCM    cl2 2240   3.614   0.929   2.163
  415TCM     h1 2241   3.546   1.158   2.172
  415TCM    cl3 2242   3.354   1.042   2.087
  416TCM     c1 2243   3.602   3.829   0.406
  416TCM    cl1 2244   3.603   3.763   0.239
  416TCM    cl2 2245   3.589   3.694   0.523
  416TCM     h1 2246   3.695   3.884   0.424
  416TCM    cl3 2247   3.462   3.939   0.424
  417TCM     c1 2248   1.772   3.941   1.725
  417TCM    cl1 2249   1.909   3.842   1.664
  417TCM    cl2 2250   1.714   4.050   1.595
  417TCM     h1 2251   1.691   3.875   1.757
  417TCM    cl3 2252   1.828   4.039   1.865
  418TCM     c1 2253   0.003   2.684   2.833
  418TCM    cl1 2254   0.169   2.740   2.792
  418TCM    cl2 2255   0.014   2.537   2.936
  418TCM     h1 2256  -0.050   2.763   2.887
  418TCM    cl3 2257  -0.085   2.646   2.682
  419TCM     c1 2258   1.574   0.869   2.064
  419TCM    cl1 2259   1.499   1.032   2.064
  419TCM    cl2 2260   1.445   0.747   2.039
  419TCM     h1 2261   1.647   0.863   1.983
  419TCM    cl3 2262   1.654   0.838   2.221
  420TCM     c1 2263   1.164   4.217   4.768
  420TCM    cl1 2264   1.201   4.267   4.599
  420TCM    cl2 2265   1.308   4.245   4.871
  420TCM     h1 2266   1.080   4.275   4.806
  420TCM    cl3 2267   1.122   4.043   4.769
  421TCM     c1 2268   3.145   2.599   0.468
  421TCM    cl1 2269   3.072   2.709   0.347
  421TCM    cl2 2270   3.158   2.434   0.398
  421TCM     h1 2271   3.245   2.635   0.495
  421TCM    cl3 2272   3.042   2.593   0.614
  422TCM     c1 2273   0.677   1.913   2.318
  422TCM    cl1 2274   0.725   1.979   2.478
  422TCM    cl2 2275   0.499   1.926   2.301
  422TCM     h1 2276   0.726   1.970   2.239
  422TCM    cl3 2277   0.725   1.741   2.307
  423TCM     c1 2278   2.526   0.538   4.465
  423TCM    cl1 2279   2.594   0.441   4.331
  423TCM    cl2 2280   2.617   0.505   4.616
  423TCM     h1 2281   2.533   0.645   4.440
  423TCM    cl3 2282   2.354   0.494   4.490
  424TCM     c1 2283   0.646   4.163   3.688
  424TCM    cl1 2284   0.658   4.327   3.760
  424TCM    cl2 2285   0.743   4.047   3.785
  424TCM     h1 2286   0.542   4.131   3.687
  424TCM    cl3 2287   0.710   4.167   3.520
  425TCM     c1 2288   0.142   4.065   0.884
  425TCM    cl1 2289   0.119   4.026   1.058
  425TCM    cl2 2290   0.243   3.938   0.807
  425TCM     h1 2291   0.045   4.071   0.835
  425TCM    cl3 2292   0.225   4.224   0.869
  426TCM     c1 2293   2.478   2.313   0.036
  426TCM    cl1 2294   2.330   2.299  -0.064
  426TCM    cl2 2295   2.433   2.365   0.202
  426TCM     h1 2296   2.530   2.217   0.040
  426TCM    cl3 2297   2.587   2.436  -0.037
  427TCM     c1 2298   3.375   2.224   2.022
  427TCM    cl1 2299   3.487   2.283   1.895
  427TCM    cl2 2300   3.206   2.268   1.977
  427TCM     h1 2301   3.383   2.115   2.030
  427TCM    cl3 2302   3.418   2.299   2.179
  428TCM     c1 2303   3.999   1.138   4.624
  428TCM    cl1 2304   4.000   1.285   4.727
  428TCM    cl2 2305   4.075   1.003   4.714
  428TCM     h1 2306   3.896   1.112   4.598
  428TCM    cl3 2307   4.093   1.169   4.474
  429TCM     c1 2308   1.036   1.709   4.161
  429TCM    cl1 2309   1.103   1.544   4.136
  429TCM    cl2 2310   0.887   1.731   4.063
  429TCM     h1 2311   1.013   1.722   4.267
  429TCM    cl3 2312   1.159   1.829   4.111
  430TCM     c1 2313   0.386   0.245   1.861
  430TCM    cl1 2314   0.447   0.152   1.720
  430TCM    cl2 2315   0.491   0.214   2.003
  430TCM     h1 2316   0.386   0.352   1.838
  430TCM    cl3 2317   0.219   0.191   1.899
  431TCM     c1 2318   3.781   0.233   0.768
  431TCM    cl1 2319   3.710   0.253   0.931
  431TCM    cl2 2320   3.651   0.199   0.649
  431TCM     h1 2321   3.834   0.324   0.739
  431TCM    cl3 2322   3.897   0.095   0.769
  432TCM     c1 2323   3.011   1.942   3.354
  432TCM    cl1 2324   3.188   1.969   3.362
  432TCM    cl2 2325   2.943   1.937   3.520
  432TCM     h1 2326   2.965   2.023   3.297
  432TCM    cl3 2327   2.980   1.785   3.271
  433TCM     c1 2328   3.435   2.648   3.559
  433TCM    cl1 2329   3.594   2.727   3.534
  433TCM    cl2 2330   3.456   2.470   3.556
  433TCM     h1 2331   3.393   2.679   3.655
  433TCM    cl3 2332   3.325   2.697   3.426
  434TCM     c1 2333   3.211   4.354   1.510
  434TCM    cl1 2334   3.063   4.387   1.606
  434TCM    cl2 2335   3.173   4.360   1.334
  434TCM     h1 2336   3.287   4.429   1.533
  434TCM    cl3 2337   3.273   4.191   1.552
  435TCM     c1 2338   0.481   1.321   3.785
  435TCM    cl1 2339   0.327   1.362   3.866
  435TCM    cl2 2340   0.466   1.354   3.609
  435TCM     h1 2341   0.563   1.381   3.827
  435TCM    cl3 2342   0.515   1.147   3.811
  436TCM     c1 2343   0.677   1.826   1.406
  436TCM    cl1 2344   0.849   1.853   1.362
  436TCM    cl2 2345   0.629   1.661   1.354
  436TCM     h1 2346   0.664   1.836   1.514
  436TCM    cl3 2347   0.574   1.946   1.321
  437TCM     c1 2348   0.023   2.744   0.842
  437TCM    cl1 2349   0.063   2.756   0.668
  437TCM    cl2 2350  -0.139   2.817   0.870
  437TCM     h1 2351   0.021   2.639   0.873
  437TCM    cl3 2352   0.145   2.834   0.938
  438TCM     c1 2353   1.137   3.538   4.660
  438TCM    cl1 2354   1.016   3.438   4.748
  438TCM    cl2 2355   1.060   3.692   4.606
  438TCM     h1 2356   1.221   3.561   4.726
  438TCM    cl3 2357   1.194   3.446   4.517
  439TCM     c1 2358   3.375   1.081   1.194
  439TCM    cl1 2359   3.261   0.946   1.226
  439TCM    cl2 2360   3.495   1.029   1.071
  439TCM     h1 2361   3.320   1.167   1.157
  439TCM    cl3 2362   3.460   1.125   1.346
  440TCM     c1 2363   3.691   1.762   4.302
  440TCM    cl1 2364   3.785   1.609   4.288
  440TCM    cl2 2365   3.527   1.726   4.367
  440TCM     h1 2366   3.743   1.830   4.370
  440TCM    cl3 2367   3.675   1.838   4.141
  441TCM     c1 2368   0.682   3.652   4.014
  441TCM    cl1 2369   0.550   3.773   4.028
  441TCM    cl2 2370   0.820   3.725   3.927
  441TCM     h1 2371   0.713   3.620   4.114
  441TCM    cl3 2372   0.623   3.510   3.921
  442TCM     c1 2373   3.404   3.167   4.858
  442TCM    cl1 2374   3.433   3.054   4.722
  442TCM    cl2 2375   3.228   3.198   4.874
  442TCM     h1 2376   3.442   3.123   4.951
  442TCM    cl3 2377   3.488   3.322   4.825
  443TCM     c1 2378   0.833   2.361   1.157
  443TCM    cl1 2379   0.781   2.190   1.141
  443TCM    cl2 2380   0.988   2.368   1.248
  443TCM     h1 2381   0.848   2.404   1.057
  443TCM    cl3 2382   0.708   2.455   1.245
  444TCM     c1 2383   4.425   4.901   0.124
  444TCM    cl1 2384   4.488   4.994   0.264
  444TCM    cl2 2385   4.547   4.778   0.075
  444TCM     h1 2386   4.332   4.851   0.152
  444TCM    cl3 2387   4.393   5.013  -0.013
  445TCM     c1 2388   4.397   1.126   4.801
  445TCM    cl1 2389   4.391   1.251   4.672
  445TCM    cl2 2390   4.306   1.184   4.944
  445TCM     h1 2391   4.353   1.033   4.764
  445TCM    cl3 2392   4.568   1.096   4.847
  446TCM     c1 2393   3.154   0.652   3.192
  446TCM    cl1 2394   3.044   0.613   3.056
  446TCM    cl2 2395   3.103   0.806   3.268
  446TCM     h1 2396   3.151   0.572   3.266
  446TCM    cl3 2397   3.321   0.669   3.129
  447TCM     c1 2398   4.243   1.514   4.441
  447TCM    cl1 2399   4.378   1.611   4.509
  447TCM    cl2 2400   4.231   1.544   4.264
  447TCM     h1 2401   4.261   1.408   4.459
  447TCM    cl3 2402   4.090   1.564   4.519
  448TCM     c1 2403   4.981   2.086   3.245
  448TCM    cl1 2404   4.855   2.062   3.119
  448TCM    cl2 2405   5.006   2.262   3.271
  448TCM     h1 2406   4.949   2.039   3.338
  448TCM    cl3 2407   5.135   2.011   3.191
  449TCM     c1 2408   4.854   4.478   3.456
  449TCM    cl1 2409   4.753   4.476   3.308
  449TCM    cl2 2410   4.989   4.361   3.436
  449TCM     h1 2411   4.894   4.578   3.472
  449TCM    cl3 2412   4.755   4.428   3.597
  450TCM     c1 2413   3.491   0.435   3.474
  450TCM    cl1 2414   3.349   0.544   3.467
  450TCM    cl2 2415   3.576   0.438   3.316
  450TCM     h1 2416   3.558   0.468   3.553
  450TCM    cl3 2417   3.435   0.268   3.509
  451TCM     c1 2418   3.906   3.698   1.265
  451TCM    cl1 2419   4.074   3.759   1.273
  451TCM    cl2 2420   3.850   3.659   1.431
  451TCM     h1 2421   3.841   3.775   1.222
  451TCM    cl3 2422   3.900   3.550   1.165
  452TCM     c1 2423   0.612   4.959   0.804
  452TCM    cl1 2424   0.575   4.998   0.975
  452TCM    cl2 2425   0.672   4.790   0.792
  452TCM     h1 2426   0.522   4.970   0.744
  452TCM    cl3 2427   0.738   5.072   0.745
  453TCM     c1 2428   2.253   3.771   3.370
  453TCM    cl1 2429   2.412   3.691   3.397
  453TCM    cl2 2430   2.174   3.699   3.226
  453TCM     h1 2431   2.190   3.756   3.458
  453TCM    cl3 2432   2.278   3.947   3.343
  454TCM     c1 2433   4.728   3.704   0.943
  454TCM    cl1 2434   4.698   3.551   1.032
  454TCM    cl2 2435   4.798   3.826   1.054
  454TCM     h1 2436   4.797   3.685   0.860
  454TCM    cl3 2437   4.572   3.765   0.879
  455TCM     c1 2438   3.037   3.960   4.175
  455TCM    cl1 2439   2.866   3.971   4.227
  455TCM    cl2 2440   3.099   3.797   4.218
  455TCM     h1 2441   3.044   3.975   4.067
  455TCM    cl3 2442   3.132   4.086   4.261
  456TCM     c1 2443   1.709   2.027   4.532
  456TCM    cl1 2444   1.556   1.970   4.605
  456TCM    cl2 2445   1.678   2.089   4.366
  456TCM     h1 2446   1.751   2.108   4.593
  456TCM    cl3 2447   1.826   1.891   4.524
  457TCM     c1 2448   1.741   3.331   1.612
  457TCM    cl1 2449   1.734   3.510   1.626
  457TCM    cl2 2450   1.706   3.256   1.772
  457TCM     h1 2451   1.666   3.297   1.539
  457TCM    cl3 2452   1.905   3.282   1.559
  458TCM     c1 2453   2.088   4.585   1.045
  458TCM    cl1 2454   2.211   4.633   0.923
  458TCM    cl2 2455   1.924   4.592   0.973
  458TCM     h1 2456   2.109   4.483   1.079
  458TCM    cl3 2457   2.097   4.698   1.185
  459TCM     c1 2458   3.949   4.230   3.371
  459TCM    cl1 2459   3.984   4.400   3.418
  459TCM    cl2 2460   3.824   4.163   3.481
  459TCM     h1 2461   3.912   4.228   3.268
  459TCM    cl3 2462   4.099   4.132   3.382
  460TCM     c1 2463   0.488   0.850   3.556
  460TCM    cl1 2464   0.543   0.997   3.469
  460TCM    cl2 2465   0.611   0.720   3.538
  460TCM     h1 2466   0.475   0.872   3.662
  460TCM    cl3 2467   0.333   0.794   3.486
  461TCM     c1 2468   1.762   4.188   0.135
  461TCM    cl1 2469   1.869   4.247   0.267
  461TCM    cl2 2470   1.592   4.230   0.173
  461TCM     h1 2471   1.791   4.233   0.040
  461TCM    cl3 2472   1.776   4.009   0.123
  462TCM     c1 2473   3.299   0.015   4.858
  462TCM    cl1 2474   3.121   0.040   4.872
  462TCM    cl2 2475   3.330  -0.140   4.773
  462TCM     h1 2476   3.342   0.098   4.802
  462TCM    cl3 2477   3.373   0.009   5.021
  463TCM     c1 2478   3.565   0.818   2.899
  463TCM    cl1 2479   3.580   0.947   2.775
  463TCM    cl2 2480   3.704   0.829   3.012
  463TCM     h1 2481   3.472   0.831   2.954
  463TCM    cl3 2482   3.565   0.657   2.819
  464TCM     c1 2483   4.981   4.206   3.794
  464TCM    cl1 2484   5.053   4.089   3.679
  464TCM    cl2 2485   5.082   4.353   3.801
  464TCM     h1 2486   4.880   4.232   3.762
  464TCM    cl3 2487   4.974   4.131   3.957
  465TCM     c1 2488   4.197   1.573   0.016
  465TCM    cl1 2489   4.143   1.742   0.039
  465TCM    cl2 2490   4.246   1.548  -0.155
  465TCM     h1 2491   4.281   1.552   0.082
  465TCM    cl3 2492   4.061   1.462   0.054
  466TCM     c1 2493   0.565   0.496   2.441
  466TCM    cl1 2494   0.706   0.574   2.363
  466TCM    cl2 2495   0.478   0.397   2.319
  466TCM     h1 2496   0.598   0.432   2.523
  466TCM    cl3 2497   0.454   0.622   2.505
  467TCM     c1 2498   0.563   2.054   1.961
  467TCM    cl1 2499   0.571   1.876   1.953
  467TCM    cl2 2500   0.518   2.119   1.800
  467TCM     h1 2501   0.487   2.084   2.034
  467TCM    cl3 2502   0.722   2.121   2.009
  468TCM     c1 2503   3.448   1.904   1.699
  468TCM    cl1 2504   3.378   2.035   1.599
  468TCM    cl2 2505   3.421   1.746   1.619
  468TCM     h1 2506   3.555   1.920   1.712
  468TCM    cl3 2507   3.367   1.904   1.860
  469TCM     c1 2508   2.646   0.846   4.000
  469TCM    cl1 2509   2.614   0.720   3.877
  469TCM    cl2 2510   2.683   0.768   4.157
  469TCM     h1 2511   2.732   0.907   3.969
  469TCM    cl3 2512   2.503   0.953   4.019
  470TCM     c1 2513   4.591   2.277   4.505
  470TCM    cl1 2514   4.661   2.413   4.598
  470TCM    cl2 2515   4.477   2.188   4.611
  470TCM     h1 2516   4.537   2.316   4.418
  470TCM    cl3 2517   4.721   2.166   4.450
  471TCM     c1 2518   3.837   0.661   2.565
  471TCM    cl1 2519   3.705   0.746   2.479
  471TCM    cl2 2520   3.901   0.766   2.696
  471TCM     h1 2521   3.799   0.568   2.608
  471TCM    cl3 2522   3.970   0.623   2.451
  472TCM     c1 2523   3.149   1.903   2.957
  472TCM    cl1 2524   3.159   1.918   2.779
  472TCM    cl2 2525   3.074   2.052   3.024
  472TCM     h1 2526   3.088   1.816   2.983
  472TCM    cl3 2527   3.313   1.883   3.026
  473TCM     c1 2528   3.746   1.392   1.134
  473TCM    cl1 2529   3.818   1.544   1.196
  473TCM    cl2 2530   3.567   1.407   1.134
  473TCM     h1 2531   3.781   1.374   1.032
  473TCM    cl3 2532   3.794   1.255   1.239
  474TCM     c1 2533   0.270   3.233   1.090
  474TCM    cl1 2534   0.140   3.343   1.035
  474TCM    cl2 2535   0.352   3.161   0.947
  474TCM     h1 2536   0.343   3.289   1.149
  474TCM    cl3 2537   0.200   3.102   1.190
  475TCM     c1 2538   2.619   3.708   4.208
  475TCM    cl1 2539   2.463   3.794   4.229
  475TCM    cl2 2540   2.658   3.698   4.033
  475TCM     h1 2541   2.698   3.763   4.260
  475TCM    cl3 2542   2.606   3.543   4.278
  476TCM     c1 2543   1.624   1.310   1.835
  476TCM    cl1 2544   1.802   1.294   1.821
  476TCM    cl2 2545   1.559   1.386   1.686
  476TCM     h1 2546   1.579   1.212   1.849
  476TCM    cl3 2547   1.584   1.413   1.977
  477TCM     c1 2548   4.524   2.383   0.015
  477TCM    cl1 2549   4.691   2.436  -0.023
  477TCM    cl2 2550   4.516   2.204   0.017
  477TCM     h1 2551   4.494   2.422   0.113
  477TCM    cl3 2552   4.412   2.445  -0.111
  478TCM     c1 2553   2.969   4.571   3.313
  478TCM    cl1 2554   2.876   4.674   3.199
  478TCM    cl2 2555   2.861   4.450   3.389
  478TCM     h1 2556   3.049   4.519   3.258
  478TCM    cl3 2557   3.040   4.675   3.441
  479TCM     c1 2558   0.156   3.918   0.033
  479TCM    cl1 2559   0.075   3.767   0.086
  479TCM    cl2 2560   0.067   4.061   0.096
  479TCM     h1 2561   0.259   3.920   0.070
  479TCM    cl3 2562   0.157   3.925  -0.146
  480TCM     c1 2563   1.399   2.571   2.735
  480TCM    cl1 2564   1.327   2.702   2.835
  480TCM    cl2 2565   1.284   2.527   2.605
  480TCM     h1 2566   1.493   2.606   2.691
  480TCM    cl3 2567   1.430   2.428   2.839
  481TCM     c1 2568   2.502   2.714   0.886
  481TCM    cl1 2569   2.493   2.846   0.765
  481TCM    cl2 2570   2.391   2.582   0.837
  481TCM     h1 2571   2.605   2.675   0.891
  481TCM    cl3 2572   2.454   2.777   1.047
  482TCM     c1 2573   0.135   3.268   3.417
  482TCM    cl1 2574   0.188   3.279   3.246
  482TCM    cl2 2575   0.030   3.125   3.437
  482TCM     h1 2576   0.223   3.260   3.483
  482TCM    cl3 2577   0.043   3.417   3.459
  483TCM     c1 2578   2.415   4.895   2.872
  483TCM    cl1 2579   2.563   4.808   2.922
  483TCM    cl2 2580   2.278   4.838   2.972
  483TCM     h1 2581   2.428   5.003   2.886
  483TCM    cl3 2582   2.381   4.860   2.699
  484TCM     c1 2583   4.955   2.383   3.864
  484TCM    cl1 2584   5.102   2.412   3.962
  484TCM    cl2 2585   4.848   2.527   3.874
  484TCM     h1 2586   4.984   2.366   3.759
  484TCM    cl3 2587   4.869   2.239   3.926
  485TCM     c1 2588   2.642   2.125   3.028
  485TCM    cl1 2589   2.721   2.027   3.155
  485TCM    cl2 2590   2.536   2.019   2.931
  485TCM     h1 2591   2.583   2.204   3.074
  485TCM    cl3 2592   2.767   2.197   2.921
  486TCM     c1 2593   2.057   0.601   3.614
  486TCM    cl1 2594   1.986   0.520   3.758
  486TCM    cl2 2595   1.977   0.759   3.588
  486TCM     h1 2596   2.164   0.617   3.630
  486TCM    cl3 2597   2.032   0.498   3.470
  487TCM     c1 2598   0.918   4.968   0.394
  487TCM    cl1 2599   0.881   5.140   0.428
  487TCM    cl2 2600   0.969   4.952   0.222
  487TCM     h1 2601   0.999   4.934   0.459
  487TCM    cl3 2602   0.772   4.868   0.422
  488TCM     c1 2603   3.917   1.008   3.280
  488TCM    cl1 2604   3.798   1.112   3.365
  488TCM    cl2 2605   3.922   0.847   3.360
  488TCM     h1 2606   3.888   0.997   3.175
  488TCM    cl3 2607   4.079   1.084   3.291
  489TCM     c1 2608   3.241   4.812   3.005
  489TCM    cl1 2609   3.156   4.657   2.974
  489TCM    cl2 2610   3.192   4.876   3.165
  489TCM     h1 2611   3.349   4.795   3.003
  489TCM    cl3 2612   3.196   4.930   2.878
  490TCM     c1 2613   2.212   2.098   2.821
  490TCM    cl1 2614   2.049   2.068   2.753
  490TCM    cl2 2615   2.198   2.177   2.982
  490TCM     h1 2616   2.265   2.003   2.833
  490TCM    cl3 2617   2.305   2.205   2.711
  491TCM     c1 2618   1.473   0.574   4.829
  491TCM    cl1 2619   1.539   0.700   4.939
  491TCM    cl2 2620   1.489   0.629   4.659
  491TCM     h1 2621   1.529   0.481   4.843
  491TCM    cl3 2622   1.300   0.547   4.868
  492TCM     c1 2623   2.099   4.325   3.892
  492TCM    cl1 2624   2.083   4.287   3.717
  492TCM    cl2 2625   2.018   4.482   3.926
  492TCM     h1 2626   2.053   4.246   3.952
  492TCM    cl3 2627   2.273   4.339   3.933
  493TCM     c1 2628   0.912   3.385   4.273
  493TCM    cl1 2629   0.784   3.307   4.175
  493TCM    cl2 2630   0.839   3.458   4.419
  493TCM     h1 2631   0.987   3.312   4.302
  493TCM    cl3 2632   0.990   3.514   4.175
  494TCM     c1 2633   0.202   2.658   1.635
  494TCM    cl1 2634   0.108   2.508   1.603
  494TCM    cl2 2635   0.088   2.792   1.672
  494TCM     h1 2636   0.269   2.642   1.719
  494TCM    cl3 2637   0.298   2.699   1.489
  495TCM     c1 2638   3.314   1.115   3.261
  495TCM    cl1 2639   3.448   1.217   3.322
  495TCM    cl2 2640   3.369   1.025   3.116
  495TCM     h1 2641   3.283   1.044   3.339
  495TCM    cl3 2642   3.175   1.219   3.217
  496TCM     c1 2643   0.217   1.282   1.685
  496TCM    cl1 2644   0.356   1.175   1.647
  496TCM    cl2 2645   0.222   1.328   1.859
  496TCM     h1 2646   0.223   1.372   1.624
  496TCM    cl3 2647   0.063   1.197   1.650
  497TCM     c1 2648   1.518   4.884   0.711
  497TCM    cl1 2649   1.385   4.803   0.622
  497TCM    cl2 2650   1.464   4.921   0.878
  497TCM     h1 2651   1.605   4.819   0.714
  497TCM    cl3 2652   1.560   5.037   0.626
  498TCM     c1 2653   2.741   2.766   3.631
  498TCM    cl1 2654   2.886   2.763   3.736
  498TCM    cl2 2655   2.732   2.925   3.548
  498TCM     h1 2656   2.748   2.686   3.557
  498TCM    cl3 2657   2.594   2.743   3.732
  499TCM     c1 2658   0.081   3.110   0.564
  499TCM    cl1 2659   0.227   3.201   0.514
  499TCM    cl2 2660  -0.058   3.162   0.464
  499TCM     h1 2661   0.098   3.002   0.550
  499TCM    cl3 2662   0.046   3.144   0.736
  500TCM     c1 2663   1.691   0.066   4.860
  500TCM    cl1 2664   1.562  -0.056   4.837
  500TCM    cl2 2665   1.764   0.106   4.701
  500TCM     h1 2666   1.648   0.157   4.903
  500TCM    cl3 2667   1.817   0.001   4.969
  501TCM     c1 2668   0.932   1.696   2.610
  501TCM    cl1 2669   1.036   1.627   2.481
  501TCM    cl2 2670   1.010   1.844   2.676
  501TCM     h1 2671   0.834   1.722   2.568
  501TCM    cl3 2672   0.911   1.576   2.741
  502TCM     c1 2673   2.900   3.605   2.144
  502TCM    cl1 2674   3.008   3.464   2.115
  502TCM    cl2 2675   2.963   3.701   2.281
  502TCM     h1 2676   2.895   3.667   2.054
  502TCM    cl3 2677   2.735   3.545   2.184
  503TCM     c1 2678   1.487   0.459   2.538
  503TCM    cl1 2679   1.479   0.631   2.487
  503TCM    cl2 2680   1.321   0.395   2.556
  503TCM     h1 2681   1.542   0.401   2.463
  503TCM    cl3 2682   1.570   0.447   2.696
  504TCM     c1 2683   4.968   4.930   2.497
  504TCM    cl1 2684   4.890   4.775   2.542
  504TCM    cl2 2685   4.951   5.047   2.632
  504TCM     h1 2686   5.074   4.913   2.476
  504TCM    cl3 2687   4.888   4.996   2.351
  505TCM     c1 2688   2.555   4.023   3.061
  505TCM    cl1 2689   2.430   4.137   3.001
  505TCM    cl2 2690   2.697   4.026   2.951
  505TCM     h1 2691   2.587   4.053   3.162
  505TCM    cl3 2692   2.488   3.857   3.065
  506TCM     c1 2693   0.095   4.779   4.983
  506TCM    cl1 2694   0.065   4.865   4.828
  506TCM    cl2 2695   0.159   4.616   4.945
  506TCM     h1 2696   0.169   4.834   5.042
  506TCM    cl3 2697  -0.058   4.767   5.075
  507TCM     c1 2698   1.674   4.035   4.676
  507TCM    cl1 2699   1.497   4.031   4.650
  507TCM    cl2 2700   1.721   3.897   4.781
  507TCM     h1 2701   1.726   4.027   4.580
  507TCM    cl3 2702   1.718   4.189   4.756
  508TCM     c1 2703   0.504   1.758   3.260
  508TCM    cl1 2704   0.340   1.686   3.246
  508TCM    cl2 2705   0.560   1.743   3.430
  508TCM     h1 2706   0.573   1.705   3.194
  508TCM    cl3 2707   0.497   1.931   3.214
  509TCM     c1 2708   4.757   0.071   4.332
  509TCM    cl1 2709   4.614   0.033   4.433
  509TCM    cl2 2710   4.703   0.161   4.187
  509TCM     h1 2711   4.827   0.132   4.389
  509TCM    cl3 2712   4.838  -0.082   4.281
  510TCM     c1 2713   4.360   2.309   2.170
  510TCM    cl1 2714   4.484   2.182   2.199
  510TCM    cl2 2715   4.346   2.412   2.316
  510TCM     h1 2716   4.389   2.370   2.085
  510TCM    cl3 2717   4.202   2.230   2.136
  511TCM     c1 2718   3.392   4.794   1.263
  511TCM    cl1 2719   3.399   4.730   1.096
  511TCM    cl2 2720   3.557   4.837   1.320
  511TCM     h1 2721   3.329   4.884   1.266
  511TCM    cl3 2722   3.324   4.670   1.372
  512TCM     c1 2723   0.160   4.980   0.627
  512TCM    cl1 2724   0.075   5.136   0.657
  512TCM    cl2 2725   0.041   4.857   0.574
  512TCM     h1 2726   0.235   4.994   0.549
  512TCM    cl3 2727   0.240   4.926   0.778
  513TCM     c1 2728   3.948   0.071   4.873
  513TCM    cl1 2729   4.026  -0.063   4.963
  513TCM    cl2 2730   3.986   0.052   4.698
  513TCM     h1 2731   3.840   0.067   4.888
  513TCM    cl3 2732   4.014   0.227   4.931
  514TCM     c1 2733   0.861   0.096   2.086
  514TCM    cl1 2734   0.777   0.191   2.213
  514TCM    cl2 2735   0.875   0.195   1.937
  514TCM     h1 2736   0.961   0.069   2.121
  514TCM    cl3 2737   0.767  -0.052   2.050
  515TCM     c1 2738   2.748   4.994   4.113
  515TCM    cl1 2739   2.595   4.916   4.165
  515TCM    cl2 2740   2.834   4.885   3.998
  515TCM     h1 2741   2.725   5.089   4.063
  515TCM    cl3 2742   2.851   5.024   4.256
  516TCM     c1 2743   4.410   3.967   1.141
  516TCM    cl1 2744   4.279   3.954   1.019
  516TCM    cl2 2745   4.339   4.020   1.297
  516TCM     h1 2746   4.458   3.870   1.153
  516TCM    cl3 2747   4.531   4.088   1.086
  517TCM     c1 2748   3.005   3.542   4.677
  517TCM    cl1 2749   3.176   3.525   4.728
  517TCM    cl2 2750   2.906   3.420   4.763
  517TCM     h1 2751   2.970   3.643   4.701
  517TCM    cl3 2752   2.993   3.515   4.500
  518TCM     c1 2753   2.863   0.464   4.061
  518TCM    cl1 2754   2.984   0.361   4.145
  518TCM    cl2 2755   2.729   0.361   4.001
  518TCM     h1 2756   2.823   0.538   4.131
  518TCM    cl3 2757   2.940   0.547   3.923
  519TCM     c1 2758   3.399   3.409   1.325
  519TCM    cl1 2759   3.256   3.518   1.329
  519TCM    cl2 2760   3.524   3.472   1.438
  519TCM     h1 2761   3.370   3.309   1.356
  519TCM    cl3 2762   3.467   3.405   1.159
  520TCM     c1 2763   0.243   2.821   3.137
  520TCM    cl1 2764   0.279   2.651   3.180
  520TCM    cl2 2765   0.331   2.931   3.249
  520TCM     h1 2766   0.276   2.841   3.034
  520TCM    cl3 2767   0.067   2.851   3.151
  521TCM     c1 2768   1.981   3.139   2.518
  521TCM    cl1 2769   2.099   3.211   2.633
  521TCM    cl2 2770   1.832   3.239   2.514
  521TCM     h1 2771   2.025   3.135   2.418
  521TCM    cl3 2772   1.940   2.972   2.569
  522TCM     c1 2773   2.798   4.045   1.498
  522TCM    cl1 2774   2.944   4.104   1.414
  522TCM    cl2 2775   2.728   3.912   1.400
  522TCM     h1 2776   2.824   4.008   1.598
  522TCM    cl3 2777   2.679   4.179   1.513
  523TCM     c1 2778   0.229   1.514   2.700
  523TCM    cl1 2779   0.192   1.658   2.599
  523TCM    cl2 2780   0.177   1.367   2.612
  523TCM     h1 2781   0.336   1.509   2.719
  523TCM    cl3 2782   0.140   1.526   2.855
  524TCM     c1 2783   4.456   3.286   2.560
  524TCM    cl1 2784   4.613   3.234   2.628
  524TCM    cl2 2785   4.362   3.372   2.686
  524TCM     h1 2786   4.473   3.353   2.475
  524TCM    cl3 2787   4.364   3.142   2.505
  525TCM     c1 2788   2.888   4.605   2.261
  525TCM    cl1 2789   3.066   4.590   2.270
  525TCM    cl2 2790   2.842   4.777   2.281
  525TCM     h1 2791   2.853   4.569   2.164
  525TCM    cl3 2792   2.813   4.506   2.391
  526TCM     c1 2793   3.087   2.952   2.290
  526TCM    cl1 2794   3.007   2.873   2.150
  526TCM    cl2 2795   3.181   3.094   2.232
  526TCM     h1 2796   3.011   2.986   2.361
  526TCM    cl3 2797   3.197   2.836   2.370
  527TCM     c1 2798   1.928   3.254   3.948
  527TCM    cl1 2799   2.032   3.259   3.802
  527TCM    cl2 2800   1.915   3.418   4.018
  527TCM     h1 2801   1.828   3.218   3.921
  527TCM    cl3 2802   2.001   3.143   4.069
  528TCM     c1 2803   0.081   1.752   4.918
  528TCM    cl1 2804   0.137   1.591   4.863
  528TCM    cl2 2805   0.107   1.766   5.095
  528TCM     h1 2806   0.136   1.830   4.866
  528TCM    cl3 2807  -0.094   1.768   4.884
  529TCM     c1 2808   2.171   3.039   1.838
  529TCM    cl1 2809   2.327   3.106   1.895
  529TCM    cl2 2810   2.171   3.030   1.659
  529TCM     h1 2811   2.158   2.939   1.879
  529TCM    cl3 2812   2.038   3.145   1.893
  530TCM     c1 2813   1.984   0.372   4.466
  530TCM    cl1 2814   2.022   0.479   4.327
  530TCM    cl2 2815   1.953   0.206   4.406
  530TCM     h1 2816   2.069   0.372   4.535
  530TCM    cl3 2817   1.838   0.434   4.550
  531TCM     c1 2818   0.386   0.117   3.632
  531TCM    cl1 2819   0.521  -0.001   3.633
  531TCM    cl2 2820   0.448   0.279   3.585
  531TCM     h1 2821   0.309   0.085   3.560
  531TCM    cl3 2822   0.314   0.126   3.796
  532TCM     c1 2823   1.824   4.286   1.326
  532TCM    cl1 2824   1.701   4.416   1.310
  532TCM    cl2 2825   1.986   4.351   1.286
  532TCM     h1 2826   1.824   4.247   1.428
  532TCM    cl3 2827   1.783   4.153   1.212
  533TCM     c1 2828   4.823   0.696   4.010
  533TCM    cl1 2829   4.763   0.527   4.000
  533TCM    cl2 2830   4.847   0.760   3.844
  533TCM     h1 2831   4.750   0.758   4.063
  533TCM    cl3 2832   4.980   0.698   4.096
  534TCM     c1 2833   2.411   3.140   4.874
  534TCM    cl1 2834   2.365   3.056   4.722
  534TCM    cl2 2835   2.264   3.207   4.952
  534TCM     h1 2836   2.459   3.069   4.942
  534TCM    cl3 2837   2.526   3.274   4.838
  535TCM     c1 2838   2.784   4.072   1.077
  535TCM    cl1 2839   2.923   4.183   1.055
  535TCM    cl2 2840   2.730   4.010   0.918
  535TCM     h1 2841   2.812   3.989   1.142
  535TCM    cl3 2842   2.648   4.162   1.151
  536TCM     c1 2843   1.580   0.657   3.702
  536TCM    cl1 2844   1.653   0.541   3.586
  536TCM    cl2 2845   1.604   0.824   3.640
  536TCM     h1 2846   1.472   0.637   3.711
  536TCM    cl3 2847   1.657   0.640   3.863
  537TCM     c1 2848   1.506   1.070   2.651
  537TCM    cl1 2849   1.616   1.046   2.511
  537TCM    cl2 2850   1.458   0.911   2.717
  537TCM     h1 2851   1.558   1.128   2.728
  537TCM    cl3 2852   1.359   1.158   2.598
  538TCM     c1 2853   2.183   2.989   3.014
  538TCM    cl1 2854   2.206   2.927   2.847
  538TCM    cl2 2855   2.188   3.168   3.013
  538TCM     h1 2856   2.086   2.955   3.052
  538TCM    cl3 2857   2.313   2.926   3.120
  539TCM     c1 2858   3.804   4.102   2.767
  539TCM    cl1 2859   3.745   4.250   2.849
  539TCM    cl2 2860   3.905   4.150   2.627
  539TCM     h1 2861   3.864   4.043   2.837
  539TCM    cl3 2862   3.665   4.005   2.709
  540TCM     c1 2863   2.764   0.103   0.235
  540TCM    cl1 2864   2.906   0.015   0.169
  540TCM    cl2 2865   2.815   0.269   0.280
  540TCM     h1 2866   2.685   0.107   0.159
  540TCM    cl3 2867   2.703   0.017   0.380
  541TCM     c1 2868   1.818   3.646   3.656
  541TCM    cl1 2869   1.876   3.722   3.807
  541TCM    cl2 2870   1.750   3.484   3.692
  541TCM     h1 2871   1.740   3.709   3.611
  541TCM    cl3 2872   1.955   3.629   3.541
  542TCM     c1 2873   2.018   2.006   1.190
  542TCM    cl1 2874   2.180   1.930   1.186
  542TCM    cl2 2875   2.011   2.124   1.325
  542TCM     h1 2876   1.998   2.056   1.095
  542TCM    cl3 2877   1.894   1.879   1.217
  543TCM     c1 2878   2.973   0.016   3.430
  543TCM    cl1 2879   3.137   0.055   3.493
  543TCM    cl2 2880   2.905   0.158   3.346
  543TCM     h1 2881   2.980  -0.068   3.361
  543TCM    cl3 2882   2.867  -0.028   3.567
  544TCM     c1 2883   2.061   0.951   1.858
  544TCM    cl1 2884   2.018   0.997   1.690
  544TCM    cl2 2885   1.914   0.899   1.946
  544TCM     h1 2886   2.134   0.869   1.856
  544TCM    cl3 2887   2.133   1.093   1.941
  545TCM     c1 2888   2.292   2.675   4.997
  545TCM    cl1 2889   2.342   2.839   5.052
  545TCM    cl2 2890   2.232   2.683   4.828
  545TCM     h1 2891   2.377   2.607   5.002
  545TCM    cl3 2892   2.162   2.614   5.104
  546TCM     c1 2893   3.596   2.256   4.037
  546TCM    cl1 2894   3.600   2.377   4.169
  546TCM    cl2 2895   3.763   2.205   3.996
  546TCM     h1 2896   3.538   2.169   4.069
  546TCM    cl3 2897   3.519   2.327   3.891
  547TCM     c1 2898   0.737   0.531   1.900
  547TCM    cl1 2899   0.646   0.467   1.759
  547TCM    cl2 2900   0.621   0.591   2.022
  547TCM     h1 2901   0.797   0.451   1.943
  547TCM    cl3 2902   0.844   0.665   1.846
  548TCM     c1 2903   0.058   2.770   3.514
  548TCM    cl1 2904  -0.023   2.808   3.669
  548TCM    cl2 2905  -0.011   2.619   3.446
  548TCM     h1 2906   0.043   2.852   3.443
  548TCM    cl3 2907   0.234   2.748   3.543
  549TCM     c1 2908   4.322   4.623   0.567
  549TCM    cl1 2909   4.232   4.756   0.646
  549TCM    cl2 2910   4.355   4.667   0.397
  549TCM     h1 2911   4.417   4.606   0.620
  549TCM    cl3 2912   4.223   4.473   0.573
  550TCM     c1 2913   0.406   4.034   0.477
  550TCM    cl1 2914   0.298   3.919   0.391
  550TCM    cl2 2915   0.351   4.202   0.450
  550TCM     h1 2916   0.405   4.012   0.584
  550TCM    cl3 2917   0.574   4.016   0.414
  551TCM     c1 2918   2.391   2.049   3.380
  551TCM    cl1 2919   2.408   2.208   3.299
  551TCM    cl2 2920   2.534   2.021   3.485
  551TCM     h1 2921   2.300   2.048   3.440
  551TCM    cl3 2922   2.383   1.921   3.255
  552TCM     c1 2923   0.676   4.001   0.809
  552TCM    cl1 2924   0.593   3.857   0.741
  552TCM    cl2 2925   0.580   4.148   0.772
  552TCM     h1 2926   0.685   3.990   0.918
  552TCM    cl3 2927   0.839   4.016   0.736
  553TCM     c1 2928   1.377   3.953   0.083
  553TCM    cl1 2929   1.213   4.010   0.126
  553TCM    cl2 2930   1.369   3.838  -0.055
  553TCM     h1 2931   1.439   4.039   0.055
  553TCM    cl3 2932   1.450   3.871   0.225
  554TCM     c1 2933   3.225   2.010   2.371
  554TCM    cl1 2934   3.322   1.936   2.239
  554TCM    cl2 2935   3.122   2.140   2.302
  554TCM     h1 2936   3.162   1.934   2.417
  554TCM    cl3 2937   3.335   2.082   2.493
  555TCM     c1 2938   1.955   2.562   2.164
  555TCM    cl1 2939   1.991   2.605   2.334
  555TCM    cl2 2940   1.842   2.423   2.157
  555TCM     h1 2941   1.909   2.648   2.114
  555TCM    cl3 2942   2.106   2.517   2.078
  556TCM     c1 2943   3.342   4.861   1.666
  556TCM    cl1 2944   3.218   4.963   1.585
  556TCM    cl2 2945   3.263   4.713   1.730
  556TCM     h1 2946   3.419   4.833   1.594
  556TCM    cl3 2947   3.417   4.953   1.800
  557TCM     c1 2948   0.995   2.146   4.092
  557TCM    cl1 2949   1.155   2.181   4.018
  557TCM    cl2 2950   0.874   2.121   3.962
  557TCM     h1 2951   1.002   2.056   4.154
  557TCM    cl3 2952   0.945   2.285   4.193
  558TCM     c1 2953   4.788   3.596   4.689
  558TCM    cl1 2954   4.811   3.489   4.831
  558TCM    cl2 2955   4.846   3.512   4.541
  558TCM     h1 2956   4.681   3.619   4.677
  558TCM    cl3 2957   4.880   3.747   4.712
  559TCM     c1 2958   0.126   1.980   3.683
  559TCM    cl1 2959   0.238   2.084   3.777
  559TCM    cl2 2960   0.217   1.894   3.554
  559TCM     h1 2961   0.080   1.907   3.750
  559TCM    cl3 2962  -0.000   2.083   3.608
  560TCM     c1 2963   4.263   1.949   2.476
  560TCM    cl1 2964   4.158   2.095   2.480
  560TCM    cl2 2965   4.277   1.891   2.306
  560TCM     h1 2966   4.362   1.974   2.515
  560TCM    cl3 2967   4.190   1.820   2.577
  561TCM     c1 2968   1.437   2.812   4.606
  561TCM    cl1 2969   1.371   2.919   4.733
  561TCM    cl2 2970   1.329   2.813   4.463
  561TCM     h1 2971   1.537   2.847   4.577
  561TCM    cl3 2972   1.449   2.644   4.669
  562TCM     c1 2973   3.592   1.848   2.694
  562TCM    cl1 2974   3.547   1.999   2.779
  562TCM    cl2 2975   3.543   1.706   2.793
  562TCM     h1 2976   3.542   1.844   2.597
  562TCM    cl3 2977   3.770   1.844   2.670
  563TCM     c1 2978   2.918   4.755   0.602
  563TCM    cl1 2979   2.763   4.695   0.671
  563TCM    cl2 2980   2.920   4.723   0.425
  563TCM     h1 2981   2.926   4.862   0.620
  563TCM    cl3 2982   3.055   4.669   0.679
  564TCM     c1 2983   1.761   3.906   0.542
  564TCM    cl1 2984   1.919   3.940   0.465
  564TCM    cl2 2985   1.702   3.745   0.489
  564TCM     h1 2986   1.772   3.907   0.651
  564TCM    cl3 2987   1.642   4.032   0.494
  565TCM     c1 2988   0.116   2.817   4.616
  565TCM    cl1 2989   0.104   2.933   4.752
  565TCM    cl2 2990  -0.014   2.851   4.498
  565TCM     h1 2991   0.213   2.828   4.566
  565TCM    cl3 2992   0.102   2.650   4.681
  566TCM     c1 2993   2.879   4.832   2.690
  566TCM    cl1 2994   2.883   5.010   2.671
  566TCM    cl2 2995   3.020   4.760   2.606
  566TCM     h1 2996   2.881   4.806   2.796
  566TCM    cl3 2997   2.728   4.771   2.616
  567TCM     c1 2998   4.745   3.635   3.255
  567TCM    cl1 2999   4.600   3.608   3.358
  567TCM    cl2 3000   4.721   3.782   3.156
  567TCM     h1 3001   4.833   3.647   3.319
  567TCM    cl3 3002   4.769   3.493   3.148
  568TCM     c1 3003   1.760   0.727   2.780
  568TCM    cl1 3004   1.810   0.763   2.612
  568TCM    cl2 3005   1.768   0.876   2.880
  568TCM     h1 3006   1.657   0.689   2.781
  568TCM    cl3 3007   1.871   0.605   2.849
  569TCM     c1 3008   3.176   2.517   4.113
  569TCM    cl1 3009   3.314   2.629   4.088
  569TCM    cl2 3010   3.233   2.347   4.098
  569TCM     h1 3011   3.133   2.533   4.212
  569TCM    cl3 3012   3.051   2.548   3.988
  570TCM     c1 3013   2.339   4.014   0.263
  570TCM    cl1 3014   2.226   4.067   0.134
  570TCM    cl2 3015   2.508   4.035   0.207
  570TCM     h1 3016   2.323   4.074   0.353
  570TCM    cl3 3017   2.308   3.841   0.301
  571TCM     c1 3018   3.316   1.834   4.847
  571TCM    cl1 3019   3.279   1.948   4.714
  571TCM    cl2 3020   3.432   1.710   4.788
  571TCM     h1 3021   3.361   1.888   4.931
  571TCM    cl3 3022   3.165   1.754   4.900
  572TCM     c1 3023   2.520   1.620   3.413
  572TCM    cl1 3024   2.689   1.663   3.454
  572TCM    cl2 3025   2.415   1.660   3.552
  572TCM     h1 3026   2.488   1.676   3.325
  572TCM    cl3 3027   2.510   1.444   3.379
  573TCM     c1 3028   1.173   0.847   2.466
  573TCM    cl1 3029   1.244   0.883   2.305
  573TCM    cl2 3030   1.106   0.680   2.466
  573TCM     h1 3031   1.251   0.855   2.542
  573TCM    cl3 3032   1.041   0.963   2.501
  574TCM     c1 3033   2.625   4.185   4.841
  574TCM    cl1 3034   2.632   4.299   4.980
  574TCM    cl2 3035   2.455   4.130   4.820
  574TCM     h1 3036   2.658   4.236   4.751
  574TCM    cl3 3037   2.730   4.044   4.874
  575TCM     c1 3038   2.432   4.411   1.282
  575TCM    cl1 3039   2.442   4.590   1.277
  575TCM    cl2 3040   2.347   4.354   1.135
  575TCM     h1 3041   2.532   4.368   1.286
  575TCM    cl3 3042   2.340   4.360   1.428
  576TCM     c1 3043   1.072   2.594   4.607
  576TCM    cl1 3044   1.034   2.749   4.689
  576TCM    cl2 3045   0.928   2.536   4.517
  576TCM     h1 3046   1.155   2.608   4.538
  576TCM    cl3 3047   1.118   2.471   4.730
  577TCM     c1 3048   1.527   0.921   1.588
  577TCM    cl1 3049   1.462   1.066   1.506
  577TCM    cl2 3050   1.391   0.825   1.656
  577TCM     h1 3051   1.582   0.860   1.516
  577TCM    cl3 3052   1.636   0.971   1.721
  578TCM     c1 3053   0.520   3.501   3.277
  578TCM    cl1 3054   0.385   3.569   3.374
  578TCM    cl2 3055   0.476   3.511   3.103
  578TCM     h1 3056   0.611   3.558   3.295
  578TCM    cl3 3057   0.545   3.329   3.321
  579TCM     c1 3058   2.513   4.843   0.986
  579TCM    cl1 3059   2.407   4.932   1.100
  579TCM    cl2 3060   2.662   4.794   1.072
  579TCM     h1 3061   2.461   4.754   0.950
  579TCM    cl3 3062   2.556   4.948   0.848
  580TCM     c1 3063   4.991   0.093   3.332
  580TCM    cl1 3064   5.061  -0.072   3.324
  580TCM    cl2 3065   4.964   0.155   3.166
  580TCM     h1 3066   4.895   0.089   3.385
  580TCM    cl3 3067   5.104   0.201   3.420
  581TCM     c1 3068   3.244   4.031   1.197
  581TCM    cl1 3069   3.408   4.100   1.224
  581TCM    cl2 3070   3.225   3.884   1.298
  581TCM     h1 3071   3.168   4.104   1.223
  581TCM    cl3 3072   3.228   3.985   1.024
  582TCM     c1 3073   4.699   3.950   3.524
  582TCM    cl1 3074   4.681   4.012   3.692
  582TCM    cl2 3075   4.845   3.846   3.514
  582TCM     h1 3076   4.610   3.891   3.497
  582TCM    cl3 3077   4.717   4.089   3.412
  583TCM     c1 3078   1.084   3.603   0.104
  583TCM    cl1 3079   1.137   3.684   0.255
  583TCM    cl2 3080   1.021   3.726  -0.011
  583TCM     h1 3081   1.005   3.532   0.127
  583TCM    cl3 3082   1.222   3.518   0.028
  584TCM     c1 3083   0.335   2.357   4.778
  584TCM    cl1 3084   0.297   2.380   4.951
  584TCM    cl2 3085   0.409   2.195   4.753
  584TCM     h1 3086   0.243   2.364   4.719
  584TCM    cl3 3087   0.449   2.485   4.725
  585TCM     c1 3088   1.030   0.192   2.521
  585TCM    cl1 3089   0.935   0.344   2.530
  585TCM    cl2 3090   1.107   0.178   2.359
  585TCM     h1 3091   1.107   0.192   2.598
  585TCM    cl3 3092   0.920   0.052   2.545
  586TCM     c1 3093   0.936   1.252   4.009
  586TCM    cl1 3094   0.826   1.371   3.932
  586TCM    cl2 3095   1.056   1.195   3.889
  586TCM     h1 3096   0.988   1.299   4.093
  586TCM    cl3 3097   0.841   1.112   4.069
  587TCM     c1 3098   3.804   2.624   3.856
  587TCM    cl1 3099   3.805   2.494   3.732
  587TCM    cl2 3100   3.885   2.564   4.005
  587TCM     h1 3101   3.858   2.711   3.818
  587TCM    cl3 3102   3.635   2.670   3.894
  588TCM     c1 3103   1.998   3.356   4.757
  588TCM    cl1 3104   1.983   3.223   4.638
  588TCM    cl2 3105   1.900   3.317   4.903
  588TCM     h1 3106   2.103   3.367   4.785
  588TCM    cl3 3107   1.938   3.509   4.685
  589TCM     c1 3108   1.218   0.276   0.449
  589TCM    cl1 3109   1.206   0.356   0.289
  589TCM    cl2 3110   1.354   0.348   0.541
  589TCM     h1 3111   1.125   0.289   0.505
  589TCM    cl3 3112   1.250   0.101   0.424
  590TCM     c1 3113   0.587   3.692   0.230
  590TCM    cl1 3114   0.721   3.600   0.156
  590TCM    cl2 3115   0.514   3.595   0.363
  590TCM     h1 3116   0.626   3.786   0.271
  590TCM    cl3 3117   0.463   3.728   0.106
  591TCM     c1 3118   3.090   1.421   2.900
  591TCM    cl1 3119   3.188   1.561   2.845
  591TCM    cl2 3120   2.993   1.361   2.761
  591TCM     h1 3121   3.155   1.342   2.936
  591TCM    cl3 3122   2.981   1.474   3.032
  592TCM     c1 3123   2.799   4.695   0.011
  592TCM    cl1 3124   2.770   4.635  -0.155
  592TCM    cl2 3125   2.837   4.556   0.118
  592TCM     h1 3126   2.882   4.766   0.011
  592TCM    cl3 3127   2.651   4.774   0.073
  593TCM     c1 3128   3.614   3.484   3.033
  593TCM    cl1 3129   3.772   3.520   3.110
  593TCM    cl2 3130   3.575   3.612   2.915
  593TCM     h1 3131   3.619   3.387   2.983
  593TCM    cl3 3132   3.488   3.479   3.160
  594TCM     c1 3133   2.974   3.880   0.646
  594TCM    cl1 3134   3.026   4.034   0.720
  594TCM    cl2 3135   2.825   3.907   0.550
  594TCM     h1 3136   3.053   3.843   0.581
  594TCM    cl3 3137   2.941   3.758   0.774
  595TCM     c1 3138   4.636   4.272   0.803
  595TCM    cl1 3139   4.637   4.421   0.702
  595TCM    cl2 3140   4.804   4.233   0.853
  595TCM     h1 3141   4.574   4.288   0.891
  595TCM    cl3 3142   4.570   4.136   0.706
  596TCM     c1 3143   4.581   2.750   4.776
  596TCM    cl1 3144   4.560   2.788   4.950
  596TCM    cl2 3145   4.756   2.732   4.741
  596TCM     h1 3146   4.530   2.656   4.752
  596TCM    cl3 3147   4.515   2.883   4.677
  597TCM     c1 3148   2.883   0.899   1.815
  597TCM    cl1 3149   2.760   0.790   1.743
  597TCM    cl2 3150   2.968   0.988   1.685
  597TCM     h1 3151   2.834   0.971   1.882
  597TCM    cl3 3152   3.002   0.802   1.907
  598TCM     c1 3153   3.311   4.340   2.530
  598TCM    cl1 3154   3.373   4.444   2.397
  598TCM    cl2 3155   3.172   4.420   2.610
  598TCM     h1 3156   3.279   4.244   2.489
  598TCM    cl3 3157   3.442   4.314   2.649
  599TCM     c1 3158   3.567   3.520   3.602
  599TCM    cl1 3159   3.704   3.516   3.486
  599TCM    cl2 3160   3.558   3.364   3.689
  599TCM     h1 3161   3.582   3.601   3.675
  599TCM    cl3 3162   3.414   3.547   3.513
  600TCM     c1 3163   4.278   0.258   4.664
  600TCM    cl1 3164   4.438   0.315   4.720
  600TCM    cl2 3165   4.298   0.154   4.520
  600TCM     h1 3166   4.229   0.201   4.744
  600TCM    cl3 3167   4.176   0.399   4.620
  601TCM     c1 3168   3.027   3.146   3.475
  601TCM    cl1 3169   3.146   3.264   3.540
  601TCM    cl2 3170   3.091   2.980   3.494
  601TCM     h1 3171   2.932   3.155   3.529
  601TCM    cl3 3172   2.999   3.179   3.301
  602TCM     c1 3173   0.700   2.357   1.631
  602TCM    cl1 3174   0.836   2.472   1.607
  602TCM    cl2 3175   0.719   2.219   1.517
  602TCM     h1 3176   0.702   2.320   1.734
  602TCM    cl3 3177   0.545   2.441   1.600
  603TCM     c1 3178   0.176   4.193   2.764
  603TCM    cl1 3179   0.286   4.299   2.671
  603TCM    cl2 3180   0.264   4.121   2.902
  603TCM     h1 3181   0.091   4.251   2.801
  603TCM    cl3 3182   0.115   4.061   2.658
  604TCM     c1 3183   2.372   3.395   1.309
  604TCM    cl1 3184   2.530   3.368   1.228
  604TCM    cl2 3185   2.310   3.240   1.375
  604TCM     h1 3186   2.385   3.467   1.390
  604TCM    cl3 3187   2.255   3.460   1.189
  605TCM     c1 3188   0.268   1.538   2.252
  605TCM    cl1 3189   0.298   1.612   2.091
  605TCM    cl2 3190   0.424   1.518   2.339
  605TCM     h1 3191   0.202   1.603   2.310
  605TCM    cl3 3192   0.191   1.377   2.231
  606TCM     c1 3193   3.795   3.021   3.618
  606TCM    cl1 3194   3.715   3.017   3.778
  606TCM    cl2 3195   3.919   2.892   3.611
  606TCM     h1 3196   3.720   3.004   3.539
  606TCM    cl3 3197   3.873   3.181   3.593
  607TCM     c1 3198   1.830   3.209   3.039
  607TCM    cl1 3199   1.836   3.122   2.882
  607TCM    cl2 3200   1.845   3.090   3.172
  607TCM     h1 3201   1.913   3.281   3.044
  607TCM    cl3 3202   1.674   3.297   3.054
  608TCM     c1 3203   2.712   3.078   2.209
  608TCM    cl1 3204   2.682   2.945   2.326
  608TCM    cl2 3205   2.822   3.198   2.283
  608TCM     h1 3206   2.757   3.037   2.118
  608TCM    cl3 3207   2.556   3.156   2.169
  609TCM     c1 3208   1.824   2.880   4.911
  609TCM    cl1 3209   1.820   2.703   4.939
  609TCM    cl2 3210   1.769   2.914   4.743
  609TCM     h1 3211   1.758   2.931   4.981
  609TCM    cl3 3212   1.992   2.941   4.932
  610TCM     c1 3213   4.782   0.595   2.472
  610TCM    cl1 3214   4.864   0.442   2.516
  610TCM    cl2 3215   4.757   0.600   2.295
  610TCM     h1 3216   4.685   0.601   2.523
  610TCM    cl3 3217   4.885   0.734   2.522
  611TCM     c1 3218   0.224   2.219   0.783
  611TCM    cl1 3219   0.218   2.040   0.787
  611TCM    cl2 3220   0.097   2.286   0.890
  611TCM     h1 3221   0.323   2.252   0.817
  611TCM    cl3 3222   0.196   2.276   0.615
  612TCM     c1 3223   3.113   3.986   4.992
  612TCM    cl1 3224   3.058   3.848   4.893
  612TCM    cl2 3225   3.131   4.131   4.888
  612TCM     h1 3226   3.040   4.008   5.071
  612TCM    cl3 3227   3.271   3.946   5.068
  613TCM     c1 3228   2.801   4.017   3.442
  613TCM    cl1 3229   2.846   4.128   3.574
  613TCM    cl2 3230   2.851   4.086   3.284
  613TCM     h1 3231   2.850   3.921   3.457
  613TCM    cl3 3232   2.623   3.992   3.441
  614TCM     c1 3233   2.170   4.252   1.740
  614TCM    cl1 3234   2.196   4.074   1.751
  614TCM    cl2 3235   2.162   4.321   1.905
  614TCM     h1 3236   2.253   4.297   1.685
  614TCM    cl3 3237   2.016   4.284   1.654
  615TCM     c1 3238   1.458   1.816   0.388
  615TCM    cl1 3239   1.457   1.744   0.553
  615TCM    cl2 3240   1.341   1.953   0.383
  615TCM     h1 3241   1.558   1.853   0.364
  615TCM    cl3 3242   1.408   1.693   0.268
  616TCM     c1 3243   0.213   2.239   4.254
  616TCM    cl1 3244   0.035   2.217   4.256
  616TCM    cl2 3245   0.286   2.104   4.161
  616TCM     h1 3246   0.238   2.335   4.208
  616TCM    cl3 3247   0.273   2.236   4.423
  617TCM     c1 3248   0.414   1.608   4.205
  617TCM    cl1 3249   0.465   1.780   4.213
  617TCM    cl2 3250   0.401   1.543   4.372
  617TCM     h1 3251   0.317   1.600   4.155
  617TCM    cl3 3252   0.536   1.513   4.115
  618TCM     c1 3253   0.422   2.630   0.378
  618TCM    cl1 3254   0.255   2.587   0.425
  618TCM    cl2 3255   0.532   2.603   0.518
  618TCM     h1 3256   0.454   2.568   0.294
  618TCM    cl3 3257   0.429   2.803   0.330
  619TCM     c1 3258   2.186   4.040   4.499
  619TCM    cl1 3259   2.035   4.080   4.587
  619TCM    cl2 3260   2.289   4.187   4.491
  619TCM     h1 3261   2.239   3.961   4.552
  619TCM    cl3 3262   2.147   3.984   4.333
  620TCM     c1 3263   3.179   3.369   2.965
  620TCM    cl1 3264   3.019   3.316   2.904
  620TCM    cl2 3265   3.201   3.544   2.930
  620TCM     h1 3266   3.184   3.353   3.073
  620TCM    cl3 3267   3.310   3.277   2.884
  621TCM     c1 3268   3.003   4.235   0.359
  621TCM    cl1 3269   3.118   4.099   0.377
  621TCM    cl2 3270   2.927   4.224   0.197
  621TCM     h1 3271   2.926   4.229   0.436
  621TCM    cl3 3272   3.091   4.391   0.372
  622TCM     c1 3273   3.536   4.256   0.037
  622TCM    cl1 3274   3.469   4.301  -0.124
  622TCM    cl2 3275   3.602   4.089   0.031
  622TCM     h1 3276   3.616   4.326   0.064
  622TCM    cl3 3277   3.406   4.264   0.161
  623TCM     c1 3278   2.381   3.495   0.463
  623TCM    cl1 3279   2.543   3.423   0.489
  623TCM    cl2 3280   2.351   3.621   0.586
  623TCM     h1 3281   2.375   3.539   0.363
  623TCM    cl3 3282   2.257   3.366   0.478
  624TCM     c1 3283   4.047   3.654   3.322
  624TCM    cl1 3284   4.081   3.725   3.160
  624TCM    cl2 3285   3.986   3.781   3.432
  624TCM     h1 3286   3.973   3.575   3.312
  624TCM    cl3 3287   4.200   3.585   3.388
  625TCM     c1 3288   0.313   4.627   3.695
  625TCM    cl1 3289   0.184   4.640   3.571
  625TCM    cl2 3290   0.296   4.762   3.813
  625TCM     h1 3291   0.305   4.531   3.748
  625TCM    cl3 3292   0.473   4.638   3.614
  626TCM     c1 3293   4.195   0.234   3.338
  626TCM    cl1 3294   4.298   0.229   3.485
  626TCM    cl2 3295   4.048   0.330   3.372
  626TCM     h1 3296   4.251   0.280   3.256
  626TCM    cl3 3297   4.148   0.068   3.292
  627TCM     c1 3298   2.509   2.622   3.178
  627TCM    cl1 3299   2.625   2.719   3.276
  627TCM    cl2 3300   2.367   2.581   3.279
  627TCM     h1 3301   2.477   2.680   3.091
  627TCM    cl3 3302   2.590   2.472   3.124
  628TCM     c1 3303   4.869   4.421   2.626
  628TCM    cl1 3304   4.961   4.494   2.761
  628TCM    cl2 3305   4.794   4.268   2.682
  628TCM     h1 3306   4.791   4.490   2.592
  628TCM    cl3 3307   4.982   4.385   2.491
  629TCM     c1 3308   2.447   0.584   1.785
  629TCM    cl1 3309   2.353   0.484   1.669
  629TCM    cl2 3310   2.431   0.515   1.950
  629TCM     h1 3311   2.553   0.584   1.756
  629TCM    cl3 3312   2.384   0.752   1.784
  630TCM     c1 3313   0.430   2.331   2.949
  630TCM    cl1 3314   0.349   2.425   2.820
  630TCM    cl2 3315   0.485   2.174   2.883
  630TCM     h1 3316   0.515   2.387   2.987
  630TCM    cl3 3317   0.313   2.301   3.082
  631TCM     c1 3318   1.264   4.036   0.518
  631TCM    cl1 3319   1.101   4.095   0.474
  631TCM    cl2 3320   1.255   3.862   0.562
  631TCM     h1 3321   1.332   4.048   0.433
  631TCM    cl3 3322   1.326   4.129   0.659
  632TCM     c1 3323   2.560   3.038   0.326
  632TCM    cl1 3324   2.520   3.175   0.219
  632TCM    cl2 3325   2.481   3.061   0.485
  632TCM     h1 3326   2.525   2.945   0.281
  632TCM    cl3 3327   2.738   3.030   0.351
  633TCM     c1 3328   0.457   0.267   0.542
  633TCM    cl1 3329   0.489   0.101   0.482
  633TCM    cl2 3330   0.419   0.259   0.718
  633TCM     h1 3331   0.545   0.330   0.526
  633TCM    cl3 3332   0.316   0.335   0.454
  634TCM     c1 3333   0.147   2.038   2.823
  634TCM    cl1 3334   0.039   2.182   2.816
  634TCM    cl2 3335   0.228   2.016   2.665
  634TCM     h1 3336   0.222   2.053   2.901
  634TCM    cl3 3337   0.051   1.891   2.860
  635TCM     c1 3338   2.617   0.700   3.091
  635TCM    cl1 3339   2.691   0.541   3.051
  635TCM    cl2 3340   2.745   0.826   3.088
  635TCM     h1 3341   2.541   0.724   3.017
  635TCM    cl3 3342   2.543   0.693   3.254
  636TCM     c1 3343   0.245   0.810   1.805
  636TCM    cl1 3344   0.227   0.956   1.907
  636TCM    cl2 3345   0.419   0.775   1.779
  636TCM     h1 3346   0.198   0.725   1.856
  636TCM    cl3 3347   0.164   0.836   1.647
  637TCM     c1 3348   4.114   0.260   4.229
  637TCM    cl1 3349   3.985   0.201   4.339
  637TCM    cl2 3350   4.114   0.439   4.227
  637TCM     h1 3351   4.211   0.224   4.263
  637TCM    cl3 3352   4.082   0.198   4.063
  638TCM     c1 3353   0.048   0.895   4.701
  638TCM    cl1 3354   0.219   0.938   4.665
  638TCM    cl2 3355   0.038   0.823   4.865
  638TCM     h1 3356  -0.015   0.984   4.696
  638TCM    cl3 3357  -0.012   0.775   4.582
  639TCM     c1 3358   2.791   0.624   1.336
  639TCM    cl1 3359   2.899   0.752   1.400
  639TCM    cl2 3360   2.656   0.596   1.451
  639TCM     h1 3361   2.751   0.655   1.239
  639TCM    cl3 3362   2.883   0.472   1.316
  640TCM     c1 3363   2.251   1.029   3.589
  640TCM    cl1 3364   2.277   1.090   3.756
  640TCM    cl2 3365   2.342   0.876   3.566
  640TCM     h1 3366   2.144   1.011   3.573
  640TCM    cl3 3367   2.309   1.152   3.472
   5.00000   5.00000   5.00000
