Great Red Oystrich Makes All Chemists Sane
 3367
    1PMP     C1    1   0.706   4.508   1.094
    1PMP     O2    2   0.740   4.371   1.104
    1PMP     C3    3   0.682   4.287   1.012
    1PMP     C4    4   0.597   4.325   0.908
    1PMP     C5    5   0.544   4.230   0.820
    1PMP     C6    6   0.453   4.271   0.711
    1PMP     C7    7   0.347   4.359   0.735
    1PMP     C8    8   0.256   4.393   0.633
    1PMP     C9    9   0.269   4.337   0.506
    1PMP    C10   10   0.160   4.359   0.408
    1PMP    O11   11   0.067   4.435   0.426
    1PMP    C12   12   0.378   4.252   0.480
    1PMP    C13   13   0.469   4.221   0.581
    1PMP    C14   14   0.581   4.095   0.839
    1PMP    C15   15   0.668   4.054   0.941
    1PMP    C16   16   0.706   3.912   0.957
    1PMP    C17   17   0.610   3.811   0.948
    1PMP    C18   18   0.646   3.676   0.961
    1PMP    C19   19   0.779   3.639   0.985
    1PMP    C20   20   0.817   3.493   0.992
    1PMP    C21   21   0.856   3.455   1.135
    1PMP    N22   22   0.920   3.452   0.897
    1PMP    C23   23   0.875   3.741   0.996
    1PMP    C24   24   0.839   3.875   0.982
    1PMP    C25   25   0.717   4.153   1.027
    1PMP    H26   26   0.599   4.524   1.110
    1PMP    H27   27   0.759   4.562   1.174
    1PMP    H28   28   0.738   4.551   0.999
    1PMP    H29   29   0.570   4.430   0.894
    1PMP    H30   30   0.329   4.399   0.834
    1PMP    H31   31   0.172   4.459   0.655
    1PMP    H32   32   0.391   4.208   0.382
    1PMP    H33   33   0.551   4.154   0.557
    1PMP    H34   34   0.541   4.020   0.770
    1PMP    H35   35   0.505   3.834   0.930
    1PMP    H36   36   0.570   3.600   0.950
    1PMP    H37   37   0.729   3.433   0.966
    1PMP    H38   38   0.945   3.509   1.168
    1PMP    H39   39   0.775   3.477   1.206
    1PMP    H40   40   0.878   3.348   1.142
    1PMP    H41   41   0.966   3.366   0.921
    1PMP    H42   42   0.981   3.715   1.010
    1PMP    H43   43   0.917   3.950   0.987
    1PMP    H44   44   0.783   4.125   1.109
    2PMP    C45   45   0.621   2.996   0.082
    2PMP    O46   46   0.726   2.902   0.094
    2PMP    C47   47   0.819   2.924   0.193
    2PMP    C48   48   0.818   3.029   0.284
    2PMP    C49   49   0.919   3.042   0.381
    2PMP    C50   50   0.920   3.152   0.477
    2PMP    C51   51   0.899   3.284   0.438
    2PMP    C52   52   0.899   3.388   0.531
    2PMP    C53   53   0.919   3.362   0.667
    2PMP    C54   54   0.899   3.476   0.761
    2PMP    O55   55   0.858   3.582   0.716
    2PMP    C56   56   0.943   3.231   0.708
    2PMP    C57   57   0.944   3.127   0.613
    2PMP    C58   58   1.021   2.946   0.382
    2PMP    C59   59   1.024   2.839   0.290
    2PMP    C60   60   1.133   2.739   0.295
    2PMP    C61   61   1.266   2.780   0.313
    2PMP    C62   62   1.369   2.688   0.322
    2PMP    C63   63   1.342   2.550   0.315
    2PMP    C64   64   1.456   2.452   0.331
    2PMP    C65   65   1.486   2.382   0.199
    2PMP    N66   66   1.435   2.356   0.439
    2PMP    C67   67   1.210   2.508   0.295
    2PMP    C68   68   1.107   2.602   0.285
    2PMP    C69   69   0.922   2.830   0.196
    2PMP    H70   70   0.660   3.097   0.062
    2PMP    H71   71   0.559   2.967  -0.003
    2PMP    H72   72   0.557   2.996   0.171
    2PMP    H73   73   0.737   3.102   0.284
    2PMP    H74   74   0.881   3.309   0.333
    2PMP    H75   75   0.878   3.489   0.497
    2PMP    H76   76   0.958   3.203   0.812
    2PMP    H77   77   0.959   3.025   0.649
    2PMP    H78   78   1.101   2.953   0.456
    2PMP    H79   79   1.291   2.886   0.319
    2PMP    H80   80   1.471   2.723   0.341
    2PMP    H81   81   1.546   2.507   0.360
    2PMP    H82   82   1.400   2.325   0.161
    2PMP    H83   83   1.513   2.455   0.122
    2PMP    H84   84   1.570   2.312   0.209
    2PMP    H85   85   1.465   2.261   0.420
    2PMP    H86   86   1.186   2.402   0.290
    2PMP    H87   87   1.005   2.565   0.274
    2PMP    H88   88   0.922   2.750   0.123
    3PMP    C89   89   1.792   2.265   1.347
    3PMP    O90   90   1.788   2.124   1.337
    3PMP    C91   91   1.730   2.069   1.226
    3PMP    C92   92   1.678   2.141   1.118
    3PMP    C93   93   1.620   2.075   1.008
    3PMP    C94   94   1.564   2.151   0.895
    3PMP    C95   95   1.482   2.263   0.916
    3PMP    C96   96   1.434   2.338   0.808
    3PMP    C97   97   1.466   2.303   0.677
    3PMP    C98   98   1.427   2.399   0.569
    3PMP    O99   99   1.396   2.513   0.602
    3PMP   C100  100   1.543   2.189   0.654
    3PMP   C101  101   1.591   2.114   0.762
    3PMP   C102  102   1.618   1.934   1.009
    3PMP   C103  103   1.669   1.860   1.117
    3PMP   C104  104   1.664   1.713   1.117
    3PMP   C105  105   1.549   1.645   1.073
    3PMP   C106  106   1.545   1.506   1.069
    3PMP   C107  107   1.657   1.429   1.108
    3PMP   C108  108   1.649   1.279   1.096
    3PMP   C109  109   1.650   1.214   1.234
    3PMP   N110  110   1.756   1.224   1.012
    3PMP   C111  111   1.771   1.497   1.152
    3PMP   C112  112   1.774   1.636   1.156
    3PMP   C113  113   1.724   1.930   1.226
    3PMP   H114  114   1.691   2.307   1.349
    3PMP   H115  115   1.842   2.291   1.441
    3PMP   H116  116   1.850   2.308   1.266
    3PMP   H117  117   1.684   2.249   1.116
    3PMP   H118  118   1.456   2.293   1.017
    3PMP   H119  119   1.374   2.427   0.829
    3PMP   H120  120   1.572   2.158   0.554
    3PMP   H121  121   1.655   2.028   0.740
    3PMP   H122  122   1.575   1.882   0.924
    3PMP   H123  123   1.461   1.700   1.041
    3PMP   H124  124   1.455   1.457   1.031
    3PMP   H125  125   1.556   1.251   1.046
    3PMP   H126  126   1.744   1.232   1.288
    3PMP   H127  127   1.568   1.252   1.296
    3PMP   H128  128   1.638   1.105   1.226
    3PMP   H129  129   1.802   1.142   1.046
    3PMP   H130  130   1.860   1.439   1.181
    3PMP   H131  131   1.867   1.684   1.188
    3PMP   H132  132   1.762   1.876   1.312
    4PMP   C133  133   1.912   0.875   0.106
    4PMP   O134  134   2.030   0.805   0.149
    4PMP   C135  135   2.069   0.827   0.279
    4PMP   C136  136   2.003   0.906   0.373
    4PMP   C137  137   2.053   0.921   0.504
    4PMP   C138  138   1.985   1.007   0.602
    4PMP   C139  139   1.940   1.135   0.567
    4PMP   C140  140   1.871   1.215   0.659
    4PMP   C141  141   1.849   1.170   0.789
    4PMP   C142  142   1.763   1.257   0.877
    4PMP   O143  143   1.701   1.349   0.827
    4PMP   C144  144   1.896   1.045   0.828
    4PMP   C145  145   1.964   0.964   0.734
    4PMP   C146  146   2.171   0.851   0.537
    4PMP   C147  147   2.239   0.770   0.445
    4PMP   C148  148   2.362   0.699   0.484
    4PMP   C149  149   2.462   0.762   0.560
    4PMP   C150  150   2.577   0.694   0.600
    4PMP   C151  151   2.597   0.558   0.566
    4PMP   C152  152   2.721   0.486   0.613
    4PMP   C153  153   2.816   0.460   0.495
    4PMP   N154  154   2.686   0.361   0.679
    4PMP   C155  155   2.498   0.495   0.490
    4PMP   C156  156   2.382   0.564   0.449
    4PMP   C157  157   2.186   0.760   0.316
    4PMP   H158  158   1.927   0.984   0.111
    4PMP   H159  159   1.895   0.849   0.001
    4PMP   H160  160   1.825   0.844   0.162
    4PMP   H161  161   1.911   0.958   0.347
    4PMP   H162  162   1.957   1.174   0.466
    4PMP   H163  163   1.834   1.313   0.626
    4PMP   H164  164   1.881   1.005   0.927
    4PMP   H165  165   1.997   0.866   0.766
    4PMP   H166  166   2.210   0.861   0.638
    4PMP   H167  167   2.453   0.866   0.589
    4PMP   H168  168   2.652   0.745   0.661
    4PMP   H169  169   2.773   0.547   0.686
    4PMP   H170  170   2.767   0.399   0.417
    4PMP   H171  171   2.847   0.554   0.449
    4PMP   H172  172   2.905   0.407   0.528
    4PMP   H173  173   2.671   0.277   0.624
    4PMP   H174  174   2.508   0.391   0.460
    4PMP   H175  175   2.307   0.511   0.392
    4PMP   H176  176   2.237   0.700   0.241
    5CAP   C177  177   0.057   4.248   0.228
    5CAP   O178  178   0.174   4.271   0.306
    5CAP   H179  179   0.001   4.167   0.275
    5CAP   H180  180   0.089   4.215   0.129
    5CAP   H181  181  -0.006   4.337   0.217
    6CAP   C182  182   2.434   0.072   0.919
    6CAP   C183  183   2.507   0.205   0.947
    6CAP   C184  184   2.402   0.308   0.989
    6CAP   C185  185   2.611   0.181   1.058
    6CAP   O186  186   2.574   0.237   0.823
    6CAP   C187  187   2.631   0.359   0.804
    6CAP   O188  188   2.630   0.452   0.882
    6CAP   H189  189   2.380   0.035   1.007
    6CAP   H190  190   2.362   0.086   0.837
    6CAP   H191  191   2.505  -0.005   0.885
    6CAP   H192  192   2.340   0.338   0.905
    6CAP   H193  193   2.448   0.400   1.029
    6CAP   H194  194   2.337   0.270   1.069
    6CAP   H195  195   2.685   0.107   1.026
    6CAP   H196  196   2.667   0.273   1.080
    6CAP   H197  197   2.564   0.146   1.150
    1TCM     c1  198   4.336   0.335   2.675
    1TCM    cl1  199   4.461   0.360   2.550
    1TCM    cl2  200   4.240   0.484   2.692
    1TCM     h1  201   4.270   0.252   2.645
    1TCM    cl3  202   4.414   0.296   2.830
    1TCM     c1  203   1.693   2.479   4.345
    1TCM    cl1  204   1.602   2.326   4.354
    1TCM    cl2  205   1.626   2.595   4.462
    1TCM     h1  206   1.799   2.460   4.369
    1TCM    cl3  207   1.680   2.546   4.181
    1TCM     c1  208   1.921   2.237   0.933
    1TCM    cl1  209   2.075   2.158   0.891
    1TCM    cl2  210   1.861   2.330   0.794
    1TCM     h1  211   1.846   2.159   0.961
    1TCM    cl3  212   1.946   2.346   1.071
    1TCM     c1  213   2.651   0.610   3.811
    1TCM    cl1  214   2.721   0.519   3.675
    1TCM    cl2  215   2.689   0.527   3.964
    1TCM     h1  216   2.694   0.713   3.813
    1TCM    cl3  217   2.475   0.620   3.791
    1TCM     c1  218   2.176   1.775   2.859
    1TCM    cl1  219   2.078   1.894   2.770
    1TCM    cl2  220   2.123   1.769   3.028
    1TCM     h1  221   2.164   1.675   2.812
    1TCM    cl3  222   2.347   1.823   2.852
    1TCM     c1  223   5.035   1.289   0.559
    1TCM    cl1  224   5.172   1.233   0.461
    1TCM    cl2  225   5.082   1.289   0.731
    1TCM     h1  226   5.006   1.391   0.529
    1TCM    cl3  227   4.897   1.179   0.536
    1TCM     c1  228   2.902   0.791   2.574
    1TCM    cl1  229   2.758   0.889   2.536
    1TCM    cl2  230   2.854   0.621   2.591
    1TCM     h1  231   2.976   0.801   2.493
    1TCM    cl3  232   2.973   0.848   2.727
    1TCM     c1  233   3.773   4.019   4.742
    1TCM    cl1  234   3.709   3.935   4.599
    1TCM    cl2  235   3.648   4.129   4.807
    1TCM     h1  236   3.800   3.945   4.820
    1TCM    cl3  237   3.917   4.114   4.697
    1TCM     c1  238   0.769   4.147   3.479
    1TCM    cl1  239   0.813   3.982   3.430
    1TCM    cl2  240   0.830   4.263   3.359
    1TCM     h1  241   0.659   4.155   3.485
    1TCM    cl3  242   0.840   4.183   3.638
    1TCM     c1  243   3.899   1.342   2.589
    1TCM    cl1  244   3.880   1.340   2.765
    1TCM    cl2  245   4.049   1.258   2.544
    1TCM     h1  246   3.813   1.291   2.542
    1TCM    cl3  247   3.907   1.510   2.532
    1TCM     c1  248   4.914   3.091   4.463
    1TCM    cl1  249   4.739   3.073   4.484
    1TCM    cl2  250   4.984   2.935   4.413
    1TCM     h1  251   4.935   3.168   4.385
    1TCM    cl3  252   4.987   3.142   4.617
    1TCM     c1  253   0.577   2.830   1.451
    1TCM    cl1  254   0.555   3.005   1.474
    1TCM    cl2  255   0.418   2.752   1.431
    1TCM     h1  256   0.638   2.812   1.361
    1TCM    cl3  257   0.659   2.761   1.593
    1TCM     c1  258   1.499   1.969   2.434
    1TCM    cl1  259   1.398   1.855   2.524
    1TCM    cl2  260   1.480   1.941   2.259
    1TCM     h1  261   1.468   2.073   2.458
    1TCM    cl3  262   1.670   1.946   2.479
    1TCM     c1  263   4.279   4.435   0.724
    1TCM    cl1  264   4.448   4.426   0.780
    1TCM    cl2  265   4.245   4.298   0.617
    1TCM     h1  266   4.211   4.432   0.812
    1TCM    cl3  267   4.254   4.587   0.636
    1TCM     c1  268   2.569   5.231   3.820
    1TCM    cl1  269   2.655   5.078   3.846
    1TCM    cl2  270   2.591   5.337   3.962
    1TCM     h1  271   2.610   5.282   3.730
    1TCM    cl3  272   2.396   5.199   3.797
    1TCM     c1  273   2.880   1.888   3.069
    1TCM    cl1  274   3.034   1.814   3.019
    1TCM    cl2  275   2.791   1.773   3.172
    1TCM     h1  276   2.900   1.981   3.126
    1TCM    cl3  277   2.783   1.926   2.925
    1TCM     c1  278   0.683   3.113   5.018
    1TCM    cl1  279   0.814   3.198   4.932
    1TCM    cl2  280   0.694   2.938   4.984
    1TCM     h1  281   0.693   3.130   5.127
    1TCM    cl3  282   0.526   3.174   4.963
    1TCM     c1  283   4.596   3.535   2.148
    1TCM    cl1  284   4.539   3.647   2.023
    1TCM    cl2  285   4.457   3.454   2.223
    1TCM     h1  286   4.663   3.459   2.103
    1TCM    cl3  287   4.685   3.626   2.273
    1TCM     c1  288   5.244   3.666   4.908
    1TCM    cl1  289   5.095   3.746   4.854
    1TCM    cl2  290   5.340   3.778   5.008
    1TCM     h1  291   5.218   3.576   4.967
    1TCM    cl3  292   5.340   3.618   4.766
    1TCM     c1  293   2.173   1.157   3.524
    1TCM    cl1  294   2.305   1.274   3.549
    1TCM    cl2  295   2.195   1.075   3.367
    1TCM     h1  296   2.174   1.082   3.605
    1TCM    cl3  297   2.017   1.243   3.524
    1TCM     c1  298   1.321   2.065   2.765
    1TCM    cl1  299   1.367   1.894   2.766
    1TCM    cl2  300   1.172   2.086   2.670
    1TCM     h1  301   1.303   2.099   2.869
    1TCM    cl3  302   1.452   2.162   2.693
    1TCM     c1  303   3.192   4.753   4.841
    1TCM    cl1  304   3.152   4.632   4.716
    1TCM    cl2  305   3.216   4.671   4.997
    1TCM     h1  306   3.285   4.806   4.812
    1TCM    cl3  307   3.059   4.870   4.855
    1TCM     c1  308   2.704   2.467   2.026
    1TCM    cl1  309   2.623   2.436   1.871
    1TCM    cl2  310   2.659   2.628   2.086
    1TCM     h1  311   2.673   2.390   2.099
    1TCM    cl3  312   2.880   2.460   2.003
    1TCM     c1  313   2.730   2.026   5.067
    1TCM    cl1  314   2.832   1.933   5.179
    1TCM    cl2  315   2.827   2.076   4.927
    1TCM     h1  316   2.645   1.962   5.033
    1TCM    cl3  317   2.667   2.169   5.150
    1TCM     c1  318   4.929   0.262   1.259
    1TCM    cl1  319   4.779   0.167   1.243
    1TCM    cl2  320   4.912   0.376   1.394
    1TCM     h1  321   5.014   0.193   1.279
    1TCM    cl3  322   4.959   0.352   1.109
    1TCM     c1  323   3.035   0.848   1.265
    1TCM    cl1  324   3.106   0.686   1.241
    1TCM    cl2  325   2.860   0.841   1.232
    1TCM     h1  326   3.052   0.880   1.370
    1TCM    cl3  327   3.112   0.964   1.154
    1TCM     c1  328   3.961   3.278   1.871
    1TCM    cl1  329   3.954   3.107   1.823
    1TCM    cl2  330   3.968   3.289   2.049
    1TCM     h1  331   4.051   3.325   1.827
    1TCM    cl3  332   3.816   3.362   1.812
    1TCM     c1  333   1.034   0.852   3.705
    1TCM    cl1  334   0.905   0.900   3.592
    1TCM    cl2  335   0.996   0.913   3.868
    1TCM     h1  336   1.042   0.742   3.708
    1TCM    cl3  337   1.189   0.922   3.651
    1TCM     c1  338   0.701   5.165   4.128
    1TCM    cl1  339   0.599   5.300   4.182
    1TCM    cl2  340   0.857   5.170   4.214
    1TCM     h1  341   0.650   5.069   4.150
    1TCM    cl3  342   0.729   5.178   3.953
    1TCM     c1  343   2.807   3.633   3.435
    1TCM    cl1  344   2.955   3.601   3.529
    1TCM    cl2  345   2.850   3.670   3.267
    1TCM     h1  346   2.742   3.543   3.438
    1TCM    cl3  347   2.721   3.771   3.507
    1TCM     c1  348   0.306   0.961   2.477
    1TCM    cl1  349   0.140   0.969   2.540
    1TCM    cl2  350   0.313   0.846   2.342
    1TCM     h1  351   0.336   1.062   2.442
    1TCM    cl3  352   0.416   0.908   2.606
    1TCM     c1  353   4.978   1.982   2.122
    1TCM    cl1  354   5.090   2.018   2.255
    1TCM    cl2  355   4.973   2.121   2.010
    1TCM     h1  356   5.014   1.892   2.067
    1TCM    cl3  357   4.816   1.951   2.186
    1TCM     c1  358   1.258   3.562   2.328
    1TCM    cl1  359   1.313   3.394   2.348
    1TCM    cl2  360   1.153   3.572   2.184
    1TCM     h1  361   1.201   3.593   2.418
    1TCM    cl3  362   1.399   3.668   2.306
    1TCM     c1  363   3.906   1.415   2.032
    1TCM    cl1  364   3.795   1.277   2.011
    1TCM    cl2  365   3.897   1.472   2.200
    1TCM     h1  366   4.010   1.383   2.009
    1TCM    cl3  367   3.858   1.546   1.922
    1TCM     c1  368   0.861   2.232   2.088
    1TCM    cl1  369   0.719   2.245   2.194
    1TCM    cl2  370   0.823   2.302   1.929
    1TCM     h1  371   0.946   2.287   2.133
    1TCM    cl3  372   0.904   2.060   2.068
    1TCM     c1  373   2.182   3.840   1.757
    1TCM    cl1  374   2.348   3.783   1.724
    1TCM    cl2  375   2.093   3.855   1.604
    1TCM     h1  376   2.131   3.767   1.823
    1TCM    cl3  377   2.188   3.998   1.838
    1TCM     c1  378   1.071   4.557   1.151
    1TCM    cl1  379   0.957   4.541   1.015
    1TCM    cl2  380   1.152   4.401   1.179
    1TCM     h1  381   1.146   4.634   1.127
    1TCM    cl3  382   0.982   4.604   1.298
    1TCM     c1  383   0.240   1.267   4.841
    1TCM    cl1  384   0.071   1.317   4.819
    1TCM    cl2  385   0.326   1.390   4.937
    1TCM     h1  386   0.243   1.170   4.894
    1TCM    cl3  387   0.318   1.250   4.682
    1TCM     c1  388   1.321   3.896   4.779
    1TCM    cl1  389   1.459   4.008   4.787
    1TCM    cl2  390   1.343   3.767   4.900
    1TCM     h1  391   1.227   3.951   4.800
    1TCM    cl3  392   1.313   3.824   4.617
    1TCM     c1  393   0.310   0.744   4.846
    1TCM    cl1  394   0.397   0.700   4.995
    1TCM    cl2  395   0.372   0.647   4.710
    1TCM     h1  396   0.202   0.724   4.859
    1TCM    cl3  397   0.335   0.917   4.812
    1TCM     c1  398   1.065   4.309   2.238
    1TCM    cl1  399   0.948   4.273   2.367
    1TCM    cl2  400   0.985   4.403   2.110
    1TCM     h1  401   1.150   4.367   2.280
    1TCM    cl3  402   1.126   4.156   2.170
    1TCM     c1  403   3.688   4.130   0.173
    1TCM    cl1  404   3.766   4.012   0.065
    1TCM    cl2  405   3.748   4.107   0.338
    1TCM     h1  406   3.712   4.233   0.138
    1TCM    cl3  407   3.512   4.106   0.169
    1TCM     c1  408   1.597   1.556   1.457
    1TCM    cl1  409   1.447   1.629   1.520
    1TCM    cl2  410   1.736   1.654   1.509
    1TCM     h1  411   1.607   1.453   1.497
    1TCM    cl3  412   1.590   1.551   1.280
    1TCM     c1  413   3.466   0.654   2.308
    1TCM    cl1  414   3.295   0.605   2.308
    1TCM    cl2  415   3.561   0.537   2.402
    1TCM     h1  416   3.504   0.658   2.204
    1TCM    cl3  417   3.482   0.816   2.382
    1TCM     c1  418   0.137   0.611   1.989
    1TCM    cl1  419   0.031   0.633   2.130
    1TCM    cl2  420   0.283   0.710   2.008
    1TCM     h1  421   0.165   0.504   1.980
    1TCM    cl3  422   0.051   0.660   1.841
    1TCM     c1  423   3.853   2.613   1.103
    1TCM    cl1  424   3.922   2.476   1.193
    1TCM    cl2  425   3.983   2.696   1.013
    1TCM     h1  426   3.776   2.576   1.032
    1TCM    cl3  427   3.779   2.727   1.217
    1TCM     c1  428   4.170   0.090   0.796
    1TCM    cl1  429   4.054   0.000   0.696
    1TCM    cl2  430   4.197   0.251   0.726
    1TCM     h1  431   4.130   0.100   0.899
    1TCM    cl3  432   4.325   0.001   0.801
    1TCM     c1  433   4.950   1.743   3.394
    1TCM    cl1  434   4.824   1.769   3.271
    1TCM    cl2  435   4.879   1.664   3.536
    1TCM     h1  436   5.030   1.679   3.351
    1TCM    cl3  437   5.019   1.900   3.441
    1TCM     c1  438   1.986   3.586   2.407
    1TCM    cl1  439   2.066   3.525   2.260
    1TCM    cl2  440   1.892   3.732   2.367
    1TCM     h1  441   1.917   3.508   2.446
    1TCM    cl3  442   2.108   3.626   2.529
    1TCM     c1  443   0.571   0.261   4.868
    1TCM    cl1  444   0.458   0.290   5.002
    1TCM    cl2  445   0.561   0.090   4.819
    1TCM     h1  446   0.545   0.326   4.783
    1TCM    cl3  447   0.737   0.297   4.922
    1TCM     c1  448   4.531   0.697   4.559
    1TCM    cl1  449   4.515   0.864   4.501
    1TCM    cl2  450   4.490   0.690   4.733
    1TCM     h1  451   4.462   0.631   4.503
    1TCM    cl3  452   4.699   0.641   4.536
    1TCM     c1  453   3.841   4.615   1.571
    1TCM    cl1  454   3.734   4.742   1.636
    1TCM    cl2  455   3.877   4.650   1.400
    1TCM     h1  456   3.936   4.613   1.629
    1TCM    cl3  457   3.760   4.457   1.583
    1TCM     c1  458   4.491   4.567   4.892
    1TCM    cl1  459   4.326   4.524   4.945
    1TCM    cl2  460   4.604   4.440   4.943
    1TCM     h1  461   4.493   4.575   4.781
    1TCM    cl3  462   4.538   4.722   4.964
    1TCM     c1  463   3.966   4.325   1.755
    1TCM    cl1  464   3.852   4.227   1.662
    1TCM    cl2  465   4.057   4.221   1.867
    1TCM     h1  466   4.037   4.376   1.686
    1TCM    cl3  467   3.877   4.447   1.849
    1TCM     c1  468   3.854   4.069   3.373
    1TCM    cl1  469   3.737   3.937   3.359
    1TCM    cl2  470   3.924   4.069   3.537
    1TCM     h1  471   3.935   4.056   3.299
    1TCM    cl3  472   3.773   4.225   3.345
    1TCM     c1  473   0.367   0.896   3.405
    1TCM    cl1  474   0.275   1.046   3.381
    1TCM    cl2  475   0.409   0.879   3.577
    1TCM     h1  476   0.306   0.810   3.373
    1TCM    cl3  477   0.516   0.902   3.309
    1TCM     c1  478   3.050   2.654   2.850
    1TCM    cl1  479   3.092   2.668   3.022
    1TCM    cl2  480   2.983   2.808   2.793
    1TCM     h1  481   3.141   2.629   2.792
    1TCM    cl3  482   2.929   2.525   2.829
    1TCM     c1  483   3.700   2.448   2.419
    1TCM    cl1  484   3.633   2.463   2.255
    1TCM    cl2  485   3.611   2.322   2.508
    1TCM     h1  486   3.807   2.421   2.413
    1TCM    cl3  487   3.683   2.604   2.503
    1TCM     c1  488   5.009   0.663   2.434
    1TCM    cl1  489   5.114   0.619   2.570
    1TCM    cl2  490   5.101   0.652   2.282
    1TCM     h1  491   4.923   0.593   2.429
    1TCM    cl3  492   4.949   0.829   2.456
    1TCM     c1  493   0.354   0.174   3.013
    1TCM    cl1  494   0.468   0.057   2.941
    1TCM    cl2  495   0.187   0.117   2.986
    1TCM     h1  496   0.373   0.182   3.122
    1TCM    cl3  497   0.376   0.333   2.937
    1TCM     c1  498   5.211   3.673   1.369
    1TCM    cl1  499   5.068   3.686   1.265
    1TCM    cl2  500   5.160   3.631   1.534
    1TCM     h1  501   5.278   3.593   1.330
    1TCM    cl3  502   5.298   3.828   1.371
    1TCM     c1  503   1.557   3.298   0.955
    1TCM    cl1  504   1.518   3.471   0.971
    1TCM    cl2  505   1.677   3.276   0.826
    1TCM     h1  506   1.598   3.261   1.051
    1TCM    cl3  507   1.409   3.208   0.914
    1TCM     c1  508   2.740   4.420   4.201
    1TCM    cl1  509   2.574   4.482   4.210
    1TCM    cl2  510   2.826   4.502   4.068
    1TCM     h1  511   2.793   4.440   4.297
    1TCM    cl3  512   2.737   4.245   4.171
    1TCM     c1  513   4.636   1.694   0.410
    1TCM    cl1  514   4.493   1.643   0.316
    1TCM    cl2  515   4.607   1.855   0.479
    1TCM     h1  516   4.654   1.621   0.491
    1TCM    cl3  517   4.778   1.701   0.303
    1TCM     c1  518   2.937   4.760   4.478
    1TCM    cl1  519   3.014   4.600   4.495
    1TCM    cl2  520   2.838   4.762   4.330
    1TCM     h1  521   2.873   4.779   4.566
    1TCM    cl3  522   3.063   4.885   4.467
    1TCM     c1  523   3.852   4.160   2.055
    1TCM    cl1  524   3.759   4.234   1.923
    1TCM    cl2  525   3.743   4.118   2.189
    1TCM     h1  526   3.902   4.068   2.018
    1TCM    cl3  527   3.975   4.275   2.113
    1TCM     c1  528   0.935   0.234   3.415
    1TCM    cl1  529   0.786   0.237   3.512
    1TCM    cl2  530   0.897   0.272   3.246
    1TCM     h1  531   1.007   0.308   3.455
    1TCM    cl3  532   1.007   0.071   3.424
    1TCM     c1  533   0.966   1.365   2.634
    1TCM    cl1  534   0.904   1.458   2.496
    1TCM    cl2  535   0.832   1.322   2.743
    1TCM     h1  536   1.015   1.272   2.597
    1TCM    cl3  537   1.086   1.462   2.722
    1TCM     c1  538   1.165   0.798   2.305
    1TCM    cl1  539   1.048   0.742   2.183
    1TCM    cl2  540   1.268   0.924   2.235
    1TCM     h1  541   1.110   0.838   2.392
    1TCM    cl3  542   1.266   0.661   2.357
    1TCM     c1  543   2.886   1.136   3.969
    1TCM    cl1  544   2.730   1.128   4.054
    1TCM    cl2  545   2.868   1.231   3.820
    1TCM     h1  546   2.962   1.184   4.034
    1TCM    cl3  547   2.940   0.971   3.928
    1TCM     c1  548   4.622   5.146   1.272
    1TCM    cl1  549   4.749   5.226   1.177
    1TCM    cl2  550   4.636   5.194   1.443
    1TCM     h1  551   4.522   5.176   1.234
    1TCM    cl3  552   4.640   4.970   1.259
    1TCM     c1  553   0.648   4.530   0.275
    1TCM    cl1  554   0.608   4.392   0.380
    1TCM    cl2  555   0.608   4.490   0.107
    1TCM     h1  556   0.589   4.619   0.308
    1TCM    cl3  557   0.822   4.566   0.288
    1TCM     c1  558   2.396   3.424   2.231
    1TCM    cl1  559   2.507   3.549   2.170
    1TCM    cl2  560   2.417   3.407   2.407
    1TCM     h1  561   2.291   3.454   2.209
    1TCM    cl3  562   2.431   3.270   2.152
    1TCM     c1  563   0.360   3.168   1.124
    1TCM    cl1  564   0.531   3.188   1.078
    1TCM    cl2  565   0.331   3.250   1.279
    1TCM     h1  566   0.295   3.212   1.046
    1TCM    cl3  567   0.323   2.995   1.141
    1TCM     c1  568   3.388   3.631   1.048
    1TCM    cl1  569   3.288   3.576   1.185
    1TCM    cl2  570   3.344   3.797   1.006
    1TCM     h1  571   3.495   3.627   1.077
    1TCM    cl3  572   3.360   3.524   0.909
    1TCM     c1  573   3.167   3.032   4.986
    1TCM    cl1  574   3.296   3.025   4.864
    1TCM    cl2  575   3.239   3.044   5.148
    1TCM     h1  576   3.103   3.120   4.967
    1TCM    cl3  577   3.068   2.884   4.976
    1TCM     c1  578   1.134   1.275   1.934
    1TCM    cl1  579   1.264   1.224   1.824
    1TCM    cl2  580   1.200   1.295   2.098
    1TCM     h1  581   1.091   1.371   1.899
    1TCM    cl3  582   1.007   1.151   1.937
    1TCM     c1  583   1.967   2.668   4.756
    1TCM    cl1  584   1.875   2.624   4.610
    1TCM    cl2  585   2.093   2.546   4.785
    1TCM     h1  586   2.014   2.767   4.741
    1TCM    cl3  587   1.857   2.674   4.895
    1TCM     c1  588   2.244   4.128   4.184
    1TCM    cl1  589   2.227   4.040   4.031
    1TCM    cl2  590   2.368   4.050   4.284
    1TCM     h1  591   2.274   4.233   4.163
    1TCM    cl3  592   2.089   4.128   4.271
    1TCM     c1  593   0.769   0.351   0.148
    1TCM    cl1  594   0.894   0.452   0.073
    1TCM    cl2  595   0.794   0.345   0.324
    1TCM     h1  596   0.669   0.394   0.126
    1TCM    cl3  597   0.778   0.186   0.081
    1TCM     c1  598   1.100   0.654   2.971
    1TCM    cl1  599   1.066   0.821   2.921
    1TCM    cl2  600   0.956   0.585   3.049
    1TCM     h1  601   1.127   0.593   2.882
    1TCM    cl3  602   1.236   0.652   3.087
    1TCM     c1  603   4.489   3.213   3.274
    1TCM    cl1  604   4.444   3.164   3.109
    1TCM    cl2  605   4.622   3.331   3.266
    1TCM     h1  606   4.402   3.259   3.324
    1TCM    cl3  607   4.542   3.070   3.365
    1TCM     c1  608   3.215   4.776   5.191
    1TCM    cl1  609   3.199   4.874   5.338
    1TCM    cl2  610   3.240   4.883   5.051
    1TCM     h1  611   3.302   4.707   5.201
    1TCM    cl3  612   3.067   4.680   5.167
    1TCM     c1  613   1.868   0.122   3.631
    1TCM    cl1  614   1.856   0.123   3.454
    1TCM    cl2  615   1.833   0.284   3.694
    1TCM     h1  616   1.795   0.049   3.673
    1TCM    cl3  617   2.033   0.074   3.679
    1TCM     c1  618   0.976   0.813   4.099
    1TCM    cl1  619   1.007   0.724   4.250
    1TCM    cl2  620   0.832   0.916   4.120
    1TCM     h1  621   1.064   0.877   4.075
    1TCM    cl3  622   0.948   0.698   3.967
    1TCM     c1  623   2.059   5.147   2.410
    1TCM    cl1  624   1.940   5.225   2.517
    1TCM    cl2  625   2.033   5.202   2.243
    1TCM     h1  626   2.161   5.175   2.442
    1TCM    cl3  627   2.040   4.971   2.418
    1TCM     c1  628   1.209   1.272   2.384
    1TCM    cl1  629   1.163   1.101   2.365
    1TCM    cl2  630   1.071   1.375   2.338
    1TCM     h1  631   1.236   1.291   2.490
    1TCM    cl3  632   1.348   1.308   2.280
    1TCM     c1  633   1.607   1.634   0.191
    1TCM    cl1  634   1.571   1.803   0.147
    1TCM    cl2  635   1.781   1.618   0.226
    1TCM     h1  636   1.548   1.606   0.280
    1TCM    cl3  637   1.564   1.527   0.056
    1TCM     c1  638   4.225   3.115   2.468
    1TCM    cl1  639   4.394   3.171   2.460
    1TCM    cl2  640   4.148   3.178   2.615
    1TCM     h1  641   4.170   3.152   2.379
    1TCM    cl3  642   4.221   2.937   2.471
    1TCM     c1  643   2.938   4.880   1.406
    1TCM    cl1  644   2.874   5.037   1.352
    1TCM    cl2  645   2.817   4.753   1.379
    1TCM     h1  646   3.030   4.856   1.349
    1TCM    cl3  647   2.977   4.889   1.579
    1TCM     c1  648   4.328   2.470   3.328
    1TCM    cl1  649   4.424   2.531   3.464
    1TCM    cl2  650   4.163   2.431   3.384
    1TCM     h1  651   4.322   2.548   3.249
    1TCM    cl3  652   4.404   2.323   3.262
    1TCM     c1  653   4.277   0.787   3.721
    1TCM    cl1  654   4.343   0.730   3.876
    1TCM    cl2  655   4.296   0.660   3.598
    1TCM     h1  656   4.169   0.811   3.733
    1TCM    cl3  657   4.364   0.933   3.669
    1TCM     c1  658   4.264   0.995   3.312
    1TCM    cl1  659   4.131   0.984   3.195
    1TCM    cl2  660   4.214   0.919   3.465
    1TCM     h1  661   4.353   0.942   3.272
    1TCM    cl3  662   4.304   1.166   3.341
    1TCM     c1  663   2.070   0.289   3.323
    1TCM    cl1  664   1.949   0.397   3.250
    1TCM    cl2  665   2.230   0.322   3.251
    1TCM     h1  666   2.074   0.306   3.432
    1TCM    cl3  667   2.025   0.120   3.291
    1TCM     c1  668   0.508   4.494   3.661
    1TCM    cl1  669   0.572   4.638   3.743
    1TCM    cl2  670   0.412   4.398   3.776
    1TCM     h1  671   0.443   4.525   3.576
    1TCM    cl3  672   0.643   4.396   3.600
    1TCM     c1  673   0.292   1.933   4.820
    1TCM    cl1  674   0.349   1.839   4.959
    1TCM    cl2  675   0.305   1.835   4.672
    1TCM     h1  676   0.186   1.963   4.835
    1TCM    cl3  677   0.392   2.079   4.802
    1TCM     c1  678   1.116   5.106   5.240
    1TCM    cl1  679   1.248   5.191   5.324
    1TCM    cl2  680   1.155   5.093   5.067
    1TCM     h1  681   1.105   5.005   5.283
    1TCM    cl3  682   0.965   5.197   5.260
    1TCM     c1  683   0.864   2.251   1.203
    1TCM    cl1  684   0.712   2.186   1.270
    1TCM    cl2  685   0.999   2.205   1.309
    1TCM     h1  686   0.881   2.209   1.102
    1TCM    cl3  687   0.854   2.428   1.193
    1TCM     c1  688   4.803   1.725   2.329
    1TCM    cl1  689   4.960   1.809   2.319
    1TCM    cl2  690   4.831   1.552   2.361
    1TCM     h1  691   4.743   1.768   2.411
    1TCM    cl3  692   4.716   1.744   2.175
    1TCM     c1  693   2.935   1.335   2.602
    1TCM    cl1  694   2.785   1.364   2.693
    1TCM    cl2  695   2.932   1.429   2.451
    1TCM     h1  696   3.022   1.367   2.664
    1TCM    cl3  697   2.949   1.162   2.564
    1TCM     c1  698   3.209   0.571   2.660
    1TCM    cl1  699   3.056   0.595   2.747
    1TCM    cl2  700   3.304   0.721   2.667
    1TCM     h1  701   3.266   0.489   2.707
    1TCM    cl3  702   3.175   0.530   2.490
    1TCM     c1  703   2.367   4.656   1.105
    1TCM    cl1  704   2.458   4.766   1.211
    1TCM    cl2  705   2.447   4.645   0.947
    1TCM     h1  706   2.362   4.555   1.151
    1TCM    cl3  707   2.202   4.718   1.084
    1TCM     c1  708   0.575   3.421   4.111
    1TCM    cl1  709   0.611   3.595   4.111
    1TCM    cl2  710   0.594   3.356   3.947
    1TCM     h1  711   0.646   3.369   4.180
    1TCM    cl3  712   0.408   3.395   4.166
    1TCM     c1  713   2.528   0.156   1.752
    1TCM    cl1  714   2.481   0.199   1.919
    1TCM    cl2  715   2.454   0.001   1.707
    1TCM     h1  716   2.493   0.236   1.683
    1TCM    cl3  717   2.705   0.143   1.742
    1TCM     c1  718   2.674   4.935   3.621
    1TCM    cl1  719   2.524   4.948   3.526
    1TCM    cl2  720   2.639   4.864   3.780
    1TCM     h1  721   2.747   4.871   3.567
    1TCM    cl3  722   2.744   5.097   3.643
    1TCM     c1  723   3.661   3.678   4.832
    1TCM    cl1  724   3.595   3.843   4.835
    1TCM    cl2  725   3.813   3.678   4.738
    1TCM     h1  726   3.682   3.645   4.936
    1TCM    cl3  727   3.544   3.568   4.756
    1TCM     c1  728   1.714   0.252   4.772
    1TCM    cl1  729   1.559   0.215   4.852
    1TCM    cl2  730   1.693   0.242   4.595
    1TCM     h1  731   1.746   0.355   4.799
    1TCM    cl3  732   1.837   0.136   4.824
    1TCM     c1  733   3.455   3.772   1.895
    1TCM    cl1  734   3.407   3.626   1.985
    1TCM    cl2  735   3.605   3.838   1.964
    1TCM     h1  736   3.472   3.746   1.788
    1TCM    cl3  737   3.326   3.893   1.906
    1TCM     c1  738   0.241   2.768   2.139
    1TCM    cl1  739   0.315   2.905   2.226
    1TCM    cl2  740   0.281   2.779   1.966
    1TCM     h1  741   0.279   2.673   2.181
    1TCM    cl3  742   0.064   2.774   2.159
    1TCM     c1  743   1.887   0.939   3.556
    1TCM    cl1  744   1.884   1.010   3.393
    1TCM    cl2  745   1.878   0.762   3.543
    1TCM     h1  746   1.981   0.968   3.608
    1TCM    cl3  747   1.748   0.999   3.650
    1TCM     c1  748   1.459   4.571   3.681
    1TCM    cl1  749   1.316   4.677   3.696
    1TCM    cl2  750   1.493   4.542   3.509
    1TCM     h1  751   1.546   4.621   3.728
    1TCM    cl3  752   1.427   4.417   3.763
    1TCM     c1  753   1.299   3.252   3.569
    1TCM    cl1  754   1.326   3.386   3.683
    1TCM    cl2  755   1.393   3.281   3.421
    1TCM     h1  756   1.332   3.157   3.615
    1TCM    cl3  757   1.126   3.242   3.529
    1TCM     c1  758   4.864   2.334   2.486
    1TCM    cl1  759   4.723   2.381   2.389
    1TCM    cl2  760   4.815   2.310   2.655
    1TCM     h1  761   4.907   2.240   2.446
    1TCM    cl3  762   4.987   2.463   2.478
    1TCM     c1  763   2.474   1.459   1.799
    1TCM    cl1  764   2.341   1.450   1.916
    1TCM    cl2  765   2.508   1.629   1.760
    1TCM     h1  766   2.565   1.412   1.843
    1TCM    cl3  767   2.429   1.372   1.651
    1TCM     c1  768   1.351   0.151   3.737
    1TCM    cl1  769   1.173   0.158   3.746
    1TCM    cl2  770   1.401   0.107   3.572
    1TCM     h1  771   1.393   0.250   3.763
    1TCM    cl3  772   1.411   0.028   3.852
    1TCM     c1  773   4.299   3.799   2.737
    1TCM    cl1  774   4.468   3.742   2.744
    1TCM    cl2  775   4.193   3.676   2.808
    1TCM     h1  776   4.289   3.894   2.793
    1TCM    cl3  777   4.253   3.826   2.567
    1TCM     c1  778   4.425   1.292   4.028
    1TCM    cl1  779   4.463   1.152   3.926
    1TCM    cl2  780   4.478   1.260   4.195
    1TCM     h1  781   4.479   1.382   3.990
    1TCM    cl3  782   4.250   1.322   4.026
    1TCM     c1  783   3.746   2.055   2.675
    1TCM    cl1  784   3.689   2.124   2.829
    1TCM    cl2  785   3.893   2.140   2.623
    1TCM     h1  786   3.768   1.947   2.689
    1TCM    cl3  787   3.619   2.074   2.551
    1TCM     c1  788   4.959   4.009   3.377
    1TCM    cl1  789   5.062   3.888   3.459
    1TCM    cl2  790   4.975   3.989   3.201
    1TCM     h1  791   4.854   3.994   3.407
    1TCM    cl3  792   5.012   4.172   3.423
    1TCM     c1  793   0.471   1.824   0.645
    1TCM    cl1  794   0.478   1.735   0.799
    1TCM    cl2  795   0.346   1.950   0.655
    1TCM     h1  796   0.570   1.871   0.626
    1TCM    cl3  797   0.432   1.711   0.513
    1TCM     c1  798   3.705   1.700   3.657
    1TCM    cl1  799   3.868   1.743   3.714
    1TCM    cl2  800   3.697   1.718   3.480
    1TCM     h1  801   3.684   1.594   3.685
    1TCM    cl3  802   3.585   1.807   3.733
    1TCM     c1  803   1.453   2.408   2.973
    1TCM    cl1  804   1.377   2.380   2.815
    1TCM    cl2  805   1.427   2.266   3.077
    1TCM     h1  806   1.562   2.425   2.960
    1TCM    cl3  807   1.380   2.551   3.049
    1TCM     c1  808   0.297   3.038   0.162
    1TCM    cl1  809   0.347   3.205   0.131
    1TCM    cl2  810   0.379   2.978   0.308
    1TCM     h1  811   0.187   3.035   0.178
    1TCM    cl3  812   0.340   2.935   0.024
    1TCM     c1  813   0.829   4.668   5.025
    1TCM    cl1  814   0.701   4.621   5.139
    1TCM    cl2  815   0.760   4.773   4.899
    1TCM     h1  816   0.909   4.723   5.079
    1TCM    cl3  817   0.899   4.523   4.949
    1TCM     c1  818   4.707   4.854   0.143
    1TCM    cl1  819   4.853   4.834   0.044
    1TCM    cl2  820   4.753   4.871   0.314
    1TCM     h1  821   4.652   4.944   0.110
    1TCM    cl3  822   4.602   4.711   0.124
    1TCM     c1  823   0.813   1.551   0.591
    1TCM    cl1  824   0.952   1.510   0.694
    1TCM    cl2  825   0.871   1.599   0.430
    1TCM     h1  826   0.747   1.462   0.581
    1TCM    cl3  827   0.723   1.685   0.665
    1TCM     c1  828   2.431   0.381   3.526
    1TCM    cl1  829   2.355   0.511   3.620
    1TCM    cl2  830   2.466   0.439   3.362
    1TCM     h1  831   2.525   0.350   3.576
    1TCM    cl3  832   2.320   0.242   3.518
    1TCM     c1  833   0.526   1.539   3.324
    1TCM    cl1  834   0.540   1.541   3.501
    1TCM    cl2  835   0.677   1.478   3.253
    1TCM     h1  836   0.442   1.473   3.294
    1TCM    cl3  837   0.496   1.704   3.265
    1TCM     c1  838   0.342   4.408   4.977
    1TCM    cl1  839   0.319   4.263   4.877
    1TCM    cl2  840   0.375   4.359   5.145
    1TCM     h1  841   0.428   4.467   4.938
    1TCM    cl3  842   0.194   4.507   4.973
    1TCM     c1  843   4.295   1.433   2.198
    1TCM    cl1  844   4.460   1.489   2.231
    1TCM    cl2  845   4.184   1.499   2.321
    1TCM     h1  846   4.263   1.468   2.097
    1TCM    cl3  847   4.290   1.256   2.203
    1TCM     c1  848   1.485   0.669   1.810
    1TCM    cl1  849   1.451   0.542   1.929
    1TCM    cl2  850   1.419   0.622   1.652
    1TCM     h1  851   1.438   0.764   1.843
    1TCM    cl3  852   1.661   0.692   1.797
    1TCM     c1  853   2.019   1.887   3.561
    1TCM    cl1  854   1.999   2.011   3.435
    1TCM    cl2  855   1.963   1.951   3.717
    1TCM     h1  856   1.960   1.797   3.534
    1TCM    cl3  857   2.191   1.843   3.574
    1TCM     c1  858   2.647   3.611   3.827
    1TCM    cl1  859   2.764   3.694   3.932
    1TCM    cl2  860   2.578   3.472   3.914
    1TCM     h1  861   2.566   3.681   3.799
    1TCM    cl3  862   2.730   3.553   3.680
    1TCM     c1  863   0.857   1.374   3.741
    1TCM    cl1  864   0.824   1.317   3.576
    1TCM    cl2  865   0.705   1.422   3.819
    1TCM     h1  866   0.904   1.292   3.799
    1TCM    cl3  867   0.967   1.514   3.735
    1TCM     c1  868   0.793   4.413   1.931
    1TCM    cl1  869   0.663   4.400   1.811
    1TCM    cl2  870   0.727   4.385   2.094
    1TCM     h1  871   0.871   4.337   1.909
    1TCM    cl3  872   0.865   4.576   1.923
    1TCM     c1  873   3.716   4.173   2.605
    1TCM    cl1  874   3.869   4.189   2.516
    1TCM    cl2  875   3.671   4.001   2.615
    1TCM     h1  876   3.728   4.214   2.707
    1TCM    cl3  877   3.589   4.262   2.519
    1TCM     c1  878   0.693   2.578   3.598
    1TCM    cl1  879   0.623   2.570   3.434
    1TCM    cl2  880   0.736   2.414   3.651
    1TCM     h1  881   0.784   2.641   3.596
    1TCM    cl3  882   0.574   2.648   3.710
    1TCM     c1  883   1.776   3.880   1.755
    1TCM    cl1  884   1.791   3.946   1.590
    1TCM    cl2  885   1.629   3.944   1.831
    1TCM     h1  886   1.770   3.770   1.750
    1TCM    cl3  887   1.918   3.928   1.851
    1TCM     c1  888   1.611   1.622   2.624
    1TCM    cl1  889   1.483   1.717   2.703
    1TCM    cl2  890   1.543   1.468   2.566
    1TCM     h1  891   1.652   1.679   2.538
    1TCM    cl3  892   1.741   1.589   2.741
    1TCM     c1  893   3.953   0.136   4.035
    1TCM    cl1  894   4.035   0.040   3.910
    1TCM    cl2  895   4.047   0.130   4.186
    1TCM     h1  896   3.944   0.241   4.001
    1TCM    cl3  897   3.790   0.069   4.064
    1TCM     c1  898   0.162   4.541   4.580
    1TCM    cl1  899   0.310   4.619   4.520
    1TCM    cl2  900   0.047   4.666   4.632
    1TCM     h1  901   0.116   4.481   4.498
    1TCM    cl3  902   0.201   4.435   4.717
    1TCM     c1  903   1.040   1.733   0.858
    1TCM    cl1  904   0.941   1.879   0.884
    1TCM    cl2  905   1.067   1.711   0.684
    1TCM     h1  906   1.137   1.745   0.909
    1TCM    cl3  907   0.955   1.591   0.924
    1TCM     c1  908   2.722   2.852   0.299
    1TCM    cl1  909   2.663   2.942   0.158
    1TCM    cl2  910   2.690   2.678   0.276
    1TCM     h1  911   2.831   2.868   0.310
    1TCM    cl3  912   2.639   2.909   0.445
    1TCM     c1  913   3.613   1.423   3.444
    1TCM    cl1  914   3.491   1.382   3.321
    1TCM    cl2  915   3.765   1.469   3.364
    1TCM     h1  916   3.576   1.509   3.505
    1TCM    cl3  917   3.640   1.283   3.549
    1TCM     c1  918   3.527   0.283   1.976
    1TCM    cl1  919   3.579   0.423   2.072
    1TCM    cl2  920   3.553   0.316   1.804
    1TCM     h1  921   3.587   0.194   2.006
    1TCM    cl3  922   3.355   0.251   2.006
    1TCM     c1  923   4.125   2.685   1.509
    1TCM    cl1  924   4.083   2.770   1.660
    1TCM    cl2  925   4.106   2.509   1.533
    1TCM     h1  926   4.058   2.718   1.428
    1TCM    cl3  927   4.293   2.721   1.466
    1TCM     c1  928   3.012   4.244   2.681
    1TCM    cl1  929   2.865   4.145   2.666
    1TCM    cl2  930   3.078   4.226   2.845
    1TCM     h1  931   3.087   4.211   2.607
    1TCM    cl3  932   2.971   4.415   2.653
    1TCM     c1  933   4.436   1.113   2.778
    1TCM    cl1  934   4.526   1.006   2.887
    1TCM    cl2  935   4.435   1.043   2.614
    1TCM     h1  936   4.332   1.124   2.814
    1TCM    cl3  937   4.514   1.273   2.773
    1TCM     c1  938   1.098   2.092   4.966
    1TCM    cl1  939   1.064   2.262   5.004
    1TCM    cl2  940   1.111   1.999   5.117
    1TCM     h1  941   1.016   2.050   4.905
    1TCM    cl3  942   1.251   2.081   4.877
    1TCM     c1  943   2.336   4.584   4.605
    1TCM    cl1  944   2.481   4.607   4.706
    1TCM    cl2  945   2.297   4.411   4.596
    1TCM     h1  946   2.251   4.639   4.650
    1TCM    cl3  947   2.368   4.646   4.441
    1TCM     c1  948   2.306   5.080   5.104
    1TCM    cl1  949   2.279   5.176   5.251
    1TCM    cl2  950   2.475   5.098   5.051
    1TCM     h1  951   2.286   4.973   5.126
    1TCM    cl3  952   2.197   5.136   4.975
    1TCM     c1  953   2.035   1.288   3.016
    1TCM    cl1  954   2.079   1.305   3.187
    1TCM    cl2  955   1.976   1.122   2.986
    1TCM     h1  956   1.954   1.360   2.991
    1TCM    cl3  957   2.177   1.320   2.914
    1TCM     c1  958   1.945   2.210   5.153
    1TCM    cl1  959   1.868   2.354   5.224
    1TCM    cl2  960   2.024   2.254   5.001
    1TCM     h1  961   2.020   2.170   5.224
    1TCM    cl3  962   1.821   2.086   5.122
    1TCM     c1  963   2.250   1.826   1.713
    1TCM    cl1  964   2.222   1.731   1.860
    1TCM    cl2  965   2.327   1.724   1.590
    1TCM     h1  966   2.152   1.863   1.674
    1TCM    cl3  967   2.355   1.964   1.750
    1TCM     c1  968   2.671   2.711   0.843
    1TCM    cl1  969   2.734   2.553   0.894
    1TCM    cl2  970   2.765   2.771   0.705
    1TCM     h1  971   2.564   2.700   0.813
    1TCM    cl3  972   2.683   2.826   0.978
    1TCM     c1  973   3.072   1.880   2.014
    1TCM    cl1  974   2.978   2.015   1.949
    1TCM    cl2  975   3.127   1.776   1.881
    1TCM     h1  976   3.160   1.919   2.069
    1TCM    cl3  977   2.971   1.785   2.125
    1TCM     c1  978   4.632   4.632   2.721
    1TCM    cl1  979   4.620   4.578   2.890
    1TCM    cl2  980   4.746   4.768   2.709
    1TCM     h1  981   4.668   4.548   2.658
    1TCM    cl3  982   4.472   4.684   2.664
    1TCM     c1  983   3.218   0.416   4.909
    1TCM    cl1  984   3.360   0.477   4.997
    1TCM    cl2  985   3.143   0.549   4.818
    1TCM     h1  986   3.250   0.336   4.839
    1TCM    cl3  987   3.100   0.350   5.025
    1TCM     c1  988   3.964   3.997   4.137
    1TCM    cl1  989   3.952   3.819   4.131
    1TCM    cl2  990   4.044   4.046   4.288
    1TCM     h1  991   4.023   4.032   4.050
    1TCM    cl3  992   3.801   4.068   4.130
    1TCM     c1  993   1.971   1.390   2.604
    1TCM    cl1  994   1.866   1.313   2.725
    1TCM    cl2  995   2.059   1.525   2.679
    1TCM     h1  996   2.044   1.315   2.566
    1TCM    cl3  997   1.872   1.451   2.470
    1TCM     c1  998   2.709   0.539   0.107
    1TCM    cl1  999   2.839   0.461   0.199
    1TCM    cl2 1000   2.680   0.702   0.172
    1TCM     h1 1001   2.739   0.547   0.000
    1TCM    cl3 1002   2.560   0.443   0.119
    1TCM     c1 1003   2.453   2.907   2.033
    1TCM    cl1 1004   2.484   3.055   2.127
    1TCM    cl2 1005   2.452   2.946   1.860
    1TCM     h1 1006   2.533   2.833   2.054
    1TCM    cl3 1007   2.295   2.839   2.080
    1TCM     c1 1008   1.115   4.962   1.641
    1TCM    cl1 1009   1.099   5.139   1.642
    1TCM    cl2 1010   1.287   4.918   1.652
    1TCM     h1 1011   1.060   4.919   1.728
    1TCM    cl3 1012   1.046   4.897   1.490
    1TCM     c1 1013   4.248   2.316   4.402
    1TCM    cl1 1014   4.122   2.435   4.443
    1TCM    cl2 1015   4.180   2.152   4.415
    1TCM     h1 1016   4.282   2.333   4.298
    1TCM    cl3 1017   4.385   2.333   4.514
    1TCM     c1 1018   1.931   5.125   5.147
    1TCM    cl1 1019   1.844   5.008   5.045
    1TCM    cl2 1020   1.857   5.130   5.308
    1TCM     h1 1021   2.037   5.094   5.155
    1TCM    cl3 1022   1.922   5.286   5.072
    1TCM     c1 1023   3.463   3.798   0.638
    1TCM    cl1 1024   3.349   3.703   0.541
    1TCM    cl2 1025   3.503   3.709   0.787
    1TCM     h1 1026   3.556   3.815   0.580
    1TCM    cl3 1027   3.390   3.954   0.681
    1TCM     c1 1028   4.665   0.982   1.077
    1TCM    cl1 1029   4.701   1.033   1.244
    1TCM    cl2 1030   4.571   1.109   0.995
    1TCM     h1 1031   4.760   0.965   1.023
    1TCM    cl3 1032   4.570   0.831   1.081
    1TCM     c1 1033   4.133   1.839   1.945
    1TCM    cl1 1034   4.184   1.900   1.786
    1TCM    cl2 1035   4.042   1.965   2.031
    1TCM     h1 1036   4.068   1.750   1.931
    1TCM    cl3 1037   4.276   1.793   2.040
    1TCM     c1 1038   4.132   1.741   0.167
    1TCM    cl1 1039   4.194   1.577   0.201
    1TCM    cl2 1040   3.957   1.733   0.138
    1TCM     h1 1041   4.152   1.807   0.254
    1TCM    cl3 1042   4.214   1.806   0.023
    1TCM     c1 1043   3.988   3.240   4.817
    1TCM    cl1 1044   3.937   3.395   4.748
    1TCM    cl2 1045   4.150   3.257   4.889
    1TCM     h1 1046   3.917   3.208   4.896
    1TCM    cl3 1047   3.993   3.117   4.689
    1TCM     c1 1048   1.226   0.543   3.842
    1TCM    cl1 1049   1.231   0.564   4.018
    1TCM    cl2 1050   1.279   0.692   3.762
    1TCM     h1 1051   1.294   0.459   3.813
    1TCM    cl3 1052   1.060   0.504   3.791
    1TCM     c1 1053   3.582   0.362   1.436
    1TCM    cl1 1054   3.404   0.355   1.443
    1TCM    cl2 1055   3.634   0.367   1.266
    1TCM     h1 1056   3.618   0.452   1.488
    1TCM    cl3 1057   3.650   0.217   1.514
    1TCM     c1 1058   1.286   0.325   4.102
    1TCM    cl1 1059   1.419   0.442   4.087
    1TCM    cl2 1060   1.172   0.380   4.226
    1TCM     h1 1061   1.234   0.317   4.004
    1TCM    cl3 1062   1.352   0.166   4.147
    1TCM     c1 1063   3.132   5.263   3.617
    1TCM    cl1 1064   3.223   5.286   3.466
    1TCM    cl2 1065   2.971   5.338   3.600
    1TCM     h1 1066   3.120   5.154   3.636
    1TCM    cl3 1067   3.219   5.338   3.752
    1TCM     c1 1068   2.288   1.132   4.307
    1TCM    cl1 1069   2.280   1.033   4.159
    1TCM    cl2 1070   2.426   1.243   4.296
    1TCM     h1 1071   2.194   1.190   4.318
    1TCM    cl3 1072   2.309   1.026   4.448
    1TCM     c1 1073   3.296   0.737   0.365
    1TCM    cl1 1074   3.459   0.803   0.387
    1TCM    cl2 1075   3.295   0.565   0.412
    1TCM     h1 1076   3.224   0.793   0.428
    1TCM    cl3 1077   3.249   0.752   0.194
    1TCM     c1 1078   1.690   2.108   2.725
    1TCM    cl1 1079   1.620   2.181   2.871
    1TCM    cl2 1080   1.867   2.101   2.741
    1TCM     h1 1081   1.650   2.006   2.711
    1TCM    cl3 1082   1.647   2.207   2.583
    1TCM     c1 1083   5.002   4.020   4.679
    1TCM    cl1 1084   5.074   3.890   4.581
    1TCM    cl2 1085   4.912   4.131   4.574
    1TCM     h1 1086   4.934   3.976   4.754
    1TCM    cl3 1087   5.132   4.109   4.762
    1TCM     c1 1088   0.908   0.938   2.731
    1TCM    cl1 1089   0.853   1.102   2.772
    1TCM    cl2 1090   0.846   0.893   2.571
    1TCM     h1 1091   1.019   0.935   2.730
    1TCM    cl3 1092   0.847   0.823   2.853
    1TCM     c1 1093   4.735   0.996   3.654
    1TCM    cl1 1094   4.784   0.857   3.752
    1TCM    cl2 1095   4.791   0.973   3.487
    1TCM     h1 1096   4.625   1.006   3.655
    1TCM    cl3 1097   4.808   1.144   3.721
    1TCM     c1 1098   5.106   4.816   0.648
    1TCM    cl1 1099   5.237   4.894   0.738
    1TCM    cl2 1100   5.162   4.774   0.485
    1TCM     h1 1101   5.075   4.723   0.701
    1TCM    cl3 1102   4.967   4.927   0.637
    1TCM     c1 1103   0.565   3.372   0.426
    1TCM    cl1 1104   0.657   3.483   0.530
    1TCM    cl2 1105   0.633   3.376   0.261
    1TCM     h1 1106   0.572   3.269   0.466
    1TCM    cl3 1107   0.395   3.421   0.421
    1TCM     c1 1108   1.217   2.466   4.736
    1TCM    cl1 1109   1.206   2.327   4.846
    1TCM    cl2 1110   1.360   2.447   4.632
    1TCM     h1 1111   1.126   2.470   4.673
    1TCM    cl3 1112   1.231   2.616   4.830
    1TCM     c1 1113   0.558   3.149   0.719
    1TCM    cl1 1114   0.485   3.108   0.876
    1TCM    cl2 1115   0.605   3.000   0.634
    1TCM     h1 1116   0.485   3.206   0.658
    1TCM    cl3 1117   0.703   3.250   0.746
    1TCM     c1 1118   4.247   1.630   2.606
    1TCM    cl1 1119   4.318   1.747   2.492
    1TCM    cl2 1120   4.241   1.702   2.769
    1TCM     h1 1121   4.144   1.605   2.574
    1TCM    cl3 1122   4.346   1.483   2.610
    1TCM     c1 1123   2.139   0.584   4.333
    1TCM    cl1 1124   2.184   0.477   4.198
    1TCM    cl2 1125   2.136   0.753   4.276
    1TCM     h1 1126   2.038   0.556   4.370
    1TCM    cl3 1127   2.257   0.567   4.464
    1TCM     c1 1128   0.442   0.159   2.662
    1TCM    cl1 1129   0.521   0.001   2.638
    1TCM    cl2 1130   0.526   0.249   2.790
    1TCM     h1 1131   0.446   0.217   2.567
    1TCM    cl3 1132   0.273   0.133   2.709
    1TCM     c1 1133   1.880   4.548   4.440
    1TCM    cl1 1134   1.915   4.411   4.333
    1TCM    cl2 1135   1.958   4.521   4.597
    1TCM     h1 1136   1.919   4.641   4.394
    1TCM    cl3 1137   1.704   4.562   4.462
    1TCM     c1 1138   4.302   4.636   1.531
    1TCM    cl1 1139   4.183   4.684   1.408
    1TCM    cl2 1140   4.436   4.549   1.453
    1TCM     h1 1141   4.341   4.727   1.582
    1TCM    cl3 1142   4.224   4.530   1.650
    1TCM     c1 1143   1.100   2.672   0.606
    1TCM    cl1 1144   1.156   2.839   0.635
    1TCM    cl2 1145   1.215   2.589   0.500
    1TCM     h1 1146   1.093   2.618   0.703
    1TCM    cl3 1147   0.940   2.677   0.528
    1TCM     c1 1148   1.320   0.960   4.260
    1TCM    cl1 1149   1.214   1.069   4.352
    1TCM    cl2 1150   1.327   1.013   4.091
    1TCM     h1 1151   1.422   0.962   4.304
    1TCM    cl3 1152   1.255   0.794   4.268
    1TCM     c1 1153   1.966   1.490   0.895
    1TCM    cl1 1154   1.819   1.589   0.901
    1TCM    cl2 1155   2.037   1.480   1.058
    1TCM     h1 1156   1.941   1.388   0.859
    1TCM    cl3 1157   2.083   1.565   0.784
    1TCM     c1 1158   1.227   4.576   1.455
    1TCM    cl1 1159   1.230   4.407   1.400
    1TCM    cl2 1160   1.241   4.684   1.314
    1TCM     h1 1161   1.131   4.596   1.508
    1TCM    cl3 1162   1.363   4.606   1.566
    1TCM     c1 1163   5.108   2.791   2.643
    1TCM    cl1 1164   5.041   2.671   2.755
    1TCM    cl2 1165   5.051   2.756   2.478
    1TCM     h1 1166   5.075   2.892   2.673
    1TCM    cl3 1167   5.286   2.783   2.647
    1TCM     c1 1168   0.816   2.433   0.308
    1TCM    cl1 1169   0.857   2.405   0.137
    1TCM    cl2 1170   0.663   2.352   0.347
    1TCM     h1 1171   0.897   2.391   0.372
    1TCM    cl3 1172   0.800   2.607   0.338
    1TCM     c1 1173   3.681   4.703   3.439
    1TCM    cl1 1174   3.771   4.802   3.322
    1TCM    cl2 1175   3.793   4.588   3.517
    1TCM     h1 1176   3.637   4.769   3.516
    1TCM    cl3 1177   3.553   4.614   3.356
    1TCM     c1 1178   2.157   1.028   2.404
    1TCM    cl1 1179   2.329   1.062   2.374
    1TCM    cl2 1180   2.063   1.178   2.387
    1TCM     h1 1181   2.120   0.953   2.330
    1TCM    cl3 1182   2.137   0.964   2.568
    1TCM     c1 1183   0.715   4.618   4.519
    1TCM    cl1 1184   0.620   4.602   4.668
    1TCM    cl2 1185   0.605   4.632   4.380
    1TCM     h1 1186   0.779   4.709   4.525
    1TCM    cl3 1187   0.818   4.475   4.498
    1TCM     c1 1188   2.051   4.832   3.931
    1TCM    cl1 1189   2.096   4.949   4.057
    1TCM    cl2 1190   2.179   4.825   3.808
    1TCM     h1 1191   2.039   4.731   3.977
    1TCM    cl3 1192   1.898   4.881   3.856
    1TCM     c1 1193   1.192   0.281   1.293
    1TCM    cl1 1194   1.182   0.105   1.267
    1TCM    cl2 1195   1.134   0.319   1.457
    1TCM     h1 1196   1.298   0.314   1.282
    1TCM    cl3 1197   1.091   0.365   1.173
    1TCM     c1 1198   2.467   3.130   1.105
    1TCM    cl1 1199   2.442   3.129   1.281
    1TCM    cl2 1200   2.632   3.075   1.069
    1TCM     h1 1201   2.394   3.061   1.058
    1TCM    cl3 1202   2.443   3.294   1.042
    1TCM     c1 1203   1.164   3.617   1.178
    1TCM    cl1 1204   1.339   3.644   1.173
    1TCM    cl2 1205   1.111   3.540   1.027
    1TCM     h1 1206   1.139   3.551   1.264
    1TCM    cl3 1207   1.080   3.773   1.198
    1TCM     c1 1208   3.760   2.390   2.046
    1TCM    cl1 1209   3.839   2.538   2.105
    1TCM    cl2 1210   3.793   2.256   2.159
    1TCM     h1 1211   3.650   2.406   2.040
    1TCM    cl3 1212   3.823   2.348   1.885
    1TCM     c1 1213   2.781   2.485   1.276
    1TCM    cl1 1214   2.721   2.457   1.111
    1TCM    cl2 1215   2.902   2.614   1.274
    1TCM     h1 1216   2.696   2.514   1.342
    1TCM    cl3 1217   2.855   2.335   1.338
    1TCM     c1 1218   2.752   3.504   4.298
    1TCM    cl1 1219   2.725   3.625   4.170
    1TCM    cl2 1220   2.904   3.418   4.266
    1TCM     h1 1221   2.758   3.555   4.396
    1TCM    cl3 1222   2.617   3.389   4.300
    1TCM     c1 1223   1.189   2.795   4.174
    1TCM    cl1 1224   1.200   2.803   4.352
    1TCM    cl2 1225   1.019   2.779   4.126
    1TCM     h1 1226   1.232   2.888   4.130
    1TCM    cl3 1227   1.281   2.655   4.115
    1TCM     c1 1228   1.515   2.929   3.467
    1TCM    cl1 1229   1.538   2.780   3.562
    1TCM    cl2 1230   1.465   2.887   3.302
    1TCM     h1 1231   1.437   2.991   3.515
    1TCM    cl3 1232   1.668   3.020   3.461
    1TCM     c1 1233   3.797   4.791   3.861
    1TCM    cl1 1234   3.733   4.698   3.724
    1TCM    cl2 1235   3.787   4.694   4.010
    1TCM     h1 1236   3.903   4.818   3.841
    1TCM    cl3 1237   3.702   4.940   3.881
    1TCM     c1 1238   0.140   3.199   0.508
    1TCM    cl1 1239   0.251   3.292   0.611
    1TCM    cl2 1240   0.166   3.025   0.534
    1TCM     h1 1241   0.035   3.226   0.534
    1TCM    cl3 1242   0.171   3.239   0.337
    1TCM     c1 1243   1.460   2.286   5.092
    1TCM    cl1 1244   1.488   2.118   5.144
    1TCM    cl2 1245   1.549   2.396   5.200
    1TCM     h1 1246   1.496   2.299   4.988
    1TCM    cl3 1247   1.286   2.322   5.101
    1TCM     c1 1248   0.255   1.946   3.024
    1TCM    cl1 1249   0.286   1.780   2.971
    1TCM    cl2 1250   0.385   2.053   2.966
    1TCM     h1 1251   0.158   1.981   2.983
    1TCM    cl3 1252   0.249   1.952   3.202
    1TCM     c1 1253   3.692   0.231   4.947
    1TCM    cl1 1254   3.630   0.321   4.806
    1TCM    cl2 1255   3.563   0.127   5.011
    1TCM     h1 1256   3.778   0.169   4.916
    1TCM    cl3 1257   3.744   0.347   5.072
    1TCM     c1 1258   1.826   2.781   2.166
    1TCM    cl1 1259   1.737   2.897   2.268
    1TCM    cl2 1260   1.831   2.842   1.999
    1TCM     h1 1261   1.929   2.770   2.204
    1TCM    cl3 1262   1.744   2.624   2.169
    1TCM     c1 1263   4.171   0.704   4.242
    1TCM    cl1 1264   4.213   0.573   4.128
    1TCM    cl2 1265   3.995   0.703   4.270
    1TCM     h1 1266   4.224   0.688   4.338
    1TCM    cl3 1267   4.219   0.860   4.173
    1TCM     c1 1268   0.327   3.832   1.612
    1TCM    cl1 1269   0.365   3.954   1.488
    1TCM    cl2 1270   0.171   3.872   1.687
    1TCM     h1 1271   0.321   3.732   1.564
    1TCM    cl3 1272   0.454   3.831   1.736
    1TCM     c1 1273   0.259   1.621   0.919
    1TCM    cl1 1274   0.118   1.540   0.990
    1TCM    cl2 1275   0.356   1.697   1.048
    1TCM     h1 1276   0.321   1.547   0.865
    1TCM    cl3 1277   0.205   1.746   0.805
    1TCM     c1 1278   3.728   2.546   2.849
    1TCM    cl1 1279   3.645   2.697   2.891
    1TCM    cl2 1280   3.609   2.423   2.802
    1TCM     h1 1281   3.798   2.564   2.764
    1TCM    cl3 1282   3.820   2.488   2.990
    1TCM     c1 1283   0.290   4.831   2.863
    1TCM    cl1 1284   0.371   4.676   2.830
    1TCM    cl2 1285   0.141   4.802   2.955
    1TCM     h1 1286   0.358   4.897   2.921
    1TCM    cl3 1287   0.250   4.911   2.709
    1TCM     c1 1288   0.133   4.654   2.494
    1TCM    cl1 1289   0.067   4.685   2.657
    1TCM    cl2 1290   0.211   4.801   2.432
    1TCM     h1 1291   0.207   4.572   2.500
    1TCM    cl3 1292   0.000   4.606   2.385
    1TCM     c1 1293   0.480   2.506   2.421
    1TCM    cl1 1294   0.303   2.519   2.422
    1TCM    cl2 1295   0.541   2.530   2.256
    1TCM     h1 1296   0.523   2.584   2.488
    1TCM    cl3 1297   0.528   2.345   2.480
    1TCM     c1 1298   0.642   4.029   2.892
    1TCM    cl1 1299   0.473   3.999   2.938
    1TCM    cl2 1300   0.704   3.889   2.801
    1TCM     h1 1301   0.647   4.120   2.829
    1TCM    cl3 1302   0.740   4.053   3.038
    1TCM     c1 1303   2.388   0.722   4.081
    1TCM    cl1 1304   2.360   0.695   4.254
    1TCM    cl2 1305   2.231   0.735   3.997
    1TCM     h1 1306   2.445   0.816   4.067
    1TCM    cl3 1307   2.479   0.585   4.013
    1TCM     c1 1308   1.844   1.989   2.238
    1TCM    cl1 1309   1.798   1.998   2.066
    1TCM    cl2 1310   1.817   1.824   2.297
    1TCM     h1 1311   1.951   2.016   2.249
    1TCM    cl3 1312   1.745   2.103   2.332
    1TCM     c1 1313   0.959   3.191   2.351
    1TCM    cl1 1314   1.027   3.203   2.515
    1TCM    cl2 1315   0.963   3.351   2.274
    1TCM     h1 1316   1.019   3.119   2.291
    1TCM    cl3 1317   0.791   3.134   2.360
    1TCM     c1 1318   4.764   3.758   3.074
    1TCM    cl1 1319   4.716   3.855   2.933
    1TCM    cl2 1320   4.808   3.594   3.021
    1TCM     h1 1321   4.851   3.806   3.124
    1TCM    cl3 1322   4.627   3.749   3.188
    1TCM     c1 1323   4.304   1.065   4.578
    1TCM    cl1 1324   4.393   1.105   4.727
    1TCM    cl2 1325   4.412   1.083   4.438
    1TCM     h1 1326   4.267   0.961   4.583
    1TCM    cl3 1327   4.166   1.176   4.560
    1TCM     c1 1328   0.143   3.112   4.633
    1TCM    cl1 1329   0.313   3.068   4.601
    1TCM    cl2 1330   0.129   3.175   4.799
    1TCM     h1 1331   0.111   3.189   4.561
    1TCM    cl3 1332   0.041   2.967   4.616
    1TCM     c1 1333   1.049   1.937   0.286
    1TCM    cl1 1334   0.978   1.895   0.443
    1TCM    cl2 1335   1.144   2.086   0.302
    1TCM     h1 1336   1.115   1.855   0.252
    1TCM    cl3 1337   0.919   1.962   0.167
    1TCM     c1 1338   1.929   2.191   1.798
    1TCM    cl1 1339   1.894   2.331   1.902
    1TCM    cl2 1340   1.797   2.170   1.680
    1TCM     h1 1341   2.024   2.207   1.745
    1TCM    cl3 1342   1.941   2.044   1.898
    1TCM     c1 1343   2.577   4.472   3.880
    1TCM    cl1 1344   2.417   4.541   3.914
    1TCM    cl2 1345   2.669   4.584   3.777
    1TCM     h1 1346   2.632   4.456   3.976
    1TCM    cl3 1347   2.558   4.316   3.796
    1TCM     c1 1348   3.292   0.535   1.669
    1TCM    cl1 1349   3.182   0.439   1.771
    1TCM    cl2 1350   3.228   0.540   1.503
    1TCM     h1 1351   3.299   0.638   1.709
    1TCM    cl3 1352   3.453   0.461   1.669
    1TCM     c1 1353   2.476   4.819   4.872
    1TCM    cl1 1354   2.362   4.682   4.874
    1TCM    cl2 1355   2.527   4.851   4.705
    1TCM     h1 1356   2.426   4.909   4.914
    1TCM    cl3 1357   2.618   4.779   4.972
    1TCM     c1 1358   2.658   1.885   3.415
    1TCM    cl1 1359   2.729   1.825   3.567
    1TCM    cl2 1360   2.609   1.748   3.315
    1TCM     h1 1361   2.570   1.948   3.438
    1TCM    cl3 1362   2.779   1.982   3.328
    1TCM     c1 1363   0.840   1.810   4.962
    1TCM    cl1 1364   0.851   1.721   5.116
    1TCM    cl2 1365   0.996   1.798   4.876
    1TCM     h1 1366   0.760   1.766   4.900
    1TCM    cl3 1367   0.803   1.980   4.995
    1TCM     c1 1368   3.147   1.169   3.111
    1TCM    cl1 1369   3.196   1.036   3.218
    1TCM    cl2 1370   3.279   1.206   2.997
    1TCM     h1 1371   3.056   1.140   3.054
    1TCM    cl3 1372   3.111   1.314   3.208
    1TCM     c1 1373   3.707   0.765   1.666
    1TCM    cl1 1374   3.804   0.769   1.516
    1TCM    cl2 1375   3.628   0.922   1.689
    1TCM     h1 1376   3.630   0.686   1.658
    1TCM    cl3 1377   3.813   0.731   1.804
    1TCM     c1 1378   0.550   0.462   0.578
    1TCM    cl1 1379   0.657   0.594   0.629
    1TCM    cl2 1380   0.391   0.481   0.657
    1TCM     h1 1381   0.537   0.464   0.468
    1TCM    cl3 1382   0.620   0.306   0.626
    1TCM     c1 1383   0.842   3.829   3.733
    1TCM    cl1 1384   0.890   3.974   3.826
    1TCM    cl2 1385   0.830   3.691   3.844
    1TCM     h1 1386   0.744   3.847   3.685
    1TCM    cl3 1387   0.965   3.795   3.609
    1TCM     c1 1388   5.168   4.208   4.465
    1TCM    cl1 1389   5.279   4.259   4.594
    1TCM    cl2 1390   5.247   4.227   4.307
    1TCM     h1 1391   5.140   4.101   4.480
    1TCM    cl3 1392   5.021   4.308   4.470
    1TCM     c1 1393   3.748   1.790   0.939
    1TCM    cl1 1394   3.655   1.935   0.896
    1TCM    cl2 1395   3.781   1.790   1.114
    1TCM     h1 1396   3.690   1.699   0.913
    1TCM    cl3 1397   3.902   1.790   0.850
    1TCM     c1 1398   3.408   4.550   3.821
    1TCM    cl1 1399   3.329   4.400   3.876
    1TCM    cl2 1400   3.426   4.545   3.644
    1TCM     h1 1401   3.345   4.637   3.850
    1TCM    cl3 1402   3.568   4.565   3.897
    1TCM     c1 1403   1.681   4.733   3.220
    1TCM    cl1 1404   1.714   4.560   3.195
    1TCM    cl2 1405   1.807   4.829   3.138
    1TCM     h1 1406   1.582   4.759   3.177
    1TCM    cl3 1407   1.683   4.770   3.394
    1TCM     c1 1408   2.584   0.509   2.621
    1TCM    cl1 1409   2.647   0.613   2.751
    1TCM    cl2 1410   2.447   0.589   2.542
    1TCM     h1 1411   2.664   0.491   2.546
    1TCM    cl3 1412   2.531   0.354   2.690
    1TCM     c1 1413   3.327   2.125   4.221
    1TCM    cl1 1414   3.348   2.014   4.358
    1TCM    cl2 1415   3.461   2.242   4.219
    1TCM     h1 1416   3.327   2.068   4.126
    1TCM    cl3 1417   3.173   2.212   4.238
    1TCM     c1 1418   2.960   2.442   0.632
    1TCM    cl1 1419   2.874   2.569   0.541
    1TCM    cl2 1420   3.132   2.484   0.644
    1TCM     h1 1421   2.917   2.435   0.734
    1TCM    cl3 1422   2.943   2.286   0.549
    1TCM     c1 1423   1.603   0.448   5.025
    1TCM    cl1 1424   1.600   0.524   4.864
    1TCM    cl2 1425   1.436   0.421   5.081
    1TCM     h1 1426   1.656   0.350   5.019
    1TCM    cl3 1427   1.688   0.554   5.139
    1TCM     c1 1428   0.764   1.626   1.654
    1TCM    cl1 1429   0.687   1.640   1.814
    1TCM    cl2 1430   0.802   1.456   1.620
    1TCM     h1 1431   0.695   1.665   1.576
    1TCM    cl3 1432   0.915   1.721   1.653
    1TCM     c1 1433   5.006   3.162   0.362
    1TCM    cl1 1434   4.966   3.004   0.290
    1TCM    cl2 1435   4.875   3.211   0.471
    1TCM     h1 1436   5.101   3.154   0.419
    1TCM    cl3 1437   5.025   3.283   0.233
    1TCM     c1 1438   0.675   1.726   3.996
    1TCM    cl1 1439   0.725   1.592   4.102
    1TCM    cl2 1440   0.653   1.873   4.093
    1TCM     h1 1441   0.753   1.743   3.919
    1TCM    cl3 1442   0.522   1.684   3.916
    1TCM     c1 1443   0.962   0.804   0.465
    1TCM    cl1 1444   0.804   0.771   0.390
    1TCM    cl2 1445   1.045   0.650   0.498
    1TCM     h1 1446   1.024   0.865   0.396
    1TCM    cl3 1447   0.939   0.893   0.617
    1TCM     c1 1448   3.503   4.944   4.930
    1TCM    cl1 1449   3.470   4.981   5.101
    1TCM    cl2 1450   3.493   4.768   4.904
    1TCM     h1 1451   3.429   4.996   4.866
    1TCM    cl3 1452   3.667   5.001   4.888
    1TCM     c1 1453   3.130   3.870   3.648
    1TCM    cl1 1454   2.969   3.809   3.690
    1TCM    cl2 1455   3.149   3.872   3.471
    1TCM     h1 1456   3.142   3.973   3.688
    1TCM    cl3 1457   3.254   3.765   3.720
    1TCM     c1 1458   2.817   4.329   3.325
    1TCM    cl1 1459   2.774   4.449   3.200
    1TCM    cl2 1460   2.793   4.401   3.486
    1TCM     h1 1461   2.752   4.240   3.314
    1TCM    cl3 1462   2.987   4.282   3.306
    1TCM     c1 1463   3.497   1.336   2.706
    1TCM    cl1 1464   3.352   1.434   2.679
    1TCM    cl2 1465   3.494   1.269   2.871
    1TCM     h1 1466   3.499   1.252   2.633
    1TCM    cl3 1467   3.642   1.436   2.686
    1TCM     c1 1468   4.568   2.110   5.139
    1TCM    cl1 1469   4.688   2.097   5.269
    1TCM    cl2 1470   4.465   1.965   5.139
    1TCM     h1 1471   4.505   2.200   5.156
    1TCM    cl3 1472   4.650   2.124   4.982
    1TCM     c1 1473   3.172   2.184   0.799
    1TCM    cl1 1474   3.263   2.253   0.662
    1TCM    cl2 1475   3.207   2.278   0.946
    1TCM     h1 1476   3.064   2.188   0.778
    1TCM    cl3 1477   3.222   2.015   0.824
    1TCM     c1 1478   4.605   4.817   1.569
    1TCM    cl1 1479   4.670   4.652   1.555
    1TCM    cl2 1480   4.493   4.825   1.707
    1TCM     h1 1481   4.689   4.888   1.586
    1TCM    cl3 1482   4.519   4.860   1.420
    1TCM     c1 1483   4.627   0.718   3.263
    1TCM    cl1 1484   4.650   0.546   3.301
    1TCM    cl2 1485   4.573   0.734   3.094
    1TCM     h1 1486   4.550   0.761   3.331
    1TCM    cl3 1487   4.780   0.805   3.285
    1TCM     c1 1488   3.555   2.212   0.451
    1TCM    cl1 1489   3.671   2.346   0.440
    1TCM    cl2 1490   3.636   2.067   0.515
    1TCM     h1 1491   3.472   2.241   0.519
    1TCM    cl3 1492   3.489   2.177   0.289
    1TCM     c1 1493   1.770   0.143   2.735
    1TCM    cl1 1494   1.669   0.210   2.865
    1TCM    cl2 1495   1.919   0.239   2.721
    1TCM     h1 1496   1.796   0.038   2.759
    1TCM    cl3 1497   1.681   0.149   2.581
    1TCM     c1 1498   1.216   4.690   5.050
    1TCM    cl1 1499   1.392   4.708   5.068
    1TCM    cl2 1500   1.143   4.661   5.209
    1TCM     h1 1501   1.174   4.782   5.006
    1TCM    cl3 1502   1.182   4.552   4.943
    1TCM     c1 1503   5.127   0.296   4.513
    1TCM    cl1 1504   5.182   0.215   4.364
    1TCM    cl2 1505   5.161   0.192   4.653
    1TCM     h1 1506   5.181   0.392   4.524
    1TCM    cl3 1507   4.952   0.326   4.503
    1TCM     c1 1508   4.378   4.856   0.249
    1TCM    cl1 1509   4.213   4.885   0.308
    1TCM    cl2 1510   4.488   4.838   0.387
    1TCM     h1 1511   4.380   4.764   0.187
    1TCM    cl3 1512   4.430   4.995   0.150
    1TCM     c1 1513   0.553   2.532   3.897
    1TCM    cl1 1514   0.702   2.627   3.887
    1TCM    cl2 1515   0.553   2.437   4.048
    1TCM     h1 1516   0.465   2.600   3.897
    1TCM    cl3 1517   0.543   2.421   3.758
    1TCM     c1 1518   4.070   1.349   1.716
    1TCM    cl1 1519   4.162   1.381   1.567
    1TCM    cl2 1520   4.089   1.486   1.827
    1TCM     h1 1521   3.963   1.336   1.691
    1TCM    cl3 1522   4.132   1.201   1.793
    1TCM     c1 1523   1.434   4.922   0.407
    1TCM    cl1 1524   1.566   5.038   0.383
    1TCM    cl2 1525   1.423   4.879   0.580
    1TCM     h1 1526   1.338   4.967   0.374
    1TCM    cl3 1527   1.466   4.775   0.312
    1TCM     c1 1528   3.320   1.127   4.022
    1TCM    cl1 1529   3.288   1.153   3.849
    1TCM    cl2 1530   3.448   1.005   4.041
    1TCM     h1 1531   3.352   1.222   4.069
    1TCM    cl3 1532   3.172   1.070   4.102
    1TCM     c1 1533   4.653   3.549   3.719
    1TCM    cl1 1534   4.761   3.482   3.594
    1TCM    cl2 1535   4.552   3.418   3.785
    1TCM     h1 1536   4.714   3.593   3.800
    1TCM    cl3 1537   4.550   3.674   3.647
    1TCM     c1 1538   1.394   0.831   0.620
    1TCM    cl1 1539   1.276   0.927   0.712
    1TCM    cl2 1540   1.473   0.714   0.729
    1TCM     h1 1541   1.341   0.776   0.539
    1TCM    cl3 1542   1.516   0.938   0.549
    1TCM     c1 1543   1.187   2.015   1.113
    1TCM    cl1 1544   1.286   1.908   1.216
    1TCM    cl2 1545   1.201   1.964   0.944
    1TCM     h1 1546   1.081   2.008   1.145
    1TCM    cl3 1547   1.243   2.182   1.130
    1TCM     c1 1548   3.482   3.093   2.414
    1TCM    cl1 1549   3.645   3.081   2.346
    1TCM    cl2 1550   3.469   3.243   2.509
    1TCM     h1 1551   3.407   3.095   2.332
    1TCM    cl3 1552   3.451   2.953   2.520
    1TCM     c1 1553   3.251   3.558   2.836
    1TCM    cl1 1554   3.128   3.685   2.827
    1TCM    cl2 1555   3.172   3.399   2.853
    1TCM     h1 1556   3.312   3.558   2.743
    1TCM    cl3 1557   3.357   3.587   2.976
    1TCM     c1 1558   1.302   1.186   0.274
    1TCM    cl1 1559   1.277   1.047   0.381
    1TCM    cl2 1560   1.193   1.173   0.134
    1TCM     h1 1561   1.280   1.280   0.329
    1TCM    cl3 1562   1.470   1.189   0.218
    1TCM     c1 1563   3.052   0.246   0.876
    1TCM    cl1 1564   3.124   0.292   1.033
    1TCM    cl2 1565   2.926   0.124   0.903
    1TCM     h1 1566   3.008   0.336   0.828
    1TCM    cl3 1567   3.179   0.179   0.771
    1TCM     c1 1568   1.915   3.343   1.036
    1TCM    cl1 1569   1.804   3.476   0.993
    1TCM    cl2 1570   1.942   3.344   1.212
    1TCM     h1 1571   1.870   3.246   1.006
    1TCM    cl3 1572   2.070   3.366   0.952
    1TCM     c1 1573   2.930   3.797   2.006
    1TCM    cl1 1574   3.061   3.915   2.026
    1TCM    cl2 1575   2.861   3.757   2.164
    1TCM     h1 1576   2.851   3.840   1.941
    1TCM    cl3 1577   2.994   3.649   1.930
    1TCM     c1 1578   4.563   0.510   4.121
    1TCM    cl1 1579   4.677   0.377   4.152
    1TCM    cl2 1580   4.635   0.664   4.172
    1TCM     h1 1581   4.540   0.514   4.012
    1TCM    cl3 1582   4.412   0.481   4.212
    1TCM     c1 1583   4.665   3.018   4.765
    1TCM    cl1 1584   4.816   2.974   4.681
    1TCM    cl2 1585   4.660   2.937   4.923
    1TCM     h1 1586   4.661   3.128   4.779
    1TCM    cl3 1587   4.526   2.965   4.667
    1TCM     c1 1588   1.115   4.668   2.409
    1TCM    cl1 1589   1.034   4.755   2.277
    1TCM    cl2 1590   1.165   4.784   2.535
    1TCM     h1 1591   1.045   4.593   2.453
    1TCM    cl3 1592   1.259   4.584   2.346
    1TCM     c1 1593   5.133   0.238   0.372
    1TCM    cl1 1594   4.960   0.204   0.347
    1TCM    cl2 1595   5.207   0.291   0.219
    1TCM     h1 1596   5.144   0.318   0.448
    1TCM    cl3 1597   5.215   0.091   0.430
    1TCM     c1 1598   4.576   0.469   3.657
    1TCM    cl1 1599   4.589   0.367   3.512
    1TCM    cl2 1600   4.614   0.637   3.614
    1TCM     h1 1601   4.473   0.463   3.697
    1TCM    cl3 1602   4.691   0.412   3.780
    1TCM     c1 1603   3.609   5.097   4.455
    1TCM    cl1 1604   3.566   5.221   4.576
    1TCM    cl2 1605   3.785   5.078   4.451
    1TCM     h1 1606   3.561   5.001   4.483
    1TCM    cl3 1607   3.551   5.148   4.295
    1TCM     c1 1608   1.457   1.874   1.605
    1TCM    cl1 1609   1.514   1.857   1.437
    1TCM    cl2 1610   1.279   1.874   1.606
    1TCM     h1 1611   1.494   1.789   1.665
    1TCM    cl3 1612   1.516   2.026   1.673
    1TCM     c1 1613   5.269   0.242   1.509
    1TCM    cl1 1614   5.110   0.252   1.587
    1TCM    cl2 1615   5.252   0.267   1.334
    1TCM     h1 1616   5.336   0.320   1.551
    1TCM    cl3 1617   5.340   0.081   1.539
    1TCM     c1 1618   3.317   1.767   2.804
    1TCM    cl1 1619   3.202   1.759   2.668
    1TCM    cl2 1620   3.240   1.847   2.943
    1TCM     h1 1621   3.347   1.664   2.832
    1TCM    cl3 1622   3.461   1.859   2.755
    1TCM     c1 1623   3.623   0.407   0.550
    1TCM    cl1 1624   3.713   0.558   0.523
    1TCM    cl2 1625   3.677   0.285   0.433
    1TCM     h1 1626   3.642   0.371   0.654
    1TCM    cl3 1627   3.449   0.437   0.529
    1TCM     c1 1628   0.666   1.400   2.003
    1TCM    cl1 1629   0.529   1.506   1.964
    1TCM    cl2 1630   0.604   1.240   2.053
    1TCM     h1 1631   0.731   1.388   1.914
    1TCM    cl3 1632   0.760   1.471   2.137
    1TCM     c1 1633   2.787   3.852   1.343
    1TCM    cl1 1634   2.761   3.744   1.204
    1TCM    cl2 1635   2.695   3.790   1.483
    1TCM     h1 1636   2.895   3.855   1.368
    1TCM    cl3 1637   2.730   4.015   1.303
    1TCM     c1 1638   2.414   2.573   4.424
    1TCM    cl1 1639   2.515   2.514   4.290
    1TCM    cl2 1640   2.453   2.483   4.572
    1TCM     h1 1641   2.434   2.681   4.440
    1TCM    cl3 1642   2.242   2.549   4.384
    1TCM     c1 1643   0.604   2.321   0.861
    1TCM    cl1 1644   0.738   2.424   0.806
    1TCM    cl2 1645   0.465   2.343   0.753
    1TCM     h1 1646   0.635   2.215   0.860
    1TCM    cl3 1647   0.558   2.368   1.027
    1TCM     c1 1648   2.608   0.443   1.640
    1TCM    cl1 1649   2.757   0.350   1.612
    1TCM    cl2 1650   2.548   0.411   1.804
    1TCM     h1 1651   2.630   0.552   1.629
    1TCM    cl3 1652   2.485   0.396   1.521
    1TCM     c1 1653   2.480   3.638   0.167
    1TCM    cl1 1654   2.403   3.592   0.013
    1TCM    cl2 1655   2.414   3.538   0.299
    1TCM     h1 1656   2.589   3.622   0.160
    1TCM    cl3 1657   2.447   3.809   0.201
    1TCM     c1 1658   0.151   3.440   4.970
    1TCM    cl1 1659   0.256   3.306   5.018
    1TCM    cl2 1660   0.143   3.449   4.793
    1TCM     h1 1661   0.049   3.424   5.011
    1TCM    cl3 1662   0.216   3.593   5.034
    1TCM     c1 1663   3.934   1.950   1.698
    1TCM    cl1 1664   3.793   1.879   1.778
    1TCM    cl2 1665   4.022   2.054   1.813
    1TCM     h1 1666   4.002   1.868   1.663
    1TCM    cl3 1667   3.881   2.047   1.559
    1TCM     c1 1668   2.237   2.809   2.757
    1TCM    cl1 1669   2.120   2.942   2.741
    1TCM    cl2 1670   2.278   2.747   2.596
    1TCM     h1 1671   2.328   2.846   2.807
    1TCM    cl3 1672   2.164   2.679   2.854
    1TCM     c1 1673   4.438   2.778   0.697
    1TCM    cl1 1674   4.589   2.827   0.619
    1TCM    cl2 1675   4.420   2.866   0.851
    1TCM     h1 1676   4.352   2.803   0.631
    1TCM    cl3 1677   4.440   2.603   0.729
    1TCM     c1 1678   5.122   4.284   1.796
    1TCM    cl1 1679   4.986   4.169   1.795
    1TCM    cl2 1680   5.127   4.371   1.641
    1TCM     h1 1681   5.109   4.356   1.879
    1TCM    cl3 1682   5.274   4.195   1.819
    1TCM     c1 1683   3.270   1.764   3.805
    1TCM    cl1 1684   3.227   1.592   3.798
    1TCM    cl2 1685   3.423   1.784   3.895
    1TCM     h1 1686   3.283   1.804   3.703
    1TCM    cl3 1687   3.141   1.854   3.888
    1TCM     c1 1688   0.934   3.788   2.394
    1TCM    cl1 1689   0.976   3.732   2.230
    1TCM    cl2 1690   0.984   3.666   2.513
    1TCM     h1 1691   0.987   3.884   2.415
    1TCM    cl3 1692   0.759   3.814   2.405
    1TCM     c1 1693   3.034   4.171   2.313
    1TCM    cl1 1694   3.012   4.102   2.151
    1TCM    cl2 1695   3.121   4.054   2.415
    1TCM     h1 1696   3.093   4.265   2.306
    1TCM    cl3 1697   2.875   4.206   2.385
    1TCM     c1 1698   1.321   3.068   2.336
    1TCM    cl1 1699   1.475   3.156   2.347
    1TCM    cl2 1700   1.221   3.105   2.478
    1TCM     h1 1701   1.267   3.099   2.244
    1TCM    cl3 1702   1.353   2.893   2.329
    1TCM     c1 1703   4.598   0.155   5.160
    1TCM    cl1 1704   4.693   0.272   5.066
    1TCM    cl2 1705   4.517   0.238   5.294
    1TCM     h1 1706   4.523   0.108   5.094
    1TCM    cl3 1707   4.707   0.030   5.225
    1TCM     c1 1708   4.155   4.923   2.381
    1TCM    cl1 1709   4.000   4.903   2.467
    1TCM    cl2 1710   4.123   4.973   2.213
    1TCM     h1 1711   4.215   5.001   2.432
    1TCM    cl3 1712   4.244   4.769   2.382
    1TCM     c1 1713   1.430   5.023   3.126
    1TCM    cl1 1714   1.306   5.143   3.169
    1TCM    cl2 1715   1.570   5.042   3.234
    1TCM     h1 1716   1.388   4.921   3.137
    1TCM    cl3 1717   1.481   5.049   2.957
    1TCM     c1 1718   3.397   5.013   3.752
    1TCM    cl1 1719   3.425   5.188   3.774
    1TCM    cl2 1720   3.460   4.925   3.894
    1TCM     h1 1721   3.288   4.994   3.743
    1TCM    cl3 1722   3.480   4.957   3.606
    1TCM     c1 1723   3.633   2.203   4.863
    1TCM    cl1 1724   3.796   2.167   4.801
    1TCM    cl2 1725   3.645   2.264   5.029
    1TCM     h1 1726   3.586   2.280   4.798
    1TCM    cl3 1727   3.535   2.055   4.861
    1TCM     c1 1728   4.862   4.221   2.579
    1TCM    cl1 1729   4.809   4.390   2.564
    1TCM    cl2 1730   4.781   4.123   2.454
    1TCM     h1 1731   4.972   4.216   2.565
    1TCM    cl3 1732   4.819   4.159   2.740
    1TCM     c1 1733   5.016   3.139   2.470
    1TCM    cl1 1734   5.181   3.074   2.462
    1TCM    cl2 1735   4.994   3.227   2.623
    1TCM     h1 1736   4.999   3.208   2.385
    1TCM    cl3 1737   4.899   3.005   2.462
    1TCM     c1 1738   1.521   2.541   1.072
    1TCM    cl1 1739   1.648   2.525   1.195
    1TCM    cl2 1740   1.574   2.463   0.921
    1TCM     h1 1741   1.428   2.492   1.108
    1TCM    cl3 1742   1.488   2.713   1.041
    1TCM     c1 1743   1.108   1.981   4.053
    1TCM    cl1 1744   1.202   1.834   4.089
    1TCM    cl2 1745   1.211   2.097   3.967
    1TCM     h1 1746   1.021   1.954   3.989
    1TCM    cl3 1747   1.051   2.054   4.205
    1TCM     c1 1748   4.128   3.589   1.306
    1TCM    cl1 1749   4.080   3.757   1.338
    1TCM    cl2 1750   4.019   3.518   1.184
    1TCM     h1 1751   4.232   3.587   1.269
    1TCM    cl3 1752   4.117   3.495   1.457
    1TCM     c1 1753   0.262   5.172   2.133
    1TCM    cl1 1754   0.313   5.016   2.064
    1TCM    cl2 1755   0.310   5.179   2.305
    1TCM     h1 1756   0.311   5.255   2.078
    1TCM    cl3 1757   0.085   5.188   2.121
    1TCM     c1 1758   1.320   2.546   1.757
    1TCM    cl1 1759   1.438   2.527   1.625
    1TCM    cl2 1760   1.406   2.547   1.913
    1TCM     h1 1761   1.266   2.642   1.744
    1TCM    cl3 1762   1.205   2.411   1.754
    1TCM     c1 1763   0.879   2.380   4.159
    1TCM    cl1 1764   0.849   2.507   4.038
    1TCM    cl2 1765   1.049   2.328   4.150
    1TCM     h1 1766   0.859   2.420   4.260
    1TCM    cl3 1767   0.773   2.241   4.128
    1TCM     c1 1768   1.107   0.888   5.165
    1TCM    cl1 1769   0.933   0.920   5.142
    1TCM    cl2 1770   1.146   0.896   5.338
    1TCM     h1 1771   1.131   0.787   5.125
    1TCM    cl3 1772   1.201   1.010   5.077
    1TCM     c1 1773   3.699   2.959   1.033
    1TCM    cl1 1774   3.552   2.982   1.131
    1TCM    cl2 1775   3.702   3.080   0.902
    1TCM     h1 1776   3.788   2.972   1.097
    1TCM    cl3 1777   3.698   2.796   0.962
    1TCM     c1 1778   3.683   5.009   3.029
    1TCM    cl1 1779   3.662   5.183   3.062
    1TCM    cl2 1780   3.762   4.989   2.871
    1TCM     h1 1781   3.745   4.963   3.108
    1TCM    cl3 1782   3.523   4.930   3.025
    1TCM     c1 1783   4.621   3.194   5.179
    1TCM    cl1 1784   4.510   3.297   5.085
    1TCM    cl2 1785   4.552   3.163   5.339
    1TCM     h1 1786   4.636   3.098   5.125
    1TCM    cl3 1787   4.778   3.277   5.196
    1TCM     c1 1788   4.464   2.819   2.970
    1TCM    cl1 1789   4.369   2.865   2.826
    1TCM    cl2 1790   4.354   2.757   3.095
    1TCM     h1 1791   4.537   2.741   2.942
    1TCM    cl3 1792   4.550   2.962   3.032
    1TCM     c1 1793   2.322   4.449   3.609
    1TCM    cl1 1794   2.463   4.350   3.565
    1TCM    cl2 1795   2.378   4.599   3.687
    1TCM     h1 1796   2.264   4.474   3.518
    1TCM    cl3 1797   2.219   4.358   3.722
    1TCM     c1 1798   3.572   2.260   0.948
    1TCM    cl1 1799   3.518   2.326   1.104
    1TCM    cl2 1800   3.512   2.364   0.816
    1TCM     h1 1801   3.683   2.257   0.946
    1TCM    cl3 1802   3.508   2.095   0.928
    1TCM     c1 1803   2.398   2.061   2.663
    1TCM    cl1 1804   2.480   2.180   2.767
    1TCM    cl2 1805   2.451   2.085   2.495
    1TCM     h1 1806   2.425   1.958   2.696
    1TCM    cl3 1807   2.222   2.082   2.674
    1TCM     c1 1808   2.940   2.913   3.472
    1TCM    cl1 1809   2.842   3.056   3.434
    1TCM    cl2 1810   2.844   2.766   3.444
    1TCM     h1 1811   3.030   2.912   3.407
    1TCM    cl3 1812   2.990   2.920   3.643
    1TCM     c1 1813   5.017   1.906   1.687
    1TCM    cl1 1814   4.889   1.936   1.567
    1TCM    cl2 1815   4.982   1.755   1.774
    1TCM     h1 1816   5.115   1.897   1.635
    1TCM    cl3 1817   5.023   2.041   1.803
    1TCM     c1 1818   1.653   1.365   3.585
    1TCM    cl1 1819   1.543   1.264   3.681
    1TCM    cl2 1820   1.816   1.358   3.657
    1TCM     h1 1821   1.658   1.326   3.481
    1TCM    cl3 1822   1.595   1.533   3.585
    1TCM     c1 1823   3.431   4.198   2.246
    1TCM    cl1 1824   3.409   4.129   2.408
    1TCM    cl2 1825   3.305   4.320   2.215
    1TCM     h1 1826   3.531   4.246   2.239
    1TCM    cl3 1827   3.419   4.069   2.124
    1TCM     c1 1828   2.055   3.572   0.479
    1TCM    cl1 1829   2.203   3.576   0.379
    1TCM    cl2 1830   2.023   3.735   0.543
    1TCM     h1 1831   1.970   3.539   0.416
    1TCM    cl3 1832   2.078   3.459   0.614
    1TCM     c1 1833   4.605   2.138   3.266
    1TCM    cl1 1834   4.753   2.155   3.168
    1TCM    cl2 1835   4.464   2.135   3.158
    1TCM     h1 1836   4.610   2.043   3.323
    1TCM    cl3 1837   4.592   2.275   3.378
    1TCM     c1 1838   2.428   3.915   1.426
    1TCM    cl1 1839   2.557   3.951   1.543
    1TCM    cl2 1840   2.500   3.870   1.270
    1TCM     h1 1841   2.366   3.831   1.464
    1TCM    cl3 1842   2.326   4.059   1.405
    1TCM     c1 1843   1.049   4.902   4.753
    1TCM    cl1 1844   1.214   4.961   4.787
    1TCM    cl2 1845   0.942   4.947   4.887
    1TCM     h1 1846   1.012   4.948   4.659
    1TCM    cl3 1847   1.051   4.726   4.735
    1TCM     c1 1848   3.628   3.220   3.695
    1TCM    cl1 1849   3.539   3.096   3.787
    1TCM    cl2 1850   3.559   3.233   3.531
    1TCM     h1 1851   3.619   3.318   3.746
    1TCM    cl3 1852   3.799   3.174   3.683
    1TCM     c1 1853   3.760   3.876   1.240
    1TCM    cl1 1854   3.872   3.833   1.109
    1TCM    cl2 1855   3.853   3.928   1.383
    1TCM     h1 1856   3.694   3.959   1.207
    1TCM    cl3 1857   3.661   3.735   1.282
    1TCM     c1 1858   2.512   1.283   3.876
    1TCM    cl1 1859   2.371   1.296   3.983
    1TCM    cl2 1860   2.467   1.333   3.712
    1TCM     h1 1861   2.593   1.348   3.914
    1TCM    cl3 1862   2.569   1.114   3.873
    1TCM     c1 1863   2.186   3.615   4.835
    1TCM    cl1 1864   2.065   3.506   4.906
    1TCM    cl2 1865   2.343   3.591   4.915
    1TCM     h1 1866   2.195   3.594   4.727
    1TCM    cl3 1867   2.134   3.784   4.858
    1TCM     c1 1868   4.327   3.835   3.205
    1TCM    cl1 1869   4.439   3.965   3.159
    1TCM    cl2 1870   4.219   3.893   3.333
    1TCM     h1 1871   4.267   3.805   3.117
    1TCM    cl3 1872   4.419   3.695   3.264
    1TCM     c1 1873   2.481   5.225   4.724
    1TCM    cl1 1874   2.655   5.224   4.756
    1TCM    cl2 1875   2.452   5.274   4.556
    1TCM     h1 1876   2.439   5.123   4.740
    1TCM    cl3 1877   2.401   5.340   4.834
    1TCM     c1 1878   3.075   1.578   5.020
    1TCM    cl1 1879   3.067   1.449   4.897
    1TCM    cl2 1880   2.933   1.684   5.003
    1TCM     h1 1881   3.075   1.532   5.121
    1TCM    cl3 1882   3.223   1.673   4.997
    1TCM     c1 1883   0.647   0.648   4.128
    1TCM    cl1 1884   0.556   0.565   4.257
    1TCM    cl2 1885   0.594   0.587   3.970
    1TCM     h1 1886   0.628   0.757   4.134
    1TCM    cl3 1887   0.821   0.616   4.149
    1TCM     c1 1888   3.531   0.952   2.023
    1TCM    cl1 1889   3.674   0.934   1.917
    1TCM    cl2 1890   3.579   0.928   2.192
    1TCM     h1 1891   3.489   1.054   2.010
    1TCM    cl3 1892   3.409   0.831   1.978
    1TCM     c1 1893   2.832   0.086   2.587
    1TCM    cl1 1894   3.005   0.124   2.578
    1TCM    cl2 1895   2.779   0.013   2.434
    1TCM     h1 1896   2.814   0.014   2.670
    1TCM    cl3 1897   2.740   0.235   2.617
    1TCM     c1 1898   2.695   4.552   2.490
    1TCM    cl1 1899   2.758   4.521   2.653
    1TCM    cl2 1900   2.638   4.399   2.418
    1TCM     h1 1901   2.610   4.623   2.496
    1TCM    cl3 1902   2.823   4.621   2.389
    1TCM     c1 1903   0.848   1.039   2.207
    1TCM    cl1 1904   1.026   1.040   2.204
    1TCM    cl2 1905   0.787   0.966   2.056
    1TCM     h1 1906   0.813   0.979   2.293
    1TCM    cl3 1907   0.788   1.205   2.220
    1TCM     c1 1908   2.374   4.399   3.131
    1TCM    cl1 1909   2.199   4.379   3.155
    1TCM    cl2 1910   2.404   4.484   2.977
    1TCM     h1 1911   2.417   4.458   3.215
    1TCM    cl3 1912   2.452   4.239   3.126
    1TCM     c1 1913   4.247   1.858   4.759
    1TCM    cl1 1914   4.367   1.789   4.648
    1TCM    cl2 1915   4.084   1.805   4.710
    1TCM     h1 1916   4.267   1.824   4.862
    1TCM    cl3 1917   4.255   2.036   4.752
    1TCM     c1 1918   0.295   0.507   0.300
    1TCM    cl1 1919   0.311   0.658   0.393
    1TCM    cl2 1920   0.456   0.442   0.263
    1TCM     h1 1921   0.238   0.432   0.360
    1TCM    cl3 1922   0.208   0.539   0.149
    1TCM     c1 1923   3.906   3.856   5.187
    1TCM    cl1 1924   3.972   3.764   5.050
    1TCM    cl2 1925   3.954   3.779   5.339
    1TCM     h1 1926   3.946   3.960   5.184
    1TCM    cl3 1927   3.729   3.860   5.176
    1TCM     c1 1928   1.967   2.420   2.781
    1TCM    cl1 1929   1.890   2.359   2.632
    1TCM    cl2 1930   1.952   2.597   2.788
    1TCM     h1 1931   1.918   2.375   2.869
    1TCM    cl3 1932   2.139   2.375   2.780
    1TCM     c1 1933   2.118   4.129   1.635
    1TCM    cl1 1934   2.094   4.209   1.478
    1TCM    cl2 1935   2.149   4.253   1.759
    1TCM     h1 1936   2.027   4.072   1.661
    1TCM    cl3 1937   2.257   4.019   1.625
    1TCM     c1 1938   4.089   3.628   1.888
    1TCM    cl1 1939   4.249   3.581   1.826
    1TCM    cl2 1940   4.103   3.781   1.978
    1TCM     h1 1941   4.019   3.641   1.804
    1TCM    cl3 1942   4.029   3.501   1.997
    1TCM     c1 1943   2.570   4.595   0.588
    1TCM    cl1 1944   2.501   4.565   0.749
    1TCM    cl2 1945   2.747   4.581   0.596
    1TCM     h1 1946   2.530   4.521   0.516
    1TCM    cl3 1947   2.526   4.759   0.534
    1TCM     c1 1948   2.783   2.373   4.753
    1TCM    cl1 1949   2.821   2.227   4.660
    1TCM    cl2 1950   2.787   2.515   4.646
    1TCM     h1 1951   2.683   2.364   4.799
    1TCM    cl3 1952   2.905   2.394   4.882
    1TCM     c1 1953   1.557   3.355   2.681
    1TCM    cl1 1954   1.566   3.213   2.574
    1TCM    cl2 1955   1.599   3.307   2.847
    1TCM     h1 1956   1.628   3.432   2.646
    1TCM    cl3 1957   1.392   3.421   2.678
    1TCM     c1 1958   0.675   4.228   4.942
    1TCM    cl1 1959   0.748   4.252   5.102
    1TCM    cl2 1960   0.754   4.091   4.861
    1TCM     h1 1961   0.566   4.207   4.953
    1TCM    cl3 1962   0.696   4.375   4.844
    1TCM     c1 1963   0.224   2.458   1.779
    1TCM    cl1 1964   0.105   2.520   1.895
    1TCM    cl2 1965   0.252   2.579   1.652
    1TCM     h1 1966   0.319   2.436   1.831
    1TCM    cl3 1967   0.161   2.308   1.705
    1TCM     c1 1968   4.495   0.946   4.178
    1TCM    cl1 1969   4.353   1.053   4.172
    1TCM    cl2 1970   4.453   0.797   4.265
    1TCM     h1 1971   4.528   0.921   4.075
    1TCM    cl3 1972   4.627   1.029   4.264
    1TCM     c1 1973   3.994   1.128   0.471
    1TCM    cl1 1974   3.986   0.979   0.374
    1TCM    cl2 1975   4.015   1.086   0.642
    1TCM     h1 1976   4.081   1.189   0.437
    1TCM    cl3 1977   3.845   1.222   0.450
    1TCM     c1 1978   1.953   1.731   3.963
    1TCM    cl1 1979   1.979   1.875   4.064
    1TCM    cl2 1980   2.033   1.754   3.806
    1TCM     h1 1981   1.995   1.642   4.014
    1TCM    cl3 1982   1.778   1.708   3.938
    1TCM     c1 1983   0.293   1.874   2.009
    1TCM    cl1 1984   0.129   1.880   1.941
    1TCM    cl2 1985   0.401   1.975   1.912
    1TCM     h1 1986   0.291   1.912   2.114
    1TCM    cl3 1987   0.352   1.706   2.008
    1TCM     c1 1988   1.647   0.542   3.469
    1TCM    cl1 1989   1.718   0.531   3.306
    1TCM    cl2 1990   1.607   0.712   3.505
    1TCM     h1 1991   1.555   0.481   3.474
    1TCM    cl3 1992   1.765   0.483   3.589
    1TCM     c1 1993   2.304   4.217   1.184
    1TCM    cl1 1994   2.365   4.243   1.019
    1TCM    cl2 1995   2.237   4.053   1.197
    1TCM     h1 1996   2.387   4.229   1.256
    1TCM    cl3 1997   2.177   4.336   1.220
    1TCM     c1 1998   3.477   1.777   4.387
    1TCM    cl1 1999   3.332   1.734   4.481
    1TCM    cl2 2000   3.428   1.824   4.222
    1TCM     h1 2001   3.529   1.862   4.436
    1TCM    cl3 2002   3.586   1.637   4.378
    1TCM     c1 2003   2.231   3.788   4.154
    1TCM    cl1 2004   2.241   3.610   4.161
    1TCM    cl2 2005   2.268   3.856   4.314
    1TCM     h1 2006   2.304   3.826   4.080
    1TCM    cl3 2007   2.067   3.836   4.105
    1TCM     c1 2008   3.180   0.984   4.950
    1TCM    cl1 2009   3.145   0.858   4.830
    1TCM    cl2 2010   3.129   0.928   5.111
    1TCM     h1 2011   3.289   1.005   4.951
    1TCM    cl3 2012   3.091   1.132   4.908
    1TCM     c1 2013   3.143   2.832   2.466
    1TCM    cl1 2014   3.236   2.930   2.582
    1TCM    cl2 2015   3.127   2.922   2.313
    1TCM     h1 2016   3.197   2.737   2.447
    1TCM    cl3 2017   2.982   2.798   2.533
    1TCM     c1 2018   4.710   4.219   0.891
    1TCM    cl1 2019   4.790   4.277   0.743
    1TCM    cl2 2020   4.722   4.344   1.018
    1TCM     h1 2021   4.603   4.199   0.870
    1TCM    cl3 2022   4.790   4.071   0.948
    1TCM     c1 2023   2.131   2.855   4.423
    1TCM    cl1 2024   2.061   3.004   4.354
    1TCM    cl2 2025   2.277   2.895   4.515
    1TCM     h1 2026   2.056   2.807   4.490
    1TCM    cl3 2027   2.172   2.743   4.291
    1TCM     c1 2028   2.592   4.150   4.506
    1TCM    cl1 2029   2.656   4.302   4.439
    1TCM    cl2 2030   2.621   4.146   4.681
    1TCM     h1 2031   2.483   4.144   4.486
    1TCM    cl3 2032   2.674   4.012   4.429
    1TCM     c1 2033   4.424   5.185   2.675
    1TCM    cl1 2034   4.571   5.270   2.622
    1TCM    cl2 2035   4.362   5.261   2.823
    1TCM     h1 2036   4.347   5.191   2.595
    1TCM    cl3 2037   4.462   5.015   2.707
    1TCM     c1 2038   1.871   3.699   2.069
    1TCM    cl1 2039   1.864   3.616   1.912
    1TCM    cl2 2040   2.041   3.729   2.113
    1TCM     h1 2041   1.817   3.796   2.062
    1TCM    cl3 2042   1.794   3.598   2.194
    1TCM     c1 2043   3.497   0.776   1.045
    1TCM    cl1 2044   3.489   0.767   1.222
    1TCM    cl2 2045   3.359   0.689   0.975
    1TCM     h1 2046   3.493   0.883   1.014
    1TCM    cl3 2047   3.648   0.703   0.988
    1TCM     c1 2048   0.296   3.750   2.999
    1TCM    cl1 2049   0.137   3.678   2.965
    1TCM    cl2 2050   0.396   3.635   3.091
    1TCM     h1 2051   0.347   3.774   2.903
    1TCM    cl3 2052   0.275   3.899   3.094
    1TCM     c1 2053   2.934   2.707   4.821
    1TCM    cl1 2054   2.979   2.683   4.991
    1TCM    cl2 2055   2.757   2.700   4.805
    1TCM     h1 2056   2.970   2.807   4.787
    1TCM    cl3 2057   3.008   2.580   4.722
    1TCM     c1 2058   2.209   0.596   0.817
    1TCM    cl1 2059   2.275   0.758   0.851
    1TCM    cl2 2060   2.283   0.532   0.669
    1TCM     h1 2061   2.231   0.529   0.902
    1TCM    cl3 2062   2.033   0.608   0.794
    1TCM     c1 2063   2.911   0.313   2.233
    1TCM    cl1 2064   2.990   0.250   2.087
    1TCM    cl2 2065   2.924   0.194   2.365
    1TCM     h1 2066   2.960   0.408   2.264
    1TCM    cl3 2067   2.739   0.343   2.198
    1TCM     c1 2068   1.783   3.540   4.680
    1TCM    cl1 2069   1.777   3.523   4.503
    1TCM    cl2 2070   1.660   3.435   4.754
    1TCM     h1 2071   1.884   3.510   4.717
    1TCM    cl3 2072   1.752   3.709   4.725
    1TCM     c1 2073   0.797   2.832   0.755
    1TCM    cl1 2074   0.835   2.989   0.828
    1TCM    cl2 2075   0.628   2.790   0.789
    1TCM     h1 2076   0.813   2.837   0.646
    1TCM    cl3 2077   0.903   2.707   0.825
    1TCM     c1 2078   2.924   0.201   3.319
    1TCM    cl1 2079   3.076   0.271   3.379
    1TCM    cl2 2080   2.924   0.025   3.347
    1TCM     h1 2081   2.838   0.247   3.373
    1TCM    cl3 2082   2.909   0.233   3.145
    1TCM     c1 2083   2.102   3.012   1.118
    1TCM    cl1 2084   2.225   2.887   1.091
    1TCM    cl2 2085   2.175   3.148   1.206
    1TCM     h1 2086   2.062   3.047   1.021
    1TCM    cl3 2087   1.969   2.944   1.215
    1TCM     c1 2088   3.122   5.169   4.041
    1TCM    cl1 2089   2.987   5.224   4.142
    1TCM    cl2 2090   3.082   5.012   3.968
    1TCM     h1 2091   3.141   5.244   3.961
    1TCM    cl3 2092   3.268   5.153   4.141
    1TCM     c1 2093   0.271   0.414   4.167
    1TCM    cl1 2094   0.315   0.420   4.339
    1TCM    cl2 2095   0.100   0.367   4.151
    1TCM     h1 2096   0.286   0.513   4.121
    1TCM    cl3 2097   0.373   0.294   4.084
    1TCM     c1 2098   2.444   2.655   3.961
    1TCM    cl1 2099   2.570   2.618   4.080
    1TCM    cl2 2100   2.511   2.641   3.797
    1TCM     h1 2101   2.360   2.584   3.972
    1TCM    cl3 2102   2.385   2.821   3.986
    1TCM     c1 2103   0.781   1.367   0.269
    1TCM    cl1 2104   0.708   1.382   0.108
    1TCM    cl2 2105   0.957   1.387   0.256
    1TCM     h1 2106   0.739   1.444   0.336
    1TCM    cl3 2107   0.745   1.206   0.335
    1TCM     c1 2108   4.675   2.993   1.934
    1TCM    cl1 2109   4.647   2.817   1.924
    1TCM    cl2 2110   4.715   3.036   2.102
    1TCM     h1 2111   4.759   3.020   1.868
    1TCM    cl3 2112   4.528   3.079   1.885
    1TCM     c1 2113   3.115   3.235   0.598
    1TCM    cl1 2114   3.008   3.354   0.520
    1TCM    cl2 2115   3.123   3.268   0.773
    1TCM     h1 2116   3.075   3.132   0.582
    1TCM    cl3 2117   3.278   3.246   0.528
    1TCM     c1 2118   2.595   4.878   1.565
    1TCM    cl1 2119   2.440   4.927   1.638
    1TCM    cl2 2120   2.563   4.788   1.415
    1TCM     h1 2121   2.655   4.968   1.542
    1TCM    cl3 2122   2.683   4.773   1.679
    1TCM     c1 2123   2.696   4.036   4.914
    1TCM    cl1 2124   2.637   3.901   4.814
    1TCM    cl2 2125   2.720   3.979   5.081
    1TCM     h1 2126   2.792   4.073   4.874
    1TCM    cl3 2127   2.576   4.167   4.913
    1TCM     c1 2128   3.991   3.980   2.776
    1TCM    cl1 2129   4.002   4.155   2.801
    1TCM    cl2 2130   4.094   3.896   2.895
    1TCM     h1 2131   3.886   3.947   2.789
    1TCM    cl3 2132   4.046   3.939   2.612
    1TCM     c1 2133   2.394   1.508   2.447
    1TCM    cl1 2134   2.479   1.515   2.603
    1TCM    cl2 2135   2.488   1.595   2.324
    1TCM     h1 2136   2.382   1.402   2.417
    1TCM    cl3 2137   2.234   1.583   2.464
    1TCM     c1 2138   4.906   2.378   0.647
    1TCM    cl1 2139   4.861   2.241   0.543
    1TCM    cl2 2140   4.795   2.386   0.786
    1TCM     h1 2141   5.010   2.366   0.683
    1TCM    cl3 2142   4.893   2.529   0.553
    1TCM     c1 2143   4.229   0.556   3.198
    1TCM    cl1 2144   4.196   0.664   3.336
    1TCM    cl2 2145   4.239   0.652   3.049
    1TCM     h1 2146   4.325   0.503   3.215
    1TCM    cl3 2147   4.097   0.437   3.184
    1TCM     c1 2148   4.813   2.342   0.204
    1TCM    cl1 2149   4.855   2.169   0.219
    1TCM    cl2 2150   4.661   2.358   0.113
    1TCM     h1 2151   4.800   2.385   0.305
    1TCM    cl3 2152   4.943   2.427   0.118
    1TCM     c1 2153   3.382   1.244   1.071
    1TCM    cl1 2154   3.204   1.237   1.079
    1TCM    cl2 2155   3.433   1.411   1.039
    1TCM     h1 2156   3.424   1.210   1.168
    1TCM    cl3 2157   3.439   1.137   0.941
    1TCM     c1 2158   2.772   4.567   4.734
    1TCM    cl1 2159   2.714   4.728   4.781
    1TCM    cl2 2160   2.658   4.494   4.618
    1TCM     h1 2161   2.872   4.575   4.687
    1TCM    cl3 2162   2.784   4.464   4.878
    1TCM     c1 2163   1.530   5.268   0.608
    1TCM    cl1 2164   1.702   5.285   0.651
    1TCM    cl2 2165   1.487   5.095   0.605
    1TCM     h1 2166   1.468   5.320   0.684
    1TCM    cl3 2167   1.502   5.340   0.448
    1TCM     c1 2168   1.419   3.324   4.484
    1TCM    cl1 2169   1.429   3.404   4.643
    1TCM    cl2 2170   1.270   3.229   4.475
    1TCM     h1 2171   1.420   3.401   4.404
    1TCM    cl3 2172   1.559   3.216   4.464
    1TCM     c1 2173   1.220   2.376   2.384
    1TCM    cl1 2174   1.135   2.400   2.538
    1TCM    cl2 2175   1.278   2.208   2.373
    1TCM     h1 2176   1.151   2.396   2.299
    1TCM    cl3 2177   1.359   2.487   2.374
    1TCM     c1 2178   1.375   1.404   0.565
    1TCM    cl1 2179   1.299   1.557   0.615
    1TCM    cl2 2180   1.443   1.423   0.401
    1TCM     h1 2181   1.456   1.377   0.636
    1TCM    cl3 2182   1.253   1.275   0.563
    1TCM     c1 2183   0.346   5.181   3.254
    1TCM    cl1 2184   0.438   5.230   3.398
    1TCM    cl2 2185   0.416   5.256   3.110
    1TCM     h1 2186   0.349   5.070   3.244
    1TCM    cl3 2187   0.177   5.233   3.272
    1TCM     c1 2188   2.794   3.963   0.328
    1TCM    cl1 2189   2.854   4.129   0.307
    1TCM    cl2 2190   2.882   3.854   0.218
    1TCM     h1 2191   2.811   3.930   0.433
    1TCM    cl3 2192   2.621   3.957   0.291
    1TCM     c1 2193   5.051   1.849   0.897
    1TCM    cl1 2194   5.130   1.975   0.994
    1TCM    cl2 2195   5.172   1.773   0.790
    1TCM     h1 2196   5.009   1.772   0.965
    1TCM    cl3 2197   4.922   1.921   0.799
    1TCM     c1 2198   3.284   4.755   4.124
    1TCM    cl1 2199   3.217   4.782   3.961
    1TCM    cl2 2200   3.454   4.705   4.109
    1TCM     h1 2201   3.279   4.849   4.182
    1TCM    cl3 2202   3.191   4.628   4.206
    1TCM     c1 2203   0.445   3.266   3.422
    1TCM    cl1 2204   0.336   3.192   3.303
    1TCM    cl2 2205   0.439   3.443   3.406
    1TCM     h1 2206   0.413   3.237   3.525
    1TCM    cl3 2207   0.612   3.210   3.394
    1TCM     c1 2208   2.879   0.552   1.981
    1TCM    cl1 2209   2.952   0.706   2.034
    1TCM    cl2 2210   3.005   0.445   1.916
    1TCM     h1 2211   2.829   0.503   2.068
    1TCM    cl3 2212   2.758   0.585   1.855
    1TCM     c1 2213   4.850   5.000   4.345
    1TCM    cl1 2214   4.849   5.100   4.198
    1TCM    cl2 2215   4.724   4.876   4.334
    1TCM     h1 2216   4.949   4.952   4.356
    1TCM    cl3 2217   4.819   5.104   4.486
    1TCM     c1 2218   4.068   0.999   2.049
    1TCM    cl1 2219   4.007   0.876   2.162
    1TCM    cl2 2220   3.966   1.000   1.903
    1TCM     h1 2221   4.063   1.099   2.097
    1TCM    cl3 2222   4.235   0.962   2.004
    1TCM     c1 2223   2.293   4.755   2.393
    1TCM    cl1 2224   2.296   4.882   2.518
    1TCM    cl2 2225   2.234   4.604   2.464
    1TCM     h1 2226   2.226   4.786   2.310
    1TCM    cl3 2227   2.457   4.731   2.329
    1TCM     c1 2228   2.277   2.631   0.911
    1TCM    cl1 2229   2.168   2.667   1.047
    1TCM    cl2 2230   2.183   2.562   0.777
    1TCM     h1 2231   2.326   2.725   0.878
    1TCM    cl3 2232   2.401   2.515   0.963
    1TCM     c1 2233   2.230   4.753   0.421
    1TCM    cl1 2234   2.316   4.706   0.569
    1TCM    cl2 2235   2.196   4.928   0.426
    1TCM     h1 2236   2.294   4.731   0.333
    1TCM    cl3 2237   2.078   4.663   0.409
    1TCM     c1 2238   3.660   1.215   2.306
    1TCM    cl1 2239   3.814   1.144   2.253
    1TCM    cl2 2240   3.631   1.172   2.477
    1TCM     h1 2241   3.665   1.325   2.296
    1TCM    cl3 2242   3.528   1.151   2.206
    1TCM     c1 2243   3.724   4.083   0.835
    1TCM    cl1 2244   3.643   3.962   0.733
    1TCM    cl2 2245   3.767   4.009   0.991
    1TCM     h1 2246   3.816   4.118   0.784
    1TCM    cl3 2247   3.615   4.220   0.862
    1TCM     c1 2248   1.750   4.290   2.177
    1TCM    cl1 2249   1.882   4.175   2.149
    1TCM    cl2 2250   1.700   4.361   2.022
    1TCM     h1 2251   1.664   4.238   2.223
    1TCM    cl3 2252   1.806   4.419   2.286
    1TCM     c1 2253   4.963   2.767   3.006
    1TCM    cl1 2254   5.134   2.733   2.967
    1TCM    cl2 2255   4.862   2.631   2.952
    1TCM     h1 2256   4.952   2.780   3.116
    1TCM    cl3 2257   4.912   2.916   2.924
    1TCM     c1 2258   1.613   1.259   2.218
    1TCM    cl1 2259   1.583   1.360   2.075
    1TCM    cl2 2260   1.529   1.104   2.200
    1TCM     h1 2261   1.722   1.241   2.228
    1TCM    cl3 2262   1.554   1.342   2.364
    1TCM     c1 2263   0.958   4.331   0.289
    1TCM    cl1 2264   1.020   4.464   0.188
    1TCM    cl2 2265   0.919   4.392   0.451
    1TCM     h1 2266   0.867   4.289   0.242
    1TCM    cl3 2267   1.082   4.204   0.302
    1TCM     c1 2268   3.146   2.676   0.927
    1TCM    cl1 2269   3.040   2.612   0.799
    1TCM    cl2 2270   3.182   2.548   1.044
    1TCM     h1 2271   3.240   2.712   0.882
    1TCM    cl3 2272   3.064   2.811   1.009
    1TCM     c1 2273   0.616   1.975   2.560
    1TCM    cl1 2274   0.729   2.099   2.618
    1TCM    cl2 2275   0.454   2.045   2.542
    1TCM     h1 2276   0.651   1.936   2.462
    1TCM    cl3 2277   0.610   1.841   2.678
    1TCM     c1 2278   2.627   0.788   4.992
    1TCM    cl1 2279   2.681   0.713   4.840
    1TCM    cl2 2280   2.694   0.698   5.130
    1TCM     h1 2281   2.663   0.893   4.996
    1TCM    cl3 2282   2.450   0.786   5.000
    1TCM     c1 2283   0.395   4.303   4.201
    1TCM    cl1 2284   0.475   4.404   4.324
    1TCM    cl2 2285   0.289   4.185   4.281
    1TCM     h1 2286   0.334   4.367   4.134
    1TCM    cl3 2287   0.518   4.218   4.106
    1TCM     c1 2288   5.038   4.038   1.520
    1TCM    cl1 2289   4.932   4.001   1.658
    1TCM    cl2 2290   5.200   4.081   1.580
    1TCM     h1 2291   5.045   3.949   1.454
    1TCM    cl3 2292   4.970   4.174   1.428
    1TCM     c1 2293   2.597   2.332   0.449
    1TCM    cl1 2294   2.582   2.423   0.297
    1TCM    cl2 2295   2.620   2.445   0.585
    1TCM     h1 2296   2.505   2.272   0.465
    1TCM    cl3 2297   2.738   2.223   0.439
    1TCM     c1 2298   3.378   2.459   2.184
    1TCM    cl1 2299   3.490   2.592   2.148
    1TCM    cl2 2300   3.211   2.515   2.159
    1TCM     h1 2301   3.399   2.374   2.116
    1TCM    cl3 2302   3.399   2.408   2.353
    1TCM     c1 2303   4.062   1.225   5.180
    1TCM    cl1 2304   4.101   1.354   5.295
    1TCM    cl2 2305   4.168   1.085   5.208
    1TCM     h1 2306   3.956   1.194   5.193
    1TCM    cl3 2307   4.086   1.285   5.014
    1TCM     c1 2308   1.102   2.024   4.497
    1TCM    cl1 2309   1.159   1.970   4.657
    1TCM    cl2 2310   1.014   1.892   4.418
    1TCM     h1 2311   1.034   2.112   4.510
    1TCM    cl3 2312   1.241   2.071   4.397
    1TCM     c1 2313   0.449   0.328   2.149
    1TCM    cl1 2314   0.507   0.227   2.015
    1TCM    cl2 2315   0.532   0.281   2.299
    1TCM     h1 2316   0.469   0.435   2.127
    1TCM    cl3 2317   0.273   0.305   2.170
    1TCM     c1 2318   3.819   0.432   1.087
    1TCM    cl1 2319   3.932   0.556   1.147
    1TCM    cl2 2320   3.654   0.497   1.087
    1TCM     h1 2321   3.848   0.402   0.984
    1TCM    cl3 2322   3.827   0.289   1.194
    1TCM     c1 2323   3.175   2.263   3.634
    1TCM    cl1 2324   3.298   2.352   3.543
    1TCM    cl2 2325   3.178   2.315   3.805
    1TCM     h1 2326   3.074   2.283   3.592
    1TCM    cl3 2327   3.209   2.089   3.625
    1TCM     c1 2328   3.736   2.889   3.589
    1TCM    cl1 2329   3.864   2.882   3.711
    1TCM    cl2 2330   3.707   2.727   3.522
    1TCM     h1 2331   3.642   2.927   3.635
    1TCM    cl3 2332   3.785   2.999   3.458
    1TCM     c1 2333   3.255   4.438   1.769
    1TCM    cl1 2334   3.248   4.615   1.784
    1TCM    cl2 2335   3.247   4.393   1.597
    1TCM     h1 2336   3.351   4.401   1.813
    1TCM    cl3 2337   3.118   4.366   1.856
    1TCM     c1 2338   0.528   1.308   4.235
    1TCM    cl1 2339   0.437   1.157   4.253
    1TCM    cl2 2340   0.522   1.360   4.065
    1TCM     h1 2341   0.482   1.387   4.299
    1TCM    cl3 2342   0.697   1.282   4.283
    1TCM     c1 2343   0.361   1.885   1.628
    1TCM    cl1 2344   0.529   1.863   1.681
    1TCM    cl2 2345   0.319   1.758   1.510
    1TCM     h1 2346   0.293   1.877   1.716
    1TCM    cl3 2347   0.342   2.044   1.553
    1TCM     c1 2348   0.101   2.918   1.357
    1TCM    cl1 2349   0.214   2.801   1.283
    1TCM    cl2 2350   0.094   3.065   1.257
    1TCM     h1 2351   0.000   2.872   1.363
    1TCM    cl3 2352   0.158   2.960   1.520
    1TCM     c1 2353   0.956   3.713   0.101
    1TCM    cl1 2354   0.808   3.654   0.179
    1TCM    cl2 2355   0.918   3.854  -0.000
    1TCM     h1 2356   1.030   3.742   0.179
    1TCM    cl3 2357   1.025   3.584   0.000
    1TCM     c1 2358   3.612   1.304   1.486
    1TCM    cl1 2359   3.435   1.321   1.494
    1TCM    cl2 2360   3.656   1.135   1.523
    1TCM     h1 2361   3.647   1.329   1.384
    1TCM    cl3 2362   3.688   1.412   1.605
    1TCM     c1 2363   3.505   1.720   4.716
    1TCM    cl1 2364   3.357   1.629   4.751
    1TCM    cl2 2365   3.618   1.705   4.852
    1TCM     h1 2366   3.553   1.680   4.624
    1TCM    cl3 2367   3.465   1.892   4.690
    1TCM     c1 2368   0.697   3.996   4.310
    1TCM    cl1 2369   0.571   4.119   4.333
    1TCM    cl2 2370   0.844   4.072   4.245
    1TCM     h1 2371   0.720   3.948   4.408
    1TCM    cl3 2372   0.639   3.872   4.196
    1TCM     c1 2373   3.624   3.216   5.182
    1TCM    cl1 2374   3.587   3.128   5.032
    1TCM    cl2 2375   3.513   3.164   5.311
    1TCM     h1 2376   3.729   3.194   5.213
    1TCM    cl3 2377   3.605   3.391   5.155
    1TCM     c1 2378   0.952   2.726   1.513
    1TCM    cl1 2379   0.900   2.573   1.588
    1TCM    cl2 2380   1.125   2.715   1.469
    1TCM     h1 2381   0.892   2.744   1.421
    1TCM    cl3 2382   0.929   2.860   1.627
    1TCM     c1 2383   4.400   5.071   5.200
    1TCM    cl1 2384   4.280   5.091   5.329
    1TCM    cl2 2385   4.561   5.115   5.262
    1TCM     h1 2386   4.401   4.965   5.167
    1TCM    cl3 2387   4.358   5.176   5.063
    1TCM     c1 2388   4.399   1.120   0.292
    1TCM    cl1 2389   4.259   1.155   0.189
    1TCM    cl2 2390   4.345   1.091   0.459
    1TCM     h1 2391   4.452   1.030   0.255
    1TCM    cl3 2392   4.511   1.259   0.290
    1TCM     c1 2393   3.073   0.827   3.490
    1TCM    cl1 2394   3.016   0.829   3.322
    1TCM    cl2 2395   3.182   0.965   3.518
    1TCM     h1 2396   2.985   0.834   3.558
    1TCM    cl3 2397   3.160   0.675   3.522
    1TCM     c1 2398   4.348   1.431   4.918
    1TCM    cl1 2399   4.492   1.535   4.907
    1TCM    cl2 2400   4.347   1.316   4.783
    1TCM     h1 2401   4.349   1.376   5.014
    1TCM    cl3 2402   4.202   1.532   4.910
    1TCM     c1 2403   4.768   2.153   3.825
    1TCM    cl1 2404   4.673   2.003   3.824
    1TCM    cl2 2405   4.685   2.277   3.729
    1TCM     h1 2406   4.780   2.189   3.930
    1TCM    cl3 2407   4.929   2.121   3.756
    1TCM     c1 2408   0.114   4.965   3.726
    1TCM    cl1 2409   0.029   4.918   3.577
    1TCM    cl2 2410   0.265   4.872   3.740
    1TCM     h1 2411   0.137   5.074   3.723
    1TCM    cl3 2412   0.009   4.931   3.866
    1TCM     c1 2413   3.389   0.742   3.842
    1TCM    cl1 2414   3.214   0.745   3.807
    1TCM    cl2 2415   3.477   0.689   3.697
    1TCM     h1 2416   3.423   0.843   3.871
    1TCM    cl3 2417   3.421   0.628   3.975
    1TCM     c1 2418   3.832   3.718   1.632
    1TCM    cl1 2419   3.958   3.811   1.548
    1TCM    cl2 2420   3.831   3.764   1.804
    1TCM     h1 2421   3.733   3.741   1.588
    1TCM    cl3 2422   3.867   3.545   1.617
    1TCM     c1 2423   0.539   0.175   1.383
    1TCM    cl1 2424   0.636   0.045   1.456
    1TCM    cl2 2425   0.395   0.105   1.305
    1TCM     h1 2426   0.507   0.246   1.461
    1TCM    cl3 2427   0.637   0.260   1.261
    1TCM     c1 2428   2.162   3.965   3.692
    1TCM    cl1 2429   2.293   3.938   3.810
    1TCM    cl2 2430   2.209   3.895   3.535
    1TCM     h1 2431   2.069   3.916   3.728
    1TCM    cl3 2432   2.135   4.139   3.673
    1TCM     c1 2433   4.520   3.946   1.343
    1TCM    cl1 2434   4.548   3.925   1.517
    1TCM    cl2 2435   4.650   4.045   1.274
    1TCM     h1 2436   4.518   3.847   1.293
    1TCM    cl3 2437   4.364   4.029   1.318
    1TCM     c1 2438   3.154   4.259   4.536
    1TCM    cl1 2439   3.078   4.109   4.477
    1TCM    cl2 2440   3.325   4.228   4.573
    1TCM     h1 2441   3.147   4.337   4.458
    1TCM    cl3 2442   3.070   4.314   4.683
    1TCM     c1 2443   2.075   1.869   4.792
    1TCM    cl1 2444   1.937   1.975   4.828
    1TCM    cl2 2445   2.047   1.786   4.637
    1TCM     h1 2446   2.168   1.929   4.785
    1TCM    cl3 2447   2.092   1.748   4.921
    1TCM     c1 2448   1.558   3.452   2.053
    1TCM    cl1 2449   1.576   3.603   1.961
    1TCM    cl2 2450   1.525   3.491   2.224
    1TCM     h1 2451   1.474   3.393   2.012
    1TCM    cl3 2452   1.709   3.358   2.042
    1TCM     c1 2453   1.810   0.118   1.511
    1TCM    cl1 2454   1.899   0.091   1.663
    1TCM    cl2 2455   1.925   0.149   1.379
    1TCM     h1 2456   1.750   0.028   1.487
    1TCM    cl3 2457   1.702   0.259   1.530
    1TCM     c1 2458   4.212   4.351   3.796
    1TCM    cl1 2459   4.095   4.423   3.682
    1TCM    cl2 2460   4.144   4.353   3.960
    1TCM     h1 2461   4.233   4.247   3.766
    1TCM    cl3 2462   4.362   4.446   3.793
    1TCM     c1 2463   0.701   1.028   3.772
    1TCM    cl1 2464   0.621   1.015   3.614
    1TCM    cl2 2465   0.635   0.906   3.883
    1TCM     h1 2466   0.810   1.012   3.760
    1TCM    cl3 2467   0.673   1.191   3.839
    1TCM     c1 2468   1.687   4.455   0.706
    1TCM    cl1 2469   1.814   4.578   0.683
    1TCM    cl2 2470   1.575   4.509   0.834
    1TCM     h1 2471   1.632   4.442   0.611
    1TCM    cl3 2472   1.762   4.301   0.754
    1TCM     c1 2473   3.292   0.445   0.174
    1TCM    cl1 2474   3.143   0.420   0.268
    1TCM    cl2 2475   3.254   0.434   0.000
    1TCM     h1 2476   3.333   0.545   0.196
    1TCM    cl3 2477   3.411   0.320   0.217
    1TCM     c1 2478   3.797   0.931   3.290
    1TCM    cl1 2479   3.839   0.923   3.117
    1TCM    cl2 2480   3.945   0.950   3.387
    1TCM     h1 2481   3.729   1.017   3.307
    1TCM    cl3 2482   3.714   0.780   3.337
    1TCM     c1 2483   0.153   4.600   4.003
    1TCM    cl1 2484   0.284   4.502   3.932
    1TCM    cl2 2485   0.220   4.701   4.134
    1TCM     h1 2486   0.108   4.664   3.925
    1TCM    cl3 2487   0.029   4.491   4.070
    1TCM     c1 2488   4.436   1.666   5.262
    1TCM    cl1 2489   4.510   1.817   5.321
    1TCM    cl2 2490   4.416   1.676   5.085
    1TCM     h1 2491   4.502   1.581   5.287
    1TCM    cl3 2492   4.277   1.645   5.339
    1TCM     c1 2493   0.540   0.628   2.755
    1TCM    cl1 2494   0.580   0.632   2.582
    1TCM    cl2 2495   0.425   0.495   2.786
    1TCM     h1 2496   0.632   0.612   2.814
    1TCM    cl3 2497   0.465   0.782   2.802
    1TCM     c1 2498   0.437   2.107   2.212
    1TCM    cl1 2499   0.508   1.957   2.149
    1TCM    cl2 2500   0.434   2.230   2.084
    1TCM     h1 2501   0.333   2.087   2.247
    1TCM    cl3 2502   0.534   2.166   2.349
    1TCM     c1 2503   3.659   2.201   1.687
    1TCM    cl1 2504   3.674   2.171   1.512
    1TCM    cl2 2505   3.803   2.139   1.770
    1TCM     h1 2506   3.651   2.311   1.705
    1TCM    cl3 2507   3.514   2.119   1.750
    1TCM     c1 2508   2.634   0.929   4.337
    1TCM    cl1 2509   2.515   0.978   4.213
    1TCM    cl2 2510   2.560   0.808   4.444
    1TCM     h1 2511   2.722   0.885   4.287
    1TCM    cl3 2512   2.683   1.071   4.432
    1TCM     c1 2513   4.636   2.542   4.917
    1TCM    cl1 2514   4.615   2.673   5.036
    1TCM    cl2 2515   4.528   2.407   4.959
    1TCM     h1 2516   4.610   2.580   4.816
    1TCM    cl3 2517   4.805   2.486   4.919
    1TCM     c1 2518   3.820   0.777   2.866
    1TCM    cl1 2519   3.701   0.766   2.735
    1TCM    cl2 2520   3.908   0.931   2.853
    1TCM     h1 2521   3.768   0.772   2.964
    1TCM    cl3 2522   3.935   0.642   2.854
    1TCM     c1 2523   3.306   2.184   3.301
    1TCM    cl1 2524   3.310   2.027   3.216
    1TCM    cl2 2525   3.303   2.316   3.182
    1TCM     h1 2526   3.216   2.189   3.365
    1TCM    cl3 2527   3.451   2.199   3.403
    1TCM     c1 2528   3.819   1.624   1.489
    1TCM    cl1 2529   3.891   1.770   1.419
    1TCM    cl2 2530   3.730   1.667   1.637
    1TCM     h1 2531   3.748   1.578   1.416
    1TCM    cl3 2532   3.947   1.507   1.528
    1TCM     c1 2533   0.426   3.420   1.588
    1TCM    cl1 2534   0.251   3.425   1.618
    1TCM    cl2 2535   0.462   3.293   1.469
    1TCM     h1 2536   0.460   3.518   1.549
    1TCM    cl3 2537   0.511   3.384   1.740
    1TCM     c1 2538   2.513   3.737   4.571
    1TCM    cl1 2539   2.389   3.752   4.698
    1TCM    cl2 2540   2.456   3.818   4.424
    1TCM     h1 2541   2.607   3.784   4.606
    1TCM    cl3 2542   2.541   3.565   4.537
    1TCM     c1 2543   1.909   1.552   1.936
    1TCM    cl1 2544   1.786   1.592   2.057
    1TCM    cl2 2545   1.985   1.701   1.876
    1TCM     h1 2546   1.987   1.487   1.982
    1TCM    cl3 2547   1.833   1.465   1.801
    1TCM     c1 2548   4.581   2.606   0.358
    1TCM    cl1 2549   4.729   2.622   0.259
    1TCM    cl2 2550   4.626   2.593   0.529
    1TCM     h1 2551   4.517   2.695   0.342
    1TCM    cl3 2552   4.493   2.460   0.309
    1TCM     c1 2553   3.125   4.604   3.568
    1TCM    cl1 2554   2.963   4.594   3.497
    1TCM    cl2 2555   3.215   4.455   3.531
    1TCM     h1 2556   3.179   4.691   3.524
    1TCM    cl3 2557   3.113   4.625   3.744
    1TCM     c1 2558   5.010   3.877   5.222
    1TCM    cl1 2559   4.873   3.788   5.291
    1TCM    cl2 2560   4.995   4.050   5.262
    1TCM     h1 2561   5.105   3.838   5.263
    1TCM    cl3 2562   5.010   3.858   5.045
    1TCM     c1 2563   1.193   2.685   3.340
    1TCM    cl1 2564   1.123   2.553   3.437
    1TCM    cl2 2565   1.172   2.648   3.167
    1TCM     h1 2566   1.141   2.780   3.364
    1TCM    cl3 2567   1.366   2.701   3.376
    1TCM     c1 2568   2.537   2.796   1.295
    1TCM    cl1 2569   2.514   2.895   1.149
    1TCM    cl2 2570   2.415   2.667   1.298
    1TCM     h1 2571   2.638   2.752   1.295
    1TCM    cl3 2572   2.517   2.899   1.439
    1TCM     c1 2573   0.131   3.562   3.585
    1TCM    cl1 2574   0.247   3.571   3.451
    1TCM    cl2 2575   0.001   3.448   3.544
    1TCM     h1 2576   0.183   3.528   3.677
    1TCM    cl3 2577   0.061   3.724   3.614
    1TCM     c1 2578   2.472   4.846   3.306
    1TCM    cl1 2579   2.624   4.799   3.385
    1TCM    cl2 2580   2.337   4.827   3.420
    1TCM     h1 2581   2.478   4.952   3.273
    1TCM    cl3 2582   2.445   4.742   3.164
    1TCM     c1 2583   4.999   2.729   4.196
    1TCM    cl1 2584   5.169   2.778   4.202
    1TCM    cl2 2585   4.896   2.874   4.191
    1TCM     h1 2586   4.981   2.668   4.104
    1TCM    cl3 2587   4.959   2.632   4.340
    1TCM     c1 2588   2.578   2.255   3.579
    1TCM    cl1 2589   2.445   2.138   3.596
    1TCM    cl2 2590   2.599   2.296   3.407
    1TCM     h1 2591   2.553   2.347   3.636
    1TCM    cl3 2592   2.728   2.184   3.641
    1TCM     c1 2593   1.952   0.911   3.870
    1TCM    cl1 2594   1.947   0.836   4.031
    1TCM    cl2 2595   1.912   1.084   3.885
    1TCM     h1 2596   2.053   0.900   3.827
    1TCM    cl3 2597   1.834   0.831   3.764
    1TCM     c1 2598   0.933   0.360   0.891
    1TCM    cl1 2599   0.966   0.516   0.971
    1TCM    cl2 2600   0.968   0.375   0.717
    1TCM     h1 2601   0.997   0.282   0.936
    1TCM    cl3 2602   0.762   0.318   0.914
    1TCM     c1 2603   4.151   1.432   3.650
    1TCM    cl1 2604   4.048   1.576   3.665
    1TCM    cl2 2605   4.185   1.366   3.812
    1TCM     h1 2606   4.099   1.355   3.589
    1TCM    cl3 2607   4.304   1.477   3.571
    1TCM     c1 2608   3.221   4.919   3.407
    1TCM    cl1 2609   3.262   4.778   3.307
    1TCM    cl2 2610   3.054   4.903   3.466
    1TCM     h1 2611   3.291   4.925   3.493
    1TCM    cl3 2612   3.236   5.067   3.309
    1TCM     c1 2613   2.227   2.558   3.110
    1TCM    cl1 2614   2.134   2.433   3.024
    1TCM    cl2 2615   2.116   2.686   3.165
    1TCM     h1 2616   2.278   2.513   3.197
    1TCM    cl3 2617   2.347   2.629   2.999
    1TCM     c1 2618   1.543   0.753   5.234
    1TCM    cl1 2619   1.448   0.861   5.339
    1TCM    cl2 2620   1.486   0.770   5.066
    1TCM     h1 2621   1.650   0.781   5.240
    1TCM    cl3 2622   1.522   0.585   5.288
    1TCM     c1 2623   2.199   4.390   4.394
    1TCM    cl1 2624   2.134   4.392   4.228
    1TCM    cl2 2625   2.144   4.535   4.481
    1TCM     h1 2626   2.162   4.299   4.446
    1TCM    cl3 2627   2.376   4.388   4.388
    1TCM     c1 2628   0.783   3.746   5.056
    1TCM    cl1 2629   0.769   3.873   4.933
    1TCM    cl2 2630   0.621   3.690   5.102
    1TCM     h1 2631   0.841   3.661   5.015
    1TCM    cl3 2632   0.867   3.811   5.199
    1TCM     c1 2633   5.091   3.052   1.875
    1TCM    cl1 2634   5.075   3.195   1.770
    1TCM    cl2 2635   5.085   3.102   2.045
    1TCM     h1 2636   5.008   2.981   1.854
    1TCM    cl3 2637   5.247   2.972   1.843
    1TCM     c1 2638   3.308   1.182   3.596
    1TCM    cl1 2639   3.394   1.303   3.694
    1TCM    cl2 2640   3.363   1.192   3.428
    1TCM     h1 2641   3.329   1.081   3.636
    1TCM    cl3 2642   3.133   1.213   3.603
    1TCM     c1 2643   0.083   1.323   1.833
    1TCM    cl1 2644   0.252   1.269   1.854
    1TCM    cl2 2645   0.000   1.319   1.990
    1TCM     h1 2646   0.082   1.426   1.793
    1TCM    cl3 2647   0.000   1.215   1.719
    1TCM     c1 2648   1.557   0.128   1.262
    1TCM    cl1 2649   1.418   0.074   1.166
    1TCM    cl2 2650   1.681   0.001   1.262
    1TCM     h1 2651   1.599   0.221   1.218
    1TCM    cl3 2652   1.505   0.159   1.429
    1TCM     c1 2653   2.757   2.931   3.888
    1TCM    cl1 2654   2.833   2.813   3.998
    1TCM    cl2 2655   2.883   3.030   3.811
    1TCM     h1 2656   2.700   2.877   3.810
    1TCM    cl3 2657   2.648   3.036   3.980
    1TCM     c1 2658   5.125   3.328   1.245
    1TCM    cl1 2659   5.190   3.462   1.148
    1TCM    cl2 2660   5.027   3.393   1.377
    1TCM     h1 2661   5.062   3.263   1.180
    1TCM    cl3 2662   5.259   3.232   1.312
    1TCM     c1 2663   1.887   0.289   0.192
    1TCM    cl1 2664   1.755   0.170   0.202
    1TCM    cl2 2665   2.013   0.229   0.081
    1TCM     h1 2666   1.847   0.385   0.154
    1TCM    cl3 2667   1.958   0.312   0.354
    1TCM     c1 2668   1.119   1.899   2.982
    1TCM    cl1 2669   1.089   1.725   2.957
    1TCM    cl2 2670   1.283   1.921   3.049
    1TCM     h1 2671   1.111   1.952   2.886
    1TCM    cl3 2672   1.000   1.964   3.097
    1TCM     c1 2673   2.690   3.844   2.452
    1TCM    cl1 2674   2.834   3.764   2.385
    1TCM    cl2 2675   2.739   3.985   2.549
    1TCM     h1 2676   2.624   3.878   2.369
    1TCM    cl3 2677   2.601   3.730   2.556
    1TCM     c1 2678   1.522   0.636   2.905
    1TCM    cl1 2679   1.573   0.728   2.762
    1TCM    cl2 2680   1.425   0.739   3.012
    1TCM     h1 2681   1.462   0.548   2.873
    1TCM    cl3 2682   1.666   0.578   2.992
    1TCM     c1 2683   5.132   5.024   2.829
    1TCM    cl1 2684   5.092   4.902   2.706
    1TCM    cl2 2685   5.153   4.945   2.986
    1TCM     h1 2686   5.226   5.076   2.801
    1TCM    cl3 2687   5.000   5.143   2.839
    1TCM     c1 2688   2.628   3.892   3.232
    1TCM    cl1 2689   2.488   3.934   3.334
    1TCM    cl2 2690   2.645   4.014   3.103
    1TCM     h1 2691   2.720   3.891   3.294
    1TCM    cl3 2692   2.603   3.732   3.160
    1TCM     c1 2693   5.022   5.003   0.273
    1TCM    cl1 2694   4.916   5.037   0.134
    1TCM    cl2 2695   5.061   4.829   0.275
    1TCM     h1 2696   5.115   5.061   0.264
    1TCM    cl3 2697   4.938   5.047   0.424
    1TCM     c1 2698   1.540   4.063   5.169
    1TCM    cl1 2699   1.390   4.049   5.075
    1TCM    cl2 2700   1.630   3.910   5.161
    1TCM     h1 2701   1.603   4.145   5.128
    1TCM    cl3 2702   1.500   4.100   5.339
    1TCM     c1 2703   0.480   1.916   3.518
    1TCM    cl1 2704   0.324   1.856   3.458
    1TCM    cl2 2705   0.479   1.917   3.695
    1TCM     h1 2706   0.561   1.849   3.481
    1TCM    cl3 2707   0.507   2.081   3.458
    1TCM     c1 2708   4.634   0.366   4.812
    1TCM    cl1 2709   4.580   0.505   4.908
    1TCM    cl2 2710   4.660   0.416   4.644
    1TCM     h1 2711   4.728   0.326   4.854
    1TCM    cl3 2712   4.509   0.239   4.817
    1TCM     c1 2713   4.343   2.427   2.478
    1TCM    cl1 2714   4.259   2.305   2.576
    1TCM    cl2 2715   4.486   2.486   2.566
    1TCM     h1 2716   4.374   2.382   2.382
    1TCM    cl3 2717   4.233   2.564   2.447
    1TCM     c1 2718   3.477   4.747   1.718
    1TCM    cl1 2719   3.554   4.613   1.631
    1TCM    cl2 2720   3.589   4.886   1.723
    1TCM     h1 2721   3.384   4.777   1.666
    1TCM    cl3 2722   3.439   4.696   1.884
    1TCM     c1 2723   5.202   5.169   0.753
    1TCM    cl1 2724   5.211   5.339   0.702
    1TCM    cl2 2725   5.032   5.122   0.774
    1TCM     h1 2726   5.249   5.105   0.675
    1TCM    cl3 2727   5.289   5.149   0.907
    1TCM     c1 2728   3.973   5.144   0.259
    1TCM    cl1 2729   4.017   5.084   0.420
    1TCM    cl2 2730   4.121   5.183   0.168
    1TCM     h1 2731   3.916   5.066   0.205
    1TCM    cl3 2732   3.873   5.290   0.275
    1TCM     c1 2733   0.704   5.233   2.438
    1TCM    cl1 2734   0.603   5.336   2.541
    1TCM    cl2 2735   0.682   5.279   2.268
    1TCM     h1 2736   0.811   5.245   2.467
    1TCM    cl3 2737   0.656   5.063   2.460
    1TCM     c1 2738   2.873   5.150   4.386
    1TCM    cl1 2739   2.800   5.270   4.278
    1TCM    cl2 2740   2.950   5.022   4.290
    1TCM     h1 2741   2.950   5.199   4.450
    1TCM    cl3 2742   2.747   5.079   4.490
    1TCM     c1 2743   4.410   4.190   1.837
    1TCM    cl1 2744   4.271   4.196   1.726
    1TCM    cl2 2745   4.352   4.205   2.005
    1TCM     h1 2746   4.464   4.094   1.825
    1TCM    cl3 2747   4.521   4.325   1.801
    1TCM     c1 2748   3.276   3.671   4.887
    1TCM    cl1 2749   3.348   3.573   5.018
    1TCM    cl2 2750   3.296   3.585   4.732
    1TCM     h1 2751   3.168   3.686   4.907
    1TCM    cl3 2752   3.358   3.828   4.879
    1TCM     c1 2753   2.766   0.534   4.352
    1TCM    cl1 2754   2.685   0.511   4.508
    1TCM    cl2 2755   2.730   0.395   4.246
    1TCM     h1 2756   2.730   0.627   4.304
    1TCM    cl3 2757   2.942   0.544   4.377
    1TCM     c1 2758   3.344   3.349   1.816
    1TCM    cl1 2759   3.487   3.434   1.752
    1TCM    cl2 2760   3.328   3.384   1.989
    1TCM     h1 2761   3.253   3.384   1.762
    1TCM    cl3 2762   3.364   3.174   1.792
    1TCM     c1 2763   0.181   3.080   3.550
    1TCM    cl1 2764   0.315   2.987   3.481
    1TCM    cl2 2765   0.211   3.108   3.723
    1TCM     h1 2766   0.172   3.177   3.498
    1TCM    cl3 2767   0.029   2.988   3.531
    1TCM     c1 2768   1.510   3.838   3.104
    1TCM    cl1 2769   1.600   3.866   3.254
    1TCM    cl2 2770   1.515   3.984   3.003
    1TCM     h1 2771   1.556   3.753   3.048
    1TCM    cl3 2772   1.341   3.798   3.143
    1TCM     c1 2773   2.846   4.220   1.745
    1TCM    cl1 2774   2.713   4.102   1.759
    1TCM    cl2 2775   2.921   4.244   1.905
    1TCM     h1 2776   2.923   4.181   1.675
    1TCM    cl3 2777   2.783   4.375   1.686
    1TCM     c1 2778   5.139   1.676   2.963
    1TCM    cl1 2779   5.076   1.635   2.801
    1TCM    cl2 2780   5.316   1.658   2.963
    1TCM     h1 2781   5.112   1.780   2.988
    1TCM    cl3 2782   5.068   1.565   3.083
    1TCM     c1 2783   4.439   3.474   3.036
    1TCM    cl1 2784   4.565   3.348   3.043
    1TCM    cl2 2785   4.296   3.418   3.126
    1TCM     h1 2786   4.478   3.567   3.082
    1TCM    cl3 2787   4.395   3.505   2.867
    1TCM     c1 2788   2.730   4.930   2.626
    1TCM    cl1 2789   2.867   4.817   2.622
    1TCM    cl2 2790   2.733   5.021   2.779
    1TCM     h1 2791   2.737   5.000   2.541
    1TCM    cl3 2792   2.577   4.838   2.615
    1TCM     c1 2793   2.995   3.185   2.426
    1TCM    cl1 2794   2.918   3.052   2.338
    1TCM    cl2 2795   3.160   3.209   2.366
    1TCM     h1 2796   2.936   3.278   2.411
    1TCM    cl3 2797   3.000   3.146   2.600
    1TCM     c1 2798   1.916   3.507   4.155
    1TCM    cl1 2799   1.902   3.651   4.053
    1TCM    cl2 2800   1.942   3.556   4.324
    1TCM     h1 2801   1.823   3.447   4.148
    1TCM    cl3 2802   2.055   3.409   4.101
    1TCM     c1 2803   4.986   1.870   0.517
    1TCM    cl1 2804   5.008   1.845   0.343
    1TCM    cl2 2805   4.942   1.716   0.595
    1TCM     h1 2806   5.081   1.908   0.562
    1TCM    cl3 2807   4.857   1.989   0.544
    1TCM     c1 2808   2.044   3.084   2.143
    1TCM    cl1 2809   2.182   3.125   2.247
    1TCM    cl2 2810   2.103   3.047   1.979
    1TCM     h1 2811   1.992   2.995   2.185
    1TCM    cl3 2812   1.932   3.222   2.137
    1TCM     c1 2813   1.992   0.949   4.969
    1TCM    cl1 2814   2.040   1.117   4.935
    1TCM    cl2 2815   2.111   0.837   4.899
    1TCM     h1 2816   1.986   0.934   5.078
    1TCM    cl3 2817   1.832   0.918   4.896
    1TCM     c1 2818   0.296   5.090   3.999
    1TCM    cl1 2819   0.364   5.208   4.112
    1TCM    cl2 2820   0.328   5.143   3.832
    1TCM     h1 2821   0.343   4.991   4.016
    1TCM    cl3 2822   0.120   5.077   4.024
    1TCM     c1 2823   1.659   4.492   1.728
    1TCM    cl1 2824   1.651   4.626   1.612
    1TCM    cl2 2825   1.826   4.475   1.787
    1TCM     h1 2826   1.592   4.512   1.814
    1TCM    cl3 2827   1.610   4.341   1.648
    1TCM     c1 2828   4.933   0.988   4.264
    1TCM    cl1 2829   4.844   0.895   4.386
    1TCM    cl2 2830   4.858   0.964   4.105
    1TCM     h1 2831   4.931   1.096   4.290
    1TCM    cl3 2832   5.102   0.933   4.259
    1TCM     c1 2833   2.342   3.222   0.253
    1TCM    cl1 2834   2.361   3.317   0.104
    1TCM    cl2 2835   2.267   3.324   0.378
    1TCM     h1 2836   2.276   3.135   0.234
    1TCM    cl3 2837   2.501   3.167   0.309
    1TCM     c1 2838   2.677   4.253   1.398
    1TCM    cl1 2839   2.719   4.423   1.429
    1TCM    cl2 2840   2.696   4.219   1.224
    1TCM     h1 2841   2.745   4.187   1.456
    1TCM    cl3 2842   2.509   4.223   1.446
    1TCM     c1 2843   1.661   0.943   4.118
    1TCM    cl1 2844   1.760   0.804   4.170
    1TCM    cl2 2845   1.701   0.984   3.950
    1TCM     h1 2846   1.554   0.917   4.126
    1TCM    cl3 2847   1.696   1.083   4.223
    1TCM     c1 2848   1.575   1.122   2.887
    1TCM    cl1 2849   1.619   1.144   2.716
    1TCM    cl2 2850   1.524   0.954   2.914
    1TCM     h1 2851   1.663   1.144   2.951
    1TCM    cl3 2852   1.442   1.232   2.930
    1TCM     c1 2853   1.990   3.191   3.480
    1TCM    cl1 2854   1.961   3.170   3.305
    1TCM    cl2 2855   2.033   3.361   3.512
    1TCM     h1 2856   1.898   3.165   3.536
    1TCM    cl3 2857   2.124   3.086   3.531
    1TCM     c1 2858   3.860   4.283   3.042
    1TCM    cl1 2859   3.807   4.426   3.134
    1TCM    cl2 2860   3.879   4.327   2.870
    1TCM     h1 2861   3.957   4.247   3.082
    1TCM    cl3 2862   3.738   4.154   3.057
    1TCM     c1 2863   2.702   5.130   0.534
    1TCM    cl1 2864   2.879   5.124   0.513
    1TCM    cl2 2865   2.650   5.299   0.552
    1TCM     h1 2866   2.653   5.085   0.445
    1TCM    cl3 2867   2.657   5.038   0.679
    1TCM     c1 2868   1.650   3.805   4.113
    1TCM    cl1 2869   1.772   3.934   4.104
    1TCM    cl2 2870   1.698   3.686   4.236
    1TCM     h1 2871   1.552   3.848   4.139
    1TCM    cl3 2872   1.639   3.724   3.955
    1TCM     c1 2873   2.368   2.236   1.330
    1TCM    cl1 2874   2.508   2.341   1.362
    1TCM    cl2 2875   2.232   2.335   1.272
    1TCM     h1 2876   2.395   2.161   1.253
    1TCM    cl3 2877   2.321   2.152   1.480
    1TCM     c1 2878   3.138   0.138   3.824
    1TCM    cl1 2879   3.186   0.080   3.985
    1TCM    cl2 2880   3.122   0.315   3.827
    1TCM     h1 2881   3.215   0.109   3.749
    1TCM    cl3 2882   2.982   0.066   3.779
    1TCM     c1 2883   2.079   1.200   2.103
    1TCM    cl1 2884   2.156   1.311   1.988
    1TCM    cl2 2885   1.980   1.293   2.218
    1TCM     h1 2886   2.015   1.128   2.048
    1TCM    cl3 2887   2.204   1.111   2.192
    1TCM     c1 2888   2.330   2.798   0.416
    1TCM    cl1 2889   2.207   2.862   0.526
    1TCM    cl2 2890   2.283   2.830   0.248
    1TCM     h1 2891   2.428   2.847   0.437
    1TCM    cl3 2892   2.346   2.623   0.440
    1TCM     c1 2893   3.603   2.510   4.373
    1TCM    cl1 2894   3.691   2.660   4.412
    1TCM    cl2 2895   3.718   2.388   4.312
    1TCM     h1 2896   3.554   2.471   4.465
    1TCM    cl3 2897   3.480   2.543   4.249
    1TCM     c1 2898   0.770   0.434   1.994
    1TCM    cl1 2899   0.626   0.415   1.892
    1TCM    cl2 2900   0.730   0.388   2.161
    1TCM     h1 2901   0.851   0.369   1.957
    1TCM    cl3 2902   0.823   0.604   1.991
    1TCM     c1 2903   0.074   2.891   3.875
    1TCM    cl1 2904   0.090   3.063   3.917
    1TCM    cl2 2905   0.007   2.803   4.013
    1TCM     h1 2906   0.006   2.881   3.788
    1TCM    cl3 2907   0.234   2.825   3.833
    1TCM     c1 2908   4.293   4.857   0.797
    1TCM    cl1 2909   4.324   4.857   0.972
    1TCM    cl2 2910   4.330   5.018   0.731
    1TCM     h1 2911   4.357   4.781   0.748
    1TCM    cl3 2912   4.122   4.819   0.767
    1TCM     c1 2913   0.183   4.257   1.158
    1TCM    cl1 2914   0.041   4.191   1.244
    1TCM    cl2 2915   0.142   4.416   1.090
    1TCM     h1 2916   0.268   4.267   1.229
    1TCM    cl3 2917   0.228   4.146   1.026
    1TCM     c1 2918   2.194   2.352   3.821
    1TCM    cl1 2919   2.263   2.384   3.660
    1TCM    cl2 2920   2.326   2.328   3.938
    1TCM     h1 2921   2.132   2.439   3.852
    1TCM    cl3 2922   2.094   2.206   3.814
    1TCM     c1 2923   0.587   4.172   1.316
    1TCM    cl1 2924   0.512   4.331   1.292
    1TCM    cl2 2925   0.533   4.104   1.472
    1TCM     h1 2926   0.557   4.104   1.234
    1TCM    cl3 2927   0.764   4.189   1.318
    1TCM     c1 2928   1.470   3.891   0.408
    1TCM    cl1 2929   1.334   3.870   0.521
    1TCM    cl2 2930   1.598   3.774   0.446
    1TCM     h1 2931   1.434   3.874   0.304
    1TCM    cl3 2932   1.534   4.056   0.422
    1TCM     c1 2933   3.180   2.125   2.551
    1TCM    cl1 2934   3.320   2.019   2.531
    1TCM    cl2 2935   3.176   2.244   2.418
    1TCM     h1 2936   3.086   2.065   2.549
    1TCM    cl3 2937   3.191   2.211   2.706
    1TCM     c1 2938   1.914   2.759   2.489
    1TCM    cl1 2939   2.046   2.763   2.608
    1TCM    cl2 2940   1.758   2.761   2.575
    1TCM     h1 2941   1.921   2.848   2.423
    1TCM    cl3 2942   1.926   2.612   2.391
    1TCM     c1 2943   3.413   5.123   2.098
    1TCM    cl1 2944   3.348   5.241   1.982
    1TCM    cl2 2945   3.279   5.038   2.177
    1TCM     h1 2946   3.477   5.050   2.044
    1TCM    cl3 2947   3.510   5.208   2.220
    1TCM     c1 2948   1.045   2.541   4.400
    1TCM    cl1 2949   1.152   2.631   4.510
    1TCM    cl2 2950   1.078   2.590   4.232
    1TCM     h1 2951   1.063   2.432   4.411
    1TCM    cl3 2952   0.875   2.577   4.440
    1TCM     c1 2953   4.624   3.898   4.931
    1TCM    cl1 2954   4.686   3.757   5.021
    1TCM    cl2 2955   4.718   3.919   4.782
    1TCM     h1 2956   4.518   3.882   4.906
    1TCM    cl3 2957   4.641   4.044   5.032
    1TCM     c1 2958   4.918   1.879   4.164
    1TCM    cl1 2959   5.085   1.820   4.185
    1TCM    cl2 2960   4.868   1.854   3.995
    1TCM     h1 2961   4.850   1.823   4.231
    1TCM    cl3 2962   4.911   2.053   4.202
    1TCM     c1 2963   4.121   2.241   2.863
    1TCM    cl1 2964   4.023   2.388   2.843
    1TCM    cl2 2965   4.144   2.164   2.704
    1TCM     h1 2966   4.220   2.268   2.905
    1TCM    cl3 2967   4.038   2.128   2.972
    1TCM     c1 2968   1.467   2.828   5.168
    1TCM    cl1 2969   1.450   2.997   5.220
    1TCM    cl2 2970   1.311   2.745   5.184
    1TCM     h1 2971   1.500   2.825   5.062
    1TCM    cl3 2972   1.588   2.746   5.270
    1TCM     c1 2973   3.664   2.145   3.133
    1TCM    cl1 2974   3.510   2.230   3.107
    1TCM    cl2 2975   3.723   2.178   3.298
    1TCM     h1 2976   3.649   2.036   3.120
    1TCM    cl3 2977   3.784   2.203   3.015
    1TCM     c1 2978   2.755   4.869   1.046
    1TCM    cl1 2979   2.707   5.026   1.116
    1TCM    cl2 2980   2.667   4.842   0.894
    1TCM     h1 2981   2.864   4.870   1.026
    1TCM    cl3 2982   2.716   4.739   1.161
    1TCM     c1 2983   1.658   3.843   0.892
    1TCM    cl1 2984   1.821   3.789   0.938
    1TCM    cl2 2985   1.619   3.782   0.730
    1TCM     h1 2986   1.584   3.804   0.965
    1TCM    cl3 2987   1.653   4.021   0.892
    1TCM     c1 2988   5.070   3.218   5.124
    1TCM    cl1 2989   5.002   3.341   5.234
    1TCM    cl2 2990   4.955   3.084   5.107
    1TCM     h1 2991   5.089   3.264   5.025
    1TCM    cl3 2992   5.223   3.157   5.191
    1TCM     c1 2993   2.951   5.034   3.102
    1TCM    cl1 2994   3.037   5.188   3.082
    1TCM    cl2 2995   2.881   4.984   2.946
    1TCM     h1 2996   3.022   4.956   3.137
    1TCM    cl3 2997   2.821   5.053   3.221
    1TCM     c1 2998   4.803   3.871   3.670
    1TCM    cl1 2999   4.769   3.845   3.842
    1TCM    cl2 3000   4.650   3.906   3.585
    1TCM     h1 3001   4.872   3.956   3.658
    1TCM    cl3 3002   4.876   3.724   3.601
    1TCM     c1 3003   1.686   0.906   3.143
    1TCM    cl1 3004   1.854   0.950   3.184
    1TCM    cl2 3005   1.583   1.050   3.152
    1TCM     h1 3006   1.683   0.864   3.040
    1TCM    cl3 3007   1.628   0.784   3.259
    1TCM     c1 3008   3.318   2.736   4.576
    1TCM    cl1 3009   3.456   2.847   4.560
    1TCM    cl2 3010   3.287   2.657   4.419
    1TCM     h1 3011   3.341   2.659   4.652
    1TCM    cl3 3012   3.173   2.828   4.625
    1TCM     c1 3013   2.352   4.267   0.619
    1TCM    cl1 3014   2.475   4.203   0.507
    1TCM    cl2 3015   2.425   4.288   0.780
    1TCM     h1 3016   2.316   4.365   0.581
    1TCM    cl3 3017   2.216   4.154   0.629
    1TCM     c1 3018   3.239   1.592   0.301
    1TCM    cl1 3019   3.354   1.686   0.204
    1TCM    cl2 3020   3.156   1.474   0.197
    1TCM     h1 3021   3.294   1.538   0.381
    1TCM    cl3 3022   3.119   1.701   0.374
    1TCM     c1 3023   2.379   1.753   4.033
    1TCM    cl1 3024   2.408   1.805   4.200
    1TCM    cl2 3025   2.215   1.800   3.983
    1TCM     h1 3026   2.454   1.801   3.966
    1TCM    cl3 3027   2.396   1.576   4.023
    1TCM     c1 3028   1.272   0.940   2.711
    1TCM    cl1 3029   1.441   0.992   2.694
    1TCM    cl2 3030   1.186   0.967   2.558
    1TCM     h1 3031   1.269   0.832   2.737
    1TCM    cl3 3032   1.194   1.034   2.841
    1TCM     c1 3033   2.820   4.327   5.124
    1TCM    cl1 3034   2.788   4.259   5.285
    1TCM    cl2 3035   2.666   4.356   5.040
    1TCM     h1 3036   2.875   4.423   5.135
    1TCM    cl3 3037   2.918   4.212   5.030
    1TCM     c1 3038   2.313   4.476   1.617
    1TCM    cl1 3039   2.143   4.518   1.647
    1TCM    cl2 3040   2.370   4.558   1.470
    1TCM     h1 3041   2.375   4.508   1.704
    1TCM    cl3 3042   2.328   4.300   1.595
    1TCM     c1 3043   0.968   2.565   5.142
    1TCM    cl1 3044   0.817   2.532   5.231
    1TCM    cl2 3045   0.968   2.474   4.989
    1TCM     h1 3046   0.974   2.674   5.120
    1TCM    cl3 3047   1.107   2.516   5.240
    1TCM     c1 3048   1.706   1.195   1.845
    1TCM    cl1 3049   1.638   1.308   1.726
    1TCM    cl2 3050   1.576   1.096   1.914
    1TCM     h1 3051   1.781   1.130   1.796
    1TCM    cl3 3052   1.785   1.287   1.976
    1TCM     c1 3053   0.520   3.623   3.643
    1TCM    cl1 3054   0.393   3.748   3.639
    1TCM    cl2 3055   0.587   3.602   3.480
    1TCM     h1 3056   0.600   3.654   3.713
    1TCM    cl3 3057   0.449   3.469   3.699
    1TCM     c1 3058   2.332   0.083   1.428
    1TCM    cl1 3059   2.325   0.259   1.405
    1TCM    cl2 3060   2.492   0.022   1.378
    1TCM     h1 3061   2.315   0.058   1.535
    1TCM    cl3 3062   2.206   0.005   1.329
    1TCM     c1 3063   0.259   0.163   3.831
    1TCM    cl1 3064   0.368   0.071   3.937
    1TCM    cl2 3065   0.243   0.080   3.675
    1TCM     h1 3066   0.159   0.172   3.879
    1TCM    cl3 3067   0.326   0.326   3.805
    1TCM     c1 3068   3.248   4.021   1.533
    1TCM    cl1 3069   3.381   4.120   1.597
    1TCM    cl2 3070   3.281   3.849   1.565
    1TCM     h1 3071   3.153   4.050   1.583
    1TCM    cl3 3072   3.233   4.047   1.358
    1TCM     c1 3073   4.638   4.322   3.841
    1TCM    cl1 3074   4.560   4.470   3.904
    1TCM    cl2 3075   4.736   4.248   3.969
    1TCM     h1 3076   4.560   4.251   3.808
    1TCM    cl3 3077   4.741   4.364   3.703
    1TCM     c1 3078   0.981   3.752   0.414
    1TCM    cl1 3079   1.036   3.597   0.345
    1TCM    cl2 3080   0.870   3.831   0.301
    1TCM     h1 3081   0.929   3.733   0.510
    1TCM    cl3 3082   1.122   3.857   0.443
    1TCM     c1 3083   5.124   2.332   5.095
    1TCM    cl1 3084   5.061   2.265   5.248
    1TCM    cl2 3085   5.299   2.355   5.109
    1TCM     h1 3086   5.102   2.261   5.012
    1TCM    cl3 3087   5.045   2.488   5.062
    1TCM     c1 3088   0.994   5.026   2.482
    1TCM    cl1 3089   0.911   5.083   2.629
    1TCM    cl2 3090   0.964   5.140   2.349
    1TCM     h1 3091   1.103   5.020   2.502
    1TCM    cl3 3092   0.933   4.865   2.438
    1TCM     c1 3093   1.013   1.249   4.195
    1TCM    cl1 3094   0.921   1.333   4.322
    1TCM    cl2 3095   0.944   1.288   4.036
    1TCM     h1 3096   1.119   1.282   4.199
    1TCM    cl3 3097   1.005   1.073   4.222
    1TCM     c1 3098   3.911   2.698   4.213
    1TCM    cl1 3099   3.787   2.627   4.106
    1TCM    cl2 3100   3.904   2.619   4.372
    1TCM     h1 3101   4.011   2.683   4.169
    1TCM    cl3 3102   3.880   2.872   4.232
    1TCM     c1 3103   2.293   3.523   5.213
    1TCM    cl1 3104   2.441   3.544   5.117
    1TCM    cl2 3105   2.182   3.414   5.127
    1TCM     h1 3106   2.319   3.479   5.312
    1TCM    cl3 3107   2.215   3.681   5.237
    1TCM     c1 3108   1.279   0.595   0.979
    1TCM    cl1 3109   1.277   0.612   0.802
    1TCM    cl2 3110   1.253   0.754   1.054
    1TCM     h1 3111   1.198   0.526   1.010
    1TCM    cl3 3112   1.436   0.530   1.030
    1TCM     c1 3113   0.338   3.716   0.542
    1TCM    cl1 3114   0.391   3.671   0.378
    1TCM    cl2 3115   0.361   3.578   0.652
    1TCM     h1 3116   0.398   3.802   0.577
    1TCM    cl3 3117   0.166   3.761   0.539
    1TCM     c1 3118   3.216   1.683   3.450
    1TCM    cl1 3119   3.215   1.826   3.344
    1TCM    cl2 3120   3.214   1.536   3.351
    1TCM     h1 3121   3.308   1.684   3.513
    1TCM    cl3 3122   3.073   1.686   3.555
    1TCM     c1 3123   2.849   4.763   0.324
    1TCM    cl1 3124   2.926   4.867   0.202
    1TCM    cl2 3125   2.821   4.601   0.254
    1TCM     h1 3126   2.915   4.754   0.412
    1TCM    cl3 3127   2.693   4.834   0.373
    1TCM     c1 3128   3.739   3.529   3.400
    1TCM    cl1 3129   3.915   3.520   3.423
    1TCM    cl2 3130   3.702   3.641   3.267
    1TCM     h1 3131   3.700   3.428   3.375
    1TCM    cl3 3132   3.662   3.588   3.549
    1TCM     c1 3133   2.952   3.945   0.987
    1TCM    cl1 3134   3.003   4.103   1.050
    1TCM    cl2 3135   2.774   3.941   0.975
    1TCM     h1 3136   2.996   3.929   0.887
    1TCM    cl3 3137   3.007   3.817   1.097
    1TCM     c1 3138   4.479   4.351   1.193
    1TCM    cl1 3139   4.486   4.445   1.042
    1TCM    cl2 3140   4.640   4.285   1.230
    1TCM     h1 3141   4.445   4.416   1.276
    1TCM    cl3 3142   4.364   4.216   1.173
    1TCM     c1 3143   4.570   3.076   0.263
    1TCM    cl1 3144   4.512   3.222   0.347
    1TCM    cl2 3145   4.728   3.029   0.329
    1TCM     h1 3146   4.497   2.993   0.280
    1TCM    cl3 3147   4.585   3.109   0.089
    1TCM     c1 3148   2.926   1.032   2.247
    1TCM    cl1 3149   2.827   0.900   2.314
    1TCM    cl2 3150   2.835   1.114   2.118
    1TCM     h1 3151   2.950   1.105   2.327
    1TCM    cl3 3152   3.076   0.965   2.180
    1TCM     c1 3153   3.443   4.582   2.996
    1TCM    cl1 3154   3.462   4.723   2.890
    1TCM    cl2 3155   3.354   4.629   3.142
    1TCM     h1 3156   3.386   4.503   2.942
    1TCM    cl3 3157   3.603   4.519   3.041
    1TCM     c1 3158   3.723   3.479   3.940
    1TCM    cl1 3159   3.816   3.577   4.055
    1TCM    cl2 3160   3.737   3.307   3.984
    1TCM     h1 3161   3.617   3.509   3.943
    1TCM    cl3 3162   3.787   3.503   3.776
    1TCM     c1 3163   4.168   0.315   0.217
    1TCM    cl1 3164   4.317   0.303   0.314
    1TCM    cl2 3165   4.198   0.248   0.055
    1TCM     h1 3166   4.088   0.257   0.267
    1TCM    cl3 3167   4.120   0.485   0.203
    1TCM     c1 3168   3.261   3.172   3.468
    1TCM    cl1 3169   3.367   3.098   3.590
    1TCM    cl2 3170   3.335   3.154   3.307
    1TCM     h1 3171   3.162   3.121   3.470
    1TCM    cl3 3172   3.240   3.345   3.504
    1TCM     c1 3173   0.659   2.613   1.921
    1TCM    cl1 3174   0.783   2.694   1.824
    1TCM    cl2 3175   0.636   2.447   1.862
    1TCM     h1 3176   0.691   2.610   2.027
    1TCM    cl3 3177   0.505   2.702   1.909
    1TCM     c1 3178   5.191   4.294   3.023
    1TCM    cl1 3179   5.200   4.453   2.944
    1TCM    cl2 3180   5.242   4.308   3.193
    1TCM     h1 3181   5.086   4.257   3.019
    1TCM    cl3 3182   5.297   4.179   2.938
    1TCM     c1 3183   2.316   3.522   1.563
    1TCM    cl1 3184   2.437   3.480   1.439
    1TCM    cl2 3185   2.393   3.516   1.724
    1TCM     h1 3186   2.278   3.624   1.544
    1TCM    cl3 3187   2.182   3.406   1.558
    1TCM     c1 3188   5.085   1.371   2.447
    1TCM    cl1 3189   5.127   1.502   2.335
    1TCM    cl2 3190   5.233   1.295   2.508
    1TCM     h1 3191   5.027   1.412   2.532
    1TCM    cl3 3192   4.987   1.249   2.362
    1TCM     c1 3193   4.191   3.118   3.999
    1TCM    cl1 3194   4.034   3.060   4.059
    1TCM    cl2 3195   4.313   2.991   4.020
    1TCM     h1 3196   4.182   3.145   3.892
    1TCM    cl3 3197   4.239   3.263   4.091
    1TCM     c1 3198   1.608   3.547   3.479
    1TCM    cl1 3199   1.659   3.655   3.347
    1TCM    cl2 3200   1.629   3.378   3.429
    1TCM     h1 3201   1.669   3.567   3.569
    1TCM    cl3 3202   1.436   3.577   3.516
    1TCM     c1 3203   2.552   3.265   2.632
    1TCM    cl1 3204   2.454   3.181   2.754
    1TCM    cl2 3205   2.723   3.263   2.681
    1TCM     h1 3206   2.541   3.214   2.534
    1TCM    cl3 3207   2.497   3.433   2.618
    1TCM     c1 3208   1.892   2.892   0.172
    1TCM    cl1 3209   1.792   2.782   0.270
    1TCM    cl2 3210   1.872   2.854   0.000
    1TCM     h1 3211   1.861   2.997   0.191
    1TCM    cl3 3212   2.063   2.872   0.218
    1TCM     c1 3213   4.820   0.836   2.892
    1TCM    cl1 3214   4.774   0.671   2.939
    1TCM    cl2 3215   4.720   0.888   2.754
    1TCM     h1 3216   4.804   0.905   2.977
    1TCM    cl3 3217   4.991   0.838   2.845
    1TCM     c1 3218   4.886   2.047   1.279
    1TCM    cl1 3219   4.759   2.017   1.157
    1TCM    cl2 3220   4.841   2.189   1.377
    1TCM     h1 3221   4.896   1.958   1.344
    1TCM    cl3 3222   5.040   2.078   1.196
    1TCM     c1 3223   3.202   4.076   0.421
    1TCM    cl1 3224   3.251   3.917   0.483
    1TCM    cl2 3225   3.231   4.083   0.246
    1TCM     h1 3226   3.094   4.092   0.442
    1TCM    cl3 3227   3.297   4.203   0.502
    1TCM     c1 3228   2.737   4.026   3.596
    1TCM    cl1 3229   2.823   3.999   3.749
    1TCM    cl2 3230   2.839   3.973   3.460
    1TCM     h1 3231   2.642   3.969   3.596
    1TCM    cl3 3232   2.701   4.200   3.579
    1TCM     c1 3233   2.042   4.557   2.224
    1TCM    cl1 3234   2.064   4.389   2.169
    1TCM    cl2 3235   2.004   4.558   2.397
    1TCM     h1 3236   2.136   4.614   2.206
    1TCM    cl3 3237   1.909   4.632   2.133
    1TCM     c1 3238   1.683   1.691   0.642
    1TCM    cl1 3239   1.506   1.702   0.643
    1TCM    cl2 3240   1.750   1.806   0.759
    1TCM     h1 3241   1.714   1.588   0.670
    1TCM    cl3 3242   1.744   1.729   0.479
    1TCM     c1 3243   0.277   2.832   4.381
    1TCM    cl1 3244   0.312   2.997   4.326
    1TCM    cl2 3245   0.314   2.717   4.251
    1TCM     h1 3246   0.339   2.809   4.470
    1TCM    cl3 3247   0.105   2.819   4.424
    1TCM     c1 3248   0.501   1.614   4.678
    1TCM    cl1 3249   0.551   1.764   4.760
    1TCM    cl2 3250   0.582   1.476   4.754
    1TCM     h1 3251   0.391   1.602   4.687
    1TCM    cl3 3252   0.546   1.623   4.506
    1TCM     c1 3253   5.027   2.939   0.633
    1TCM    cl1 3254   5.001   2.949   0.809
    1TCM    cl2 3255   5.036   2.769   0.584
    1TCM     h1 3256   4.943   2.989   0.580
    1TCM    cl3 3257   5.180   3.021   0.592
    1TCM     c1 3258   2.216   4.215   4.835
    1TCM    cl1 3259   2.276   4.065   4.908
    1TCM    cl2 3260   2.218   4.345   4.956
    1TCM     h1 3261   2.280   4.243   4.749
    1TCM    cl3 3262   2.049   4.191   4.778
    1TCM     c1 3263   3.076   3.457   3.255
    1TCM    cl1 3264   2.911   3.466   3.188
    1TCM    cl2 3265   3.159   3.612   3.228
    1TCM     h1 3266   3.070   3.437   3.364
    1TCM    cl3 3267   3.166   3.327   3.174
    1TCM     c1 3268   2.962   4.382   0.398
    1TCM    cl1 3269   2.983   4.262   0.528
    1TCM    cl2 3270   3.099   4.373   0.285
    1TCM     h1 3271   2.867   4.361   0.344
    1TCM    cl3 3272   2.955   4.545   0.470
    1TCM     c1 3273   3.449   4.478   0.474
    1TCM    cl1 3274   3.475   4.353   0.350
    1TCM    cl2 3275   3.507   4.419   0.631
    1TCM     h1 3276   3.504   4.570   0.446
    1TCM    cl3 3277   3.275   4.514   0.485
    1TCM     c1 3278   2.329   3.763   1.042
    1TCM    cl1 3279   2.479   3.858   1.044
    1TCM    cl2 3280   2.290   3.711   1.208
    1TCM     h1 3281   2.246   3.825   1.003
    1TCM    cl3 3282   2.351   3.620   0.939
    1TCM     c1 3283   4.094   3.935   3.742
    1TCM    cl1 3284   4.165   3.881   3.589
    1TCM    cl2 3285   4.223   3.972   3.858
    1TCM     h1 3286   4.033   4.026   3.725
    1TCM    cl3 3287   3.990   3.806   3.808
    1TCM     c1 3288   5.215   4.780   4.202
    1TCM    cl1 3289   5.061   4.741   4.122
    1TCM    cl2 3290   5.184   4.839   4.367
    1TCM     h1 3291   5.278   4.688   4.207
    1TCM    cl3 3292   5.301   4.905   4.109
    1TCM     c1 3293   4.207   0.353   3.544
    1TCM    cl1 3294   4.237   0.213   3.649
    1TCM    cl2 3295   4.054   0.430   3.590
    1TCM     h1 3296   4.290   0.426   3.556
    1TCM    cl3 3297   4.199   0.299   3.375
    1TCM     c1 3298   2.442   2.663   3.451
    1TCM    cl1 3299   2.388   2.798   3.348
    1TCM    cl2 3300   2.386   2.690   3.618
    1TCM     h1 3301   2.399   2.568   3.413
    1TCM    cl3 3302   2.619   2.654   3.448
    1TCM     c1 3303   5.021   4.585   2.606
    1TCM    cl1 3304   4.988   4.709   2.730
    1TCM    cl2 3305   4.995   4.424   2.676
    1TCM     h1 3306   4.952   4.600   2.520
    1TCM    cl3 3307   5.189   4.600   2.551
    1TCM     c1 3308   2.388   0.834   2.062
    1TCM    cl1 3309   2.281   0.724   1.972
    1TCM    cl2 3310   2.392   0.786   2.233
    1TCM     h1 3311   2.491   0.828   2.020
    1TCM    cl3 3312   2.328   1.001   2.047
    1TCM     c1 3313   0.277   2.363   3.079
    1TCM    cl1 3314   0.160   2.347   2.946
    1TCM    cl2 3315   0.319   2.202   3.140
    1TCM     h1 3316   0.368   2.414   3.042
    1TCM    cl3 3317   0.205   2.460   3.210
    1TCM     c1 3318   1.128   4.071   1.115
    1TCM    cl1 3319   1.099   4.063   0.940
    1TCM    cl2 3320   1.230   3.933   1.164
    1TCM     h1 3321   1.181   4.165   1.140
    1TCM    cl3 3322   0.973   4.064   1.202
    1TCM     c1 3323   2.663   3.016   0.724
    1TCM    cl1 3324   2.702   3.083   0.564
    1TCM    cl2 3325   2.576   3.138   0.820
    1TCM     h1 3326   2.599   2.926   0.712
    1TCM    cl3 3327   2.813   2.971   0.808
    1TCM     c1 3328   0.642   0.652   0.945
    1TCM    cl1 3329   0.745   0.541   0.852
    1TCM    cl2 3330   0.541   0.559   1.058
    1TCM     h1 3331   0.706   0.723   1.002
    1TCM    cl3 3332   0.537   0.743   0.834
    1TCM     c1 3333   5.074   2.178   3.244
    1TCM    cl1 3334   4.994   2.302   3.343
    1TCM    cl2 3335   5.088   2.237   3.076
    1TCM     h1 3336   5.175   2.157   3.284
    1TCM    cl3 3337   4.976   2.029   3.246
    1TCM     c1 3338   2.499   1.014   3.495
    1TCM    cl1 3339   2.629   1.017   3.373
    1TCM    cl2 3340   2.562   1.077   3.649
    1TCM     h1 3341   2.415   1.077   3.461
    1TCM    cl3 3342   2.444   0.846   3.518
    1TCM     c1 3343   5.070   1.021   2.254
    1TCM    cl1 3344   5.189   1.146   2.214
    1TCM    cl2 3345   5.128   0.863   2.197
    1TCM     h1 3346   5.056   1.018   2.364
    1TCM    cl3 3347   4.915   1.059   2.175
    1TCM     c1 3348   3.972   0.489   4.530
    1TCM    cl1 3349   3.830   0.445   4.628
    1TCM    cl2 3350   4.000   0.664   4.541
    1TCM     h1 3351   4.061   0.435   4.568
    1TCM    cl3 3352   3.944   0.444   4.360
    1TCM     c1 3353   5.107   0.884   5.065
    1TCM    cl1 3354   5.202   0.802   4.940
    1TCM    cl2 3355   5.185   0.861   5.224
    1TCM     h1 3356   5.101   0.993   5.043
    1TCM    cl3 3357   4.942   0.817   5.070
    1TCM     c1 3358   2.910   0.625   1.536
    1TCM    cl1 3359   3.061   0.719   1.524
    1TCM    cl2 3360   2.811   0.690   1.669
    1TCM     h1 3361   2.854   0.633   1.441
    1TCM    cl3 3362   2.949   0.455   1.569
    1TCM     c1 3363   2.123   1.387   3.824
    1TCM    cl1 3364   2.132   1.398   4.002
    1TCM    cl2 3365   2.134   1.216   3.775
    1TCM     h1 3366   2.026   1.429   3.789
    1TCM    cl3 3367   2.257   1.478   3.752
   5.54000   5.54000   5.54000
