Georgetown Riga Oslo Madrid Amsterdam Chisinau Stockholm
 3367
    1PMP     C1    1   3.991   0.279   5.197
    1PMP     O2    2   4.008   0.420   5.191
    1PMP     C3    3   4.136   0.468   5.185
    1PMP     C4    4   4.252   0.391   5.178
    1PMP     C5    5   4.379   0.452   5.172
    1PMP     C6    6   4.502   0.373   5.164
    1PMP     C7    7   4.521   0.258   5.246
    1PMP     C8    8   4.637   0.182   5.237
    1PMP     C9    9   4.739   0.218   5.149
    1PMP    C10   10   4.867   0.141   5.153
    1PMP    O11   11   4.887   0.046   5.227
    1PMP    C12   12   4.723   0.331   5.068
    1PMP    C13   13   4.606   0.407   5.076
    1PMP    C14   14   4.385   0.593   5.172
    1PMP    C15   15   4.269   0.672   5.178
    1PMP    C16   16   4.277   0.820   5.177
    1PMP    C17   17   4.373   0.887   5.253
    1PMP    C18   18   4.380   1.026   5.252
    1PMP    C19   19   4.291   1.101   5.176
    1PMP    C20   20   4.305   1.252   5.171
    1PMP    C21   21   4.189   1.318   5.246
    1PMP    N22   22   4.318   1.305   5.035
    1PMP    C23   23   4.194   1.035   5.100
    1PMP    C24   24   4.188   0.896   5.100
    1PMP    C25   25   4.145   0.607   5.184
    1PMP    H26   26   4.039   0.237   5.286
    1PMP    H27   27   3.885   0.259   5.203
    1PMP    H28   28   4.029   0.232   5.105
    1PMP    H29   29   4.247   0.283   5.176
    1PMP    H30   30   4.444   0.230   5.317
    1PMP    H31   31   4.649   0.096   5.304
    1PMP    H32   32   4.801   0.363   5.000
    1PMP    H33   33   4.597   0.494   5.011
    1PMP    H34   34   4.482   0.643   5.166
    1PMP    H35   35   4.445   0.832   5.314
    1PMP    H36   36   4.459   1.075   5.310
    1PMP    H37   37   4.398   1.280   5.221
    1PMP    H38   38   4.093   1.296   5.199
    1PMP    H39   39   4.186   1.283   5.349
    1PMP    H40   40   4.202   1.427   5.247
    1PMP    H41   41   4.301   1.404   5.031
    1PMP    H42   42   4.126   1.091   5.036
    1PMP    H43   43   4.113   0.847   5.037
    1PMP    H44   44   4.053   0.664   5.190
    2PMP    C45   45   5.240   1.534   4.780
    2PMP    O46   46   5.193   1.656   4.723
    2PMP    C47   47   5.058   1.674   4.718
    2PMP    C48   48   4.961   1.586   4.766
    2PMP    C49   49   4.825   1.616   4.754
    2PMP    C50   50   4.720   1.525   4.803
    2PMP    C51   51   4.726   1.388   4.780
    2PMP    C52   52   4.625   1.303   4.827
    2PMP    C53   53   4.516   1.355   4.897
    2PMP    C54   54   4.419   1.256   4.955
    2PMP    O55   55   4.438   1.137   4.933
    2PMP    C56   56   4.509   1.491   4.921
    2PMP    C57   57   4.610   1.575   4.875
    2PMP    C58   58   4.788   1.738   4.693
    2PMP    C59   59   4.884   1.828   4.644
    2PMP    C60   60   4.844   1.954   4.581
    2PMP    C61   61   4.734   1.959   4.493
    2PMP    C62   62   4.696   2.079   4.433
    2PMP    C63   63   4.766   2.197   4.458
    2PMP    C64   64   4.720   2.326   4.398
    2PMP    C65   65   4.819   2.375   4.292
    2PMP    N66   66   4.692   2.431   4.496
    2PMP    C67   67   4.876   2.193   4.547
    2PMP    C68   68   4.912   2.073   4.608
    2PMP    C69   69   5.019   1.793   4.658
    2PMP    H70   70   5.205   1.448   4.723
    2PMP    H71   71   5.350   1.536   4.775
    2PMP    H72   72   5.212   1.526   4.885
    2PMP    H73   73   4.990   1.493   4.814
    2PMP    H74   74   4.808   1.344   4.724
    2PMP    H75   75   4.635   1.196   4.808
    2PMP    H76   76   4.429   1.537   4.977
    2PMP    H77   77   4.602   1.682   4.897
    2PMP    H78   78   4.683   1.764   4.684
    2PMP    H79   79   4.676   1.870   4.470
    2PMP    H80   80   4.608   2.080   4.368
    2PMP    H81   81   4.624   2.310   4.347
    2PMP    H82   82   4.918   2.396   4.335
    2PMP    H83   83   4.832   2.299   4.214
    2PMP    H84   84   4.783   2.466   4.244
    2PMP    H85   85   4.687   2.522   4.455
    2PMP    H86   86   4.929   2.285   4.572
    2PMP    H87   87   4.995   2.075   4.679
    2PMP    H88   88   5.096   1.860   4.619
    3PMP    C89   89   3.737   2.552   4.697
    3PMP    O90   90   3.753   2.693   4.693
    3PMP    C91   91   3.881   2.740   4.678
    3PMP    C92   92   3.997   2.662   4.664
    3PMP    C93   93   4.122   2.722   4.650
    3PMP    C94   94   4.246   2.642   4.637
    3PMP    C95   95   4.269   2.532   4.720
    3PMP    C96   96   4.387   2.458   4.707
    3PMP    C97   97   4.484   2.494   4.612
    3PMP    C98   98   4.601   2.404   4.597
    3PMP    O99   99   4.609   2.305   4.670
    3PMP   C100  100   4.462   2.604   4.530
    3PMP   C101  101   4.343   2.678   4.542
    3PMP   C102  102   4.130   2.862   4.648
    3PMP   C103  103   4.015   2.943   4.661
    3PMP   C104  104   4.026   3.089   4.658
    3PMP   C105  105   4.128   3.156   4.726
    3PMP   C106  106   4.139   3.295   4.723
    3PMP   C107  107   4.046   3.371   4.652
    3PMP   C108  108   4.061   3.521   4.646
    3PMP   C109  109   3.951   3.589   4.728
    3PMP   N110  110   4.067   3.574   4.510
    3PMP   C111  111   3.943   3.306   4.583
    3PMP   C112  112   3.934   3.167   4.585
    3PMP   C113  113   3.892   2.879   4.676
    3PMP   H114  114   3.791   2.508   4.781
    3PMP   H115  115   3.630   2.532   4.713
    3PMP   H116  116   3.766   2.506   4.603
    3PMP   H117  117   3.990   2.554   4.664
    3PMP   H118  118   4.197   2.502   4.795
    3PMP   H119  119   4.402   2.371   4.771
    3PMP   H120  120   4.531   2.637   4.454
    3PMP   H121  121   4.327   2.762   4.475
    3PMP   H122  122   4.227   2.911   4.636
    3PMP   H123  123   4.202   3.100   4.782
    3PMP   H124  124   4.221   3.343   4.775
    3PMP   H125  125   4.157   3.548   4.690
    3PMP   H126  126   3.852   3.568   4.688
    3PMP   H127  127   3.954   3.553   4.833
    3PMP   H128  128   3.965   3.698   4.729
    3PMP   H129  129   4.051   3.674   4.508
    3PMP   H130  130   3.872   3.363   4.523
    3PMP   H131  131   3.856   3.119   4.526
    3PMP   H132  132   3.801   2.938   4.687
    4PMP   C133  133   4.978   3.787   4.200
    4PMP   O134  134   4.930   3.908   4.144
    4PMP   C135  135   4.793   3.929   4.147
    4PMP   C136  136   4.698   3.844   4.202
    4PMP   C137  137   4.562   3.877   4.198
    4PMP   C138  138   4.459   3.788   4.255
    4PMP   C139  139   4.462   3.650   4.234
    4PMP   C140  140   4.363   3.567   4.287
    4PMP   C141  141   4.257   3.621   4.362
    4PMP   C142  142   4.162   3.524   4.423
    4PMP   O143  143   4.177   3.405   4.401
    4PMP   C144  144   4.253   3.758   4.384
    4PMP   C145  145   4.352   3.841   4.331
    4PMP   C146  146   4.524   3.999   4.138
    4PMP   C147  147   4.619   4.085   4.081
    4PMP   C148  148   4.577   4.211   4.017
    4PMP   C149  149   4.465   4.216   3.933
    4PMP   C150  150   4.423   4.336   3.876
    4PMP   C151  151   4.494   4.454   3.900
    4PMP   C152  152   4.440   4.584   3.845
    4PMP   C153  153   4.534   4.634   3.734
    4PMP   N154  154   4.417   4.686   3.948
    4PMP   C155  155   4.608   4.451   3.981
    4PMP   C156  156   4.648   4.331   4.041
    4PMP   C157  157   4.754   4.049   4.087
    4PMP   H158  158   4.938   3.700   4.146
    4PMP   H159  159   5.086   3.786   4.188
    4PMP   H160  160   4.955   3.782   4.307
    4PMP   H161  161   4.728   3.752   4.250
    4PMP   H162  162   4.541   3.604   4.175
    4PMP   H163  163   4.370   3.460   4.270
    4PMP   H164  164   4.175   3.807   4.442
    4PMP   H165  165   4.348   3.948   4.352
    4PMP   H166  166   4.419   4.026   4.135
    4PMP   H167  167   4.406   4.126   3.914
    4PMP   H168  168   4.333   4.337   3.815
    4PMP   H169  169   4.341   4.567   3.800
    4PMP   H170  170   4.634   4.656   3.772
    4PMP   H171  171   4.544   4.560   3.655
    4PMP   H172  172   4.495   4.726   3.689
    4PMP   H173  173   4.405   4.780   3.913
    4PMP   H174  174   4.661   4.542   4.005
    4PMP   H175  175   4.733   4.332   4.109
    4PMP   H176  176   4.829   4.112   4.043
    5CAP   C177  177   5.086   0.217   5.139
    5CAP   O178  178   4.958   0.206   5.078
    5CAP   H179  179   5.082   0.302   5.209
    5CAP   H180  180   5.160   0.239   5.062
    5CAP   H181  181   5.116   0.127   5.193
    6CAP   C182  182   4.300   4.348   4.239
    6CAP   C183  183   4.255   4.492   4.211
    6CAP   C184  184   4.109   4.489   4.163
    6CAP   C185  185   4.273   4.574   4.339
    6CAP   O186  186   4.339   4.540   4.103
    6CAP   C187  187   4.335   4.667   4.056
    6CAP   O188  188   4.267   4.758   4.100
    6CAP   H189  189   4.242   4.302   4.319
    6CAP   H190  190   4.289   4.286   4.149
    6CAP   H191  191   4.406   4.345   4.267
    6CAP   H192  192   4.102   4.437   4.067
    6CAP   H193  193   4.070   4.590   4.147
    6CAP   H194  194   4.044   4.439   4.236
    6CAP   H195  195   4.379   4.579   4.367
    6CAP   H196  196   4.237   4.676   4.328
    6CAP   H197  197   4.219   4.528   4.423
    1TCM     c1  198   4.339   0.333   2.678
    1TCM    cl1  199   4.318   0.396   2.843
    1TCM    cl2  200   4.512   0.326   2.639
    1TCM     h1  201   4.295   0.231   2.671
    1TCM    cl3  202   4.256   0.441   2.562
    1TCM     c1  203   1.753   2.595   4.371
    1TCM    cl1  204   1.617   2.682   4.445
    1TCM    cl2  205   1.690   2.474   4.257
    1TCM     h1  206   1.818   2.666   4.318
    1TCM    cl3  207   1.846   2.513   4.498
    1TCM     c1  208   1.905   2.337   0.978
    1TCM    cl1  209   1.773   2.405   1.075
    1TCM    cl2  210   1.867   2.356   0.805
    1TCM     h1  211   1.999   2.390   1.001
    1TCM    cl3  212   1.923   2.164   1.015
    1TCM     c1  213   2.653   0.653   3.831
    1TCM    cl1  214   2.624   0.487   3.774
    1TCM    cl2  215   2.824   0.695   3.805
    1TCM     h1  216   2.588   0.723   3.775
    1TCM    cl3  217   2.616   0.663   4.005
    1TCM     c1  218   2.244   1.780   2.832
    1TCM    cl1  219   2.221   1.631   2.927
    1TCM    cl2  220   2.104   1.804   2.725
    1TCM     h1  221   2.254   1.866   2.900
    1TCM    cl3  222   2.392   1.764   2.733
    1TCM     c1  223   5.039   1.271   0.552
    1TCM    cl1  224   5.103   1.163   0.678
    1TCM    cl2  225   5.131   1.424   0.553
    1TCM     h1  226   5.049   1.222   0.453
    1TCM    cl3  227   4.868   1.305   0.585
    1TCM     c1  228   2.928   0.763   2.515
    1TCM    cl1  229   3.074   0.785   2.415
    1TCM    cl2  230   2.925   0.598   2.580
    1TCM     h1  231   2.929   0.836   2.598
    1TCM    cl3  232   2.784   0.789   2.414
    1TCM     c1  233   3.764   4.057   4.798
    1TCM    cl1  234   3.889   4.178   4.834
    1TCM    cl2  235   3.841   3.906   4.745
    1TCM     h1  236   3.703   4.039   4.888
    1TCM    cl3  237   3.659   4.118   4.667
    1TCM     c1  238   0.779   4.151   3.471
    1TCM    cl1  239   0.722   4.263   3.345
    1TCM    cl2  240   0.639   4.070   3.546
    1TCM     h1  241   0.846   4.075   3.426
    1TCM    cl3  242   0.868   4.242   3.595
    1TCM     c1  243   3.901   1.342   2.605
    1TCM    cl1  244   3.837   1.462   2.490
    1TCM    cl2  245   3.950   1.424   2.754
    1TCM     h1  246   3.822   1.267   2.628
    1TCM    cl3  247   4.042   1.260   2.533
    1TCM     c1  248   4.914   3.084   4.483
    1TCM    cl1  249   4.999   3.188   4.600
    1TCM    cl2  250   4.982   3.112   4.321
    1TCM     h1  251   4.928   2.978   4.511
    1TCM    cl3  252   4.741   3.124   4.483
    1TCM     c1  253   0.586   2.889   1.462
    1TCM    cl1  254   0.696   2.757   1.418
    1TCM    cl2  255   0.426   2.859   1.392
    1TCM     h1  256   0.578   2.896   1.572
    1TCM    cl3  257   0.650   3.043   1.398
    1TCM     c1  258   1.561   2.114   2.333
    1TCM    cl1  259   1.433   2.079   2.215
    1TCM    cl2  260   1.491   2.130   2.495
    1TCM     h1  261   1.636   2.032   2.332
    1TCM    cl3  262   1.642   2.267   2.288
    1TCM     c1  263   4.283   4.418   0.746
    1TCM    cl1  264   4.199   4.393   0.590
    1TCM    cl2  265   4.211   4.558   0.829
    1TCM     h1  266   4.272   4.327   0.808
    1TCM    cl3  267   4.455   4.449   0.715
    1TCM     c1  268   2.565   5.272   3.797
    1TCM    cl1  269   2.664   5.338   3.930
    1TCM    cl2  270   2.632   5.326   3.641
    1TCM     h1  271   2.566   5.161   3.802
    1TCM    cl3  272   2.398   5.331   3.813
    1TCM     c1  273   2.793   1.804   3.076
    1TCM    cl1  274   2.618   1.832   3.055
    1TCM    cl2  275   2.847   1.880   3.228
    1TCM     h1  276   2.813   1.695   3.080
    1TCM    cl3  277   2.881   1.876   2.940
    1TCM     c1  278   0.689   3.118   5.014
    1TCM    cl1  279   0.772   2.977   4.945
    1TCM    cl2  280   0.532   3.067   5.082
    1TCM     h1  281   0.751   3.162   5.094
    1TCM    cl3  282   0.661   3.239   4.886
    1TCM     c1  283   4.597   3.554   2.148
    1TCM    cl1  284   4.625   3.383   2.110
    1TCM    cl2  285   4.606   3.577   2.325
    1TCM     h1  286   4.675   3.616   2.099
    1TCM    cl3  287   4.437   3.603   2.090
    1TCM     c1  288   5.241   3.708   4.929
    1TCM    cl1  289   5.128   3.625   4.819
    1TCM    cl2  290   5.262   3.611   5.077
    1TCM     h1  291   5.339   3.720   4.879
    1TCM    cl3  292   5.176   3.868   4.972
    1TCM     c1  293   2.153   1.157   3.536
    1TCM    cl1  294   2.065   1.311   3.530
    1TCM    cl2  295   2.307   1.180   3.623
    1TCM     h1  296   2.092   1.081   3.589
    1TCM    cl3  297   2.187   1.101   3.371
    1TCM     c1  298   1.292   1.805   2.743
    1TCM    cl1  299   1.385   1.868   2.881
    1TCM    cl2  300   1.275   1.629   2.758
    1TCM     h1  301   1.191   1.852   2.742
    1TCM    cl3  302   1.376   1.844   2.592
    1TCM     c1  303   3.061   4.722   4.837
    1TCM    cl1  304   2.931   4.646   4.932
    1TCM    cl2  305   2.992   4.796   4.691
    1TCM     h1  306   3.110   4.800   4.899
    1TCM    cl3  307   3.181   4.599   4.791
    1TCM     c1  308   2.711   2.467   2.009
    1TCM    cl1  309   2.820   2.476   2.149
    1TCM    cl2  310   2.721   2.619   1.916
    1TCM     h1  311   2.740   2.382   1.945
    1TCM    cl3  312   2.544   2.444   2.066
    1TCM     c1  313   2.730   2.038   5.079
    1TCM    cl1  314   2.811   1.891   5.139
    1TCM    cl2  315   2.669   2.008   4.914
    1TCM     h1  316   2.645   2.063   5.145
    1TCM    cl3  317   2.845   2.173   5.076
    1TCM     c1  318   4.863   0.278   1.326
    1TCM    cl1  319   4.967   0.139   1.287
    1TCM    cl2  320   4.867   0.307   1.501
    1TCM     h1  321   4.900   0.367   1.272
    1TCM    cl3  322   4.696   0.243   1.276
    1TCM     c1  323   3.098   0.901   1.190
    1TCM    cl1  324   3.087   0.871   1.365
    1TCM    cl2  325   3.089   0.746   1.103
    1TCM     h1  326   3.013   0.966   1.159
    1TCM    cl3  327   3.252   0.981   1.153
    1TCM     c1  328   3.950   3.247   1.883
    1TCM    cl1  329   4.120   3.251   1.831
    1TCM    cl2  330   3.845   3.300   1.750
    1TCM     h1  331   3.923   3.143   1.912
    1TCM    cl3  332   3.928   3.355   2.023
    1TCM     c1  333   1.154   0.997   3.706
    1TCM    cl1  334   1.229   0.848   3.642
    1TCM    cl2  335   1.145   0.986   3.883
    1TCM     h1  336   1.215   1.084   3.677
    1TCM    cl3  337   0.990   1.014   3.639
    1TCM     c1  338   2.785   3.648   3.346
    1TCM    cl1  339   2.641   3.615   3.445
    1TCM    cl2  340   2.831   3.819   3.363
    1TCM     h1  341   2.869   3.584   3.380
    1TCM    cl3  342   2.750   3.613   3.175
    1TCM     c1  343   0.315   0.927   2.466
    1TCM    cl1  344   0.476   0.952   2.538
    1TCM    cl2  345   0.251   0.769   2.516
    1TCM     h1  346   0.246   1.007   2.500
    1TCM    cl3  347   0.328   0.932   2.288
    1TCM     c1  348   4.952   1.991   2.134
    1TCM    cl1  349   5.034   1.952   2.287
    1TCM    cl2  350   5.019   1.889   2.004
    1TCM     h1  351   4.844   1.972   2.144
    1TCM    cl3  352   4.979   2.162   2.095
    1TCM     c1  353   1.296   3.521   2.335
    1TCM    cl1  354   1.233   3.543   2.500
    1TCM    cl2  355   1.343   3.679   2.269
    1TCM     h1  356   1.384   3.454   2.338
    1TCM    cl3  357   1.169   3.449   2.233
    1TCM     c1  358   3.905   1.484   2.024
    1TCM    cl1  359   3.952   1.391   1.880
    1TCM    cl2  360   3.937   1.388   2.170
    1TCM     h1  361   3.964   1.578   2.028
    1TCM    cl3  362   3.731   1.523   2.015
    1TCM     c1  363   0.829   2.325   2.260
    1TCM    cl1  364   0.795   2.366   2.090
    1TCM    cl2  365   0.869   2.473   2.350
    1TCM     h1  366   0.739   2.278   2.305
    1TCM    cl3  367   0.965   2.211   2.268
    1TCM     c1  368   2.258   3.812   1.787
    1TCM    cl1  369   2.151   3.950   1.822
    1TCM    cl2  370   2.246   3.693   1.919
    1TCM     h1  371   2.228   3.765   1.692
    1TCM    cl3  372   2.426   3.869   1.775
    1TCM     c1  373   1.017   4.563   1.136
    1TCM    cl1  374   0.918   4.581   1.283
    1TCM    cl2  375   1.033   4.720   1.056
    1TCM     h1  376   1.118   4.525   1.164
    1TCM    cl3  377   0.939   4.448   1.026
    1TCM     c1  378   0.221   1.277   4.832
    1TCM    cl1  379   0.368   1.197   4.893
    1TCM    cl2  380   0.259   1.444   4.785
    1TCM     h1  381   0.182   1.222   4.744
    1TCM    cl3  382   0.097   1.278   4.960
    1TCM     c1  383   1.327   3.893   4.789
    1TCM    cl1  384   1.213   3.800   4.689
    1TCM    cl2  385   1.350   4.054   4.716
    1TCM     h1  386   1.286   3.905   4.891
    1TCM    cl3  387   1.483   3.808   4.796
    1TCM     c1  388   0.327   0.736   4.838
    1TCM    cl1  389   0.215   0.818   4.727
    1TCM    cl2  390   0.240   0.691   4.986
    1TCM     h1  391   0.366   0.644   4.789
    1TCM    cl3  392   0.461   0.845   4.878
    1TCM     c1  393   1.102   4.295   2.253
    1TCM    cl1  394   1.169   4.152   2.170
    1TCM    cl2  395   1.082   4.427   2.136
    1TCM     h1  396   1.003   4.269   2.297
    1TCM    cl3  397   1.213   4.346   2.382
    1TCM     c1  398   3.682   4.128   0.167
    1TCM    cl1  399   3.568   4.157   0.301
    1TCM    cl2  400   3.672   3.957   0.117
    1TCM     h1  401   3.655   4.193   0.082
    1TCM    cl3  402   3.847   4.165   0.221
    1TCM     c1  403   1.654   1.548   1.453
    1TCM    cl1  404   1.626   1.418   1.335
    1TCM    cl2  405   1.584   1.501   1.610
    1TCM     h1  406   1.763   1.565   1.465
    1TCM    cl3  407   1.577   1.698   1.396
    1TCM     c1  408   3.499   0.683   2.373
    1TCM    cl1  409   3.533   0.849   2.320
    1TCM    cl2  410   3.636   0.578   2.333
    1TCM     h1  411   3.482   0.682   2.483
    1TCM    cl3  412   3.353   0.624   2.290
    1TCM     c1  413   0.143   0.641   1.946
    1TCM    cl1  414   0.002   0.591   2.043
    1TCM    cl2  415   0.243   0.499   1.908
    1TCM     h1  416   0.108   0.689   1.852
    1TCM    cl3  417   0.239   0.758   2.039
    1TCM     c1  418   3.885   2.586   1.155
    1TCM    cl1  419   3.788   2.561   1.008
    1TCM    cl2  420   4.010   2.459   1.166
    1TCM     h1  421   3.934   2.685   1.151
    1TCM    cl3  422   3.780   2.577   1.298
    1TCM     c1  423   4.949   1.817   3.407
    1TCM    cl1  424   4.926   1.643   3.375
    1TCM    cl2  425   5.042   1.837   3.557
    1TCM     h1  426   5.003   1.863   3.323
    1TCM    cl3  427   4.790   1.895   3.425
    1TCM     c1  428   2.084   3.575   2.445
    1TCM    cl1  429   1.914   3.626   2.446
    1TCM    cl2  430   2.145   3.572   2.612
    1TCM     h1  431   2.092   3.473   2.401
    1TCM    cl3  432   2.180   3.689   2.349
    1TCM     c1  433   0.584   0.250   4.871
    1TCM    cl1  434   0.626   0.264   5.043
    1TCM    cl2  435   0.517   0.404   4.814
    1TCM     h1  436   0.675   0.225   4.813
    1TCM    cl3  437   0.463   0.121   4.850
    1TCM     c1  438   4.558   0.640   4.519
    1TCM    cl1  439   4.458   0.777   4.467
    1TCM    cl2  440   4.635   0.679   4.674
    1TCM     h1  441   4.494   0.550   4.531
    1TCM    cl3  442   4.683   0.607   4.397
    1TCM     c1  443   3.888   4.736   1.535
    1TCM    cl1  444   3.944   4.741   1.703
    1TCM    cl2  445   4.019   4.786   1.426
    1TCM     h1  446   3.856   4.633   1.510
    1TCM    cl3  447   3.750   4.847   1.515
    1TCM     c1  448   4.488   4.566   4.912
    1TCM    cl1  449   4.657   4.511   4.908
    1TCM    cl2  450   4.400   4.497   4.773
    1TCM     h1  451   4.440   4.532   5.006
    1TCM    cl3  452   4.483   4.744   4.903
    1TCM     c1  453   4.056   4.269   1.688
    1TCM    cl1  454   3.990   4.143   1.581
    1TCM    cl2  455   4.074   4.204   1.852
    1TCM     h1  456   4.155   4.301   1.650
    1TCM    cl3  457   3.945   4.408   1.691
    1TCM     c1  458   3.880   4.077   3.416
    1TCM    cl1  459   3.912   4.242   3.360
    1TCM    cl2  460   4.034   3.989   3.432
    1TCM     h1  461   3.829   4.080   3.515
    1TCM    cl3  462   3.776   3.993   3.299
    1TCM     c1  463   0.375   0.920   3.414
    1TCM    cl1  464   0.254   0.828   3.507
    1TCM    cl2  465   0.322   0.934   3.245
    1TCM     h1  466   0.387   1.021   3.458
    1TCM    cl3  467   0.531   0.834   3.420
    1TCM     c1  468   3.030   2.632   2.872
    1TCM    cl1  469   2.880   2.560   2.934
    1TCM    cl2  470   3.019   2.809   2.882
    1TCM     h1  471   3.116   2.597   2.933
    1TCM    cl3  472   3.054   2.583   2.703
    1TCM     c1  473   3.639   2.372   2.464
    1TCM    cl1  474   3.656   2.230   2.359
    1TCM    cl2  475   3.531   2.332   2.600
    1TCM     h1  476   3.739   2.400   2.504
    1TCM    cl3  477   3.571   2.507   2.372
    1TCM     c1  478   5.031   0.673   2.424
    1TCM    cl1  479   4.915   0.737   2.306
    1TCM    cl2  480   4.948   0.646   2.580
    1TCM     h1  481   5.072   0.576   2.387
    1TCM    cl3  482   5.163   0.789   2.447
    1TCM     c1  483   0.406   0.179   3.073
    1TCM    cl1  484   0.296   0.176   3.213
    1TCM    cl2  485   0.323   0.250   2.934
    1TCM     h1  486   0.496   0.240   3.098
    1TCM    cl3  487   0.456   0.013   3.034
    1TCM     c1  488   5.242   3.693   1.313
    1TCM    cl1  489   5.089   3.663   1.397
    1TCM    cl2  490   5.338   3.812   1.404
    1TCM     h1  491   5.299   3.599   1.304
    1TCM    cl3  492   5.209   3.757   1.150
    1TCM     c1  493   1.509   3.289   0.948
    1TCM    cl1  494   1.419   3.323   0.798
    1TCM    cl2  495   1.507   3.433   1.052
    1TCM     h1  496   1.460   3.204   1.002
    1TCM    cl3  497   1.677   3.246   0.909
    1TCM     c1  498   2.844   4.448   4.182
    1TCM    cl1  499   2.674   4.402   4.205
    1TCM    cl2  500   2.852   4.589   4.074
    1TCM     h1  501   2.889   4.474   4.280
    1TCM    cl3  502   2.933   4.312   4.109
    1TCM     c1  503   4.624   1.634   0.341
    1TCM    cl1  504   4.689   1.799   0.349
    1TCM    cl2  505   4.610   1.568   0.506
    1TCM     h1  506   4.523   1.636   0.293
    1TCM    cl3  507   4.733   1.531   0.245
    1TCM     c1  508   2.925   4.767   4.398
    1TCM    cl1  509   2.778   4.746   4.497
    1TCM    cl2  510   2.879   4.791   4.228
    1TCM     h1  511   2.981   4.856   4.435
    1TCM    cl3  512   3.027   4.623   4.413
    1TCM     c1  513   3.765   4.218   2.092
    1TCM    cl1  514   3.747   4.380   2.022
    1TCM    cl2  515   3.753   4.229   2.270
    1TCM     h1  516   3.685   4.152   2.054
    1TCM    cl3  517   3.924   4.152   2.048
    1TCM     c1  518   0.890   0.205   3.431
    1TCM    cl1  519   0.754   0.272   3.338
    1TCM    cl2  520   0.857   0.221   3.605
    1TCM     h1  521   0.903   0.098   3.406
    1TCM    cl3  522   1.039   0.294   3.391
    1TCM     c1  523   0.957   1.409   2.668
    1TCM    cl1  524   0.875   1.494   2.801
    1TCM    cl2  525   0.966   1.515   2.526
    1TCM     h1  526   1.059   1.381   2.700
    1TCM    cl3  527   0.865   1.262   2.627
    1TCM     c1  528   1.229   0.776   2.385
    1TCM    cl1  529   1.242   0.860   2.229
    1TCM    cl2  530   1.288   0.609   2.368
    1TCM     h1  531   1.289   0.830   2.461
    1TCM    cl3  532   1.058   0.774   2.437
    1TCM     c1  533   2.853   1.103   3.851
    1TCM    cl1  534   2.815   1.178   3.694
    1TCM    cl2  535   2.931   1.223   3.956
    1TCM     h1  536   2.759   1.068   3.899
    1TCM    cl3  537   2.963   0.966   3.827
    1TCM     c1  538   4.630   5.137   1.277
    1TCM    cl1  539   4.605   5.088   1.108
    1TCM    cl2  540   4.768   5.048   1.346
    1TCM     h1  541   4.650   5.246   1.281
    1TCM    cl3  542   4.483   5.101   1.372
    1TCM     c1  543   0.513   4.429   0.333
    1TCM    cl1  544   0.585   4.481   0.178
    1TCM    cl2  545   0.615   4.485   0.467
    1TCM     h1  546   0.412   4.472   0.342
    1TCM    cl3  547   0.502   4.252   0.336
    1TCM     c1  548   2.394   3.451   2.254
    1TCM    cl1  549   2.509   3.516   2.135
    1TCM    cl2  550   2.395   3.554   2.400
    1TCM     h1  551   2.292   3.450   2.211
    1TCM    cl3  552   2.442   3.286   2.299
    1TCM     c1  553   0.363   3.143   1.093
    1TCM    cl1  554   0.498   3.252   1.051
    1TCM    cl2  555   0.276   3.208   1.233
    1TCM     h1  556   0.294   3.135   1.006
    1TCM    cl3  557   0.428   2.982   1.132
    1TCM     c1  558   3.340   3.617   1.049
    1TCM    cl1  559   3.318   3.608   0.873
    1TCM    cl2  560   3.388   3.782   1.094
    1TCM     h1  561   3.245   3.590   1.100
    1TCM    cl3  562   3.467   3.503   1.098
    1TCM     c1  563   3.256   2.973   4.990
    1TCM    cl1  564   3.115   3.000   5.094
    1TCM    cl2  565   3.218   3.024   4.824
    1TCM     h1  566   3.342   3.032   5.028
    1TCM    cl3  567   3.298   2.800   4.990
    1TCM     c1  568   1.157   1.179   1.925
    1TCM    cl1  569   1.004   1.145   1.841
    1TCM    cl2  570   1.186   1.053   2.048
    1TCM     h1  571   1.240   1.178   1.852
    1TCM    cl3  572   1.148   1.338   2.004
    1TCM     c1  573   1.961   2.662   4.735
    1TCM    cl1  574   2.092   2.557   4.794
    1TCM    cl2  575   1.946   2.803   4.842
    1TCM     h1  576   1.985   2.696   4.632
    1TCM    cl3  577   1.809   2.571   4.734
    1TCM     c1  578   2.134   4.095   4.217
    1TCM    cl1  579   1.981   4.157   4.282
    1TCM    cl2  580   2.157   4.157   4.052
    1TCM     h1  581   2.218   4.129   4.281
    1TCM    cl3  582   2.130   3.917   4.213
    1TCM     c1  583   0.779   0.342   0.164
    1TCM    cl1  584   0.836   0.207   0.063
    1TCM    cl2  585   0.619   0.395   0.106
    1TCM     h1  586   0.771   0.308   0.269
    1TCM    cl3  587   0.894   0.477   0.154
    1TCM     c1  588   1.115   0.550   2.976
    1TCM    cl1  589   1.210   0.684   3.043
    1TCM    cl2  590   1.219   0.406   2.959
    1TCM     h1  591   1.031   0.527   3.045
    1TCM    cl3  592   1.050   0.596   2.817
    1TCM     c1  593   4.487   3.124   3.212
    1TCM    cl1  594   4.619   3.240   3.185
    1TCM    cl2  595   4.388   3.179   3.350
    1TCM     h1  596   4.424   3.118   3.121
    1TCM    cl3  597   4.555   2.964   3.249
    1TCM     c1  598   3.180   4.747   5.219
    1TCM    cl1  599   3.038   4.768   5.114
    1TCM    cl2  600   3.322   4.707   5.120
    1TCM     h1  601   3.199   4.841   5.275
    1TCM    cl3  602   3.149   4.615   5.335
    1TCM     c1  603   1.790   0.124   3.556
    1TCM    cl1  604   1.737   0.278   3.625
    1TCM    cl2  605   1.653   0.011   3.551
    1TCM     h1  606   1.828   0.140   3.454
    1TCM    cl3  607   1.919   0.055   3.657
    1TCM     c1  608   0.928   0.672   3.973
    1TCM    cl1  609   0.856   0.752   4.115
    1TCM    cl2  610   1.031   0.538   4.026
    1TCM     h1  611   0.848   0.634   3.908
    1TCM    cl3  612   1.026   0.790   3.883
    1TCM     c1  613   2.055   5.139   2.401
    1TCM    cl1  614   1.943   5.202   2.277
    1TCM    cl2  615   1.961   5.056   2.528
    1TCM     h1  616   2.125   5.067   2.354
    1TCM    cl3  617   2.146   5.273   2.472
    1TCM     c1  618   1.196   1.160   2.370
    1TCM    cl1  619   1.191   1.308   2.468
    1TCM    cl2  620   1.242   1.200   2.203
    1TCM     h1  621   1.270   1.089   2.413
    1TCM    cl3  622   1.035   1.083   2.370
    1TCM     c1  623   1.606   1.642   0.170
    1TCM    cl1  624   1.667   1.790   0.246
    1TCM    cl2  625   1.505   1.553   0.286
    1TCM     h1  626   1.546   1.668   0.081
    1TCM    cl3  627   1.743   1.540   0.121
    1TCM     c1  628   4.220   3.116   2.485
    1TCM    cl1  629   4.288   2.974   2.567
    1TCM    cl2  630   4.190   3.077   2.314
    1TCM     h1  631   4.125   3.145   2.534
    1TCM    cl3  632   4.335   3.251   2.495
    1TCM     c1  633   3.022   4.827   1.390
    1TCM    cl1  634   2.894   4.886   1.498
    1TCM    cl2  635   3.003   4.902   1.230
    1TCM     h1  636   3.121   4.854   1.432
    1TCM    cl3  637   3.010   4.650   1.374
    1TCM     c1  638   4.336   2.467   3.328
    1TCM    cl1  639   4.258   2.316   3.274
    1TCM    cl2  640   4.426   2.436   3.478
    1TCM     h1  641   4.406   2.502   3.250
    1TCM    cl3  642   4.212   2.591   3.358
    1TCM     c1  643   4.265   0.762   3.702
    1TCM    cl1  644   4.440   0.777   3.672
    1TCM    cl2  645   4.237   0.644   3.833
    1TCM     h1  646   4.224   0.861   3.732
    1TCM    cl3  647   4.184   0.706   3.554
    1TCM     c1  648   4.257   1.057   3.359
    1TCM    cl1  649   4.185   1.194   3.447
    1TCM    cl2  650   4.187   1.047   3.196
    1TCM     h1  651   4.367   1.072   3.351
    1TCM    cl3  652   4.224   0.906   3.447
    1TCM     c1  653   2.142   0.278   3.348
    1TCM    cl1  654   2.126   0.267   3.524
    1TCM    cl2  655   2.244   0.418   3.306
    1TCM     h1  656   2.189   0.185   3.309
    1TCM    cl3  657   1.981   0.298   3.274
    1TCM     c1  658   0.531   4.470   3.675
    1TCM    cl1  659   0.603   4.599   3.774
    1TCM    cl2  660   0.551   4.511   3.503
    1TCM     h1  661   0.582   4.374   3.697
    1TCM    cl3  662   0.358   4.455   3.713
    1TCM     c1  663   0.310   1.927   4.800
    1TCM    cl1  664   0.302   2.093   4.864
    1TCM    cl2  665   0.336   1.932   4.625
    1TCM     h1  666   0.393   1.873   4.849
    1TCM    cl3  667   0.157   1.844   4.835
    1TCM     c1  668   1.055   5.098   5.167
    1TCM    cl1  669   1.115   5.200   5.300
    1TCM    cl2  670   0.922   4.996   5.225
    1TCM     h1  671   1.018   5.163   5.084
    1TCM    cl3  672   1.187   4.995   5.107
    1TCM     c1  673   0.868   2.295   1.234
    1TCM    cl1  674   0.952   2.144   1.191
    1TCM    cl2  675   0.831   2.295   1.408
    1TCM     h1  676   0.934   2.381   1.210
    1TCM    cl3  677   0.717   2.307   1.141
    1TCM     c1  678   4.834   1.698   2.326
    1TCM    cl1  679   4.726   1.833   2.366
    1TCM    cl2  680   4.939   1.744   2.190
    1TCM     h1  681   4.897   1.674   2.415
    1TCM    cl3  682   4.738   1.556   2.281
    1TCM     c1  683   2.936   1.336   2.600
    1TCM    cl1  684   2.808   1.430   2.681
    1TCM    cl2  685   2.931   1.367   2.425
    1TCM     h1  686   3.035   1.366   2.640
    1TCM    cl3  687   2.911   1.163   2.630
    1TCM     c1  688   3.210   0.549   2.666
    1TCM    cl1  689   3.278   0.393   2.717
    1TCM    cl2  690   3.332   0.676   2.687
    1TCM     h1  691   3.180   0.543   2.560
    1TCM    cl3  692   3.068   0.587   2.766
    1TCM     c1  693   2.367   4.726   1.101
    1TCM    cl1  694   2.318   4.574   1.179
    1TCM    cl2  695   2.283   4.742   0.945
    1TCM     h1  696   2.340   4.812   1.166
    1TCM    cl3  697   2.543   4.725   1.073
    1TCM     c1  698   0.568   3.446   4.078
    1TCM    cl1  699   0.538   3.354   3.929
    1TCM    cl2  700   0.578   3.334   4.216
    1TCM     h1  701   0.663   3.502   4.068
    1TCM    cl3  702   0.434   3.561   4.104
    1TCM     c1  703   2.595   0.106   1.798
    1TCM    cl1  704   2.567   0.262   1.879
    1TCM    cl2  705   2.635   0.135   1.627
    1TCM     h1  706   2.680   0.054   1.847
    1TCM    cl3  707   2.449   0.006   1.809
    1TCM     c1  708   2.658   4.853   3.665
    1TCM    cl1  709   2.774   4.852   3.799
    1TCM    cl2  710   2.737   4.790   3.518
    1TCM     h1  711   2.571   4.790   3.690
    1TCM    cl3  712   2.604   5.020   3.635
    1TCM     c1  713   3.631   3.643   4.670
    1TCM    cl1  714   3.472   3.709   4.627
    1TCM    cl2  715   3.645   3.633   4.847
    1TCM     h1  716   3.643   3.542   4.626
    1TCM    cl3  717   3.758   3.750   4.607
    1TCM     c1  718   1.846   0.214   4.839
    1TCM    cl1  719   1.801   0.221   5.011
    1TCM    cl2  720   2.021   0.183   4.825
    1TCM     h1  721   1.790   0.133   4.789
    1TCM    cl3  722   1.807   0.369   4.761
    1TCM     c1  723   3.406   3.786   1.892
    1TCM    cl1  724   3.372   3.637   1.983
    1TCM    cl2  725   3.477   3.743   1.734
    1TCM     h1  726   3.312   3.842   1.876
    1TCM    cl3  727   3.521   3.886   1.983
    1TCM     c1  728   0.171   2.795   2.148
    1TCM    cl1  729   0.270   2.917   2.064
    1TCM    cl2  730   0.167   2.832   2.322
    1TCM     h1  731   0.068   2.796   2.106
    1TCM    cl3  732   0.243   2.634   2.123
    1TCM     c1  733   1.887   0.896   3.543
    1TCM    cl1  734   2.024   0.839   3.446
    1TCM    cl2  735   1.941   0.927   3.710
    1TCM     h1  736   1.846   0.989   3.499
    1TCM    cl3  737   1.759   0.771   3.545
    1TCM     c1  738   1.439   4.570   3.665
    1TCM    cl1  739   1.345   4.574   3.816
    1TCM    cl2  740   1.520   4.413   3.649
    1TCM     h1  741   1.371   4.586   3.579
    1TCM    cl3  742   1.561   4.700   3.668
    1TCM     c1  743   1.268   3.273   3.559
    1TCM    cl1  744   1.099   3.329   3.544
    1TCM    cl2  745   1.354   3.307   3.407
    1TCM     h1  746   1.317   3.326   3.642
    1TCM    cl3  747   1.269   3.098   3.591
    1TCM     c1  748   4.871   2.346   2.491
    1TCM    cl1  749   4.811   2.265   2.637
    1TCM    cl2  750   4.805   2.511   2.484
    1TCM     h1  751   4.982   2.351   2.495
    1TCM    cl3  752   4.820   2.255   2.347
    1TCM     c1  753   2.371   1.356   1.905
    1TCM    cl1  754   2.482   1.226   1.855
    1TCM    cl2  755   2.316   1.445   1.761
    1TCM     h1  756   2.283   1.312   1.957
    1TCM    cl3  757   2.456   1.467   2.015
    1TCM     c1  758   1.322   0.108   3.764
    1TCM    cl1  759   1.371   0.018   3.619
    1TCM    cl2  760   1.356   0.011   3.908
    1TCM     h1  761   1.380   0.203   3.769
    1TCM    cl3  762   1.148   0.145   3.755
    1TCM     c1  763   4.371   3.814   2.791
    1TCM    cl1  764   4.390   3.966   2.881
    1TCM    cl2  765   4.497   3.804   2.665
    1TCM     h1  766   4.382   3.728   2.861
    1TCM    cl3  767   4.211   3.809   2.714
    1TCM     c1  768   4.489   1.366   4.031
    1TCM    cl1  769   4.420   1.445   4.174
    1TCM    cl2  770   4.530   1.489   3.910
    1TCM     h1  771   4.580   1.310   4.060
    1TCM    cl3  772   4.369   1.254   3.962
    1TCM     c1  773   3.890   2.040   2.628
    1TCM    cl1  774   3.723   1.993   2.588
    1TCM    cl2  775   3.939   1.958   2.778
    1TCM     h1  776   3.958   2.009   2.546
    1TCM    cl3  777   3.899   2.216   2.651
    1TCM     c1  778   5.005   4.027   3.290
    1TCM    cl1  779   5.125   4.131   3.369
    1TCM    cl2  780   4.890   4.128   3.198
    1TCM     h1  781   5.056   3.958   3.220
    1TCM    cl3  782   4.916   3.934   3.413
    1TCM     c1  783   0.457   1.808   0.614
    1TCM    cl1  784   0.508   1.946   0.713
    1TCM    cl2  785   0.535   1.817   0.454
    1TCM     h1  786   0.488   1.713   0.664
    1TCM    cl3  787   0.281   1.810   0.595
    1TCM     c1  788   3.648   1.840   3.640
    1TCM    cl1  789   3.793   1.816   3.741
    1TCM    cl2  790   3.683   1.791   3.473
    1TCM     h1  791   3.565   1.778   3.680
    1TCM    cl3  792   3.602   2.011   3.643
    1TCM     c1  793   1.375   2.411   3.008
    1TCM    cl1  794   1.378   2.233   2.999
    1TCM    cl2  795   1.368   2.461   3.178
    1TCM     h1  796   1.467   2.452   2.961
    1TCM    cl3  797   1.232   2.473   2.922
    1TCM     c1  798   0.311   3.057   0.112
    1TCM    cl1  799   0.476   3.113   0.145
    1TCM    cl2  800   0.200   3.123   0.235
    1TCM     h1  801   0.279   3.092   0.011
    1TCM    cl3  802   0.306   2.879   0.117
    1TCM     c1  803   0.800   4.625   4.974
    1TCM    cl1  804   0.727   4.632   5.136
    1TCM    cl2  805   0.671   4.633   4.852
    1TCM     h1  806   0.869   4.710   4.961
    1TCM    cl3  807   0.889   4.472   4.956
    1TCM     c1  808   4.704   4.800   0.197
    1TCM    cl1  809   4.760   4.929   0.089
    1TCM    cl2  810   4.682   4.865   0.361
    1TCM     h1  811   4.607   4.760   0.160
    1TCM    cl3  812   4.824   4.669   0.201
    1TCM     c1  813   0.787   1.711   0.636
    1TCM    cl1  814   0.957   1.742   0.678
    1TCM    cl2  815   0.698   1.661   0.782
    1TCM     h1  816   0.742   1.803   0.595
    1TCM    cl3  817   0.779   1.581   0.515
    1TCM     c1  818   2.451   0.341   3.508
    1TCM    cl1  819   2.434   0.202   3.399
    1TCM    cl2  820   2.325   0.335   3.633
    1TCM     h1  821   2.551   0.338   3.557
    1TCM    cl3  822   2.436   0.492   3.415
    1TCM     c1  823   0.585   1.489   3.316
    1TCM    cl1  824   0.536   1.588   3.177
    1TCM    cl2  825   0.514   1.557   3.464
    1TCM     h1  826   0.549   1.385   3.302
    1TCM    cl3  827   0.762   1.489   3.330
    1TCM     c1  828   0.315   4.491   4.986
    1TCM    cl1  829   0.374   4.638   4.906
    1TCM    cl2  830   0.383   4.348   4.904
    1TCM     h1  831   0.347   4.491   5.092
    1TCM    cl3  832   0.138   4.485   4.977
    1TCM     c1  833   4.325   1.420   2.219
    1TCM    cl1  834   4.309   1.543   2.092
    1TCM    cl2  835   4.492   1.417   2.278
    1TCM     h1  836   4.256   1.445   2.303
    1TCM    cl3  837   4.282   1.260   2.154
    1TCM     c1  838   1.484   0.667   1.798
    1TCM    cl1  839   1.614   0.582   1.711
    1TCM    cl2  840   1.553   0.749   1.940
    1TCM     h1  841   1.437   0.742   1.732
    1TCM    cl3  842   1.362   0.550   1.852
    1TCM     c1  843   0.139   5.087   3.594
    1TCM    cl1  844   0.000   5.108   3.703
    1TCM    cl2  845   0.085   5.099   3.425
    1TCM     h1  846   0.214   5.166   3.614
    1TCM    cl3  847   0.212   4.927   3.622
    1TCM     c1  848   2.015   1.942   3.546
    1TCM    cl1  849   2.141   2.047   3.478
    1TCM    cl2  850   1.996   1.976   3.719
    1TCM     h1  851   1.919   1.962   3.494
    1TCM    cl3  852   2.061   1.772   3.523
    1TCM     c1  853   2.692   3.589   3.821
    1TCM    cl1  854   2.861   3.625   3.865
    1TCM    cl2  855   2.589   3.726   3.868
    1TCM     h1  856   2.685   3.573   3.711
    1TCM    cl3  857   2.638   3.442   3.906
    1TCM     c1  858   0.892   1.387   3.734
    1TCM    cl1  859   0.958   1.550   3.711
    1TCM    cl2  860   0.909   1.295   3.583
    1TCM     h1  861   0.948   1.335   3.815
    1TCM    cl3  862   0.720   1.397   3.779
    1TCM     c1  863   0.762   4.425   1.921
    1TCM    cl1  864   0.621   4.500   1.842
    1TCM    cl2  865   0.826   4.296   1.817
    1TCM     h1  866   0.840   4.502   1.938
    1TCM    cl3  867   0.713   4.356   2.078
    1TCM     c1  868   3.677   4.171   2.605
    1TCM    cl1  869   3.551   4.158   2.480
    1TCM    cl2  870   3.835   4.195   2.528
    1TCM     h1  871   3.655   4.256   2.672
    1TCM    cl3  872   3.681   4.021   2.701
    1TCM     c1  873   0.593   2.543   3.525
    1TCM    cl1  874   0.630   2.675   3.639
    1TCM    cl2  875   0.728   2.524   3.410
    1TCM     h1  876   0.579   2.449   3.581
    1TCM    cl3  877   0.445   2.582   3.436
    1TCM     c1  878   1.830   3.805   1.736
    1TCM    cl1  879   1.665   3.803   1.669
    1TCM    cl2  880   1.943   3.737   1.617
    1TCM     h1  881   1.859   3.910   1.759
    1TCM    cl3  882   1.834   3.708   1.885
    1TCM     c1  883   1.689   1.573   2.685
    1TCM    cl1  884   1.569   1.661   2.589
    1TCM    cl2  885   1.636   1.566   2.855
    1TCM     h1  886   1.701   1.470   2.646
    1TCM    cl3  887   1.846   1.657   2.677
    1TCM     c1  888   3.941   0.112   4.043
    1TCM    cl1  889   4.031   0.004   4.153
    1TCM    cl2  890   3.940   0.042   3.880
    1TCM     h1  891   3.837   0.122   4.080
    1TCM    cl3  892   4.019   0.271   4.039
    1TCM     c1  893   0.134   4.553   4.577
    1TCM    cl1  894   0.296   4.596   4.517
    1TCM    cl2  895   0.144   4.512   4.750
    1TCM     h1  896   0.065   4.639   4.564
    1TCM    cl3  897   0.072   4.413   4.487
    1TCM     c1  898   1.122   1.559   0.820
    1TCM    cl1  899   1.176   1.656   0.680
    1TCM    cl2  900   1.034   1.663   0.934
    1TCM     h1  901   1.055   1.478   0.785
    1TCM    cl3  902   1.263   1.488   0.901
    1TCM     c1  903   2.731   2.766   0.358
    1TCM    cl1  904   2.818   2.839   0.495
    1TCM    cl2  905   2.847   2.724   0.230
    1TCM     h1  906   2.679   2.674   0.392
    1TCM    cl3  907   2.612   2.882   0.295
    1TCM     c1  908   3.670   1.329   3.440
    1TCM    cl1  909   3.777   1.302   3.579
    1TCM    cl2  910   3.590   1.177   3.395
    1TCM     h1  911   3.593   1.405   3.467
    1TCM    cl3  912   3.766   1.389   3.303
    1TCM     c1  913   3.521   0.283   1.940
    1TCM    cl1  914   3.533   0.428   2.043
    1TCM    cl2  915   3.566   0.325   1.773
    1TCM     h1  916   3.589   0.205   1.978
    1TCM    cl3  917   3.353   0.223   1.943
    1TCM     c1  918   4.125   2.672   1.515
    1TCM    cl1  919   4.178   2.642   1.682
    1TCM    cl2  920   4.268   2.693   1.411
    1TCM     h1  921   4.066   2.585   1.480
    1TCM    cl3  922   4.025   2.819   1.510
    1TCM     c1  923   2.967   4.236   2.735
    1TCM    cl1  924   3.072   4.156   2.855
    1TCM    cl2  925   3.062   4.275   2.590
    1TCM     h1  926   2.884   4.167   2.707
    1TCM    cl3  927   2.899   4.385   2.804
    1TCM     c1  928   4.459   1.117   2.780
    1TCM    cl1  929   4.364   1.253   2.714
    1TCM    cl2  930   4.514   1.013   2.647
    1TCM     h1  931   4.547   1.157   2.835
    1TCM    cl3  932   4.357   1.022   2.891
    1TCM     c1  933   0.948   2.108   4.936
    1TCM    cl1  934   0.904   2.038   5.093
    1TCM    cl2  935   0.833   2.052   4.812
    1TCM     h1  936   0.944   2.219   4.942
    1TCM    cl3  937   1.112   2.057   4.892
    1TCM     c1  938   2.259   4.656   4.728
    1TCM    cl1  939   2.220   4.541   4.858
    1TCM    cl2  940   2.171   4.610   4.580
    1TCM     h1  941   2.229   4.758   4.758
    1TCM    cl3  942   2.434   4.652   4.696
    1TCM     c1  943   2.362   5.190   4.988
    1TCM    cl1  944   2.293   5.291   4.858
    1TCM    cl2  945   2.233   5.139   5.098
    1TCM     h1  946   2.410   5.101   4.943
    1TCM    cl3  947   2.483   5.284   5.078
    1TCM     c1  948   2.039   1.326   3.044
    1TCM    cl1  949   1.868   1.277   3.033
    1TCM    cl2  950   2.089   1.326   3.215
    1TCM     h1  951   2.101   1.254   2.987
    1TCM    cl3  952   2.058   1.489   2.977
    1TCM     c1  953   1.936   2.226   5.135
    1TCM    cl1  954   2.091   2.139   5.141
    1TCM    cl2  955   1.900   2.294   5.295
    1TCM     h1  956   1.942   2.308   5.061
    1TCM    cl3  957   1.806   2.114   5.088
    1TCM     c1  958   2.288   1.880   1.637
    1TCM    cl1  959   2.283   2.032   1.730
    1TCM    cl2  960   2.226   1.911   1.473
    1TCM     h1  961   2.393   1.844   1.630
    1TCM    cl3  962   2.187   1.758   1.716
    1TCM     c1  963   2.759   2.763   0.905
    1TCM    cl1  964   2.686   2.923   0.928
    1TCM    cl2  965   2.934   2.781   0.875
    1TCM     h1  966   2.744   2.702   0.997
    1TCM    cl3  967   2.683   2.682   0.767
    1TCM     c1  968   3.065   1.878   1.996
    1TCM    cl1  969   2.940   1.997   2.037
    1TCM    cl2  970   2.998   1.714   2.009
    1TCM     h1  971   3.100   1.896   1.892
    1TCM    cl3  972   3.202   1.895   2.108
    1TCM     c1  973   4.648   4.639   2.796
    1TCM    cl1  974   4.599   4.498   2.700
    1TCM    cl2  975   4.565   4.635   2.954
    1TCM     h1  976   4.757   4.638   2.812
    1TCM    cl3  977   4.602   4.788   2.710
    1TCM     c1  978   3.198   0.424   4.920
    1TCM    cl1  979   3.197   0.281   4.813
    1TCM    cl2  980   3.071   0.407   5.043
    1TCM     h1  981   3.297   0.431   4.970
    1TCM    cl3  982   3.169   0.570   4.823
    1TCM     c1  983   3.983   3.991   4.189
    1TCM    cl1  984   3.940   4.068   4.343
    1TCM    cl2  985   3.926   4.092   4.054
    1TCM     h1  986   4.093   3.979   4.183
    1TCM    cl3  987   3.906   3.831   4.179
    1TCM     c1  988   1.972   1.324   2.593
    1TCM    cl1  989   2.064   1.416   2.471
    1TCM    cl2  990   1.966   1.416   2.745
    1TCM     h1  991   1.869   1.306   2.556
    1TCM    cl3  992   2.052   1.168   2.622
    1TCM     c1  993   2.678   0.495   0.168
    1TCM    cl1  994   2.738   0.334   0.214
    1TCM    cl2  995   2.501   0.497   0.175
    1TCM     h1  996   2.719   0.571   0.238
    1TCM    cl3  997   2.732   0.532   0.002
    1TCM     c1  998   2.407   2.922   2.054
    1TCM    cl1  999   2.356   3.077   1.982
    1TCM    cl2 1000   2.569   2.940   2.125
    1TCM     h1 1001   2.335   2.893   2.134
    1TCM    cl3 1002   2.411   2.797   1.928
    1TCM     c1 1003   1.136   4.927   1.624
    1TCM    cl1 1004   1.160   4.821   1.765
    1TCM    cl2 1005   1.233   5.075   1.644
    1TCM     h1 1006   1.168   4.874   1.532
    1TCM    cl3 1007   0.964   4.970   1.610
    1TCM     c1 1008   4.288   2.319   4.424
    1TCM    cl1 1009   4.151   2.343   4.535
    1TCM    cl2 1010   4.244   2.373   4.261
    1TCM     h1 1011   4.375   2.378   4.460
    1TCM    cl3 1012   4.332   2.147   4.420
    1TCM     c1 1013   1.911   5.038   5.219
    1TCM    cl1 1014   1.984   5.199   5.237
    1TCM    cl2 1015   1.752   5.037   5.299
    1TCM     h1 1016   1.898   5.016   5.111
    1TCM    cl3 1017   2.016   4.916   5.294
    1TCM     c1 1018   3.438   3.852   0.598
    1TCM    cl1 1019   3.584   3.910   0.515
    1TCM    cl2 1020   3.482   3.789   0.758
    1TCM     h1 1021   3.366   3.936   0.610
    1TCM    cl3 1022   3.362   3.723   0.502
    1TCM     c1 1023   4.641   0.989   1.084
    1TCM    cl1 1024   4.644   0.816   1.042
    1TCM    cl2 1025   4.743   1.079   0.970
    1TCM     h1 1026   4.537   1.027   1.078
    1TCM    cl3 1027   4.702   1.011   1.249
    1TCM     c1 1028   4.224   1.861   1.997
    1TCM    cl1 1029   4.218   1.886   2.173
    1TCM    cl2 1030   4.129   1.717   1.954
    1TCM     h1 1031   4.182   1.950   1.946
    1TCM    cl3 1032   4.393   1.838   1.946
    1TCM     c1 1033   4.119   1.725   0.161
    1TCM    cl1 1034   4.075   1.857   0.272
    1TCM    cl2 1035   4.263   1.641   0.223
    1TCM     h1 1036   4.035   1.653   0.154
    1TCM    cl3 1037   4.154   1.792   0.000
    1TCM     c1 1038   3.930   3.164   4.969
    1TCM    cl1 1039   3.779   3.074   4.995
    1TCM    cl2 1040   3.914   3.266   4.824
    1TCM     h1 1041   3.951   3.228   5.057
    1TCM    cl3 1042   4.064   3.050   4.947
    1TCM     c1 1043   1.250   0.525   3.710
    1TCM    cl1 1044   1.413   0.551   3.775
    1TCM    cl2 1045   1.259   0.500   3.534
    1TCM     h1 1046   1.205   0.435   3.758
    1TCM    cl3 1047   1.149   0.667   3.745
    1TCM     c1 1048   3.563   0.333   1.470
    1TCM    cl1 1049   3.640   0.213   1.577
    1TCM    cl2 1050   3.600   0.295   1.301
    1TCM     h1 1051   3.453   0.330   1.485
    1TCM    cl3 1052   3.624   0.495   1.510
    1TCM     c1 1053   1.230   0.385   4.172
    1TCM    cl1 1054   1.332   0.364   4.317
    1TCM    cl2 1055   1.258   0.546   4.103
    1TCM     h1 1056   1.256   0.308   4.097
    1TCM    cl3 1057   1.059   0.369   4.218
    1TCM     c1 1058   2.309   1.132   4.226
    1TCM    cl1 1059   2.377   1.263   4.325
    1TCM    cl2 1060   2.149   1.087   4.290
    1TCM     h1 1061   2.299   1.166   4.121
    1TCM    cl3 1062   2.417   0.991   4.233
    1TCM     c1 1063   3.319   0.698   0.325
    1TCM    cl1 1064   3.177   0.607   0.382
    1TCM    cl2 1065   3.380   0.624   0.176
    1TCM     h1 1066   3.289   0.803   0.305
    1TCM    cl3 1067   3.446   0.695   0.449
    1TCM     c1 1068   1.640   2.295   2.710
    1TCM    cl1 1069   1.620   2.368   2.549
    1TCM    cl2 1070   1.480   2.273   2.785
    1TCM     h1 1071   1.690   2.197   2.700
    1TCM    cl3 1072   1.738   2.402   2.812
    1TCM     c1 1073   4.938   4.001   4.720
    1TCM    cl1 1074   4.842   4.077   4.590
    1TCM    cl2 1075   4.873   4.050   4.878
    1TCM     h1 1076   4.932   3.891   4.710
    1TCM    cl3 1077   5.107   4.054   4.707
    1TCM     c1 1078   0.786   0.929   2.720
    1TCM    cl1 1079   0.907   0.899   2.592
    1TCM    cl2 1080   0.711   1.088   2.695
    1TCM     h1 1081   0.709   0.850   2.716
    1TCM    cl3 1082   0.866   0.925   2.878
    1TCM     c1 1083   4.725   0.977   3.646
    1TCM    cl1 1084   4.704   0.872   3.788
    1TCM    cl2 1085   4.852   1.097   3.679
    1TCM     h1 1086   4.754   0.915   3.558
    1TCM    cl3 1087   4.572   1.060   3.611
    1TCM     c1 1088   5.033   4.841   0.659
    1TCM    cl1 1089   5.167   4.841   0.542
    1TCM    cl2 1090   5.092   4.901   0.816
    1TCM     h1 1091   4.952   4.908   0.622
    1TCM    cl3 1092   4.970   4.676   0.678
    1TCM     c1 1093   0.723   3.419   0.312
    1TCM    cl1 1094   0.830   3.347   0.436
    1TCM    cl2 1095   0.803   3.412   0.154
    1TCM     h1 1096   0.628   3.361   0.308
    1TCM    cl3 1097   0.688   3.588   0.355
    1TCM     c1 1098   1.261   2.506   4.799
    1TCM    cl1 1099   1.392   2.624   4.819
    1TCM    cl2 1100   1.309   2.383   4.680
    1TCM     h1 1101   1.240   2.457   4.896
    1TCM    cl3 1102   1.114   2.589   4.742
    1TCM     c1 1103   1.620   4.138   0.118
    1TCM    cl1 1104   1.630   4.048   0.271
    1TCM    cl2 1105   1.474   4.088   0.029
    1TCM     h1 1106   1.615   4.247   0.140
    1TCM    cl3 1107   1.764   4.104   0.020
    1TCM     c1 1108   0.651   3.282   0.720
    1TCM    cl1 1109   0.782   3.215   0.620
    1TCM    cl2 1110   0.711   3.311   0.885
    1TCM     h1 1111   0.615   3.377   0.677
    1TCM    cl3 1112   0.516   3.165   0.727
    1TCM     c1 1113   4.250   1.641   2.618
    1TCM    cl1 1114   4.178   1.490   2.558
    1TCM    cl2 1115   4.292   1.745   2.481
    1TCM     h1 1116   4.177   1.693   2.683
    1TCM    cl3 1117   4.397   1.603   2.711
    1TCM     c1 1118   2.169   0.629   4.393
    1TCM    cl1 1119   2.087   0.578   4.542
    1TCM    cl2 1120   2.137   0.510   4.265
    1TCM     h1 1121   2.130   0.728   4.362
    1TCM    cl3 1122   2.344   0.640   4.422
    1TCM     c1 1123   0.394   0.153   2.615
    1TCM    cl1 1124   0.359   0.034   2.487
    1TCM    cl2 1125   0.288   0.294   2.595
    1TCM     h1 1126   0.375   0.107   2.714
    1TCM    cl3 1127   0.564   0.204   2.603
    1TCM     c1 1128   1.802   4.585   4.425
    1TCM    cl1 1129   1.811   4.608   4.249
    1TCM    cl2 1130   1.794   4.411   4.461
    1TCM     h1 1131   1.892   4.628   4.473
    1TCM    cl3 1132   1.656   4.665   4.488
    1TCM     c1 1133   4.220   4.547   1.513
    1TCM    cl1 1134   4.344   4.482   1.403
    1TCM    cl2 1135   4.220   4.724   1.504
    1TCM     h1 1136   4.120   4.508   1.483
    1TCM    cl3 1137   4.255   4.495   1.679
    1TCM     c1 1138   1.039   2.569   0.588
    1TCM    cl1 1139   1.045   2.493   0.749
    1TCM    cl2 1140   0.890   2.518   0.504
    1TCM     h1 1141   1.038   2.679   0.600
    1TCM    cl3 1142   1.181   2.519   0.494
    1TCM     c1 1143   1.402   1.006   4.346
    1TCM    cl1 1144   1.350   0.837   4.369
    1TCM    cl2 1145   1.350   1.063   4.186
    1TCM     h1 1146   1.356   1.070   4.425
    1TCM    cl3 1147   1.579   1.015   4.358
    1TCM     c1 1148   1.905   1.543   0.896
    1TCM    cl1 1149   1.980   1.382   0.884
    1TCM    cl2 1150   1.842   1.567   1.060
    1TCM     h1 1151   1.981   1.621   0.873
    1TCM    cl3 1152   1.771   1.555   0.779
    1TCM     c1 1153   1.255   4.585   1.460
    1TCM    cl1 1154   1.178   4.714   1.365
    1TCM    cl2 1155   1.187   4.585   1.624
    1TCM     h1 1156   1.237   4.487   1.412
    1TCM    cl3 1157   1.430   4.615   1.468
    1TCM     c1 1158   5.089   2.766   2.607
    1TCM    cl1 1159   5.200   2.809   2.475
    1TCM    cl2 1160   4.965   2.654   2.545
    1TCM     h1 1161   5.145   2.717   2.689
    1TCM    cl3 1162   5.010   2.913   2.668
    1TCM     c1 1163   0.988   2.510   0.165
    1TCM    cl1 1164   1.103   2.493   0.030
    1TCM    cl2 1165   1.065   2.455   0.316
    1TCM     h1 1166   0.958   2.616   0.175
    1TCM    cl3 1167   0.844   2.411   0.133
    1TCM     c1 1168   3.682   4.768   3.412
    1TCM    cl1 1169   3.597   4.631   3.337
    1TCM    cl2 1170   3.584   4.915   3.396
    1TCM     h1 1171   3.700   4.746   3.520
    1TCM    cl3 1172   3.839   4.792   3.331
    1TCM     c1 1173   2.251   1.041   2.490
    1TCM    cl1 1174   2.274   1.217   2.485
    1TCM    cl2 1175   2.406   0.960   2.462
    1TCM     h1 1176   2.211   1.012   2.589
    1TCM    cl3 1177   2.135   0.993   2.364
    1TCM     c1 1178   0.705   4.589   4.496
    1TCM    cl1 1179   0.825   4.622   4.623
    1TCM    cl2 1180   0.541   4.607   4.564
    1TCM     h1 1181   0.718   4.660   4.412
    1TCM    cl3 1182   0.725   4.422   4.437
    1TCM     c1 1183   2.044   4.856   3.932
    1TCM    cl1 1184   2.043   4.705   4.025
    1TCM    cl2 1185   1.983   4.824   3.768
    1TCM     h1 1186   1.979   4.931   3.981
    1TCM    cl3 1187   2.210   4.918   3.922
    1TCM     c1 1188   1.164   0.296   1.250
    1TCM    cl1 1189   1.138   0.127   1.200
    1TCM    cl2 1190   1.216   0.300   1.420
    1TCM     h1 1191   1.242   0.342   1.186
    1TCM    cl3 1192   1.012   0.386   1.233
    1TCM     c1 1193   2.506   3.238   1.132
    1TCM    cl1 1194   2.607   3.290   1.268
    1TCM    cl2 1195   2.438   3.077   1.167
    1TCM     h1 1196   2.423   3.310   1.118
    1TCM    cl3 1197   2.604   3.230   0.984
    1TCM     c1 1198   1.015   3.630   1.094
    1TCM    cl1 1199   1.056   3.460   1.128
    1TCM    cl2 1200   1.104   3.736   1.206
    1TCM     h1 1201   1.042   3.654   0.990
    1TCM    cl3 1202   0.840   3.654   1.117
    1TCM     c1 1203   3.825   2.412   2.044
    1TCM    cl1 1204   3.927   2.362   1.907
    1TCM    cl2 1205   3.781   2.583   2.026
    1TCM     h1 1206   3.733   2.350   2.046
    1TCM    cl3 1207   3.915   2.389   2.196
    1TCM     c1 1208   2.799   2.425   1.255
    1TCM    cl1 1209   2.714   2.555   1.169
    1TCM    cl2 1210   2.700   2.371   1.393
    1TCM     h1 1211   2.815   2.339   1.186
    1TCM    cl3 1212   2.955   2.484   1.314
    1TCM     c1 1213   2.758   3.482   4.332
    1TCM    cl1 1214   2.601   3.446   4.407
    1TCM    cl2 1215   2.764   3.653   4.285
    1TCM     h1 1216   2.839   3.460   4.404
    1TCM    cl3 1217   2.779   3.380   4.187
    1TCM     c1 1218   1.147   2.911   4.173
    1TCM    cl1 1219   1.265   2.783   4.135
    1TCM    cl2 1220   1.097   2.991   4.022
    1TCM     h1 1221   1.059   2.866   4.222
    1TCM    cl3 1222   1.222   3.031   4.281
    1TCM     c1 1223   1.552   2.955   3.478
    1TCM    cl1 1224   1.699   2.986   3.384
    1TCM    cl2 1225   1.569   3.029   3.640
    1TCM     h1 1226   1.465   3.000   3.427
    1TCM    cl3 1227   1.528   2.780   3.496
    1TCM     c1 1228   3.782   4.787   3.918
    1TCM    cl1 1229   3.641   4.774   4.026
    1TCM    cl2 1230   3.920   4.856   4.008
    1TCM     h1 1231   3.810   4.686   3.881
    1TCM    cl3 1232   3.743   4.892   3.781
    1TCM     c1 1233   0.181   3.225   0.512
    1TCM    cl1 1234   0.076   3.361   0.556
    1TCM    cl2 1235   0.084   3.099   0.432
    1TCM     h1 1236   0.260   3.260   0.443
    1TCM    cl3 1237   0.255   3.158   0.659
    1TCM     c1 1238   1.443   2.318   5.109
    1TCM    cl1 1239   1.495   2.274   4.944
    1TCM    cl2 1240   1.265   2.326   5.115
    1TCM     h1 1241   1.479   2.240   5.180
    1TCM    cl3 1242   1.511   2.476   5.153
    1TCM     c1 1243   0.283   1.960   3.046
    1TCM    cl1 1244   0.245   2.024   3.208
    1TCM    cl2 1245   0.396   2.070   2.964
    1TCM     h1 1246   0.329   1.860   3.056
    1TCM    cl3 1247   0.133   1.947   2.951
    1TCM     c1 1248   3.711   0.255   4.958
    1TCM    cl1 1249   3.614   0.265   4.809
    1TCM    cl2 1250   3.866   0.177   4.922
    1TCM     h1 1251   3.729   0.357   4.997
    1TCM    cl3 1252   3.622   0.159   5.079
    1TCM     c1 1253   1.778   2.753   2.149
    1TCM    cl1 1254   1.689   2.896   2.209
    1TCM    cl2 1255   1.804   2.770   1.974
    1TCM     h1 1256   1.875   2.746   2.201
    1TCM    cl3 1257   1.682   2.607   2.181
    1TCM     c1 1258   4.178   0.698   4.257
    1TCM    cl1 1259   4.099   0.746   4.409
    1TCM    cl2 1260   4.056   0.678   4.130
    1TCM     h1 1261   4.250   0.777   4.227
    1TCM    cl3 1262   4.265   0.545   4.281
    1TCM     c1 1263   0.286   3.814   1.614
    1TCM    cl1 1264   0.325   3.877   1.453
    1TCM    cl2 1265   0.111   3.833   1.644
    1TCM     h1 1266   0.313   3.707   1.620
    1TCM    cl3 1267   0.377   3.905   1.737
    1TCM     c1 1268   0.270   1.626   0.903
    1TCM    cl1 1269   0.377   1.646   1.044
    1TCM    cl2 1270   0.230   1.786   0.835
    1TCM     h1 1271   0.322   1.565   0.826
    1TCM    cl3 1272   0.121   1.544   0.952
    1TCM     c1 1273   3.698   2.598   2.893
    1TCM    cl1 1274   3.610   2.533   2.753
    1TCM    cl2 1275   3.707   2.474   3.020
    1TCM     h1 1276   3.801   2.625   2.862
    1TCM    cl3 1277   3.615   2.741   2.955
    1TCM     c1 1278   0.320   4.835   2.862
    1TCM    cl1 1279   0.347   4.945   2.999
    1TCM    cl2 1280   0.398   4.900   2.717
    1TCM     h1 1281   0.363   4.735   2.885
    1TCM    cl3 1282   0.145   4.819   2.833
    1TCM     c1 1283   0.050   4.651   2.479
    1TCM    cl1 1284   0.227   4.662   2.462
    1TCM    cl2 1285   0.001   4.727   2.631
    1TCM     h1 1286   0.001   4.703   2.394
    1TCM    cl3 1287   0.001   4.480   2.480
    1TCM     c1 1288   0.459   2.452   2.404
    1TCM    cl1 1289   0.591   2.435   2.522
    1TCM    cl2 1290   0.446   2.622   2.354
    1TCM     h1 1291   0.481   2.389   2.315
    1TCM    cl3 1292   0.306   2.400   2.478
    1TCM     c1 1293   0.621   4.068   2.876
    1TCM    cl1 1294   0.575   4.185   3.002
    1TCM    cl2 1295   0.477   4.024   2.781
    1TCM     h1 1296   0.697   4.114   2.809
    1TCM    cl3 1297   0.688   3.922   2.952
    1TCM     c1 1298   2.347   0.658   3.948
    1TCM    cl1 1299   2.428   0.790   4.036
    1TCM    cl2 1300   2.334   0.701   3.776
    1TCM     h1 1301   2.407   0.565   3.958
    1TCM    cl3 1302   2.185   0.632   4.015
    1TCM     c1 1303   1.816   1.925   2.120
    1TCM    cl1 1304   1.901   2.041   2.224
    1TCM    cl2 1305   1.878   1.937   1.954
    1TCM     h1 1306   1.832   1.822   2.158
    1TCM    cl3 1307   1.642   1.962   2.121
    1TCM     c1 1308   0.957   3.249   2.325
    1TCM    cl1 1309   0.999   3.092   2.397
    1TCM    cl2 1310   1.033   3.263   2.164
    1TCM     h1 1311   0.847   3.257   2.315
    1TCM    cl3 1312   1.017   3.380   2.430
    1TCM     c1 1313   4.752   3.794   3.142
    1TCM    cl1 1314   4.811   3.742   3.301
    1TCM    cl2 1315   4.704   3.652   3.046
    1TCM     h1 1316   4.664   3.861   3.155
    1TCM    cl3 1317   4.880   3.882   3.056
    1TCM     c1 1318   4.211   1.019   4.524
    1TCM    cl1 1319   4.056   1.027   4.611
    1TCM    cl2 1320   4.313   0.891   4.594
    1TCM     h1 1321   4.193   0.997   4.417
    1TCM    cl3 1322   4.295   1.176   4.538
    1TCM     c1 1323   0.144   3.132   4.630
    1TCM    cl1 1324   0.233   2.991   4.693
    1TCM    cl2 1325   0.255   3.237   4.539
    1TCM     h1 1326   0.062   3.097   4.563
    1TCM    cl3 1327   0.074   3.223   4.766
    1TCM     c1 1328   0.988   1.873   0.346
    1TCM    cl1 1329   1.122   1.854   0.230
    1TCM    cl2 1330   1.040   1.980   0.479
    1TCM     h1 1331   0.901   1.918   0.294
    1TCM    cl3 1332   0.944   1.714   0.412
    1TCM     c1 1333   1.942   2.144   1.771
    1TCM    cl1 1334   2.099   2.167   1.850
    1TCM    cl2 1335   1.813   2.201   1.878
    1TCM     h1 1336   1.940   2.201   1.676
    1TCM    cl3 1337   1.918   1.971   1.736
    1TCM     c1 1338   2.532   4.402   3.939
    1TCM    cl1 1339   2.564   4.550   4.033
    1TCM    cl2 1340   2.546   4.260   4.045
    1TCM     h1 1341   2.429   4.407   3.897
    1TCM    cl3 1342   2.650   4.389   3.807
    1TCM     c1 1343   3.258   0.553   1.746
    1TCM    cl1 1344   3.326   0.441   1.866
    1TCM    cl2 1345   3.343   0.533   1.591
    1TCM     h1 1346   3.150   0.532   1.733
    1TCM    cl3 1347   3.279   0.720   1.803
    1TCM     c1 1348   2.579   4.915   4.896
    1TCM    cl1 1349   2.586   5.064   4.800
    1TCM    cl2 1350   2.410   4.879   4.938
    1TCM     h1 1351   2.621   4.830   4.836
    1TCM    cl3 1352   2.675   4.935   5.044
    1TCM     c1 1353   2.653   1.917   3.376
    1TCM    cl1 1354   2.813   1.901   3.452
    1TCM    cl2 1355   2.592   1.756   3.333
    1TCM     h1 1356   2.583   1.965   3.448
    1TCM    cl3 1357   2.666   2.017   3.230
    1TCM     c1 1358   0.871   1.752   5.007
    1TCM    cl1 1359   0.829   1.580   4.993
    1TCM    cl2 1360   1.033   1.779   4.941
    1TCM     h1 1361   0.797   1.812   4.950
    1TCM    cl3 1362   0.868   1.800   5.178
    1TCM     c1 1363   3.158   1.152   3.114
    1TCM    cl1 1364   3.258   1.243   3.229
    1TCM    cl2 1365   3.056   1.265   3.021
    1TCM     h1 1366   3.223   1.095   3.045
    1TCM    cl3 1367   3.054   1.039   3.203
    1TCM     c1 1368   3.714   0.767   1.661
    1TCM    cl1 1369   3.655   0.678   1.803
    1TCM    cl2 1370   3.797   0.915   1.715
    1TCM     h1 1371   3.785   0.704   1.605
    1TCM    cl3 1372   3.577   0.811   1.557
    1TCM     c1 1373   0.520   0.411   0.710
    1TCM    cl1 1374   0.647   0.535   0.703
    1TCM    cl2 1375   0.594   0.250   0.689
    1TCM     h1 1376   0.470   0.415   0.809
    1TCM    cl3 1377   0.402   0.440   0.581
    1TCM     c1 1378   0.899   3.819   3.728
    1TCM    cl1 1379   0.853   3.920   3.589
    1TCM    cl2 1380   0.789   3.851   3.864
    1TCM     h1 1381   0.892   3.712   3.700
    1TCM    cl3 1382   1.066   3.857   3.777
    1TCM     c1 1383   5.224   4.244   4.397
    1TCM    cl1 1384   5.125   4.284   4.539
    1TCM    cl2 1385   5.319   4.097   4.430
    1TCM     h1 1386   5.159   4.227   4.309
    1TCM    cl3 1387   5.335   4.379   4.363
    1TCM     c1 1388   3.763   1.802   0.954
    1TCM    cl1 1389   3.766   1.640   0.882
    1TCM    cl2 1390   3.597   1.842   1.002
    1TCM     h1 1391   3.829   1.805   1.043
    1TCM    cl3 1392   3.820   1.921   0.834
    1TCM     c1 1393   3.421   4.506   3.832
    1TCM    cl1 1394   3.379   4.387   3.707
    1TCM    cl2 1395   3.457   4.423   3.985
    1TCM     h1 1396   3.509   4.565   3.800
    1TCM    cl3 1397   3.283   4.616   3.857
    1TCM     c1 1398   1.691   4.723   3.224
    1TCM    cl1 1399   1.519   4.680   3.238
    1TCM    cl2 1400   1.790   4.576   3.224
    1TCM     h1 1401   1.707   4.780   3.130
    1TCM    cl3 1402   1.737   4.825   3.363
    1TCM     c1 1403   2.563   0.570   2.651
    1TCM    cl1 1404   2.461   0.491   2.774
    1TCM    cl2 1405   2.647   0.446   2.556
    1TCM     h1 1406   2.499   0.631   2.584
    1TCM    cl3 1407   2.682   0.675   2.731
    1TCM     c1 1408   3.291   2.157   4.239
    1TCM    cl1 1409   3.203   2.284   4.152
    1TCM    cl2 1410   3.414   2.086   4.133
    1TCM     h1 1411   3.339   2.200   4.329
    1TCM    cl3 1412   3.176   2.030   4.289
    1TCM     c1 1413   2.903   2.338   0.546
    1TCM    cl1 1414   2.878   2.459   0.674
    1TCM    cl2 1415   2.795   2.200   0.573
    1TCM     h1 1416   2.882   2.384   0.448
    1TCM    cl3 1417   3.072   2.282   0.550
    1TCM     c1 1418   1.446   0.446   4.941
    1TCM    cl1 1419   1.361   0.302   5.002
    1TCM    cl2 1420   1.592   0.396   4.853
    1TCM     h1 1421   1.378   0.502   4.872
    1TCM    cl3 1422   1.491   0.550   5.077
    1TCM     c1 1423   0.760   1.640   1.690
    1TCM    cl1 1424   0.868   1.599   1.825
    1TCM    cl2 1425   0.642   1.510   1.667
    1TCM     h1 1426   0.707   1.735   1.712
    1TCM    cl3 1427   0.857   1.660   1.541
    1TCM     c1 1428   5.059   3.267   0.322
    1TCM    cl1 1429   5.027   3.110   0.245
    1TCM    cl2 1430   5.179   3.357   0.226
    1TCM     h1 1431   4.965   3.326   0.328
    1TCM    cl3 1432   5.122   3.241   0.487
    1TCM     c1 1433   0.675   1.690   4.025
    1TCM    cl1 1434   0.606   1.588   3.897
    1TCM    cl2 1435   0.552   1.719   4.150
    1TCM     h1 1436   0.762   1.638   4.070
    1TCM    cl3 1437   0.727   1.845   3.956
    1TCM     c1 1438   0.955   0.789   0.477
    1TCM    cl1 1439   1.052   0.647   0.519
    1TCM    cl2 1440   0.915   0.786   0.304
    1TCM     h1 1441   0.861   0.789   0.537
    1TCM    cl3 1442   1.048   0.937   0.514
    1TCM     c1 1443   3.575   4.989   4.911
    1TCM    cl1 1444   3.745   4.991   4.860
    1TCM    cl2 1445   3.542   4.841   5.003
    1TCM     h1 1446   3.554   5.078   4.975
    1TCM    cl3 1447   3.470   4.994   4.767
    1TCM     c1 1448   3.121   3.830   3.594
    1TCM    cl1 1449   2.975   3.886   3.678
    1TCM    cl2 1450   3.264   3.911   3.662
    1TCM     h1 1451   3.132   3.720   3.608
    1TCM    cl3 1452   3.109   3.868   3.421
    1TCM     c1 1453   2.892   4.424   3.248
    1TCM    cl1 1454   2.928   4.268   3.170
    1TCM    cl2 1455   2.807   4.395   3.401
    1TCM     h1 1456   2.986   4.478   3.268
    1TCM    cl3 1457   2.789   4.522   3.141
    1TCM     c1 1458   3.512   1.365   2.755
    1TCM    cl1 1459   3.590   1.276   2.622
    1TCM    cl2 1460   3.559   1.294   2.911
    1TCM     h1 1461   3.544   1.472   2.751
    1TCM    cl3 1462   3.336   1.356   2.737
    1TCM     c1 1463   4.579   2.073   5.178
    1TCM    cl1 1464   4.415   2.040   5.239
    1TCM    cl2 1465   4.694   2.071   5.314
    1TCM     h1 1466   4.607   1.994   5.105
    1TCM    cl3 1467   4.582   2.232   5.099
    1TCM     c1 1468   3.230   2.233   0.792
    1TCM    cl1 1469   3.273   2.404   0.771
    1TCM    cl2 1470   3.260   2.184   0.960
    1TCM     h1 1471   3.122   2.219   0.768
    1TCM    cl3 1472   3.328   2.132   0.682
    1TCM     c1 1473   4.575   4.875   1.600
    1TCM    cl1 1474   4.686   4.843   1.464
    1TCM    cl2 1475   4.629   5.021   1.687
    1TCM     h1 1476   4.473   4.891   1.561
    1TCM    cl3 1477   4.576   4.736   1.711
    1TCM     c1 1478   4.653   0.732   3.265
    1TCM    cl1 1479   4.807   0.766   3.183
    1TCM    cl2 1480   4.677   0.745   3.441
    1TCM     h1 1481   4.577   0.805   3.233
    1TCM    cl3 1482   4.600   0.567   3.224
    1TCM     c1 1483   3.572   2.218   0.451
    1TCM    cl1 1484   3.447   2.304   0.358
    1TCM    cl2 1485   3.697   2.158   0.340
    1TCM     h1 1486   3.617   2.287   0.524
    1TCM    cl3 1487   3.498   2.081   0.537
    1TCM     c1 1488   1.774   0.161   2.742
    1TCM    cl1 1489   1.882   0.095   2.618
    1TCM    cl2 1490   1.672   0.031   2.808
    1TCM     h1 1491   1.835   0.206   2.823
    1TCM    cl3 1492   1.670   0.287   2.670
    1TCM     c1 1493   1.324   4.707   5.143
    1TCM    cl1 1494   1.356   4.802   5.290
    1TCM    cl2 1495   1.443   4.575   5.131
    1TCM     h1 1496   1.221   4.664   5.149
    1TCM    cl3 1497   1.336   4.812   5.000
    1TCM     c1 1498   5.112   0.294   4.521
    1TCM    cl1 1499   5.165   0.172   4.639
    1TCM    cl2 1500   5.009   0.217   4.398
    1TCM     h1 1501   5.054   0.373   4.573
    1TCM    cl3 1502   5.254   0.366   4.443
    1TCM     c1 1503   4.375   4.852   0.252
    1TCM    cl1 1504   4.502   4.960   0.191
    1TCM    cl2 1505   4.229   4.947   0.289
    1TCM     h1 1506   4.352   4.775   0.176
    1TCM    cl3 1507   4.432   4.772   0.401
    1TCM     c1 1508   0.610   2.580   3.940
    1TCM    cl1 1509   0.477   2.617   3.828
    1TCM    cl2 1510   0.668   2.414   3.910
    1TCM     h1 1511   0.693   2.652   3.923
    1TCM    cl3 1512   0.553   2.593   4.107
    1TCM     c1 1513   4.090   1.348   1.588
    1TCM    cl1 1514   4.134   1.208   1.688
    1TCM    cl2 1515   4.055   1.293   1.422
    1TCM     h1 1516   4.000   1.397   1.630
    1TCM    cl3 1517   4.225   1.464   1.584
    1TCM     c1 1518   1.524   4.868   0.427
    1TCM    cl1 1519   1.679   4.864   0.516
    1TCM    cl2 1520   1.405   4.767   0.512
    1TCM     h1 1521   1.488   4.973   0.422
    1TCM    cl3 1522   1.548   4.806   0.262
    1TCM     c1 1523   3.312   1.133   4.074
    1TCM    cl1 1524   3.449   1.119   3.962
    1TCM    cl2 1525   3.361   1.077   4.235
    1TCM     h1 1526   3.280   1.239   4.080
    1TCM    cl3 1527   3.177   1.034   4.016
    1TCM     c1 1528   4.635   3.525   3.706
    1TCM    cl1 1529   4.794   3.460   3.658
    1TCM    cl2 1530   4.620   3.519   3.883
    1TCM     h1 1531   4.626   3.630   3.672
    1TCM    cl3 1532   4.506   3.427   3.632
    1TCM     c1 1533   1.365   0.865   0.598
    1TCM    cl1 1534   1.267   0.726   0.651
    1TCM    cl2 1535   1.519   0.866   0.687
    1TCM     h1 1536   1.385   0.857   0.489
    1TCM    cl3 1537   1.277   1.016   0.631
    1TCM     c1 1538   1.326   1.957   1.084
    1TCM    cl1 1539   1.299   1.822   0.971
    1TCM    cl2 1540   1.330   1.894   1.250
    1TCM     h1 1541   1.422   2.006   1.061
    1TCM    cl3 1542   1.193   2.074   1.068
    1TCM     c1 1543   3.457   3.044   2.433
    1TCM    cl1 1544   3.329   3.134   2.348
    1TCM    cl2 1545   3.574   3.159   2.502
    1TCM     h1 1546   3.412   2.984   2.515
    1TCM    cl3 1547   3.540   2.936   2.319
    1TCM     c1 1548   3.245   3.569   2.856
    1TCM    cl1 1549   3.072   3.536   2.830
    1TCM    cl2 1550   3.318   3.622   2.703
    1TCM     h1 1551   3.256   3.650   2.932
    1TCM    cl3 1552   3.326   3.422   2.914
    1TCM     c1 1553   1.315   1.168   0.336
    1TCM    cl1 1554   1.314   1.057   0.198
    1TCM    cl2 1555   1.375   1.327   0.283
    1TCM     h1 1556   1.212   1.179   0.376
    1TCM    cl3 1557   1.421   1.104   0.463
    1TCM     c1 1558   3.052   0.224   0.886
    1TCM    cl1 1559   3.008   0.347   1.007
    1TCM    cl2 1560   3.228   0.204   0.882
    1TCM     h1 1561   3.004   0.127   0.914
    1TCM    cl3 1562   2.994   0.275   0.726
    1TCM     c1 1563   1.903   3.404   1.036
    1TCM    cl1 1564   2.020   3.326   0.926
    1TCM    cl2 1565   1.797   3.512   0.943
    1TCM     h1 1566   1.842   3.326   1.087
    1TCM    cl3 1567   1.992   3.499   1.158
    1TCM     c1 1568   2.973   3.806   2.007
    1TCM    cl1 1569   2.803   3.800   2.060
    1TCM    cl2 1570   2.979   3.812   1.829
    1TCM     h1 1571   3.021   3.896   2.048
    1TCM    cl3 1572   3.057   3.660   2.064
    1TCM     c1 1573   4.624   0.512   4.163
    1TCM    cl1 1574   4.525   0.411   4.055
    1TCM    cl2 1575   4.520   0.629   4.246
    1TCM     h1 1576   4.674   0.447   4.238
    1TCM    cl3 1577   4.747   0.598   4.068
    1TCM     c1 1578   4.670   3.011   4.802
    1TCM    cl1 1579   4.699   3.184   4.770
    1TCM    cl2 1580   4.742   2.914   4.671
    1TCM     h1 1581   4.716   2.983   4.899
    1TCM    cl3 1582   4.495   2.981   4.809
    1TCM     c1 1583   1.107   4.654   2.390
    1TCM    cl1 1584   1.042   4.808   2.329
    1TCM    cl2 1585   0.973   4.544   2.428
    1TCM     h1 1586   1.172   4.609   2.312
    1TCM    cl3 1587   1.203   4.684   2.536
    1TCM     c1 1588   5.144   0.224   0.367
    1TCM    cl1 1589   5.106   0.172   0.202
    1TCM    cl2 1590   5.022   0.158   0.479
    1TCM     h1 1591   5.244   0.187   0.396
    1TCM    cl3 1592   5.142   0.402   0.376
    1TCM     c1 1593   4.647   0.510   3.673
    1TCM    cl1 1594   4.711   0.368   3.587
    1TCM    cl2 1595   4.713   0.514   3.838
    1TCM     h1 1596   4.677   0.602   3.618
    1TCM    cl3 1597   4.470   0.500   3.680
    1TCM     c1 1598   3.612   5.100   4.455
    1TCM    cl1 1599   3.780   5.114   4.400
    1TCM    cl2 1600   3.502   5.148   4.323
    1TCM     h1 1601   3.591   4.995   4.484
    1TCM    cl3 1602   3.585   5.206   4.595
    1TCM     c1 1603   1.386   1.900   1.563
    1TCM    cl1 1604   1.526   1.911   1.454
    1TCM    cl2 1605   1.398   1.753   1.662
    1TCM     h1 1606   1.383   1.989   1.630
    1TCM    cl3 1607   1.236   1.894   1.467
    1TCM     c1 1608   5.281   0.225   1.436
    1TCM    cl1 1609   5.331   0.224   1.265
    1TCM    cl2 1610   5.104   0.215   1.446
    1TCM     h1 1611   5.327   0.139   1.489
    1TCM    cl3 1612   5.336   0.376   1.513
    1TCM     c1 1613   3.315   1.782   2.807
    1TCM    cl1 1614   3.325   1.620   2.734
    1TCM    cl2 1615   3.327   1.905   2.679
    1TCM     h1 1616   3.218   1.793   2.860
    1TCM    cl3 1617   3.449   1.804   2.922
    1TCM     c1 1618   3.625   0.406   0.536
    1TCM    cl1 1619   3.475   0.327   0.482
    1TCM    cl2 1620   3.592   0.501   0.683
    1TCM     h1 1621   3.701   0.329   0.558
    1TCM    cl3 1622   3.684   0.515   0.408
    1TCM     c1 1623   0.658   1.438   1.960
    1TCM    cl1 1624   0.481   1.441   1.967
    1TCM    cl2 1625   0.710   1.352   1.813
    1TCM     h1 1626   0.697   1.541   1.959
    1TCM    cl3 1627   0.722   1.353   2.103
    1TCM     c1 1628   2.780   3.852   1.402
    1TCM    cl1 1629   2.638   3.811   1.303
    1TCM    cl2 1630   2.750   3.804   1.571
    1TCM     h1 1631   2.868   3.798   1.363
    1TCM    cl3 1632   2.809   4.027   1.395
    1TCM     c1 1633   2.509   2.556   4.463
    1TCM    cl1 1634   2.354   2.645   4.472
    1TCM    cl2 1635   2.612   2.631   4.339
    1TCM     h1 1636   2.560   2.561   4.561
    1TCM    cl3 1637   2.477   2.387   4.420
    1TCM     c1 1638   0.498   2.329   0.855
    1TCM    cl1 1639   0.518   2.279   0.686
    1TCM    cl2 1640   0.329   2.380   0.882
    1TCM     h1 1641   0.522   2.244   0.922
    1TCM    cl3 1642   0.607   2.466   0.890
    1TCM     c1 1643   2.521   0.492   1.600
    1TCM    cl1 1644   2.627   0.439   1.468
    1TCM    cl2 1645   2.592   0.444   1.756
    1TCM     h1 1646   2.510   0.602   1.597
    1TCM    cl3 1647   2.361   0.416   1.582
    1TCM     c1 1648   2.464   3.649   0.163
    1TCM    cl1 1649   2.389   3.602   0.009
    1TCM    cl2 1650   2.558   3.513   0.228
    1TCM     h1 1651   2.530   3.737   0.147
    1TCM    cl3 1652   2.336   3.693   0.279
    1TCM     c1 1653   3.932   1.893   1.691
    1TCM    cl1 1654   3.775   1.928   1.614
    1TCM    cl2 1655   3.905   1.806   1.844
    1TCM     h1 1656   3.993   1.831   1.623
    1TCM    cl3 1657   4.016   2.046   1.725
    1TCM     c1 1658   2.291   2.775   2.720
    1TCM    cl1 1659   2.249   2.928   2.639
    1TCM    cl2 1660   2.330   2.806   2.891
    1TCM     h1 1661   2.205   2.705   2.714
    1TCM    cl3 1662   2.432   2.701   2.640
    1TCM     c1 1663   4.584   2.841   0.900
    1TCM    cl1 1664   4.416   2.783   0.887
    1TCM    cl2 1665   4.629   2.924   0.750
    1TCM     h1 1666   4.592   2.911   0.985
    1TCM    cl3 1667   4.692   2.702   0.926
    1TCM     c1 1668   5.124   4.307   1.782
    1TCM    cl1 1669   5.046   4.442   1.869
    1TCM    cl2 1670   5.227   4.216   1.895
    1TCM     h1 1671   5.046   4.240   1.740
    1TCM    cl3 1672   5.224   4.372   1.651
    1TCM     c1 1673   3.214   1.702   3.847
    1TCM    cl1 1674   3.323   1.821   3.774
    1TCM    cl2 1675   3.308   1.587   3.946
    1TCM     h1 1676   3.140   1.753   3.911
    1TCM    cl3 1677   3.129   1.613   3.718
    1TCM     c1 1678   0.891   3.783   2.439
    1TCM    cl1 1679   1.059   3.728   2.421
    1TCM    cl2 1680   0.873   3.865   2.595
    1TCM     h1 1681   0.866   3.853   2.357
    1TCM    cl3 1682   0.782   3.642   2.433
    1TCM     c1 1683   3.006   4.135   2.272
    1TCM    cl1 1684   3.109   4.115   2.128
    1TCM    cl2 1685   2.916   3.984   2.301
    1TCM     h1 1686   3.069   4.158   2.360
    1TCM    cl3 1687   2.891   4.268   2.244
    1TCM     c1 1688   1.304   3.031   2.373
    1TCM    cl1 1689   1.444   2.948   2.301
    1TCM    cl2 1690   1.339   3.069   2.543
    1TCM     h1 1691   1.284   3.125   2.317
    1TCM    cl3 1692   1.161   2.925   2.364
    1TCM     c1 1693   4.589   0.066   5.004
    1TCM    cl1 1694   4.511   0.002   5.150
    1TCM    cl2 1695   4.509  -0.002   4.860
    1TCM     h1 1696   4.580   0.177   5.003
    1TCM    cl3 1697   4.761   0.020   5.003
    1TCM     c1 1698   4.143   4.951   2.442
    1TCM    cl1 1699   4.300   4.889   2.385
    1TCM    cl2 1700   4.137   5.127   2.416
    1TCM     h1 1701   4.061   4.903   2.386
    1TCM    cl3 1702   4.126   4.917   2.616
    1TCM     c1 1703   1.449   5.048   3.113
    1TCM    cl1 1704   1.493   5.212   3.061
    1TCM    cl2 1705   1.324   4.983   3.004
    1TCM     h1 1706   1.538   4.983   3.110
    1TCM    cl3 1707   1.386   5.054   3.279
    1TCM     c1 1708   3.394   5.015   3.750
    1TCM    cl1 1709   3.486   5.049   3.602
    1TCM    cl2 1710   3.507   4.995   3.886
    1TCM     h1 1711   3.326   5.100   3.771
    1TCM    cl3 1712   3.300   4.866   3.730
    1TCM     c1 1713   3.632   2.205   4.867
    1TCM    cl1 1714   3.747   2.176   4.735
    1TCM    cl2 1715   3.718   2.201   5.023
    1TCM     h1 1716   3.584   2.304   4.854
    1TCM    cl3 1717   3.507   2.078   4.866
    1TCM     c1 1718   4.873   4.172   2.548
    1TCM    cl1 1719   5.031   4.251   2.534
    1TCM    cl2 1720   4.881   4.010   2.475
    1TCM     h1 1721   4.845   4.163   2.655
    1TCM    cl3 1722   4.751   4.269   2.462
    1TCM     c1 1723   5.030   3.167   2.406
    1TCM    cl1 1724   4.867   3.136   2.470
    1TCM    cl2 1725   5.141   3.197   2.541
    1TCM     h1 1726   5.064   3.079   2.348
    1TCM    cl3 1727   5.026   3.309   2.299
    1TCM     c1 1728   1.360   2.322   0.942
    1TCM    cl1 1729   1.505   2.416   0.986
    1TCM    cl2 1730   1.352   2.306   0.766
    1TCM     h1 1731   1.366   2.221   0.989
    1TCM    cl3 1732   1.215   2.406   1.001
    1TCM     c1 1733   1.143   1.958   4.064
    1TCM    cl1 1734   1.076   2.112   4.124
    1TCM    cl2 1735   1.197   1.978   3.896
    1TCM     h1 1736   1.229   1.928   4.127
    1TCM    cl3 1737   1.017   1.832   4.071
    1TCM     c1 1738   4.159   3.586   1.330
    1TCM    cl1 1739   4.151   3.763   1.313
    1TCM    cl2 1740   4.042   3.533   1.453
    1TCM     h1 1741   4.134   3.538   1.233
    1TCM    cl3 1742   4.323   3.538   1.379
    1TCM     c1 1743   0.264   5.156   2.137
    1TCM    cl1 1744   0.169   5.202   1.994
    1TCM    cl2 1745   0.154   5.094   2.263
    1TCM     h1 1746   0.337   5.077   2.109
    1TCM    cl3 1747   0.350   5.298   2.199
    1TCM     c1 1748   1.314   2.534   1.758
    1TCM    cl1 1749   1.377   2.685   1.687
    1TCM    cl2 1750   1.340   2.537   1.934
    1TCM     h1 1751   1.205   2.526   1.736
    1TCM    cl3 1752   1.399   2.395   1.688
    1TCM     c1 1753   0.900   2.382   4.121
    1TCM    cl1 1754   0.983   2.276   4.238
    1TCM    cl2 1755   0.989   2.379   3.966
    1TCM     h1 1756   0.797   2.346   4.105
    1TCM    cl3 1757   0.897   2.548   4.183
    1TCM     c1 1758   1.116   0.904   5.178
    1TCM    cl1 1759   1.052   0.963   5.334
    1TCM    cl2 1760   1.022   0.976   5.045
    1TCM     h1 1761   1.222   0.933   5.169
    1TCM    cl3 1762   1.102   0.727   5.172
    1TCM     c1 1763   3.681   3.000   0.975
    1TCM    cl1 1764   3.591   3.115   0.873
    1TCM    cl2 1765   3.571   2.871   1.029
    1TCM     h1 1766   3.764   2.956   0.917
    1TCM    cl3 1767   3.747   3.085   1.117
    1TCM     c1 1768   3.690   4.996   3.013
    1TCM    cl1 1769   3.562   5.026   2.893
    1TCM    cl2 1770   3.655   4.845   3.100
    1TCM     h1 1771   3.787   4.987   2.961
    1TCM    cl3 1772   3.696   5.131   3.128
    1TCM     c1 1773   4.600   3.173   5.155
    1TCM    cl1 1774   4.454   3.109   5.235
    1TCM    cl2 1775   4.744   3.120   5.245
    1TCM     h1 1776   4.605   3.134   5.051
    1TCM    cl3 1777   4.594   3.350   5.152
    1TCM     c1 1778   4.468   2.835   2.971
    1TCM    cl1 1779   4.452   2.774   3.138
    1TCM    cl2 1780   4.356   2.971   2.947
    1TCM     h1 1781   4.572   2.869   2.953
    1TCM    cl3 1782   4.427   2.704   2.857
    1TCM     c1 1783   2.268   4.585   3.582
    1TCM    cl1 1784   2.409   4.609   3.477
    1TCM    cl2 1785   2.249   4.726   3.689
    1TCM     h1 1786   2.177   4.572   3.521
    1TCM    cl3 1787   2.293   4.439   3.682
    1TCM     c1 1788   3.570   2.234   0.996
    1TCM    cl1 1789   3.573   2.267   0.821
    1TCM    cl2 1790   3.470   2.091   1.028
    1TCM     h1 1791   3.674   2.216   1.032
    1TCM    cl3 1792   3.502   2.375   1.082
    1TCM     c1 1793   2.304   2.119   2.602
    1TCM    cl1 1794   2.345   2.140   2.773
    1TCM    cl2 1795   2.408   1.994   2.530
    1TCM     h1 1796   2.198   2.089   2.592
    1TCM    cl3 1797   2.329   2.273   2.516
    1TCM     c1 1798   2.963   2.862   3.496
    1TCM    cl1 1799   2.942   2.728   3.611
    1TCM    cl2 1800   2.928   3.016   3.578
    1TCM     h1 1801   3.068   2.863   3.459
    1TCM    cl3 1802   2.852   2.841   3.359
    1TCM     c1 1803   5.004   1.903   1.721
    1TCM    cl1 1804   4.879   1.811   1.808
    1TCM    cl2 1805   4.939   1.958   1.565
    1TCM     h1 1806   5.033   1.992   1.782
    1TCM    cl3 1807   5.146   1.800   1.694
    1TCM     c1 1808   1.642   1.377   3.592
    1TCM    cl1 1809   1.794   1.439   3.523
    1TCM    cl2 1810   1.642   1.402   3.768
    1TCM     h1 1811   1.556   1.430   3.547
    1TCM    cl3 1812   1.628   1.203   3.558
    1TCM     c1 1813   3.467   4.178   2.218
    1TCM    cl1 1814   3.442   4.301   2.344
    1TCM    cl2 1815   3.490   4.258   2.061
    1TCM     h1 1816   3.557   4.118   2.243
    1TCM    cl3 1817   3.325   4.072   2.210
    1TCM     c1 1818   2.070   3.572   0.471
    1TCM    cl1 1819   2.009   3.460   0.595
    1TCM    cl2 1820   2.246   3.590   0.489
    1TCM     h1 1821   2.047   3.532   0.370
    1TCM    cl3 1822   1.992   3.731   0.492
    1TCM     c1 1823   4.621   2.136   3.259
    1TCM    cl1 1824   4.517   2.189   3.125
    1TCM    cl2 1825   4.527   2.035   3.371
    1TCM     h1 1826   4.706   2.077   3.219
    1TCM    cl3 1827   4.683   2.279   3.346
    1TCM     c1 1828   2.402   3.936   1.438
    1TCM    cl1 1829   2.434   4.104   1.485
    1TCM    cl2 1830   2.226   3.908   1.434
    1TCM     h1 1831   2.444   3.917   1.337
    1TCM    cl3 1832   2.477   3.826   1.556
    1TCM     c1 1833   1.021   4.953   4.788
    1TCM    cl1 1834   1.012   4.780   4.749
    1TCM    cl2 1835   0.894   5.041   4.700
    1TCM     h1 1836   1.006   4.967   4.897
    1TCM    cl3 1837   1.180   5.017   4.742
    1TCM     c1 1838   3.702   3.151   3.797
    1TCM    cl1 1839   3.629   2.993   3.830
    1TCM    cl2 1840   3.623   3.224   3.655
    1TCM     h1 1841   3.688   3.218   3.885
    1TCM    cl3 1842   3.875   3.131   3.765
    1TCM     c1 1843   3.693   3.836   1.213
    1TCM    cl1 1844   3.846   3.750   1.181
    1TCM    cl2 1845   3.726   4.008   1.239
    1TCM     h1 1846   3.625   3.823   1.126
    1TCM    cl3 1847   3.616   3.767   1.358
    1TCM     c1 1848   2.582   1.309   3.942
    1TCM    cl1 1849   2.677   1.458   3.964
    1TCM    cl2 1850   2.573   1.270   3.769
    1TCM     h1 1851   2.632   1.226   3.997
    1TCM    cl3 1852   2.418   1.333   4.006
    1TCM     c1 1853   2.132   3.718   4.866
    1TCM    cl1 1854   1.997   3.691   4.978
    1TCM    cl2 1855   2.069   3.740   4.702
    1TCM     h1 1856   2.187   3.810   4.897
    1TCM    cl3 1857   2.242   3.579   4.870
    1TCM     c1 1858   4.289   3.859   3.212
    1TCM    cl1 1859   4.433   3.826   3.113
    1TCM    cl2 1860   4.162   3.741   3.173
    1TCM     h1 1861   4.316   3.850   3.319
    1TCM    cl3 1862   4.231   4.023   3.179
    1TCM     c1 1863   3.090   1.587   5.001
    1TCM    cl1 1864   2.930   1.627   5.067
    1TCM    cl2 1865   3.108   1.660   4.840
    1TCM     h1 1866   3.169   1.626   5.069
    1TCM    cl3 1867   3.106   1.410   4.988
    1TCM     c1 1868   0.573   0.633   4.174
    1TCM    cl1 1869   0.703   0.512   4.163
    1TCM    cl2 1870   0.434   0.578   4.078
    1TCM     h1 1871   0.543   0.646   4.280
    1TCM    cl3 1872   0.632   0.789   4.110
    1TCM     c1 1873   3.531   0.958   2.002
    1TCM    cl1 1874   3.541   1.135   1.991
    1TCM    cl2 1875   3.694   0.891   2.026
    1TCM     h1 1876   3.466   0.930   2.088
    1TCM    cl3 1877   3.462   0.893   1.852
    1TCM     c1 1878   2.835   0.128   2.568
    1TCM    cl1 1879   2.904   0.047   2.425
    1TCM    cl2 1880   2.862   0.027   2.712
    1TCM     h1 1881   2.885   0.227   2.582
    1TCM    cl3 1882   2.661   0.153   2.544
    1TCM     c1 1883   2.682   4.546   2.491
    1TCM    cl1 1884   2.781   4.439   2.389
    1TCM    cl2 1885   2.668   4.705   2.413
    1TCM     h1 1886   2.581   4.502   2.504
    1TCM    cl3 1887   2.760   4.565   2.650
    1TCM     c1 1888   0.793   1.016   2.074
    1TCM    cl1 1889   0.685   1.102   1.963
    1TCM    cl2 1890   0.806   1.106   2.227
    1TCM     h1 1891   0.752   0.914   2.094
    1TCM    cl3 1892   0.954   1.001   2.001
    1TCM     c1 1893   2.402   4.314   3.098
    1TCM    cl1 1894   2.505   4.390   2.974
    1TCM    cl2 1895   2.253   4.408   3.117
    1TCM     h1 1896   2.377   4.210   3.067
    1TCM    cl3 1897   2.489   4.309   3.253
    1TCM     c1 1898   4.237   1.878   4.737
    1TCM    cl1 1899   4.062   1.895   4.762
    1TCM    cl2 1900   4.321   1.895   4.893
    1TCM     h1 1901   4.259   1.778   4.695
    1TCM    cl3 1902   4.294   2.004   4.626
    1TCM     c1 1903   0.321   0.524   0.234
    1TCM    cl1 1904   0.323   0.425   0.086
    1TCM    cl2 1905   0.318   0.696   0.190
    1TCM     h1 1906   0.230   0.500   0.293
    1TCM    cl3 1907   0.466   0.490   0.330
    1TCM     c1 1908   3.949   3.837   5.210
    1TCM    cl1 1909   4.083   3.729   5.168
    1TCM    cl2 1910   4.003   3.953   5.334
    1TCM     h1 1911   3.916   3.893   5.120
    1TCM    cl3 1912   3.813   3.741   5.274
    1TCM     c1 1913   2.039   2.369   2.819
    1TCM    cl1 1914   2.204   2.356   2.886
    1TCM    cl2 1915   2.047   2.359   2.642
    1TCM     h1 1916   1.977   2.286   2.859
    1TCM    cl3 1917   1.968   2.525   2.866
    1TCM     c1 1918   2.073   4.217   1.638
    1TCM    cl1 1919   1.958   4.104   1.712
    1TCM    cl2 1920   1.991   4.311   1.511
    1TCM     h1 1921   2.113   4.286   1.715
    1TCM    cl3 1922   2.208   4.126   1.566
    1TCM     c1 1923   4.087   3.644   1.911
    1TCM    cl1 1924   4.074   3.505   1.800
    1TCM    cl2 1925   4.141   3.587   2.070
    1TCM     h1 1926   4.161   3.716   1.870
    1TCM    cl3 1927   3.929   3.723   1.926
    1TCM     c1 1928   2.553   4.660   0.584
    1TCM    cl1 1929   2.627   4.767   0.705
    1TCM    cl2 1930   2.384   4.629   0.629
    1TCM     h1 1931   2.557   4.709   0.484
    1TCM    cl3 1932   2.642   4.506   0.578
    1TCM     c1 1933   2.851   2.345   4.719
    1TCM    cl1 1934   3.027   2.364   4.738
    1TCM    cl2 1935   2.790   2.468   4.605
    1TCM     h1 1936   2.829   2.244   4.680
    1TCM    cl3 1937   2.772   2.367   4.877
    1TCM     c1 1938   1.539   3.343   2.677
    1TCM    cl1 1939   1.590   3.505   2.625
    1TCM    cl2 1940   1.467   3.353   2.839
    1TCM     h1 1941   1.464   3.303   2.606
    1TCM    cl3 1942   1.680   3.235   2.681
    1TCM     c1 1943   0.708   4.153   4.944
    1TCM    cl1 1944   0.648   4.278   4.832
    1TCM    cl2 1945   0.646   4.185   5.107
    1TCM     h1 1946   0.674   4.053   4.910
    1TCM    cl3 1947   0.886   4.157   4.946
    1TCM     c1 1948   0.171   2.491   1.778
    1TCM    cl1 1949   0.282   2.355   1.747
    1TCM    cl2 1950   0.015   2.428   1.834
    1TCM     h1 1951   0.214   2.557   1.855
    1TCM    cl3 1952   0.147   2.583   1.628
    1TCM     c1 1953   4.477   0.965   4.199
    1TCM    cl1 1954   4.390   1.070   4.314
    1TCM    cl2 1955   4.628   1.045   4.149
    1TCM     h1 1956   4.501   0.869   4.248
    1TCM    cl3 1957   4.375   0.936   4.057
    1TCM     c1 1958   4.007   1.128   0.435
    1TCM    cl1 1959   4.099   0.982   0.478
    1TCM    cl2 1960   4.035   1.254   0.557
    1TCM     h1 1961   4.040   1.164   0.335
    1TCM    cl3 1962   3.834   1.089   0.429
    1TCM     c1 1963   1.955   1.799   3.957
    1TCM    cl1 1964   1.887   1.680   3.844
    1TCM    cl2 1965   1.942   1.738   4.123
    1TCM     h1 1966   2.062   1.817   3.932
    1TCM    cl3 1967   1.865   1.952   3.943
    1TCM     c1 1968   0.305   1.813   2.120
    1TCM    cl1 1969   0.438   1.872   2.221
    1TCM    cl2 1970   0.366   1.778   1.956
    1TCM     h1 1971   0.263   1.721   2.164
    1TCM    cl3 1972   0.178   1.938   2.110
    1TCM     c1 1973   1.610   0.561   3.420
    1TCM    cl1 1974   1.712   0.524   3.279
    1TCM    cl2 1975   1.577   0.735   3.425
    1TCM     h1 1976   1.515   0.505   3.412
    1TCM    cl3 1977   1.696   0.513   3.568
    1TCM     c1 1978   2.253   4.193   1.158
    1TCM    cl1 1979   2.276   4.275   1.002
    1TCM    cl2 1980   2.394   4.221   1.262
    1TCM     h1 1981   2.162   4.232   1.207
    1TCM    cl3 1982   2.234   4.018   1.130
    1TCM     c1 1983   3.489   1.807   4.328
    1TCM    cl1 1984   3.628   1.733   4.246
    1TCM    cl2 1985   3.546   1.899   4.469
    1TCM     h1 1986   3.437   1.876   4.258
    1TCM    cl3 1987   3.377   1.680   4.381
    1TCM     c1 1988   2.262   3.590   4.141
    1TCM    cl1 1989   2.180   3.704   4.033
    1TCM    cl2 1990   2.168   3.571   4.291
    1TCM     h1 1991   2.271   3.491   4.090
    1TCM    cl3 1992   2.424   3.651   4.181
    1TCM     c1 1993   3.158   0.993   4.951
    1TCM    cl1 1994   3.196   0.974   4.779
    1TCM    cl2 1995   3.308   1.024   5.042
    1TCM     h1 1996   3.088   1.077   4.965
    1TCM    cl3 1997   3.082   0.843   5.012
    1TCM     c1 1998   3.185   2.782   2.490
    1TCM    cl1 1999   3.263   2.866   2.626
    1TCM    cl2 2000   3.016   2.746   2.532
    1TCM     h1 2001   3.188   2.848   2.400
    1TCM    cl3 2002   3.272   2.631   2.456
    1TCM     c1 2003   4.735   4.250   0.903
    1TCM    cl1 2004   4.570   4.237   0.838
    1TCM    cl2 2005   4.749   4.150   1.049
    1TCM     h1 2006   4.807   4.215   0.827
    1TCM    cl3 2007   4.770   4.419   0.944
    1TCM     c1 2008   2.075   2.894   4.469
    1TCM    cl1 2009   2.161   2.743   4.508
    1TCM    cl2 2010   1.981   2.947   4.611
    1TCM     h1 2011   2.148   2.973   4.443
    1TCM    cl3 2012   1.965   2.867   4.332
    1TCM     c1 2013   2.646   4.088   4.442
    1TCM    cl1 2014   2.669   4.233   4.543
    1TCM    cl2 2015   2.695   4.124   4.275
    1TCM     h1 2016   2.707   4.005   4.482
    1TCM    cl3 2017   2.474   4.041   4.444
    1TCM     c1 2018   4.435   5.151   2.621
    1TCM    cl1 2019   4.538   5.095   2.488
    1TCM    cl2 2020   4.317   5.023   2.662
    1TCM     h1 2021   4.497   5.173   2.710
    1TCM    cl3 2022   4.347   5.297   2.572
    1TCM     c1 2023   1.773   3.645   2.122
    1TCM    cl1 2024   1.672   3.754   2.026
    1TCM    cl2 2025   1.718   3.647   2.291
    1TCM     h1 2026   1.765   3.542   2.082
    1TCM    cl3 2027   1.943   3.699   2.114
    1TCM     c1 2028   3.514   0.759   1.064
    1TCM    cl1 2029   3.579   0.824   1.216
    1TCM    cl2 2030   3.379   0.861   1.008
    1TCM     h1 2031   3.594   0.759   0.987
    1TCM    cl3 2032   3.456   0.593   1.089
    1TCM     c1 2033   0.314   3.720   3.030
    1TCM    cl1 2034   0.463   3.739   2.936
    1TCM    cl2 2035   0.344   3.609   3.167
    1TCM     h1 2036   0.281   3.818   3.069
    1TCM    cl3 2037   0.187   3.652   2.926
    1TCM     c1 2038   2.842   2.757   4.806
    1TCM    cl1 2039   3.005   2.750   4.876
    1TCM    cl2 2040   2.842   2.866   4.665
    1TCM     h1 2041   2.812   2.655   4.773
    1TCM    cl3 2042   2.727   2.817   4.927
    1TCM     c1 2043   2.265   0.670   0.685
    1TCM    cl1 2044   2.190   0.761   0.819
    1TCM    cl2 2045   2.251   0.496   0.716
    1TCM     h1 2046   2.213   0.695   0.590
    1TCM    cl3 2047   2.436   0.715   0.671
    1TCM     c1 2048   2.948   0.294   2.279
    1TCM    cl1 2049   3.075   0.193   2.353
    1TCM    cl2 2050   2.795   0.270   2.366
    1TCM     h1 2051   2.978   0.400   2.285
    1TCM    cl3 2052   2.928   0.248   2.108
    1TCM     c1 2053   1.773   3.498   4.675
    1TCM    cl1 2054   1.713   3.364   4.776
    1TCM    cl2 2055   1.723   3.472   4.506
    1TCM     h1 2056   1.730   3.594   4.712
    1TCM    cl3 2057   1.950   3.504   4.685
    1TCM     c1 2058   0.835   2.780   0.823
    1TCM    cl1 2059   0.782   2.763   0.654
    1TCM    cl2 2060   1.011   2.760   0.832
    1TCM     h1 2061   0.807   2.881   0.860
    1TCM    cl3 2062   0.756   2.655   0.923
    1TCM     c1 2063   3.007   0.220   3.435
    1TCM    cl1 2064   2.979   0.044   3.425
    1TCM    cl2 2065   3.047   0.264   3.603
    1TCM     h1 2066   3.091   0.248   3.368
    1TCM    cl3 2067   2.859   0.306   3.385
    1TCM     c1 2068   2.065   2.955   1.157
    1TCM    cl1 2069   2.130   3.030   1.010
    1TCM    cl2 2070   2.197   2.875   1.246
    1TCM     h1 2071   2.019   3.033   1.222
    1TCM    cl3 2072   1.942   2.834   1.112
    1TCM     c1 2073   3.121   5.237   3.996
    1TCM    cl1 2074   2.995   5.166   4.099
    1TCM    cl2 2075   3.062   5.246   3.828
    1TCM     h1 2076   3.145   5.339   4.032
    1TCM    cl3 2077   3.267   5.136   4.002
    1TCM     c1 2078   2.990   3.300   0.147
    1TCM    cl1 2079   3.119   3.336   0.030
    1TCM    cl2 2080   2.895   3.161   0.089
    1TCM     h1 2081   3.035   3.275   0.245
    1TCM    cl3 2082   2.884   3.441   0.165
    1TCM     c1 2083   0.283   0.398   4.209
    1TCM    cl1 2084   0.274   0.537   4.320
    1TCM    cl2 2085   0.448   0.331   4.213
    1TCM     h1 2086   0.211   0.320   4.242
    1TCM    cl3 2087   0.244   0.450   4.044
    1TCM     c1 2088   2.449   2.612   3.921
    1TCM    cl1 2089   2.283   2.554   3.949
    1TCM    cl2 2090   2.529   2.639   4.077
    1TCM     h1 2091   2.505   2.535   3.864
    1TCM    cl3 2092   2.444   2.763   3.829
    1TCM     c1 2093   0.769   1.444   0.215
    1TCM    cl1 2094   0.914   1.346   0.183
    1TCM    cl2 2095   0.712   1.414   0.381
    1TCM     h1 2096   0.794   1.552   0.204
    1TCM    cl3 2097   0.641   1.401   0.100
    1TCM     c1 2098   4.674   2.982   1.946
    1TCM    cl1 2099   4.674   3.114   2.066
    1TCM    cl2 2100   4.709   3.049   1.785
    1TCM     h1 2101   4.751   2.907   1.973
    1TCM    cl3 2102   4.514   2.904   1.944
    1TCM     c1 2103   3.117   3.257   0.612
    1TCM    cl1 2104   3.138   3.087   0.660
    1TCM    cl2 2105   2.978   3.271   0.503
    1TCM     h1 2106   3.100   3.319   0.702
    1TCM    cl3 2107   3.264   3.313   0.529
    1TCM     c1 2108   2.539   4.929   1.621
    1TCM    cl1 2109   2.381   4.906   1.699
    1TCM    cl2 2110   2.624   5.066   1.697
    1TCM     h1 2111   2.600   4.837   1.632
    1TCM    cl3 2112   2.516   4.963   1.448
    1TCM     c1 2113   2.723   4.114   4.843
    1TCM    cl1 2114   2.682   4.287   4.835
    1TCM    cl2 2115   2.649   4.042   4.989
    1TCM     h1 2116   2.684   4.062   4.753
    1TCM    cl3 2117   2.899   4.095   4.851
    1TCM     c1 2118   4.018   4.021   2.746
    1TCM    cl1 2119   4.115   3.948   2.877
    1TCM    cl2 2120   3.933   3.893   2.658
    1TCM     h1 2121   3.945   4.091   2.790
    1TCM    cl3 2122   4.126   4.108   2.635
    1TCM     c1 2123   2.397   1.516   2.512
    1TCM    cl1 2124   2.338   1.414   2.644
    1TCM    cl2 2125   2.288   1.504   2.373
    1TCM     h1 2126   2.402   1.622   2.546
    1TCM    cl3 2127   2.560   1.463   2.464
    1TCM     c1 2128   4.897   2.392   0.636
    1TCM    cl1 2129   4.768   2.446   0.746
    1TCM    cl2 2130   4.835   2.261   0.533
    1TCM     h1 2131   4.929   2.477   0.572
    1TCM    cl3 2132   5.035   2.332   0.730
    1TCM     c1 2133   4.206   0.544   3.150
    1TCM    cl1 2134   4.194   0.695   3.056
    1TCM    cl2 2135   4.318   0.432   3.068
    1TCM     h1 2136   4.244   0.567   3.251
    1TCM    cl3 2137   4.045   0.469   3.162
    1TCM     c1 2138   4.856   2.327   0.190
    1TCM    cl1 2139   4.856   2.410   0.347
    1TCM    cl2 2140   4.873   2.446   0.059
    1TCM     h1 2141   4.940   2.255   0.186
    1TCM    cl3 2142   4.702   2.239   0.170
    1TCM     c1 2143   3.342   1.261   1.042
    1TCM    cl1 2144   3.467   1.234   1.166
    1TCM    cl2 2145   3.420   1.310   0.890
    1TCM     h1 2146   3.285   1.167   1.026
    1TCM    cl3 2147   3.231   1.389   1.096
    1TCM     c1 2148   2.779   4.519   4.712
    1TCM    cl1 2149   2.697   4.587   4.854
    1TCM    cl2 2150   2.658   4.452   4.599
    1TCM     h1 2151   2.837   4.598   4.661
    1TCM    cl3 2152   2.889   4.389   4.763
    1TCM     c1 2153   1.460   5.265   0.592
    1TCM    cl1 2154   1.458   5.323   0.424
    1TCM    cl2 2155   1.526   5.100   0.598
    1TCM     h1 2156   1.524   5.333   0.653
    1TCM    cl3 2157   1.294   5.265   0.657
    1TCM     c1 2158   1.424   3.320   4.510
    1TCM    cl1 2159   1.308   3.201   4.447
    1TCM    cl2 2160   1.401   3.476   4.427
    1TCM     h1 2161   1.407   3.333   4.619
    1TCM    cl3 2162   1.589   3.262   4.482
    1TCM     c1 2163   1.230   2.380   2.389
    1TCM    cl1 2164   1.337   2.301   2.506
    1TCM    cl2 2165   1.218   2.280   2.242
    1TCM     h1 2166   1.129   2.392   2.433
    1TCM    cl3 2167   1.296   2.540   2.347
    1TCM     c1 2168   1.397   1.395   0.652
    1TCM    cl1 2169   1.436   1.525   0.767
    1TCM    cl2 2170   1.267   1.448   0.543
    1TCM     h1 2171   1.488   1.370   0.593
    1TCM    cl3 2172   1.344   1.250   0.742
    1TCM     c1 2173   0.336   5.191   3.264
    1TCM    cl1 2174   0.429   5.068   3.352
    1TCM    cl2 2175   0.262   5.118   3.119
    1TCM     h1 2176   0.256   5.231   3.330
    1TCM    cl3 2177   0.444   5.324   3.214
    1TCM     c1 2178   2.805   3.931   0.337
    1TCM    cl1 2179   2.822   3.993   0.502
    1TCM    cl2 2180   2.695   3.791   0.337
    1TCM     h1 2181   2.763   4.011   0.272
    1TCM    cl3 2182   2.964   3.882   0.275
    1TCM     c1 2183   5.163   1.868   0.880
    1TCM    cl1 2184   5.071   1.959   1.002
    1TCM    cl2 2185   5.056   1.826   0.744
    1TCM     h1 2186   5.247   1.931   0.843
    1TCM    cl3 2187   5.228   1.720   0.953
    1TCM     c1 2188   3.271   4.745   4.083
    1TCM    cl1 2189   3.311   4.584   4.149
    1TCM    cl2 2190   3.238   4.857   4.217
    1TCM     h1 2191   3.357   4.782   4.023
    1TCM    cl3 2192   3.128   4.732   3.979
    1TCM     c1 2193   0.394   3.237   3.465
    1TCM    cl1 2194   0.435   3.089   3.375
    1TCM    cl2 2195   0.390   3.201   3.639
    1TCM     h1 2196   0.470   3.315   3.445
    1TCM    cl3 2197   0.234   3.296   3.413
    1TCM     c1 2198   2.908   0.554   1.973
    1TCM    cl1 2199   2.785   0.488   1.863
    1TCM    cl2 2200   2.859   0.526   2.141
    1TCM     h1 2201   3.006   0.504   1.954
    1TCM    cl3 2202   2.926   0.729   1.945
    1TCM     c1 2203   4.831   5.032   4.372
    1TCM    cl1 2204   4.906   5.168   4.459
    1TCM    cl2 2205   4.840   5.063   4.197
    1TCM     h1 2206   4.884   4.938   4.396
    1TCM    cl3 2207   4.661   5.018   4.420
    1TCM     c1 2208   4.027   0.968   2.084
    1TCM    cl1 2209   4.167   0.901   2.171
    1TCM    cl2 2210   4.022   0.901   1.919
    1TCM     h1 2211   3.934   0.942   2.138
    1TCM    cl3 2212   4.042   1.145   2.075
    1TCM     c1 2213   2.325   4.746   2.441
    1TCM    cl1 2214   2.321   4.812   2.276
    1TCM    cl2 2215   2.361   4.572   2.433
    1TCM     h1 2216   2.404   4.798   2.499
    1TCM    cl3 2217   2.168   4.771   2.519
    1TCM     c1 2218   2.275   2.601   0.887
    1TCM    cl1 2219   2.428   2.689   0.868
    1TCM    cl2 2220   2.163   2.698   0.986
    1TCM     h1 2221   2.230   2.583   0.787
    1TCM    cl3 2222   2.306   2.446   0.968
    1TCM     c1 2223   2.204   4.751   0.389
    1TCM    cl1 2224   2.087   4.659   0.291
    1TCM    cl2 2225   2.172   4.722   0.562
    1TCM     h1 2226   2.307   4.719   0.365
    1TCM    cl3 2227   2.186   4.925   0.355
    1TCM     c1 2228   3.692   1.065   2.357
    1TCM    cl1 2229   3.803   1.204   2.341
    1TCM    cl2 2230   3.526   1.118   2.324
    1TCM     h1 2231   3.721   0.986   2.285
    1TCM    cl3 2232   3.702   1.000   2.523
    1TCM     c1 2233   3.758   4.136   0.837
    1TCM    cl1 2234   3.649   4.001   0.800
    1TCM    cl2 2235   3.784   4.143   1.013
    1TCM     h1 2236   3.855   4.121   0.786
    1TCM    cl3 2237   3.684   4.288   0.782
    1TCM     c1 2238   1.647   4.267   2.182
    1TCM    cl1 2239   1.531   4.220   2.308
    1TCM    cl2 2240   1.722   4.122   2.113
    1TCM     h1 2241   1.594   4.323   2.102
    1TCM    cl3 2242   1.773   4.371   2.253
    1TCM     c1 2243   4.986   2.721   3.098
    1TCM    cl1 2244   4.849   2.755   3.205
    1TCM    cl2 2245   5.136   2.711   3.194
    1TCM     h1 2246   4.969   2.624   3.046
    1TCM    cl3 2247   5.002   2.851   2.978
    1TCM     c1 2248   1.596   1.374   2.216
    1TCM    cl1 2249   1.672   1.310   2.069
    1TCM    cl2 2250   1.713   1.371   2.350
    1TCM     h1 2251   1.563   1.478   2.198
    1TCM    cl3 2252   1.455   1.273   2.258
    1TCM     c1 2253   1.010   4.301   0.208
    1TCM    cl1 2254   1.102   4.393   0.329
    1TCM    cl2 2255   0.855   4.382   0.177
    1TCM     h1 2256   1.069   4.296   0.114
    1TCM    cl3 2257   0.980   4.137   0.269
    1TCM     c1 2258   3.130   2.642   0.938
    1TCM    cl1 2259   3.056   2.753   1.056
    1TCM    cl2 2260   3.248   2.538   1.021
    1TCM     h1 2261   3.051   2.579   0.893
    1TCM    cl3 2262   3.212   2.735   0.811
    1TCM     c1 2263   0.580   1.990   2.539
    1TCM    cl1 2264   0.694   1.929   2.661
    1TCM    cl2 2265   0.570   1.874   2.405
    1TCM     h1 2266   0.480   2.002   2.585
    1TCM    cl3 2267   0.637   2.147   2.477
    1TCM     c1 2268   2.614   0.765   4.991
    1TCM    cl1 2269   2.547   0.889   4.883
    1TCM    cl2 2270   2.628   0.832   5.156
    1TCM     h1 2271   2.547   0.677   4.993
    1TCM    cl3 2272   2.775   0.716   4.934
    1TCM     c1 2273   0.419   4.321   4.226
    1TCM    cl1 2274   0.535   4.453   4.254
    1TCM    cl2 2275   0.254   4.379   4.255
    1TCM     h1 2276   0.428   4.285   4.122
    1TCM    cl3 2277   0.454   4.187   4.338
    1TCM     c1 2278   5.022   4.011   1.572
    1TCM    cl1 2279   5.133   3.874   1.550
    1TCM    cl2 2280   4.940   3.998   1.729
    1TCM     h1 2281   5.079   4.106   1.568
    1TCM    cl3 2282   4.900   4.010   1.442
    1TCM     c1 2283   2.569   2.381   0.451
    1TCM    cl1 2284   2.497   2.523   0.371
    1TCM    cl2 2285   2.670   2.434   0.587
    1TCM     h1 2286   2.488   2.315   0.488
    1TCM    cl3 2287   2.669   2.291   0.334
    1TCM     c1 2288   5.216   5.044   3.606
    1TCM    cl1 2289   5.175   5.217   3.608
    1TCM    cl2 2290   5.205   4.982   3.439
    1TCM     h1 2291   5.320   5.030   3.643
    1TCM    cl3 2292   5.103   4.955   3.710
    1TCM     c1 2293   3.358   2.504   2.122
    1TCM    cl1 2294   3.182   2.484   2.113
    1TCM    cl2 2295   3.405   2.651   2.033
    1TCM     h1 2296   3.389   2.513   2.228
    1TCM    cl3 2297   3.438   2.362   2.049
    1TCM     c1 2298   3.875   1.321   5.216
    1TCM    cl1 2299   3.965   1.475   5.213
    1TCM    cl2 2300   3.925   1.221   5.078
    1TCM     h1 2301   3.897   1.268   5.310
    1TCM    cl3 2302   3.701   1.355   5.205
    1TCM     c1 2303   1.224   2.024   4.490
    1TCM    cl1 2304   1.348   1.926   4.409
    1TCM    cl2 2305   1.153   2.139   4.375
    1TCM     h1 2306   1.144   1.957   4.529
    1TCM    cl3 2307   1.298   2.113   4.626
    1TCM     c1 2308   0.374   0.398   2.198
    1TCM    cl1 2309   0.493   0.351   2.322
    1TCM    cl2 2310   0.429   0.342   2.039
    1TCM     h1 2311   0.276   0.352   2.222
    1TCM    cl3 2312   0.357   0.575   2.196
    1TCM     c1 2313   3.849   0.434   1.052
    1TCM    cl1 2314   3.714   0.354   0.969
    1TCM    cl2 2315   3.890   0.345   1.200
    1TCM     h1 2316   3.938   0.437   0.985
    1TCM    cl3 2317   3.802   0.600   1.094
    1TCM     c1 2318   3.171   2.254   3.651
    1TCM    cl1 2319   3.007   2.230   3.716
    1TCM    cl2 2320   3.288   2.259   3.784
    1TCM     h1 2321   3.196   2.170   3.582
    1TCM    cl3 2322   3.177   2.408   3.561
    1TCM     c1 2323   3.741   2.879   3.570
    1TCM    cl1 2324   3.568   2.921   3.571
    1TCM    cl2 2325   3.835   3.017   3.510
    1TCM     h1 2326   3.773   2.854   3.674
    1TCM    cl3 2327   3.767   2.739   3.464
    1TCM     c1 2328   3.227   4.474   1.836
    1TCM    cl1 2329   3.292   4.356   1.719
    1TCM    cl2 2330   3.127   4.390   1.956
    1TCM     h1 2331   3.311   4.526   1.887
    1TCM    cl3 2332   3.128   4.594   1.750
    1TCM     c1 2333   0.522   1.332   4.205
    1TCM    cl1 2334   0.493   1.176   4.285
    1TCM    cl2 2335   0.666   1.320   4.102
    1TCM     h1 2336   0.434   1.358   4.142
    1TCM    cl3 2337   0.547   1.458   4.328
    1TCM     c1 2338   0.364   1.840   1.619
    1TCM    cl1 2339   0.237   1.898   1.731
    1TCM    cl2 2340   0.524   1.875   1.689
    1TCM     h1 2341   0.353   1.731   1.604
    1TCM    cl3 2342   0.348   1.924   1.463
    1TCM     c1 2343   0.156   2.945   1.378
    1TCM    cl1 2344   0.002   2.888   1.309
    1TCM    cl2 2345   0.194   2.851   1.524
    1TCM     h1 2346   0.237   2.931   1.303
    1TCM    cl3 2347   0.142   3.117   1.420
    1TCM     c1 2348   3.632   1.299   1.530
    1TCM    cl1 2349   3.621   1.276   1.354
    1TCM    cl2 2350   3.804   1.311   1.577
    1TCM     h1 2351   3.580   1.393   1.559
    1TCM    cl3 2352   3.558   1.161   1.613
    1TCM     c1 2353   3.513   1.675   4.800
    1TCM    cl1 2354   3.619   1.807   4.745
    1TCM    cl2 2355   3.518   1.542   4.682
    1TCM     h1 2356   3.548   1.639   4.898
    1TCM    cl3 2357   3.347   1.736   4.815
    1TCM     c1 2358   0.701   4.007   4.306
    1TCM    cl1 2359   0.597   3.863   4.314
    1TCM    cl2 2360   0.627   4.128   4.199
    1TCM     h1 2361   0.712   4.050   4.408
    1TCM    cl3 2362   0.861   3.962   4.243
    1TCM     c1 2363   3.621   3.227   5.172
    1TCM    cl1 2364   3.479   3.226   5.065
    1TCM    cl2 2365   3.673   3.060   5.204
    1TCM     h1 2366   3.704   3.283   5.123
    1TCM    cl3 2367   3.579   3.307   5.325
    1TCM     c1 2368   0.937   2.697   1.522
    1TCM    cl1 2369   0.933   2.697   1.344
    1TCM    cl2 2370   1.096   2.641   1.578
    1TCM     h1 2371   0.917   2.799   1.560
    1TCM    cl3 2372   0.811   2.586   1.583
    1TCM     c1 2373   4.362   1.131   0.321
    1TCM    cl1 2374   4.472   1.253   0.253
    1TCM    cl2 2375   4.341   1.160   0.495
    1TCM     h1 2376   4.263   1.138   0.270
    1TCM    cl3 2377   4.431   0.969   0.296
    1TCM     c1 2378   3.086   0.844   3.511
    1TCM    cl1 2379   3.142   0.698   3.596
    1TCM    cl2 2380   2.935   0.808   3.424
    1TCM     h1 2381   3.068   0.925   3.585
    1TCM    cl3 2382   3.210   0.897   3.395
    1TCM     c1 2383   4.224   1.281   4.787
    1TCM    cl1 2384   4.159   1.426   4.866
    1TCM    cl2 2385   4.386   1.316   4.724
    1TCM     h1 2386   4.229   1.198   4.860
    1TCM    cl3 2387   4.117   1.234   4.653
    1TCM     c1 2388   4.766   2.138   3.806
    1TCM    cl1 2389   4.793   2.114   3.980
    1TCM    cl2 2390   4.901   2.232   3.739
    1TCM     h1 2391   4.760   2.040   3.756
    1TCM    cl3 2392   4.614   2.226   3.782
    1TCM     c1 2393   3.386   0.766   3.802
    1TCM    cl1 2394   3.212   0.804   3.813
    1TCM    cl2 2395   3.419   0.615   3.890
    1TCM     h1 2396   3.414   0.753   3.695
    1TCM    cl3 2397   3.480   0.899   3.873
    1TCM     c1 2398   3.892   3.726   1.645
    1TCM    cl1 2399   3.784   3.807   1.760
    1TCM    cl2 2400   3.943   3.842   1.520
    1TCM     h1 2401   3.982   3.688   1.698
    1TCM    cl3 2402   3.807   3.590   1.568
    1TCM     c1 2403   0.531   0.162   1.367
    1TCM    cl1 2404   0.509   0.334   1.404
    1TCM    cl2 2405   0.555   0.071   1.518
    1TCM     h1 2406   0.441   0.124   1.315
    1TCM    cl3 2407   0.673   0.141   1.263
    1TCM     c1 2408   2.165   3.963   3.691
    1TCM    cl1 2409   2.300   3.963   3.806
    1TCM    cl2 2410   2.227   3.938   3.526
    1TCM     h1 2411   2.094   3.882   3.716
    1TCM    cl3 2412   2.080   4.119   3.699
    1TCM     c1 2413   4.528   3.957   1.372
    1TCM    cl1 2414   4.356   3.914   1.358
    1TCM    cl2 2415   4.620   3.817   1.430
    1TCM     h1 2416   4.566   3.989   1.273
    1TCM    cl3 2417   4.545   4.091   1.488
    1TCM     c1 2418   3.190   4.348   4.580
    1TCM    cl1 2419   3.124   4.268   4.435
    1TCM    cl2 2420   3.174   4.240   4.720
    1TCM     h1 2421   3.297   4.371   4.563
    1TCM    cl3 2422   3.101   4.498   4.610
    1TCM     c1 2423   2.056   1.861   4.781
    1TCM    cl1 2424   2.183   1.984   4.758
    1TCM    cl2 2425   1.944   1.915   4.908
    1TCM     h1 2426   2.000   1.847   4.686
    1TCM    cl3 2427   2.131   1.707   4.828
    1TCM     c1 2428   1.465   3.586   1.923
    1TCM    cl1 2429   1.467   3.597   2.100
    1TCM    cl2 2430   1.565   3.449   1.871
    1TCM     h1 2431   1.361   3.572   1.888
    1TCM    cl3 2432   1.531   3.737   1.853
    1TCM     c1 2433   1.847   0.134   1.538
    1TCM    cl1 2434   1.896   0.081   1.376
    1TCM    cl2 2435   1.985   0.119   1.650
    1TCM     h1 2436   1.815   0.241   1.534
    1TCM    cl3 2437   1.712   0.034   1.596
    1TCM     c1 2438   4.085   4.356   3.807
    1TCM    cl1 2439   4.173   4.293   3.666
    1TCM    cl2 2440   4.066   4.227   3.928
    1TCM     h1 2441   4.143   4.440   3.852
    1TCM    cl3 2442   3.925   4.414   3.757
    1TCM     c1 2443   0.708   0.965   3.798
    1TCM    cl1 2444   0.828   1.096   3.803
    1TCM    cl2 2445   0.635   0.958   3.636
    1TCM     h1 2446   0.757   0.869   3.820
    1TCM    cl3 2447   0.581   0.997   3.918
    1TCM     c1 2448   1.705   4.453   0.720
    1TCM    cl1 2449   1.705   4.525   0.558
    1TCM    cl2 2450   1.566   4.342   0.735
    1TCM     h1 2451   1.799   4.397   0.736
    1TCM    cl3 2452   1.691   4.581   0.842
    1TCM     c1 2453   3.818   0.906   3.289
    1TCM    cl1 2454   3.671   0.974   3.217
    1TCM    cl2 2455   3.960   0.997   3.231
    1TCM     h1 2456   3.813   0.913   3.400
    1TCM    cl3 2457   3.834   0.735   3.242
    1TCM     c1 2458   0.159   4.637   3.984
    1TCM    cl1 2459   0.073   4.696   3.839
    1TCM    cl2 2460   0.334   4.648   3.957
    1TCM     h1 2461   0.131   4.700   4.071
    1TCM    cl3 2462   0.114   4.468   4.015
    1TCM     c1 2463   4.484   1.719   5.258
    1TCM    cl1 2464   4.594   1.854   5.295
    1TCM    cl2 2465   4.326   1.749   5.334
    1TCM     h1 2466   4.471   1.711   5.148
    1TCM    cl3 2467   4.552   1.567   5.321
    1TCM     c1 2468   0.507   0.660   2.755
    1TCM    cl1 2469   0.472   0.832   2.785
    1TCM    cl2 2470   0.371   0.561   2.812
    1TCM     h1 2471   0.522   0.644   2.646
    1TCM    cl3 2472   0.655   0.614   2.842
    1TCM     c1 2473   0.611   2.049   2.021
    1TCM    cl1 2474   0.570   2.216   2.066
    1TCM    cl2 2475   0.771   2.047   1.942
    1TCM     h1 2476   0.614   1.986   2.112
    1TCM    cl3 2477   0.489   1.986   1.908
    1TCM     c1 2478   3.643   2.225   1.673
    1TCM    cl1 2479   3.702   2.155   1.521
    1TCM    cl2 2480   3.702   2.392   1.689
    1TCM     h1 2481   3.532   2.225   1.673
    1TCM    cl3 2482   3.702   2.128   1.810
    1TCM     c1 2483   2.671   0.948   4.436
    1TCM    cl1 2484   2.796   0.937   4.310
    1TCM    cl2 2485   2.748   0.957   4.595
    1TCM     h1 2486   2.609   1.038   4.419
    1TCM    cl3 2487   2.567   0.803   4.429
    1TCM     c1 2488   4.706   2.618   5.012
    1TCM    cl1 2489   4.563   2.693   5.088
    1TCM    cl2 2490   4.689   2.627   4.835
    1TCM     h1 2491   4.797   2.673   5.043
    1TCM    cl3 2492   4.718   2.448   5.062
    1TCM     c1 2493   3.839   0.776   2.856
    1TCM    cl1 2494   3.754   0.662   2.962
    1TCM    cl2 2495   3.801   0.943   2.904
    1TCM     h1 2496   3.949   0.760   2.864
    1TCM    cl3 2497   3.788   0.750   2.688
    1TCM     c1 2498   3.342   2.256   3.302
    1TCM    cl1 2499   3.442   2.162   3.415
    1TCM    cl2 2500   3.361   2.190   3.138
    1TCM     h1 2501   3.236   2.250   3.332
    1TCM    cl3 2502   3.395   2.426   3.304
    1TCM     c1 2503   3.743   1.679   1.479
    1TCM    cl1 2504   3.707   1.561   1.351
    1TCM    cl2 2505   3.717   1.602   1.638
    1TCM     h1 2506   3.848   1.711   1.471
    1TCM    cl3 2507   3.635   1.819   1.463
    1TCM     c1 2508   0.474   3.436   1.589
    1TCM    cl1 2509   0.310   3.473   1.532
    1TCM    cl2 2510   0.497   3.259   1.592
    1TCM     h1 2511   0.548   3.481   1.521
    1TCM    cl3 2512   0.496   3.501   1.753
    1TCM     c1 2513   2.440   3.717   4.612
    1TCM    cl1 2514   2.296   3.613   4.601
    1TCM    cl2 2515   2.389   3.884   4.646
    1TCM     h1 2516   2.505   3.681   4.694
    1TCM    cl3 2517   2.529   3.713   4.458
    1TCM     c1 2518   1.943   1.637   1.977
    1TCM    cl1 2519   1.834   1.506   2.029
    1TCM    cl2 2520   2.069   1.570   1.870
    1TCM     h1 2521   1.885   1.714   1.922
    1TCM    cl3 2522   2.020   1.711   2.119
    1TCM     c1 2523   4.541   2.462   0.261
    1TCM    cl1 2524   4.611   2.461   0.098
    1TCM    cl2 2525   4.635   2.355   0.367
    1TCM     h1 2526   4.543   2.566   0.302
    1TCM    cl3 2527   4.373   2.405   0.253
    1TCM     c1 2528   3.118   4.597   3.611
    1TCM    cl1 2529   3.288   4.599   3.558
    1TCM    cl2 2530   3.016   4.531   3.481
    1TCM     h1 2531   3.108   4.534   3.701
    1TCM    cl3 2532   3.065   4.763   3.648
    1TCM     c1 2533   5.046   3.863   5.182
    1TCM    cl1 2534   5.218   3.857   5.227
    1TCM    cl2 2535   4.946   3.853   5.328
    1TCM     h1 2536   5.025   3.959   5.129
    1TCM    cl3 2537   5.009   3.727   5.074
    1TCM     c1 2538   1.191   2.660   3.322
    1TCM    cl1 2539   1.368   2.678   3.321
    1TCM    cl2 2540   1.115   2.820   3.334
    1TCM     h1 2541   1.158   2.610   3.229
    1TCM    cl3 2542   1.143   2.561   3.463
    1TCM     c1 2543   2.554   2.799   1.333
    1TCM    cl1 2544   2.714   2.844   1.268
    1TCM    cl2 2545   2.573   2.661   1.444
    1TCM     h1 2546   2.511   2.885   1.388
    1TCM    cl3 2547   2.447   2.753   1.199
    1TCM     c1 2548   0.153   3.539   3.545
    1TCM    cl1 2549   0.298   3.449   3.592
    1TCM    cl2 2550   0.184   3.714   3.560
    1TCM     h1 2551   0.127   3.515   3.440
    1TCM    cl3 2552   0.018   3.494   3.651
    1TCM     c1 2553   2.487   4.859   3.307
    1TCM    cl1 2554   2.556   5.001   3.388
    1TCM    cl2 2555   2.529   4.863   3.134
    1TCM     h1 2556   2.527   4.767   3.353
    1TCM    cl3 2557   2.310   4.862   3.324
    1TCM     c1 2558   4.998   2.716   4.194
    1TCM    cl1 2559   4.842   2.801   4.186
    1TCM    cl2 2560   5.029   2.665   4.362
    1TCM     h1 2561   4.995   2.627   4.128
    1TCM    cl3 2562   5.128   2.825   4.141
    1TCM     c1 2563   2.594   2.236   3.591
    1TCM    cl1 2564   2.711   2.127   3.667
    1TCM    cl2 2565   2.431   2.166   3.605
    1TCM     h1 2566   2.596   2.335   3.641
    1TCM    cl3 2567   2.635   2.256   3.419
    1TCM     c1 2568   1.948   0.954   4.077
    1TCM    cl1 2569   1.915   0.851   3.936
    1TCM    cl2 2570   1.800   0.971   4.174
    1TCM     h1 2571   2.027   0.907   4.139
    1TCM    cl3 2572   2.003   1.114   4.023
    1TCM     c1 2573   0.921   0.311   0.836
    1TCM    cl1 2574   0.888   0.474   0.774
    1TCM    cl2 2575   0.835   0.191   0.738
    1TCM     h1 2576   1.030   0.291   0.831
    1TCM    cl3 2577   0.866   0.299   1.005
    1TCM     c1 2578   4.151   1.432   3.664
    1TCM    cl1 2579   4.181   1.576   3.564
    1TCM    cl2 2580   4.118   1.483   3.832
    1TCM     h1 2581   4.063   1.377   3.624
    1TCM    cl3 2582   4.294   1.327   3.661
    1TCM     c1 2583   3.197   4.948   3.358
    1TCM    cl1 2584   3.223   5.089   3.252
    1TCM    cl2 2585   3.023   4.926   3.385
    1TCM     h1 2586   3.239   4.858   3.309
    1TCM    cl3 2587   3.279   4.976   3.513
    1TCM     c1 2588   2.185   2.547   3.162
    1TCM    cl1 2589   2.092   2.666   3.068
    1TCM    cl2 2590   2.163   2.579   3.335
    1TCM     h1 2591   2.149   2.445   3.138
    1TCM    cl3 2592   2.357   2.561   3.121
    1TCM     c1 2593   1.532   0.798   5.239
    1TCM    cl1 2594   1.396   0.743   5.339
    1TCM    cl2 2595   1.474   0.832   5.074
    1TCM     h1 2596   1.575   0.891   5.283
    1TCM    cl3 2597   1.657   0.672   5.233
    1TCM     c1 2598   2.293   4.449   4.353
    1TCM    cl1 2599   2.283   4.625   4.374
    1TCM    cl2 2600   2.220   4.368   4.494
    1TCM     h1 2601   2.239   4.419   4.261
    1TCM    cl3 2602   2.464   4.401   4.340
    1TCM     c1 2603   0.782   3.760   5.065
    1TCM    cl1 2604   0.649   3.669   4.991
    1TCM    cl2 2605   0.937   3.684   5.023
    1TCM     h1 2606   0.781   3.865   5.027
    1TCM    cl3 2607   0.763   3.761   5.242
    1TCM     c1 2608   5.094   3.056   1.868
    1TCM    cl1 2609   5.170   2.938   1.978
    1TCM    cl2 2610   5.220   3.155   1.791
    1TCM     h1 2611   5.036   3.002   1.791
    1TCM    cl3 2612   4.984   3.161   1.961
    1TCM     c1 2613   3.351   1.216   3.599
    1TCM    cl1 2614   3.322   1.316   3.455
    1TCM    cl2 2615   3.197   1.145   3.654
    1TCM     h1 2616   3.422   1.135   3.574
    1TCM    cl3 2617   3.419   1.317   3.728
    1TCM     c1 2618   1.547   0.126   1.282
    1TCM    cl1 2619   1.395   0.149   1.192
    1TCM    cl2 2620   1.651   0.012   1.195
    1TCM     h1 2621   1.599   0.223   1.292
    1TCM    cl3 2622   1.511   0.061   1.444
    1TCM     c1 2623   2.751   2.952   3.901
    1TCM    cl1 2624   2.662   2.799   3.908
    1TCM    cl2 2625   2.918   2.926   3.954
    1TCM     h1 2626   2.750   2.990   3.797
    1TCM    cl3 2627   2.673   3.071   4.008
    1TCM     c1 2628   5.096   3.333   1.265
    1TCM    cl1 2629   5.190   3.452   1.174
    1TCM    cl2 2630   5.120   3.359   1.440
    1TCM     h1 2631   4.988   3.344   1.241
    1TCM    cl3 2632   5.150   3.169   1.222
    1TCM     c1 2633   1.883   0.268   0.193
    1TCM    cl1 2634   1.844   0.426   0.122
    1TCM    cl2 2635   1.865   0.276   0.369
    1TCM     h1 2636   1.814   0.191   0.152
    1TCM    cl3 2637   2.051   0.224   0.152
    1TCM     c1 2638   1.067   1.925   3.077
    1TCM    cl1 2639   0.945   1.921   2.948
    1TCM    cl2 2640   1.012   1.826   3.214
    1TCM     h1 2641   1.163   1.885   3.038
    1TCM    cl3 2642   1.091   2.093   3.131
    1TCM     c1 2643   2.722   3.895   2.478
    1TCM    cl1 2644   2.575   3.895   2.578
    1TCM    cl2 2645   2.684   3.958   2.316
    1TCM     h1 2646   2.799   3.959   2.526
    1TCM    cl3 2647   2.784   3.729   2.463
    1TCM     c1 2648   1.540   0.594   2.860
    1TCM    cl1 2649   1.584   0.766   2.842
    1TCM    cl2 2650   1.387   0.582   2.949
    1TCM     h1 2651   1.528   0.549   2.759
    1TCM    cl3 2652   1.668   0.509   2.949
    1TCM     c1 2653   5.135   5.026   2.826
    1TCM    cl1 2654   5.124   4.952   2.665
    1TCM    cl2 2655   5.282   4.969   2.908
    1TCM     h1 2656   5.138   5.136   2.817
    1TCM    cl3 2657   4.992   4.979   2.922
    1TCM     c1 2658   2.517   3.905   3.260
    1TCM    cl1 2659   2.525   3.821   3.103
    1TCM    cl2 2660   2.502   3.784   3.390
    1TCM     h1 2661   2.609   3.964   3.274
    1TCM    cl3 2662   2.375   4.013   3.262
    1TCM     c1 2663   5.036   5.047   0.223
    1TCM    cl1 2664   4.919   5.055   0.357
    1TCM    cl2 2665   4.968   5.128   0.080
    1TCM     h1 2666   5.130   5.098   0.253
    1TCM    cl3 2667   5.071   4.877   0.184
    1TCM     c1 2668   1.534   4.047   5.169
    1TCM    cl1 2669   1.409   3.991   5.282
    1TCM    cl2 2670   1.686   4.075   5.257
    1TCM     h1 2671   1.550   3.970   5.091
    1TCM    cl3 2672   1.481   4.198   5.092
    1TCM     c1 2673   0.396   1.981   3.526
    1TCM    cl1 2674   0.334   1.859   3.412
    1TCM    cl2 2675   0.569   1.952   3.556
    1TCM     h1 2676   0.382   2.082   3.483
    1TCM    cl3 2677   0.306   1.969   3.679
    1TCM     c1 2678   4.546   0.389   4.770
    1TCM    cl1 2679   4.518   0.558   4.816
    1TCM    cl2 2680   4.443   0.283   4.868
    1TCM     h1 2681   4.522   0.375   4.662
    1TCM    cl3 2682   4.717   0.347   4.798
    1TCM     c1 2683   4.291   2.417   2.531
    1TCM    cl1 2684   4.367   2.386   2.689
    1TCM    cl2 2685   4.416   2.456   2.412
    1TCM     h1 2686   4.236   2.326   2.499
    1TCM    cl3 2687   4.177   2.553   2.545
    1TCM     c1 2688   3.514   4.668   1.689
    1TCM    cl1 2689   3.381   4.735   1.786
    1TCM    cl2 2690   3.525   4.756   1.535
    1TCM     h1 2691   3.609   4.679   1.745
    1TCM    cl3 2692   3.484   4.496   1.657
    1TCM     c1 2693   5.223   5.208   0.754
    1TCM    cl1 2694   5.095   5.169   0.637
    1TCM    cl2 2695   5.329   5.334   0.687
    1TCM     h1 2696   5.177   5.244   0.848
    1TCM    cl3 2697   5.319   5.062   0.787
    1TCM     c1 2698   3.965   5.153   0.262
    1TCM    cl1 2699   3.838   5.202   0.148
    1TCM    cl2 2700   3.907   5.177   0.428
    1TCM     h1 2701   3.989   5.045   0.247
    1TCM    cl3 2702   4.110   5.251   0.235
    1TCM     c1 2703   0.667   5.117   2.498
    1TCM    cl1 2704   0.797   4.995   2.491
    1TCM    cl2 2705   0.560   5.098   2.357
    1TCM     h1 2706   0.608   5.103   2.591
    1TCM    cl3 2707   0.738   5.280   2.497
    1TCM     c1 2708   2.854   5.141   4.388
    1TCM    cl1 2709   2.868   5.085   4.556
    1TCM    cl2 2710   2.907   5.012   4.278
    1TCM     h1 2711   2.748   5.167   4.366
    1TCM    cl3 2712   2.956   5.285   4.365
    1TCM     c1 2713   4.413   4.204   1.851
    1TCM    cl1 2714   4.559   4.279   1.782
    1TCM    cl2 2715   4.403   4.240   2.024
    1TCM     h1 2716   4.323   4.243   1.799
    1TCM    cl3 2717   4.421   4.027   1.828
    1TCM     c1 2718   3.249   3.711   4.922
    1TCM    cl1 2719   3.351   3.638   4.797
    1TCM    cl2 2720   3.333   3.704   5.079
    1TCM     h1 2721   3.229   3.817   4.896
    1TCM    cl3 2722   3.095   3.623   4.933
    1TCM     c1 2723   2.785   0.525   4.378
    1TCM    cl1 2724   2.881   0.566   4.522
    1TCM    cl2 2725   2.841   0.624   4.241
    1TCM     h1 2726   2.797   0.418   4.354
    1TCM    cl3 2727   2.614   0.560   4.410
    1TCM     c1 2728   3.365   3.344   1.815
    1TCM    cl1 2729   3.227   3.237   1.783
    1TCM    cl2 2730   3.408   3.335   1.988
    1TCM     h1 2731   3.452   3.311   1.754
    1TCM    cl3 2732   3.322   3.511   1.773
    1TCM     c1 2733   1.488   3.878   3.091
    1TCM    cl1 2734   1.465   3.831   2.921
    1TCM    cl2 2735   1.648   3.823   3.147
    1TCM     h1 2736   1.482   3.988   3.100
    1TCM    cl3 2737   1.362   3.803   3.191
    1TCM     c1 2738   2.838   4.232   1.776
    1TCM    cl1 2739   2.906   4.068   1.759
    1TCM    cl2 2740   2.670   4.220   1.833
    1TCM     h1 2741   2.899   4.289   1.849
    1TCM    cl3 2742   2.842   4.314   1.619
    1TCM     c1 2743   5.137   1.674   2.953
    1TCM    cl1 2744   5.289   1.617   2.879
    1TCM    cl2 2745   5.169   1.728   3.119
    1TCM     h1 2746   5.097   1.759   2.893
    1TCM    cl3 2747   5.019   1.541   2.955
    1TCM     c1 2748   4.426   3.475   3.044
    1TCM    cl1 2749   4.540   3.548   3.160
    1TCM    cl2 2750   4.493   3.487   2.880
    1TCM     h1 2751   4.411   3.368   3.071
    1TCM    cl3 2752   4.271   3.560   3.051
    1TCM     c1 2753   2.754   4.898   2.657
    1TCM    cl1 2754   2.622   5.001   2.596
    1TCM    cl2 2755   2.792   4.943   2.824
    1TCM     h1 2756   2.723   4.792   2.654
    1TCM    cl3 2757   2.898   4.920   2.555
    1TCM     c1 2758   2.986   3.321   2.413
    1TCM    cl1 2759   3.091   3.323   2.270
    1TCM    cl2 2760   2.879   3.179   2.407
    1TCM     h1 2761   3.048   3.316   2.505
    1TCM    cl3 2762   2.888   3.469   2.417
    1TCM     c1 2763   1.932   3.505   4.156
    1TCM    cl1 2764   1.959   3.641   4.267
    1TCM    cl2 2765   1.946   3.562   3.988
    1TCM     h1 2766   2.008   3.426   4.175
    1TCM    cl3 2767   1.770   3.437   4.183
    1TCM     c1 2768   4.869   1.933   0.584
    1TCM    cl1 2769   5.002   2.046   0.618
    1TCM    cl2 2770   4.936   1.778   0.529
    1TCM     h1 2771   4.809   1.917   0.675
    1TCM    cl3 2772   4.765   2.001   0.456
    1TCM     c1 2773   2.125   3.063   2.073
    1TCM    cl1 2774   2.254   3.123   2.178
    1TCM    cl2 2775   2.126   3.154   1.920
    1TCM     h1 2776   2.140   2.956   2.052
    1TCM    cl3 2777   1.968   3.086   2.153
    1TCM     c1 2778   1.983   0.954   4.965
    1TCM    cl1 2779   1.974   1.089   4.850
    1TCM    cl2 2780   2.150   0.937   5.024
    1TCM     h1 2781   1.916   0.974   5.051
    1TCM    cl3 2782   1.934   0.803   4.885
    1TCM     c1 2783   0.302   5.107   4.004
    1TCM    cl1 2784   0.212   4.967   4.066
    1TCM    cl2 2785   0.262   5.131   3.832
    1TCM     h1 2786   0.274   5.198   4.061
    1TCM    cl3 2787   0.477   5.078   4.020
    1TCM     c1 2788   1.655   4.489   1.714
    1TCM    cl1 2789   1.738   4.586   1.591
    1TCM    cl2 2790   1.635   4.584   1.862
    1TCM     h1 2791   1.555   4.459   1.675
    1TCM    cl3 2792   1.751   4.343   1.749
    1TCM     c1 2793   4.985   0.958   4.211
    1TCM    cl1 2794   4.862   1.032   4.107
    1TCM    cl2 2795   4.953   0.784   4.226
    1TCM     h1 2796   5.086   0.973   4.167
    1TCM    cl3 2797   4.980   1.033   4.372
    1TCM     c1 2798   2.349   3.255   0.311
    1TCM    cl1 2799   2.508   3.189   0.356
    1TCM    cl2 2800   2.360   3.329   0.150
    1TCM     h1 2801   2.275   3.173   0.309
    1TCM    cl3 2802   2.300   3.378   0.430
    1TCM     c1 2803   2.701   4.412   1.377
    1TCM    cl1 2804   2.666   4.432   1.204
    1TCM    cl2 2805   2.583   4.299   1.448
    1TCM     h1 2806   2.803   4.371   1.390
    1TCM    cl3 2807   2.690   4.569   1.459
    1TCM     c1 2808   1.524   0.926   3.952
    1TCM    cl1 2809   1.495   0.926   3.776
    1TCM    cl2 2810   1.699   0.926   3.983
    1TCM     h1 2811   1.479   1.017   3.997
    1TCM    cl3 2812   1.451   0.781   4.024
    1TCM     c1 2813   1.648   1.062   2.845
    1TCM    cl1 2814   1.737   0.917   2.897
    1TCM    cl2 2815   1.550   1.023   2.702
    1TCM     h1 2816   1.582   1.097   2.927
    1TCM    cl3 2817   1.764   1.190   2.803
    1TCM     c1 2818   1.994   3.197   3.461
    1TCM    cl1 2819   2.166   3.167   3.427
    1TCM    cl2 2820   1.976   3.352   3.546
    1TCM     h1 2821   1.937   3.200   3.366
    1TCM    cl3 2822   1.930   3.066   3.564
    1TCM     c1 2823   3.814   4.284   3.034
    1TCM    cl1 2824   3.947   4.373   3.111
    1TCM    cl2 2825   3.806   4.120   3.101
    1TCM     h1 2826   3.718   4.337   3.053
    1TCM    cl3 2827   3.842   4.275   2.859
    1TCM     c1 2828   2.614   5.138   0.489
    1TCM    cl1 2829   2.729   5.257   0.554
    1TCM    cl2 2830   2.448   5.191   0.522
    1TCM     h1 2831   2.629   5.129   0.379
    1TCM    cl3 2832   2.642   4.980   0.565
    1TCM     c1 2833   1.672   3.796   4.102
    1TCM    cl1 2834   1.729   3.853   4.261
    1TCM    cl2 2835   1.610   3.934   4.009
    1TCM     h1 2836   1.755   3.748   4.048
    1TCM    cl3 2837   1.541   3.678   4.126
    1TCM     c1 2838   2.358   2.237   1.333
    1TCM    cl1 2839   2.415   2.367   1.226
    1TCM    cl2 2840   2.246   2.305   1.453
    1TCM     h1 2841   2.305   2.161   1.272
    1TCM    cl3 2842   2.496   2.162   1.415
    1TCM     c1 2843   2.051   1.286   2.067
    1TCM    cl1 2844   2.119   1.431   2.145
    1TCM    cl2 2845   2.054   1.307   1.890
    1TCM     h1 2846   2.112   1.198   2.095
    1TCM    cl3 2847   1.883   1.263   2.121
    1TCM     c1 2848   2.277   2.833   0.315
    1TCM    cl1 2849   2.412   2.867   0.205
    1TCM    cl2 2850   2.341   2.759   0.464
    1TCM     h1 2851   2.225   2.928   0.341
    1TCM    cl3 2852   2.163   2.721   0.237
    1TCM     c1 2853   3.565   2.540   4.361
    1TCM    cl1 2854   3.419   2.530   4.260
    1TCM    cl2 2855   3.527   2.484   4.525
    1TCM     h1 2856   3.645   2.477   4.317
    1TCM    cl3 2857   3.620   2.709   4.368
    1TCM     c1 2858   0.735   0.332   2.001
    1TCM    cl1 2859   0.718   0.460   2.125
    1TCM    cl2 2860   0.865   0.221   2.050
    1TCM     h1 2861   0.640   0.276   1.993
    1TCM    cl3 2862   0.775   0.406   1.845
    1TCM     c1 2863   0.143   2.971   3.757
    1TCM    cl1 2864   0.127   2.933   3.930
    1TCM    cl2 2865   0.053   3.120   3.720
    1TCM     h1 2866   0.250   2.985   3.731
    1TCM    cl3 2867   0.077   2.837   3.660
    1TCM     c1 2868   4.299   4.884   0.809
    1TCM    cl1 2869   4.168   4.776   0.863
    1TCM    cl2 2870   4.231   5.013   0.707
    1TCM     h1 2871   4.348   4.929   0.898
    1TCM    cl3 2872   4.418   4.791   0.716
    1TCM     c1 2873   0.298   4.387   1.095
    1TCM    cl1 2874   0.322   4.536   1.002
    1TCM    cl2 2875   0.243   4.427   1.259
    1TCM     h1 2876   0.222   4.324   1.045
    1TCM    cl3 2877   0.452   4.298   1.104
    1TCM     c1 2878   2.208   2.380   3.770
    1TCM    cl1 2879   2.366   2.301   3.795
    1TCM    cl2 2880   2.117   2.380   3.923
    1TCM     h1 2881   2.224   2.484   3.737
    1TCM    cl3 2882   2.116   2.291   3.647
    1TCM     c1 2883   0.554   4.015   1.276
    1TCM    cl1 2884   0.595   3.845   1.309
    1TCM    cl2 2885   0.699   4.101   1.219
    1TCM     h1 2886   0.475   4.019   1.198
    1TCM    cl3 2887   0.494   4.091   1.425
    1TCM     c1 2888   1.531   3.719   0.314
    1TCM    cl1 2889   1.671   3.775   0.408
    1TCM    cl2 2890   1.546   3.776   0.146
    1TCM     h1 2891   1.528   3.608   0.315
    1TCM    cl3 2892   1.381   3.783   0.386
    1TCM     c1 2893   3.170   2.126   2.536
    1TCM    cl1 2894   3.314   2.186   2.622
    1TCM    cl2 2895   3.046   2.080   2.655
    1TCM     h1 2896   3.130   2.206   2.470
    1TCM    cl3 2897   3.214   1.985   2.438
    1TCM     c1 2898   1.858   2.809   2.525
    1TCM    cl1 2899   1.763   2.926   2.430
    1TCM    cl2 2900   1.769   2.656   2.538
    1TCM     h1 2901   1.955   2.792   2.475
    1TCM    cl3 2902   1.887   2.875   2.688
    1TCM     c1 2903   3.396   5.126   2.109
    1TCM    cl1 2904   3.543   5.119   2.208
    1TCM    cl2 2905   3.439   5.101   1.938
    1TCM     h1 2906   3.326   5.047   2.141
    1TCM    cl3 2907   3.319   5.285   2.127
    1TCM     c1 2908   1.042   2.429   4.462
    1TCM    cl1 2909   1.168   2.319   4.521
    1TCM    cl2 2910   0.883   2.348   4.474
    1TCM     h1 2911   1.041   2.521   4.524
    1TCM    cl3 2912   1.074   2.471   4.293
    1TCM     c1 2913   4.615   3.894   4.937
    1TCM    cl1 2914   4.753   3.784   4.956
    1TCM    cl2 2915   4.549   3.879   4.773
    1TCM     h1 2916   4.536   3.867   5.011
    1TCM    cl3 2917   4.668   4.061   4.964
    1TCM     c1 2918   4.935   1.898   4.157
    1TCM    cl1 2919   4.774   1.952   4.210
    1TCM    cl2 2920   4.924   1.836   3.990
    1TCM     h1 2921   5.005   1.984   4.160
    1TCM    cl3 2922   4.992   1.769   4.265
    1TCM     c1 2923   4.103   2.280   2.824
    1TCM    cl1 2924   3.981   2.392   2.891
    1TCM    cl2 2925   4.064   2.114   2.873
    1TCM     h1 2926   4.103   2.288   2.713
    1TCM    cl3 2927   4.264   2.325   2.887
    1TCM     c1 2928   1.461   2.817   5.176
    1TCM    cl1 2929   1.306   2.901   5.152
    1TCM    cl2 2930   1.522   2.850   5.339
    1TCM     h1 2931   1.445   2.707   5.164
    1TCM    cl3 2932   1.578   2.874   5.056
    1TCM     c1 2933   3.668   2.128   3.142
    1TCM    cl1 2934   3.606   2.286   3.088
    1TCM    cl2 2935   3.543   2.004   3.115
    1TCM     h1 2936   3.759   2.102   3.084
    1TCM    cl3 2937   3.708   2.136   3.315
    1TCM     c1 2938   2.744   4.908   1.040
    1TCM    cl1 2939   2.869   4.781   1.038
    1TCM    cl2 2940   2.626   4.876   0.911
    1TCM     h1 2941   2.693   4.907   1.138
    1TCM    cl3 2942   2.820   5.066   1.013
    1TCM     c1 2943   1.668   3.856   0.872
    1TCM    cl1 2944   1.601   3.978   0.982
    1TCM    cl2 2945   1.553   3.722   0.855
    1TCM     h1 2946   1.687   3.902   0.773
    1TCM    cl3 2947   1.821   3.795   0.939
    1TCM     c1 2948   5.091   3.220   5.146
    1TCM    cl1 2949   5.252   3.226   5.070
    1TCM    cl2 2950   4.967   3.203   5.020
    1TCM     h1 2951   5.086   3.134   5.215
    1TCM    cl3 2952   5.063   3.371   5.237
    1TCM     c1 2953   2.945   5.055   3.102
    1TCM    cl1 2954   2.893   5.067   3.271
    1TCM    cl2 2955   2.813   5.107   2.995
    1TCM     h1 2956   3.034   5.120   3.086
    1TCM    cl3 2957   2.988   4.886   3.065
    1TCM     c1 2958   4.761   3.835   3.696
    1TCM    cl1 2959   4.649   3.873   3.564
    1TCM    cl2 2960   4.670   3.771   3.835
    1TCM     h1 2961   4.834   3.759   3.662
    1TCM    cl3 2962   4.847   3.983   3.745
    1TCM     c1 2963   1.649   0.960   3.263
    1TCM    cl1 2964   1.503   0.949   3.162
    1TCM    cl2 2965   1.742   0.808   3.249
    1TCM     h1 2966   1.712   1.045   3.229
    1TCM    cl3 2967   1.602   0.985   3.433
    1TCM     c1 2968   3.343   2.723   4.592
    1TCM    cl1 2969   3.336   2.587   4.477
    1TCM    cl2 2970   3.436   2.673   4.735
    1TCM     h1 2971   3.392   2.810   4.544
    1TCM    cl3 2972   3.178   2.767   4.641
    1TCM     c1 2973   2.438   4.230   0.670
    1TCM    cl1 2974   2.610   4.226   0.623
    1TCM    cl2 2975   2.337   4.191   0.530
    1TCM     h1 2976   2.420   4.156   0.751
    1TCM    cl3 2977   2.397   4.393   0.729
    1TCM     c1 2978   3.227   1.604   0.280
    1TCM    cl1 2979   3.346   1.720   0.345
    1TCM    cl2 2980   3.094   1.585   0.396
    1TCM     h1 2981   3.188   1.641   0.184
    1TCM    cl3 2982   3.306   1.446   0.255
    1TCM     c1 2983   2.350   1.662   4.007
    1TCM    cl1 2984   2.254   1.776   4.104
    1TCM    cl2 2985   2.522   1.682   4.045
    1TCM     h1 2986   2.319   1.558   4.030
    1TCM    cl3 2987   2.324   1.694   3.834
    1TCM     c1 2988   1.308   1.218   2.794
    1TCM    cl1 2989   1.223   1.301   2.926
    1TCM    cl2 2990   1.314   1.324   2.651
    1TCM     h1 2991   1.411   1.194   2.826
    1TCM    cl3 2992   1.222   1.068   2.753
    1TCM     c1 2993   2.843   4.319   5.128
    1TCM    cl1 2994   2.675   4.366   5.161
    1TCM    cl2 2995   2.901   4.405   4.983
    1TCM     h1 2996   2.907   4.346   5.214
    1TCM    cl3 2997   2.851   4.144   5.099
    1TCM     c1 2998   2.302   4.525   1.602
    1TCM    cl1 2999   2.152   4.551   1.694
    1TCM    cl2 3000   2.336   4.351   1.593
    1TCM     h1 3001   2.290   4.566   1.500
    1TCM    cl3 3002   2.437   4.607   1.683
    1TCM     c1 3003   0.989   2.514   5.122
    1TCM    cl1 3004   0.957   2.663   5.031
    1TCM    cl2 3005   0.850   2.404   5.105
    1TCM     h1 3006   1.080   2.465   5.082
    1TCM    cl3 3007   1.013   2.553   5.293
    1TCM     c1 3008   1.705   1.191   1.833
    1TCM    cl1 3009   1.536   1.248   1.825
    1TCM    cl2 3010   1.760   1.149   1.669
    1TCM     h1 3011   1.769   1.271   1.874
    1TCM    cl3 3012   1.714   1.047   1.937
    1TCM     c1 3013   0.528   3.625   3.691
    1TCM    cl1 3014   0.564   3.784   3.764
    1TCM    cl2 3015   0.678   3.556   3.623
    1TCM     h1 3016   0.488   3.557   3.768
    1TCM    cl3 3017   0.408   3.646   3.561
    1TCM     c1 3018   2.260   0.123   1.411
    1TCM    cl1 3019   2.134   0.010   1.467
    1TCM    cl2 3020   2.247   0.144   1.235
    1TCM     h1 3021   2.246   0.222   1.461
    1TCM    cl3 3022   2.420   0.058   1.452
    1TCM     c1 3023   0.233   0.156   3.788
    1TCM    cl1 3024   0.276   0.321   3.839
    1TCM    cl2 3025   0.255   0.045   3.925
    1TCM     h1 3026   0.127   0.155   3.755
    1TCM    cl3 3027   0.338   0.106   3.653
    1TCM     c1 3028   4.264   5.190   3.301
    1TCM    cl1 3029   4.153   5.329   3.300
    1TCM    cl2 3030   4.340   5.176   3.461
    1TCM     h1 3031   4.208   5.097   3.278
    1TCM    cl3 3032   4.390   5.215   3.177
    1TCM     c1 3033   3.268   4.013   1.571
    1TCM    cl1 3034   3.212   3.904   1.443
    1TCM    cl2 3035   3.141   4.134   1.605
    1TCM     h1 3036   3.289   3.955   1.663
    1TCM    cl3 3037   3.416   4.096   1.518
    1TCM     c1 3038   4.847   4.398   3.685
    1TCM    cl1 3039   4.912   4.550   3.750
    1TCM    cl2 3040   4.978   4.305   3.610
    1TCM     h1 3041   4.802   4.339   3.768
    1TCM    cl3 3042   4.722   4.435   3.563
    1TCM     c1 3043   0.775   3.831   0.329
    1TCM    cl1 3044   0.799   3.832   0.505
    1TCM    cl2 3045   0.813   3.991   0.263
    1TCM     h1 3046   0.843   3.755   0.283
    1TCM    cl3 3047   0.607   3.790   0.292
    1TCM     c1 3048   5.115   2.348   5.100
    1TCM    cl1 3049   5.025   2.438   5.224
    1TCM    cl2 3050   5.052   2.391   4.939
    1TCM     h1 3051   5.222   2.374   5.106
    1TCM    cl3 3052   5.094   2.173   5.127
    1TCM     c1 3053   0.998   5.183   2.430
    1TCM    cl1 3054   0.853   5.195   2.327
    1TCM    cl2 3055   0.948   5.155   2.598
    1TCM     h1 3056   1.061   5.099   2.395
    1TCM    cl3 3057   1.090   5.335   2.420
    1TCM     c1 3058   1.001   1.245   4.207
    1TCM    cl1 3059   1.156   1.191   4.140
    1TCM    cl2 3060   0.872   1.134   4.154
    1TCM     h1 3061   1.006   1.244   4.318
    1TCM    cl3 3062   0.965   1.409   4.151
    1TCM     c1 3063   3.880   2.694   4.223
    1TCM    cl1 3064   3.882   2.716   4.046
    1TCM    cl2 3065   3.856   2.852   4.301
    1TCM     h1 3066   3.798   2.625   4.251
    1TCM    cl3 3067   4.035   2.625   4.276
    1TCM     c1 3068   2.326   3.514   5.216
    1TCM    cl1 3069   2.349   3.487   5.042
    1TCM    cl2 3070   2.302   3.359   5.298
    1TCM     h1 3071   2.416   3.565   5.258
    1TCM    cl3 3072   2.183   3.617   5.241
    1TCM     c1 3073   1.331   0.627   1.003
    1TCM    cl1 3074   1.443   0.667   0.871
    1TCM    cl2 3075   1.284   0.455   0.990
    1TCM     h1 3076   1.380   0.644   1.100
    1TCM    cl3 3077   1.185   0.728   0.991
    1TCM     c1 3078   0.404   3.645   0.571
    1TCM    cl1 3079   0.556   3.735   0.548
    1TCM    cl2 3080   0.375   3.543   0.429
    1TCM     h1 3081   0.412   3.582   0.662
    1TCM    cl3 3082   0.270   3.760   0.590
    1TCM     c1 3083   3.251   1.632   3.429
    1TCM    cl1 3084   3.347   1.533   3.542
    1TCM    cl2 3085   3.359   1.705   3.308
    1TCM     h1 3086   3.177   1.568   3.378
    1TCM    cl3 3087   3.167   1.760   3.519
    1TCM     c1 3088   2.855   4.779   0.369
    1TCM    cl1 3089   2.898   4.839   0.207
    1TCM    cl2 3090   2.994   4.800   0.478
    1TCM     h1 3091   2.769   4.837   0.408
    1TCM    cl3 3092   2.813   4.607   0.359
    1TCM     c1 3093   3.649   3.578   3.330
    1TCM    cl1 3094   3.586   3.666   3.189
    1TCM    cl2 3095   3.678   3.408   3.286
    1TCM     h1 3096   3.745   3.624   3.363
    1TCM    cl3 3097   3.531   3.585   3.462
    1TCM     c1 3098   2.964   3.733   0.921
    1TCM    cl1 3099   3.055   3.586   0.964
    1TCM    cl2 3100   2.893   3.714   0.759
    1TCM     h1 3101   2.884   3.750   0.995
    1TCM    cl3 3102   3.075   3.872   0.921
    1TCM     c1 3103   4.484   4.325   1.118
    1TCM    cl1 3104   4.342   4.318   1.226
    1TCM    cl2 3105   4.454   4.443   0.989
    1TCM     h1 3106   4.573   4.356   1.177
    1TCM    cl3 3107   4.512   4.165   1.046
    1TCM     c1 3108   4.579   3.107   0.203
    1TCM    cl1 3109   4.486   3.230   0.114
    1TCM    cl2 3110   4.542   3.119   0.376
    1TCM     h1 3111   4.552   3.006   0.166
    1TCM    cl3 3112   4.753   3.134   0.178
    1TCM     c1 3113   2.872   1.054   2.259
    1TCM    cl1 3114   2.918   1.048   2.430
    1TCM    cl2 3115   2.780   0.907   2.217
    1TCM     h1 3116   2.809   1.143   2.240
    1TCM    cl3 3117   3.018   1.062   2.158
    1TCM     c1 3118   3.433   4.604   2.988
    1TCM    cl1 3119   3.580   4.577   3.084
    1TCM    cl2 3120   3.453   4.530   2.827
    1TCM     h1 3121   3.346   4.558   3.039
    1TCM    cl3 3122   3.405   4.779   2.969
    1TCM     c1 3123   3.782   3.507   3.943
    1TCM    cl1 3124   3.793   3.572   4.109
    1TCM    cl2 3125   3.832   3.633   3.828
    1TCM     h1 3126   3.848   3.419   3.933
    1TCM    cl3 3127   3.613   3.460   3.910
    1TCM     c1 3128   4.190   0.318   0.217
    1TCM    cl1 3129   4.121   0.440   0.326
    1TCM    cl2 3130   4.203   0.387   0.053
    1TCM     h1 3131   4.291   0.289   0.252
    1TCM    cl3 3132   4.085   0.175   0.213
    1TCM     c1 3133   3.295   3.188   3.482
    1TCM    cl1 3134   3.379   3.125   3.339
    1TCM    cl2 3135   3.334   3.088   3.623
    1TCM     h1 3136   3.327   3.293   3.500
    1TCM    cl3 3137   3.119   3.184   3.453
    1TCM     c1 3138   0.597   2.602   1.844
    1TCM    cl1 3139   0.623   2.763   1.772
    1TCM    cl2 3140   0.435   2.597   1.918
    1TCM     h1 3141   0.604   2.525   1.765
    1TCM    cl3 3142   0.720   2.572   1.968
    1TCM     c1 3143   2.248   3.496   1.541
    1TCM    cl1 3144   2.227   3.646   1.448
    1TCM    cl2 3145   2.407   3.497   1.620
    1TCM     h1 3146   2.168   3.489   1.618
    1TCM    cl3 3147   2.237   3.357   1.431
    1TCM     c1 3148   5.115   1.408   2.426
    1TCM    cl1 3149   4.997   1.284   2.474
    1TCM    cl2 3150   5.279   1.354   2.469
    1TCM     h1 3151   5.109   1.424   2.317
    1TCM    cl3 3152   5.079   1.560   2.511
    1TCM     c1 3153   4.197   3.121   4.023
    1TCM    cl1 3154   4.222   3.249   3.902
    1TCM    cl2 3155   4.271   2.970   3.967
    1TCM     h1 3156   4.244   3.152   4.119
    1TCM    cl3 3157   4.023   3.096   4.049
    1TCM     c1 3158   1.611   3.505   3.472
    1TCM    cl1 3159   1.510   3.452   3.608
    1TCM    cl2 3160   1.779   3.527   3.528
    1TCM     h1 3161   1.609   3.428   3.392
    1TCM    cl3 3162   1.549   3.659   3.409
    1TCM     c1 3163   2.552   3.252   2.615
    1TCM    cl1 3164   2.434   3.148   2.698
    1TCM    cl2 3165   2.601   3.174   2.463
    1TCM     h1 3166   2.505   3.350   2.592
    1TCM    cl3 3167   2.694   3.276   2.718
    1TCM     c1 3168   1.907   2.897   0.151
    1TCM    cl1 3169   1.939   2.722   0.161
    1TCM    cl2 3170   1.779   2.927   0.031
    1TCM     h1 3171   1.873   2.934   0.250
    1TCM    cl3 3172   2.055   2.982   0.103
    1TCM     c1 3173   4.824   0.817   2.886
    1TCM    cl1 3174   4.697   0.789   2.765
    1TCM    cl2 3175   4.778   0.956   2.988
    1TCM     h1 3176   4.836   0.727   2.950
    1TCM    cl3 3177   4.977   0.853   2.804
    1TCM     c1 3178   4.878   2.079   1.255
    1TCM    cl1 3179   4.896   1.913   1.316
    1TCM    cl2 3180   4.890   2.079   1.077
    1TCM     h1 3181   4.779   2.119   1.285
    1TCM    cl3 3182   5.007   2.181   1.322
    1TCM     c1 3183   3.153   4.037   0.468
    1TCM    cl1 3184   3.120   4.016   0.641
    1TCM    cl2 3185   3.226   3.888   0.403
    1TCM     h1 3186   3.058   4.058   0.414
    1TCM    cl3 3187   3.266   4.172   0.444
    1TCM     c1 3188   2.735   3.976   3.713
    1TCM    cl1 3189   2.807   3.851   3.817
    1TCM    cl2 3190   2.628   4.080   3.810
    1TCM     h1 3191   2.815   4.037   3.667
    1TCM    cl3 3192   2.639   3.898   3.584
    1TCM     c1 3193   2.125   4.584   2.174
    1TCM    cl1 3194   2.082   4.564   2.345
    1TCM    cl2 3195   2.301   4.605   2.159
    1TCM     h1 3196   2.093   4.495   2.117
    1TCM    cl3 3197   2.043   4.728   2.109
    1TCM     c1 3198   1.604   1.767   0.692
    1TCM    cl1 3199   1.759   1.848   0.660
    1TCM    cl2 3200   1.595   1.617   0.597
    1TCM     h1 3201   1.595   1.743   0.800
    1TCM    cl3 3202   1.470   1.874   0.644
    1TCM     c1 3203   0.256   2.816   4.379
    1TCM    cl1 3204   0.426   2.802   4.426
    1TCM    cl2 3205   0.167   2.672   4.434
    1TCM     h1 3206   0.212   2.907   4.425
    1TCM    cl3 3207   0.244   2.828   4.202
    1TCM     c1 3208   0.516   1.611   4.688
    1TCM    cl1 3209   0.548   1.565   4.857
    1TCM    cl2 3210   0.586   1.488   4.580
    1TCM     h1 3211   0.407   1.617   4.671
    1TCM    cl3 3212   0.591   1.769   4.655
    1TCM     c1 3213   4.902   2.903   0.648
    1TCM    cl1 3214   5.073   2.854   0.652
    1TCM    cl2 3215   4.871   3.022   0.777
    1TCM     h1 3216   4.879   2.949   0.549
    1TCM    cl3 3217   4.799   2.761   0.673
    1TCM     c1 3218   2.214   4.191   4.861
    1TCM    cl1 3219   2.099   4.326   4.852
    1TCM    cl2 3220   2.377   4.254   4.892
    1TCM     h1 3221   2.185   4.123   4.944
    1TCM    cl3 3222   2.213   4.102   4.707
    1TCM     c1 3223   3.127   3.510   3.218
    1TCM    cl1 3224   3.055   3.380   3.316
    1TCM    cl2 3225   3.086   3.486   3.047
    1TCM     h1 3226   3.087   3.608   3.252
    1TCM    cl3 3227   3.304   3.508   3.238
    1TCM     c1 3228   3.029   4.352   0.362
    1TCM    cl1 3229   2.913   4.413   0.242
    1TCM    cl2 3230   2.940   4.273   0.495
    1TCM     h1 3231   3.096   4.278   0.314
    1TCM    cl3 3232   3.125   4.486   0.426
    1TCM     c1 3233   3.447   4.506   0.459
    1TCM    cl1 3234   3.557   4.632   0.518
    1TCM    cl2 3235   3.406   4.396   0.593
    1TCM     h1 3236   3.355   4.553   0.420
    1TCM    cl3 3237   3.526   4.414   0.329
    1TCM     c1 3238   2.415   3.750   1.011
    1TCM    cl1 3239   2.409   3.666   0.854
    1TCM    cl2 3240   2.582   3.746   1.074
    1TCM     h1 3241   2.382   3.855   0.998
    1TCM    cl3 3242   2.307   3.667   1.126
    1TCM     c1 3243   4.095   3.899   3.701
    1TCM    cl1 3244   3.936   3.870   3.628
    1TCM    cl2 3245   4.077   4.009   3.840
    1TCM     h1 3246   4.138   3.803   3.735
    1TCM    cl3 3247   4.203   3.973   3.581
    1TCM     c1 3248   5.225   4.771   4.182
    1TCM    cl1 3249   5.302   4.629   4.257
    1TCM    cl2 3250   5.049   4.755   4.193
    1TCM     h1 3251   5.258   4.863   4.235
    1TCM    cl3 3252   5.273   4.781   4.011
    1TCM     c1 3253   4.161   0.330   3.541
    1TCM    cl1 3254   4.189   0.496   3.484
    1TCM    cl2 3255   4.102   0.334   3.709
    1TCM     h1 3256   4.085   0.281   3.477
    1TCM    cl3 3257   4.313   0.238   3.534
    1TCM     c1 3258   2.443   2.688   3.455
    1TCM    cl1 3259   2.542   2.810   3.537
    1TCM    cl2 3260   2.376   2.574   3.574
    1TCM     h1 3261   2.359   2.738   3.401
    1TCM    cl3 3262   2.543   2.599   3.338
    1TCM     c1 3263   4.991   4.661   2.598
    1TCM    cl1 3264   4.973   4.532   2.477
    1TCM    cl2 3265   5.024   4.589   2.757
    1TCM     h1 3266   5.075   4.728   2.569
    1TCM    cl3 3267   4.840   4.756   2.606
    1TCM     c1 3268   2.387   0.823   2.039
    1TCM    cl1 3269   2.261   0.854   1.917
    1TCM    cl2 3270   2.447   0.656   2.021
    1TCM     h1 3271   2.470   0.894   2.025
    1TCM    cl3 3272   2.318   0.843   2.202
    1TCM     c1 3273   0.273   2.346   3.072
    1TCM    cl1 3274   0.275   2.347   2.895
    1TCM    cl2 3275   0.406   2.245   3.134
    1TCM     h1 3276   0.285   2.450   3.110
    1TCM    cl3 3277   0.117   2.280   3.129
    1TCM     c1 3278   1.085   4.039   1.108
    1TCM    cl1 3279   1.225   4.000   1.005
    1TCM    cl2 3280   1.060   4.215   1.108
    1TCM     h1 3281   0.994   3.989   1.068
    1TCM    cl3 3282   1.115   3.983   1.274
    1TCM     c1 3283   2.598   3.054   0.685
    1TCM    cl1 3284   2.632   2.955   0.541
    1TCM    cl2 3285   2.461   2.984   0.774
    1TCM     h1 3286   2.687   3.056   0.751
    1TCM    cl3 3287   2.557   3.220   0.634
    1TCM     c1 3288   0.619   0.726   0.945
    1TCM    cl1 3289   0.459   0.784   0.998
    1TCM    cl2 3290   0.644   0.769   0.774
    1TCM     h1 3291   0.697   0.774   1.007
    1TCM    cl3 3292   0.628   0.550   0.964
    1TCM     c1 3293   5.060   2.143   3.213
    1TCM    cl1 3294   5.169   2.014   3.156
    1TCM    cl2 3295   5.023   2.117   3.385
    1TCM     h1 3296   5.108   2.241   3.200
    1TCM    cl3 3297   4.909   2.138   3.119
    1TCM     c1 3298   2.528   1.003   3.501
    1TCM    cl1 3299   2.689   1.047   3.441
    1TCM    cl2 3300   2.517   0.826   3.519
    1TCM     h1 3301   2.511   1.052   3.599
    1TCM    cl3 3302   2.405   1.058   3.385
    1TCM     c1 3303   5.043   0.982   2.241
    1TCM    cl1 3304   4.897   0.938   2.150
    1TCM    cl2 3305   5.006   0.981   2.415
    1TCM     h1 3306   5.123   0.909   2.220
    1TCM    cl3 3307   5.096   1.145   2.193
    1TCM     c1 3308   3.914   0.523   4.526
    1TCM    cl1 3309   4.015   0.445   4.402
    1TCM    cl2 3310   3.992   0.507   4.685
    1TCM     h1 3311   3.901   0.630   4.501
    1TCM    cl3 3312   3.755   0.444   4.530
    1TCM     c1 3313   5.104   0.859   5.062
    1TCM    cl1 3314   5.120   1.015   4.977
    1TCM    cl2 3315   5.036   0.887   5.224
    1TCM     h1 3316   5.037   0.793   5.005
    1TCM    cl3 3317   5.264   0.784   5.077
    1TCM     c1 3318   2.886   0.547   1.493
    1TCM    cl1 3319   2.847   0.454   1.639
    1TCM    cl2 3320   2.843   0.453   1.349
    1TCM     h1 3321   2.828   0.642   1.494
    1TCM    cl3 3322   3.060   0.583   1.491
    1TCM     c1 3323   2.094   1.372   3.844
    1TCM    cl1 3324   2.182   1.424   3.698
    1TCM    cl2 3325   2.187   1.246   3.928
    1TCM     h1 3326   2.080   1.459   3.911
    1TCM    cl3 3327   1.935   1.308   3.797
    1TCM     c1 3328   3.430   1.404   2.202
    1TCM    cl1 3329   3.533   1.371   2.343
    1TCM    cl2 3330   3.294   1.509   2.250
    1TCM     h1 3331   3.489   1.454   2.123
    1TCM    cl3 3332   3.366   1.250   2.138
    1TCM     c1 3333   3.860   2.145   4.324
    1TCM    cl1 3334   3.757   2.271   4.395
    1TCM    cl2 3335   3.810   2.114   4.156
    1TCM     h1 3336   3.966   2.178   4.325
    1TCM    cl3 3337   3.844   1.995   4.418
    1TCM     c1 3338   1.443   2.302   4.253
    1TCM    cl1 3339   1.377   2.379   4.399
    1TCM    cl2 3340   1.319   2.195   4.182
    1TCM     h1 3341   1.471   2.380   4.179
    1TCM    cl3 3342   1.586   2.206   4.296
    1TCM     c1 3343   1.092   0.461   2.022
    1TCM    cl1 3344   1.159   0.308   1.961
    1TCM    cl2 3345   1.224   0.561   2.088
    1TCM     h1 3346   1.043   0.515   1.939
    1TCM    cl3 3347   0.973   0.427   2.150
    1TCM     c1 3348   3.180   0.354   4.161
    1TCM    cl1 3349   3.108   0.466   4.279
    1TCM    cl2 3350   3.265   0.224   4.248
    1TCM     h1 3351   3.099   0.310   4.099
    1TCM    cl3 3352   3.295   0.441   4.058
    1TCM     c1 3353   3.539   2.927   0.299
    1TCM    cl1 3354   3.476   2.803   0.409
    1TCM    cl2 3355   3.605   2.849   0.153
    1TCM     h1 3356   3.457   2.996   0.270
    1TCM    cl3 3357   3.667   3.019   0.380
    1TCM     c1 3358   4.225   3.201   0.179
    1TCM    cl1 3359   4.305   3.360   0.189
    1TCM    cl2 3360   4.295   3.108   0.046
    1TCM     h1 3361   4.240   3.147   0.275
    1TCM    cl3 3362   4.051   3.224   0.151
    1TCM     c1 3363   2.273   1.941   4.352
    1TCM    cl1 3364   2.181   1.789   4.347
    1TCM    cl2 3365   2.219   2.047   4.220
    1TCM     h1 3366   2.257   1.991   4.449
    1TCM    cl3 3367   2.446   1.905   4.332
   5.54000   5.54000   5.54000
