Generated by Interchange
197
    1PMP     C1    1   0.215   0.490  -0.081
    1PMP     O2    2   0.096   0.413  -0.099
    1PMP     C3    3   0.101   0.282  -0.062
    1PMP     C4    4   0.210   0.216  -0.006
    1PMP     C5    5   0.203   0.080   0.029
    1PMP     C6    6   0.318   0.010   0.089
    1PMP     C7    7   0.448   0.028   0.038
    1PMP     C8    8   0.557  -0.040   0.092
    1PMP     C9    9   0.539  -0.128   0.199
    1PMP    C10   10   0.655  -0.209   0.244
    1PMP    O11   11   0.768  -0.197   0.198
    1PMP    C12   12   0.411  -0.146   0.252
    1PMP    C13   13   0.302  -0.078   0.197
    1PMP    C14   14   0.082   0.012   0.006
    1PMP    C15   15  -0.030   0.076  -0.050
    1PMP    C16   16  -0.157   0.003  -0.067
    1PMP    C17   17  -0.162  -0.126  -0.123
    1PMP    C18   18  -0.283  -0.195  -0.138
    1PMP    C19   19  -0.403  -0.137  -0.096
    1PMP    C20   20  -0.537  -0.206  -0.121
    1PMP    C21   21  -0.613  -0.236   0.008
    1PMP    N22   22  -0.612  -0.133  -0.223
    1PMP    C23   23  -0.398  -0.010  -0.037
    1PMP    C24   24  -0.278   0.060  -0.025
    1PMP    C25   25  -0.018   0.211  -0.084
    1PMP    H26   26   0.297   0.450  -0.142
    1PMP    H27   27   0.194   0.592  -0.115
    1PMP    H28   28   0.243   0.496   0.025
    1PMP    H29   29   0.302   0.270   0.014
    1PMP    H30   30   0.465   0.093  -0.048
    1PMP    H31   31   0.656  -0.026   0.049
    1PMP    H32   32   0.393  -0.216   0.334
    1PMP    H33   33   0.203  -0.095   0.240
    1PMP    H34   34   0.074  -0.093   0.033
    1PMP    H35   35  -0.070  -0.175  -0.156
    1PMP    H36   36  -0.282  -0.294  -0.183
    1PMP    H37   37  -0.516  -0.303  -0.168
    1PMP    H38   38  -0.552  -0.298   0.074
    1PMP    H39   39  -0.640  -0.146   0.063
    1PMP    H40   40  -0.705  -0.291  -0.014
    1PMP    H41   41  -0.570  -0.144  -0.314
    1PMP    H42   42  -0.489   0.039  -0.001
    1PMP    H43   43  -0.280   0.159   0.018
    1PMP    H44   44  -0.102   0.264  -0.127
    2PMP    C45   45  -0.683   0.800  -0.554
    2PMP    O46   46  -0.547   0.793  -0.595
    2PMP    C47   47  -0.479   0.678  -0.564
    2PMP    C48   48  -0.530   0.568  -0.497
    2PMP    C49   49  -0.450   0.455  -0.471
    2PMP    C50   50  -0.505   0.337  -0.402
    2PMP    C51   51  -0.587   0.350  -0.289
    2PMP    C52   52  -0.641   0.237  -0.226
    2PMP    C53   53  -0.613   0.108  -0.273
    2PMP    C54   54  -0.664  -0.008  -0.193
    2PMP    O55   55  -0.739   0.012  -0.098
    2PMP    C56   56  -0.529   0.094  -0.384
    2PMP    C57   57  -0.476   0.207  -0.448
    2PMP    C58   58  -0.316   0.457  -0.514
    2PMP    C59   59  -0.262   0.566  -0.584
    2PMP    C60   60  -0.124   0.562  -0.635
    2PMP    C61   61  -0.017   0.517  -0.555
    2PMP    C62   62   0.114   0.513  -0.604
    2PMP    C63   63   0.142   0.552  -0.736
    2PMP    C64   64   0.285   0.557  -0.787
    2PMP    C65   65   0.308   0.466  -0.908
    2PMP    N66   66   0.326   0.696  -0.805
    2PMP    C67   67   0.034   0.593  -0.817
    2PMP    C68   68  -0.095   0.600  -0.766
    2PMP    C69   69  -0.346   0.677  -0.608
    2PMP    H70   70  -0.692   0.795  -0.445
    2PMP    H71   71  -0.723   0.896  -0.586
    2PMP    H72   72  -0.743   0.722  -0.602
    2PMP    H73   73  -0.634   0.566  -0.465
    2PMP    H74   74  -0.608   0.448  -0.247
    2PMP    H75   75  -0.702   0.251  -0.137
    2PMP    H76   76  -0.499  -0.002  -0.423
    2PMP    H77   77  -0.412   0.192  -0.534
    2PMP    H78   78  -0.253   0.371  -0.496
    2PMP    H79   79  -0.035   0.485  -0.453
    2PMP    H80   80   0.194   0.479  -0.538
    2PMP    H81   81   0.351   0.520  -0.707
    2PMP    H82   82   0.281   0.363  -0.884
    2PMP    H83   83   0.249   0.496  -0.995
    2PMP    H84   84   0.414   0.467  -0.937
    2PMP    H85   85   0.335   0.742  -0.717
    2PMP    H86   86   0.051   0.623  -0.920
    2PMP    H87   87  -0.174   0.636  -0.832
    2PMP    H88   88  -0.308   0.764  -0.661
    3PMP    C89   89  -0.109   1.563  -1.013
    3PMP    O90   90  -0.180   1.554  -0.890
    3PMP    C91   91  -0.164   1.439  -0.817
    3PMP    C92   92  -0.084   1.331  -0.852
    3PMP    C93   93  -0.075   1.218  -0.769
    3PMP    C94   94   0.014   1.105  -0.803
    3PMP    C95   95   0.021   1.055  -0.934
    3PMP    C96   96   0.108   0.950  -0.966
    3PMP    C97   97   0.189   0.891  -0.868
    3PMP    C98   98   0.270   0.771  -0.908
    3PMP    O99   99   0.275   0.737  -1.026
    3PMP   C100  100   0.180   0.939  -0.737
    3PMP   C101  101   0.094   1.044  -0.706
    3PMP   C102  102  -0.149   1.217  -0.650
    3PMP   C103  103  -0.231   1.324  -0.612
    3PMP   C104  104  -0.302   1.322  -0.483
    3PMP   C105  105  -0.373   1.209  -0.439
    3PMP   C106  106  -0.441   1.208  -0.317
    3PMP   C107  107  -0.437   1.320  -0.233
    3PMP   C108  108  -0.518   1.324  -0.104
    3PMP   C109  109  -0.431   1.342   0.020
    3PMP   N110  110  -0.629   1.419  -0.117
    3PMP   C111  111  -0.363   1.431  -0.274
    3PMP   C112  112  -0.299   1.433  -0.398
    3PMP   C113  113  -0.237   1.435  -0.698
    3PMP   H114  114  -0.142   1.485  -1.082
    3PMP   H115  115  -0.133   1.660  -1.058
    3PMP   H116  116  -0.001   1.560  -0.997
    3PMP   H117  117  -0.024   1.333  -0.943
    3PMP   H118  118  -0.043   1.095  -1.012
    3PMP   H119  119   0.109   0.912  -1.069
    3PMP   H120  120   0.237   0.895  -0.656
    3PMP   H121  121   0.091   1.079  -0.603
    3PMP   H122  122  -0.143   1.130  -0.584
    3PMP   H123  123  -0.378   1.120  -0.502
    3PMP   H124  124  -0.496   1.118  -0.288
    3PMP   H125  125  -0.568   1.227  -0.092
    3PMP   H126  126  -0.355   1.263   0.026
    3PMP   H127  127  -0.378   1.437   0.021
    3PMP   H128  128  -0.492   1.336   0.111
    3PMP   H129  129  -0.699   1.385  -0.180
    3PMP   H130  130  -0.355   1.520  -0.211
    3PMP   H131  131  -0.245   1.524  -0.427
    3PMP   H132  132  -0.299   1.521  -0.672
    4PMP   C133  133  -0.823   2.247  -0.624
    4PMP   O134  134  -0.817   2.172  -0.744
    4PMP   C135  135  -0.777   2.041  -0.734
    4PMP   C136  136  -0.749   1.974  -0.615
    4PMP   C137  137  -0.710   1.839  -0.616
    4PMP   C138  138  -0.684   1.766  -0.491
    4PMP   C139  139  -0.607   1.823  -0.388
    4PMP   C140  140  -0.585   1.755  -0.268
    4PMP   C141  141  -0.639   1.627  -0.248
    4PMP   C142  142  -0.601   1.555  -0.122
    4PMP   O143  143  -0.538   1.614  -0.035
    4PMP   C144  144  -0.712   1.567  -0.352
    4PMP   C145  145  -0.734   1.637  -0.471
    4PMP   C146  146  -0.701   1.773  -0.740
    4PMP   C147  147  -0.729   1.838  -0.861
    4PMP   C148  148  -0.725   1.764  -0.988
    4PMP   C149  149  -0.620   1.676  -1.021
    4PMP   C150  150  -0.618   1.606  -1.143
    4PMP   C151  151  -0.724   1.621  -1.233
    4PMP   C152  152  -0.723   1.556  -1.371
    4PMP   C153  153  -0.833   1.452  -1.388
    4PMP   N154  154  -0.717   1.660  -1.474
    4PMP   C155  155  -0.830   1.704  -1.197
    4PMP   C156  156  -0.830   1.776  -1.078
    4PMP   C157  157  -0.768   1.973  -0.855
    4PMP   H158  158  -0.725   2.252  -0.575
    4PMP   H159  159  -0.851   2.350  -0.650
    4PMP   H160  160  -0.899   2.208  -0.556
    4PMP   H161  161  -0.758   2.024  -0.519
    4PMP   H162  162  -0.561   1.921  -0.402
    4PMP   H163  163  -0.523   1.801  -0.192
    4PMP   H164  164  -0.751   1.467  -0.346
    4PMP   H165  165  -0.793   1.588  -0.549
    4PMP   H166  166  -0.673   1.668  -0.743
    4PMP   H167  167  -0.537   1.663  -0.952
    4PMP   H168  168  -0.534   1.542  -1.165
    4PMP   H169  169  -0.628   1.502  -1.382
    4PMP   H170  170  -0.825   1.374  -1.311
    4PMP   H171  171  -0.934   1.494  -1.377
    4PMP   H172  172  -0.827   1.404  -1.486
    4PMP   H173  173  -0.630   1.711  -1.475
    4PMP   H174  174  -0.914   1.715  -1.263
    4PMP   H175  175  -0.915   1.842  -1.058
    4PMP   H176  176  -0.791   2.027  -0.947
    5CAP   C177  177   0.691  -0.425   0.325
    5CAP   O178  178   0.613  -0.306   0.328
    5CAP   H179  179   0.657  -0.485   0.239
    5CAP   H180  180   0.672  -0.481   0.416
    5CAP   H181  181   0.798  -0.406   0.317
    6CAP   C182  182  -1.173   1.659  -1.541
    6CAP   C183  183  -1.064   1.765  -1.522
    6CAP   C184  184  -1.063   1.858  -1.643
    6CAP   C185  185  -1.095   1.843  -1.394
    6CAP   O186  186  -0.941   1.689  -1.507
    6CAP   C187  187  -0.818   1.746  -1.508
    6CAP   O188  188  -0.794   1.863  -1.533
    6CAP   H189  189  -1.273   1.705  -1.549
    6CAP   H190  190  -1.155   1.600  -1.631
    6CAP   H191  191  -1.175   1.589  -1.457
    6CAP   H192  192  -1.033   1.804  -1.734
    6CAP   H193  193  -0.994   1.942  -1.631
    6CAP   H194  194  -1.162   1.902  -1.660
    6CAP   H195  195  -1.106   1.775  -1.308
    6CAP   H196  196  -1.015   1.913  -1.368
    6CAP   H197  197  -1.188   1.899  -1.402
  5.0000000  5.0000000  5.0000000
