;
;   File pop_tetramer_system_hmr.top  was generated
;   By user: tfobe (1000)
;   On host:GLaDOS 
;   At date:Mon. October  1 11:50:05 2024 
;
;   This is a standalone topology file
;
;   Created by:
;   ParmEd:       hmr_topology, VERSION4.2.2 
;   Executable:   hmr_topology
;   Library dir:  /home/tfobe/miniforge3/envs/terphenyl/share/gromacs/top
;   Command line:
;     hmr_topology -t pop_tetramer_system.top -o pop_tetramer_system_hmr.top --hmr_ratio 3
;

[ defaults ]
; nbfunc        comb-rule       gen-pairs       fudgeLJ fudgeQQ
1               2               yes             0.5          0.833333    

[ atomtypes ]
; name    at.num    mass    charge ptype  sigma      epsilon
pop_tetramer.pdb_0        6  12.010780  0.00000000  A     0.34806469     0.36350306
pop_tetramer.pdb_1        8  15.999430  0.00000000  A     0.30398122     0.87950233
pop_tetramer.pdb_2        6  12.010780  0.00000000  A     0.34806469     0.36350306
pop_tetramer.pdb_3        6  12.010780  0.00000000  A     0.34806469     0.36350306
pop_tetramer.pdb_4        6  12.010780  0.00000000  A     0.34806469     0.36350306
pop_tetramer.pdb_5        6  12.010780  0.00000000  A     0.34806469     0.36350306
pop_tetramer.pdb_6        6  12.010780  0.00000000  A     0.34806469     0.36350306
pop_tetramer.pdb_7        6  12.010780  0.00000000  A     0.34806469     0.36350306
pop_tetramer.pdb_8        6  12.010780  0.00000000  A     0.34806469     0.36350306
pop_tetramer.pdb_9        6  12.010780  0.00000000  A     0.34806469     0.36350306
pop_tetramer.pdb_10        8  15.999430  0.00000000  A     0.30251065     0.70485815
pop_tetramer.pdb_11        6  12.010780  0.00000000  A     0.33795318     0.45538912
pop_tetramer.pdb_12        6  12.010780  0.00000000  A     0.34806469     0.36350306
pop_tetramer.pdb_13        6  12.010780  0.00000000  A     0.34806469     0.36350306
pop_tetramer.pdb_14        6  12.010780  0.00000000  A     0.34806469     0.36350306
pop_tetramer.pdb_15        6  12.010780  0.00000000  A     0.34806469     0.36350306
pop_tetramer.pdb_16        6  12.010780  0.00000000  A     0.34806469     0.36350306
pop_tetramer.pdb_17        6  12.010780  0.00000000  A     0.34806469     0.36350306
pop_tetramer.pdb_18        6  12.010780  0.00000000  A     0.34806469     0.36350306
pop_tetramer.pdb_19        6  12.010780  0.00000000  A     0.34806469     0.36350306
pop_tetramer.pdb_20        6  12.010780  0.00000000  A     0.33795318     0.45538912
pop_tetramer.pdb_21        7  14.006720  0.00000000  A      0.3206876      0.7016213
pop_tetramer.pdb_22        6  12.010780  0.00000000  A     0.33795318     0.45538912
pop_tetramer.pdb_23        6  12.010780  0.00000000  A     0.34806469     0.36350306
pop_tetramer.pdb_24        6  12.010780  0.00000000  A     0.34806469     0.36350306
pop_tetramer.pdb_25        1   1.007947  0.00000000  A     0.25725815     0.06531786
pop_tetramer.pdb_26        1   1.007947  0.00000000  A     0.25725815     0.06531786
pop_tetramer.pdb_27        1   1.007947  0.00000000  A     0.25725815     0.06531786
pop_tetramer.pdb_28        1   1.007947  0.00000000  A     0.25832257    0.068656285
pop_tetramer.pdb_29        1   1.007947  0.00000000  A     0.25832257    0.068656285
pop_tetramer.pdb_30        1   1.007947  0.00000000  A     0.25832257    0.068656285
pop_tetramer.pdb_31        1   1.007947  0.00000000  A     0.25725815     0.06531786
pop_tetramer.pdb_32        1   1.007947  0.00000000  A     0.25725815     0.06531786
pop_tetramer.pdb_33        1   1.007947  0.00000000  A     0.25725815     0.06531786
pop_tetramer.pdb_34        1   1.007947  0.00000000  A     0.25725815     0.06531786
pop_tetramer.pdb_35        1   1.007947  0.00000000  A     0.25725815     0.06531786
pop_tetramer.pdb_36        1   1.007947  0.00000000  A     0.25725815     0.06531786
pop_tetramer.pdb_37        1   1.007947  0.00000000  A     0.25832257    0.068656285
pop_tetramer.pdb_38        1   1.007947  0.00000000  A     0.11034277    0.058955969
pop_tetramer.pdb_39        1   1.007947  0.00000000  A     0.26445434    0.066021356
pop_tetramer.pdb_40        1   1.007947  0.00000000  A     0.26445434    0.066021356
pop_tetramer.pdb_41        1   1.007947  0.00000000  A     0.26445434    0.066021356
pop_tetramer.pdb_42        1   1.007947  0.00000000  A     0.25725815     0.06531786
pop_tetramer.pdb_43        1   1.007947  0.00000000  A     0.25725815     0.06531786
pop_tetramer.pdb_44        6  12.010780  0.00000000  A     0.34806469     0.36350306
pop_tetramer.pdb_45        8  15.999430  0.00000000  A     0.30398122     0.87950233
pop_tetramer.pdb_46        6  12.010780  0.00000000  A     0.34806469     0.36350306
pop_tetramer.pdb_47        6  12.010780  0.00000000  A     0.34806469     0.36350306
pop_tetramer.pdb_48        6  12.010780  0.00000000  A     0.34806469     0.36350306
pop_tetramer.pdb_49        6  12.010780  0.00000000  A     0.34806469     0.36350306
pop_tetramer.pdb_50        6  12.010780  0.00000000  A     0.34806469     0.36350306
pop_tetramer.pdb_51        6  12.010780  0.00000000  A     0.34806469     0.36350306
pop_tetramer.pdb_52        6  12.010780  0.00000000  A     0.34806469     0.36350306
pop_tetramer.pdb_53        6  12.010780  0.00000000  A     0.34806469     0.36350306
pop_tetramer.pdb_54        8  15.999430  0.00000000  A     0.30251065     0.70485815
pop_tetramer.pdb_55        6  12.010780  0.00000000  A     0.33795318     0.45538912
pop_tetramer.pdb_56        6  12.010780  0.00000000  A     0.34806469     0.36350306
pop_tetramer.pdb_57        6  12.010780  0.00000000  A     0.34806469     0.36350306
pop_tetramer.pdb_58        6  12.010780  0.00000000  A     0.34806469     0.36350306
pop_tetramer.pdb_59        6  12.010780  0.00000000  A     0.34806469     0.36350306
pop_tetramer.pdb_60        6  12.010780  0.00000000  A     0.34806469     0.36350306
pop_tetramer.pdb_61        6  12.010780  0.00000000  A     0.34806469     0.36350306
pop_tetramer.pdb_62        6  12.010780  0.00000000  A     0.34806469     0.36350306
pop_tetramer.pdb_63        6  12.010780  0.00000000  A     0.34806469     0.36350306
pop_tetramer.pdb_64        6  12.010780  0.00000000  A     0.33795318     0.45538912
pop_tetramer.pdb_65        7  14.006720  0.00000000  A      0.3206876      0.7016213
pop_tetramer.pdb_66        6  12.010780  0.00000000  A     0.33795318     0.45538912
pop_tetramer.pdb_67        6  12.010780  0.00000000  A     0.34806469     0.36350306
pop_tetramer.pdb_68        6  12.010780  0.00000000  A     0.34806469     0.36350306
pop_tetramer.pdb_69        1   1.007947  0.00000000  A     0.25725815     0.06531786
pop_tetramer.pdb_70        1   1.007947  0.00000000  A     0.25725815     0.06531786
pop_tetramer.pdb_71        1   1.007947  0.00000000  A     0.25725815     0.06531786
pop_tetramer.pdb_72        1   1.007947  0.00000000  A     0.25832257    0.068656285
pop_tetramer.pdb_73        1   1.007947  0.00000000  A     0.25832257    0.068656285
pop_tetramer.pdb_74        1   1.007947  0.00000000  A     0.25832257    0.068656285
pop_tetramer.pdb_75        1   1.007947  0.00000000  A     0.25725815     0.06531786
pop_tetramer.pdb_76        1   1.007947  0.00000000  A     0.25725815     0.06531786
pop_tetramer.pdb_77        1   1.007947  0.00000000  A     0.25725815     0.06531786
pop_tetramer.pdb_78        1   1.007947  0.00000000  A     0.25725815     0.06531786
pop_tetramer.pdb_79        1   1.007947  0.00000000  A     0.25725815     0.06531786
pop_tetramer.pdb_80        1   1.007947  0.00000000  A     0.25725815     0.06531786
pop_tetramer.pdb_81        1   1.007947  0.00000000  A     0.25832257    0.068656285
pop_tetramer.pdb_82        1   1.007947  0.00000000  A     0.11034277    0.058955969
pop_tetramer.pdb_83        1   1.007947  0.00000000  A     0.26445434    0.066021356
pop_tetramer.pdb_84        1   1.007947  0.00000000  A     0.26445434    0.066021356
pop_tetramer.pdb_85        1   1.007947  0.00000000  A     0.26445434    0.066021356
pop_tetramer.pdb_86        1   1.007947  0.00000000  A     0.25725815     0.06531786
pop_tetramer.pdb_87        1   1.007947  0.00000000  A     0.25725815     0.06531786
pop_tetramer.pdb_88        6  12.010780  0.00000000  A     0.34806469     0.36350306
pop_tetramer.pdb_89        8  15.999430  0.00000000  A     0.30398122     0.87950233
pop_tetramer.pdb_90        6  12.010780  0.00000000  A     0.34806469     0.36350306
pop_tetramer.pdb_91        6  12.010780  0.00000000  A     0.34806469     0.36350306
pop_tetramer.pdb_92        6  12.010780  0.00000000  A     0.34806469     0.36350306
pop_tetramer.pdb_93        6  12.010780  0.00000000  A     0.34806469     0.36350306
pop_tetramer.pdb_94        6  12.010780  0.00000000  A     0.34806469     0.36350306
pop_tetramer.pdb_95        6  12.010780  0.00000000  A     0.34806469     0.36350306
pop_tetramer.pdb_96        6  12.010780  0.00000000  A     0.34806469     0.36350306
pop_tetramer.pdb_97        6  12.010780  0.00000000  A     0.34806469     0.36350306
pop_tetramer.pdb_98        8  15.999430  0.00000000  A     0.30251065     0.70485815
pop_tetramer.pdb_99        6  12.010780  0.00000000  A     0.33795318     0.45538912
pop_tetramer.pdb_100        6  12.010780  0.00000000  A     0.34806469     0.36350306
pop_tetramer.pdb_101        6  12.010780  0.00000000  A     0.34806469     0.36350306
pop_tetramer.pdb_102        6  12.010780  0.00000000  A     0.34806469     0.36350306
pop_tetramer.pdb_103        6  12.010780  0.00000000  A     0.34806469     0.36350306
pop_tetramer.pdb_104        6  12.010780  0.00000000  A     0.34806469     0.36350306
pop_tetramer.pdb_105        6  12.010780  0.00000000  A     0.34806469     0.36350306
pop_tetramer.pdb_106        6  12.010780  0.00000000  A     0.34806469     0.36350306
pop_tetramer.pdb_107        6  12.010780  0.00000000  A     0.34806469     0.36350306
pop_tetramer.pdb_108        6  12.010780  0.00000000  A     0.33795318     0.45538912
pop_tetramer.pdb_109        7  14.006720  0.00000000  A      0.3206876      0.7016213
pop_tetramer.pdb_110        6  12.010780  0.00000000  A     0.33795318     0.45538912
pop_tetramer.pdb_111        6  12.010780  0.00000000  A     0.34806469     0.36350306
pop_tetramer.pdb_112        6  12.010780  0.00000000  A     0.34806469     0.36350306
pop_tetramer.pdb_113        1   1.007947  0.00000000  A     0.25725815     0.06531786
pop_tetramer.pdb_114        1   1.007947  0.00000000  A     0.25725815     0.06531786
pop_tetramer.pdb_115        1   1.007947  0.00000000  A     0.25725815     0.06531786
pop_tetramer.pdb_116        1   1.007947  0.00000000  A     0.25832257    0.068656285
pop_tetramer.pdb_117        1   1.007947  0.00000000  A     0.25832257    0.068656285
pop_tetramer.pdb_118        1   1.007947  0.00000000  A     0.25832257    0.068656285
pop_tetramer.pdb_119        1   1.007947  0.00000000  A     0.25725815     0.06531786
pop_tetramer.pdb_120        1   1.007947  0.00000000  A     0.25725815     0.06531786
pop_tetramer.pdb_121        1   1.007947  0.00000000  A     0.25725815     0.06531786
pop_tetramer.pdb_122        1   1.007947  0.00000000  A     0.25725815     0.06531786
pop_tetramer.pdb_123        1   1.007947  0.00000000  A     0.25725815     0.06531786
pop_tetramer.pdb_124        1   1.007947  0.00000000  A     0.25725815     0.06531786
pop_tetramer.pdb_125        1   1.007947  0.00000000  A     0.25832257    0.068656285
pop_tetramer.pdb_126        1   1.007947  0.00000000  A     0.11034277    0.058955969
pop_tetramer.pdb_127        1   1.007947  0.00000000  A     0.26445434    0.066021356
pop_tetramer.pdb_128        1   1.007947  0.00000000  A     0.26445434    0.066021356
pop_tetramer.pdb_129        1   1.007947  0.00000000  A     0.26445434    0.066021356
pop_tetramer.pdb_130        1   1.007947  0.00000000  A     0.25725815     0.06531786
pop_tetramer.pdb_131        1   1.007947  0.00000000  A     0.25725815     0.06531786
pop_tetramer.pdb_132        6  12.010780  0.00000000  A     0.34806469     0.36350306
pop_tetramer.pdb_133        8  15.999430  0.00000000  A     0.30398122     0.87950233
pop_tetramer.pdb_134        6  12.010780  0.00000000  A     0.34806469     0.36350306
pop_tetramer.pdb_135        6  12.010780  0.00000000  A     0.34806469     0.36350306
pop_tetramer.pdb_136        6  12.010780  0.00000000  A     0.34806469     0.36350306
pop_tetramer.pdb_137        6  12.010780  0.00000000  A     0.34806469     0.36350306
pop_tetramer.pdb_138        6  12.010780  0.00000000  A     0.34806469     0.36350306
pop_tetramer.pdb_139        6  12.010780  0.00000000  A     0.34806469     0.36350306
pop_tetramer.pdb_140        6  12.010780  0.00000000  A     0.34806469     0.36350306
pop_tetramer.pdb_141        6  12.010780  0.00000000  A     0.34806469     0.36350306
pop_tetramer.pdb_142        8  15.999430  0.00000000  A     0.30251065     0.70485815
pop_tetramer.pdb_143        6  12.010780  0.00000000  A     0.33795318     0.45538912
pop_tetramer.pdb_144        6  12.010780  0.00000000  A     0.34806469     0.36350306
pop_tetramer.pdb_145        6  12.010780  0.00000000  A     0.34806469     0.36350306
pop_tetramer.pdb_146        6  12.010780  0.00000000  A     0.34806469     0.36350306
pop_tetramer.pdb_147        6  12.010780  0.00000000  A     0.34806469     0.36350306
pop_tetramer.pdb_148        6  12.010780  0.00000000  A     0.34806469     0.36350306
pop_tetramer.pdb_149        6  12.010780  0.00000000  A     0.34806469     0.36350306
pop_tetramer.pdb_150        6  12.010780  0.00000000  A     0.34806469     0.36350306
pop_tetramer.pdb_151        6  12.010780  0.00000000  A     0.34806469     0.36350306
pop_tetramer.pdb_152        6  12.010780  0.00000000  A     0.33795318     0.45538912
pop_tetramer.pdb_153        7  14.006720  0.00000000  A      0.3206876      0.7016213
pop_tetramer.pdb_154        6  12.010780  0.00000000  A     0.33795318     0.45538912
pop_tetramer.pdb_155        6  12.010780  0.00000000  A     0.34806469     0.36350306
pop_tetramer.pdb_156        6  12.010780  0.00000000  A     0.34806469     0.36350306
pop_tetramer.pdb_157        1   1.007947  0.00000000  A     0.25725815     0.06531786
pop_tetramer.pdb_158        1   1.007947  0.00000000  A     0.25725815     0.06531786
pop_tetramer.pdb_159        1   1.007947  0.00000000  A     0.25725815     0.06531786
pop_tetramer.pdb_160        1   1.007947  0.00000000  A     0.25832257    0.068656285
pop_tetramer.pdb_161        1   1.007947  0.00000000  A     0.25832257    0.068656285
pop_tetramer.pdb_162        1   1.007947  0.00000000  A     0.25832257    0.068656285
pop_tetramer.pdb_163        1   1.007947  0.00000000  A     0.25725815     0.06531786
pop_tetramer.pdb_164        1   1.007947  0.00000000  A     0.25725815     0.06531786
pop_tetramer.pdb_165        1   1.007947  0.00000000  A     0.25725815     0.06531786
pop_tetramer.pdb_166        1   1.007947  0.00000000  A     0.25725815     0.06531786
pop_tetramer.pdb_167        1   1.007947  0.00000000  A     0.25725815     0.06531786
pop_tetramer.pdb_168        1   1.007947  0.00000000  A     0.25725815     0.06531786
pop_tetramer.pdb_169        1   1.007947  0.00000000  A     0.25832257    0.068656285
pop_tetramer.pdb_170        1   1.007947  0.00000000  A     0.11034277    0.058955969
pop_tetramer.pdb_171        1   1.007947  0.00000000  A     0.26445434    0.066021356
pop_tetramer.pdb_172        1   1.007947  0.00000000  A     0.26445434    0.066021356
pop_tetramer.pdb_173        1   1.007947  0.00000000  A     0.26445434    0.066021356
pop_tetramer.pdb_174        1   1.007947  0.00000000  A     0.25725815     0.06531786
pop_tetramer.pdb_175        1   1.007947  0.00000000  A     0.25725815     0.06531786
pop_tetramer.pdb_176        6  12.010780  0.00000000  A     0.33795318     0.45538912
pop_tetramer.pdb_177        8  15.999430  0.00000000  A     0.30251065     0.70485815
pop_tetramer.pdb_178        1   1.007947  0.00000000  A     0.25832257    0.068656285
pop_tetramer.pdb_179        1   1.007947  0.00000000  A     0.25832257    0.068656285
pop_tetramer.pdb_180        1   1.007947  0.00000000  A     0.25832257    0.068656285
pop_tetramer.pdb_181        6  12.010780  0.00000000  A     0.33795318     0.45538912
pop_tetramer.pdb_182        6  12.010780  0.00000000  A     0.33795318     0.45538912
pop_tetramer.pdb_183        6  12.010780  0.00000000  A     0.33795318     0.45538912
pop_tetramer.pdb_184        6  12.010780  0.00000000  A     0.33795318     0.45538912
pop_tetramer.pdb_185        8  15.999430  0.00000000  A     0.30251065     0.70485815
pop_tetramer.pdb_186        6  12.010780  0.00000000  A     0.34806469     0.36350306
pop_tetramer.pdb_187        8  15.999430  0.00000000  A     0.30398122     0.87950233
pop_tetramer.pdb_188        1   1.007947  0.00000000  A     0.26445434    0.066021356
pop_tetramer.pdb_189        1   1.007947  0.00000000  A     0.26445434    0.066021356
pop_tetramer.pdb_190        1   1.007947  0.00000000  A     0.26445434    0.066021356
pop_tetramer.pdb_191        1   1.007947  0.00000000  A     0.26445434    0.066021356
pop_tetramer.pdb_192        1   1.007947  0.00000000  A     0.26445434    0.066021356
pop_tetramer.pdb_193        1   1.007947  0.00000000  A     0.26445434    0.066021356
pop_tetramer.pdb_194        1   1.007947  0.00000000  A     0.26445434    0.066021356
pop_tetramer.pdb_195        1   1.007947  0.00000000  A     0.26445434    0.066021356
pop_tetramer.pdb_196        1   1.007947  0.00000000  A     0.26445434    0.066021356
MOL1_0        17  35.453200  0.00000000  A     0.33075278      1.1112708
MOL1_1         6  12.010780  0.00000000  A     0.33795318     0.45538912
MOL1_2        17  35.453200  0.00000000  A     0.33075278      1.1112708
MOL1_3        17  35.453200  0.00000000  A     0.33075278      1.1112708
MOL1_4         1   1.007947  0.00000000  A     0.21149936      0.0656888


[ moleculetype ]
; Name            nrexcl
pop_tetramer.pdb          3

[ atoms ]
;   nr       type  resnr residue  atom   cgnr    charge       mass  typeB    chargeB      massB
; residue    1 pop_tetramer.pdb rtp pop_tetramer.pdb q -0.0
    1 pop_tetramer.pdb_0      1 pop_tetramer.pdb      C      1 0.64696002  12.010780   ; qtot 0.646960
    2 pop_tetramer.pdb_1      1 pop_tetramer.pdb      O      2 -0.53784001  15.999430   ; qtot 0.109120
    3 pop_tetramer.pdb_2      1 pop_tetramer.pdb      C      3 -0.13751000  12.010780   ; qtot -0.028390
    4 pop_tetramer.pdb_3      1 pop_tetramer.pdb      C      4 -0.07683000   9.994886   ; qtot -0.105220
    5 pop_tetramer.pdb_4      1 pop_tetramer.pdb      C      5 -0.12994000   9.994886   ; qtot -0.235160
    6 pop_tetramer.pdb_5      1 pop_tetramer.pdb      C      6 0.00017000  12.010780   ; qtot -0.234990
    7 pop_tetramer.pdb_6      1 pop_tetramer.pdb      C      7 -0.07995000  12.010780   ; qtot -0.314940
    8 pop_tetramer.pdb_7      1 pop_tetramer.pdb      C      8 0.00803000  12.010780   ; qtot -0.306910
    9 pop_tetramer.pdb_8      1 pop_tetramer.pdb      C      9 -0.14411999   9.994886   ; qtot -0.451030
   10 pop_tetramer.pdb_9      1 pop_tetramer.pdb      C     10 0.12931000  12.010780   ; qtot -0.321720
   11 pop_tetramer.pdb_10      1 pop_tetramer.pdb      O     11 -0.32462001  15.999430   ; qtot -0.646340
   12 pop_tetramer.pdb_11      1 pop_tetramer.pdb      C     12 0.11244000   5.963098   ; qtot -0.533900
   13 pop_tetramer.pdb_12      1 pop_tetramer.pdb      C     13 -0.20434000   9.994886   ; qtot -0.738240
   14 pop_tetramer.pdb_13      1 pop_tetramer.pdb      C     14 -0.08189000   9.994886   ; qtot -0.820130
   15 pop_tetramer.pdb_14      1 pop_tetramer.pdb      C     15 -0.04046000  12.010780   ; qtot -0.860590
   16 pop_tetramer.pdb_15      1 pop_tetramer.pdb      C     16 -0.11010000   9.994886   ; qtot -0.970690
   17 pop_tetramer.pdb_16      1 pop_tetramer.pdb      C     17 -0.12183000   9.994886   ; qtot -1.092520
   18 pop_tetramer.pdb_17      1 pop_tetramer.pdb      C     18 -0.09418000  12.010780   ; qtot -1.186700
   19 pop_tetramer.pdb_18      1 pop_tetramer.pdb      C     19 -0.12183000   9.994886   ; qtot -1.308530
   20 pop_tetramer.pdb_19      1 pop_tetramer.pdb      C     20 -0.11010000   9.994886   ; qtot -1.418630
   21 pop_tetramer.pdb_20      1 pop_tetramer.pdb      C     21 0.15209000   9.994886   ; qtot -1.266540
   22 pop_tetramer.pdb_21      1 pop_tetramer.pdb      N     22 -0.57090002  11.990826   ; qtot -1.837440
   23 pop_tetramer.pdb_22      1 pop_tetramer.pdb      C     23 -0.11026000   5.963098   ; qtot -1.947700
   24 pop_tetramer.pdb_23      1 pop_tetramer.pdb      C     24 -0.12994000   9.994886   ; qtot -2.077640
   25 pop_tetramer.pdb_24      1 pop_tetramer.pdb      C     25 -0.07683000   9.994886   ; qtot -2.154470
   26 pop_tetramer.pdb_25      1 pop_tetramer.pdb      H     26 0.15242000   3.023841   ; qtot -2.002050
   27 pop_tetramer.pdb_26      1 pop_tetramer.pdb      H     27 0.14375000   3.023841   ; qtot -1.858300
   28 pop_tetramer.pdb_27      1 pop_tetramer.pdb      H     28 0.15843999   3.023841   ; qtot -1.699860
   29 pop_tetramer.pdb_28      1 pop_tetramer.pdb      H     29 0.04642000   3.023841   ; qtot -1.653440
   30 pop_tetramer.pdb_29      1 pop_tetramer.pdb      H     30 0.04642000   3.023841   ; qtot -1.607020
   31 pop_tetramer.pdb_30      1 pop_tetramer.pdb      H     31 0.04642000   3.023841   ; qtot -1.560600
   32 pop_tetramer.pdb_31      1 pop_tetramer.pdb      H     32 0.14170000   3.023841   ; qtot -1.418900
   33 pop_tetramer.pdb_32      1 pop_tetramer.pdb      H     33 0.14052001   3.023841   ; qtot -1.278380
   34 pop_tetramer.pdb_33      1 pop_tetramer.pdb      H     34 0.13936000   3.023841   ; qtot -1.139020
   35 pop_tetramer.pdb_34      1 pop_tetramer.pdb      H     35 0.13427000   3.023841   ; qtot -1.004750
   36 pop_tetramer.pdb_35      1 pop_tetramer.pdb      H     36 0.13427000   3.023841   ; qtot -0.870480
   37 pop_tetramer.pdb_36      1 pop_tetramer.pdb      H     37 0.13936000   3.023841   ; qtot -0.731120
   38 pop_tetramer.pdb_37      1 pop_tetramer.pdb      H     38 0.08691000   3.023841   ; qtot -0.644210
   39 pop_tetramer.pdb_38      1 pop_tetramer.pdb      H     39 0.31134999   3.023841   ; qtot -0.332860
   40 pop_tetramer.pdb_39      1 pop_tetramer.pdb      H     40 0.04527000   3.023841   ; qtot -0.287590
   41 pop_tetramer.pdb_40      1 pop_tetramer.pdb      H     41 0.04527000   3.023841   ; qtot -0.242320
   42 pop_tetramer.pdb_41      1 pop_tetramer.pdb      H     42 0.04527000   3.023841   ; qtot -0.197050
   43 pop_tetramer.pdb_42      1 pop_tetramer.pdb      H     43 0.14375000   3.023841   ; qtot -0.053300
   44 pop_tetramer.pdb_43      1 pop_tetramer.pdb      H     44 0.15242000   3.023841   ; qtot 0.099120
   45 pop_tetramer.pdb_44      1 pop_tetramer.pdb      C     45 0.67629999  12.010780   ; qtot 0.775420
   46 pop_tetramer.pdb_45      1 pop_tetramer.pdb      O     46 -0.61308998  15.999430   ; qtot 0.162330
   47 pop_tetramer.pdb_46      1 pop_tetramer.pdb      C     47 -0.14466999  12.010780   ; qtot 0.017660
   48 pop_tetramer.pdb_47      1 pop_tetramer.pdb      C     48 -0.09289000   9.994886   ; qtot -0.075230
   49 pop_tetramer.pdb_48      1 pop_tetramer.pdb      C     49 -0.12485000   9.994886   ; qtot -0.200080
   50 pop_tetramer.pdb_49      1 pop_tetramer.pdb      C     50 -0.00905000  12.010780   ; qtot -0.209130
   51 pop_tetramer.pdb_50      1 pop_tetramer.pdb      C     51 -0.07617000  12.010780   ; qtot -0.285300
   52 pop_tetramer.pdb_51      1 pop_tetramer.pdb      C     52 0.00668000  12.010780   ; qtot -0.278620
   53 pop_tetramer.pdb_52      1 pop_tetramer.pdb      C     53 -0.14390001   9.994886   ; qtot -0.422520
   54 pop_tetramer.pdb_53      1 pop_tetramer.pdb      C     54 0.12884000  12.010780   ; qtot -0.293680
   55 pop_tetramer.pdb_54      1 pop_tetramer.pdb      O     55 -0.32477000  15.999430   ; qtot -0.618450
   56 pop_tetramer.pdb_55      1 pop_tetramer.pdb      C     56 0.11254000   5.963098   ; qtot -0.505910
   57 pop_tetramer.pdb_56      1 pop_tetramer.pdb      C     57 -0.20352000   9.994886   ; qtot -0.709430
   58 pop_tetramer.pdb_57      1 pop_tetramer.pdb      C     58 -0.08359000   9.994886   ; qtot -0.793020
   59 pop_tetramer.pdb_58      1 pop_tetramer.pdb      C     59 -0.03891000  12.010780   ; qtot -0.831930
   60 pop_tetramer.pdb_59      1 pop_tetramer.pdb      C     60 -0.10938000   9.994886   ; qtot -0.941310
   61 pop_tetramer.pdb_60      1 pop_tetramer.pdb      C     61 -0.12264000   9.994886   ; qtot -1.063950
   62 pop_tetramer.pdb_61      1 pop_tetramer.pdb      C     62 -0.09419000  12.010780   ; qtot -1.158140
   63 pop_tetramer.pdb_62      1 pop_tetramer.pdb      C     63 -0.12264000   9.994886   ; qtot -1.280780
   64 pop_tetramer.pdb_63      1 pop_tetramer.pdb      C     64 -0.10938000   9.994886   ; qtot -1.390160
   65 pop_tetramer.pdb_64      1 pop_tetramer.pdb      C     65 0.15221000   9.994886   ; qtot -1.237950
   66 pop_tetramer.pdb_65      1 pop_tetramer.pdb      N     66 -0.57380003  11.990826   ; qtot -1.811750
   67 pop_tetramer.pdb_66      1 pop_tetramer.pdb      C     67 -0.11043000   5.963098   ; qtot -1.922180
   68 pop_tetramer.pdb_67      1 pop_tetramer.pdb      C     68 -0.12485000   9.994886   ; qtot -2.047030
   69 pop_tetramer.pdb_68      1 pop_tetramer.pdb      C     69 -0.09289000   9.994886   ; qtot -2.139920
   70 pop_tetramer.pdb_69      1 pop_tetramer.pdb      H     70 0.14763001   3.023841   ; qtot -1.992290
   71 pop_tetramer.pdb_70      1 pop_tetramer.pdb      H     71 0.14250000   3.023841   ; qtot -1.849790
   72 pop_tetramer.pdb_71      1 pop_tetramer.pdb      H     72 0.15812001   3.023841   ; qtot -1.691670
   73 pop_tetramer.pdb_72      1 pop_tetramer.pdb      H     73 0.04615000   3.023841   ; qtot -1.645520
   74 pop_tetramer.pdb_73      1 pop_tetramer.pdb      H     74 0.04615000   3.023841   ; qtot -1.599370
   75 pop_tetramer.pdb_74      1 pop_tetramer.pdb      H     75 0.04615000   3.023841   ; qtot -1.553220
   76 pop_tetramer.pdb_75      1 pop_tetramer.pdb      H     76 0.14093000   3.023841   ; qtot -1.412290
   77 pop_tetramer.pdb_76      1 pop_tetramer.pdb      H     77 0.13929000   3.023841   ; qtot -1.273000
   78 pop_tetramer.pdb_77      1 pop_tetramer.pdb      H     78 0.13986000   3.023841   ; qtot -1.133140
   79 pop_tetramer.pdb_78      1 pop_tetramer.pdb      H     79 0.13310000   3.023841   ; qtot -1.000040
   80 pop_tetramer.pdb_79      1 pop_tetramer.pdb      H     80 0.13310000   3.023841   ; qtot -0.866940
   81 pop_tetramer.pdb_80      1 pop_tetramer.pdb      H     81 0.13986000   3.023841   ; qtot -0.727080
   82 pop_tetramer.pdb_81      1 pop_tetramer.pdb      H     82 0.08416000   3.023841   ; qtot -0.642920
   83 pop_tetramer.pdb_82      1 pop_tetramer.pdb      H     83 0.31004000   3.023841   ; qtot -0.332880
   84 pop_tetramer.pdb_83      1 pop_tetramer.pdb      H     84 0.04483000   3.023841   ; qtot -0.288050
   85 pop_tetramer.pdb_84      1 pop_tetramer.pdb      H     85 0.04483000   3.023841   ; qtot -0.243220
   86 pop_tetramer.pdb_85      1 pop_tetramer.pdb      H     86 0.04483000   3.023841   ; qtot -0.198390
   87 pop_tetramer.pdb_86      1 pop_tetramer.pdb      H     87 0.14250000   3.023841   ; qtot -0.055890
   88 pop_tetramer.pdb_87      1 pop_tetramer.pdb      H     88 0.14763001   3.023841   ; qtot 0.091740
   89 pop_tetramer.pdb_88      1 pop_tetramer.pdb      C     89 0.67668998  12.010780   ; qtot 0.768430
   90 pop_tetramer.pdb_89      1 pop_tetramer.pdb      O     90 -0.60698998  15.999430   ; qtot 0.161440
   91 pop_tetramer.pdb_90      1 pop_tetramer.pdb      C     91 -0.14418000  12.010780   ; qtot 0.017260
   92 pop_tetramer.pdb_91      1 pop_tetramer.pdb      C     92 -0.09105000   9.994886   ; qtot -0.073790
   93 pop_tetramer.pdb_92      1 pop_tetramer.pdb      C     93 -0.12410000   9.994886   ; qtot -0.197890
   94 pop_tetramer.pdb_93      1 pop_tetramer.pdb      C     94 -0.01204000  12.010780   ; qtot -0.209930
   95 pop_tetramer.pdb_94      1 pop_tetramer.pdb      C     95 -0.07462000  12.010780   ; qtot -0.284550
   96 pop_tetramer.pdb_95      1 pop_tetramer.pdb      C     96 0.01094000  12.010780   ; qtot -0.273610
   97 pop_tetramer.pdb_96      1 pop_tetramer.pdb      C     97 -0.14582001   9.994886   ; qtot -0.419430
   98 pop_tetramer.pdb_97      1 pop_tetramer.pdb      C     98 0.12588000  12.010780   ; qtot -0.293550
   99 pop_tetramer.pdb_98      1 pop_tetramer.pdb      O     99 -0.32437000  15.999430   ; qtot -0.617920
  100 pop_tetramer.pdb_99      1 pop_tetramer.pdb      C    100 0.11286000   5.963098   ; qtot -0.505060
  101 pop_tetramer.pdb_100      1 pop_tetramer.pdb      C    101 -0.20667000   9.994886   ; qtot -0.711730
  102 pop_tetramer.pdb_101      1 pop_tetramer.pdb      C    102 -0.08559000   9.994886   ; qtot -0.797320
  103 pop_tetramer.pdb_102      1 pop_tetramer.pdb      C    103 -0.04393000  12.010780   ; qtot -0.841250
  104 pop_tetramer.pdb_103      1 pop_tetramer.pdb      C    104 -0.11165000   9.994886   ; qtot -0.952900
  105 pop_tetramer.pdb_104      1 pop_tetramer.pdb      C    105 -0.11945000   9.994886   ; qtot -1.072350
  106 pop_tetramer.pdb_105      1 pop_tetramer.pdb      C    106 -0.09030000  12.010780   ; qtot -1.162650
  107 pop_tetramer.pdb_106      1 pop_tetramer.pdb      C    107 -0.11945000   9.994886   ; qtot -1.282100
  108 pop_tetramer.pdb_107      1 pop_tetramer.pdb      C    108 -0.11165000   9.994886   ; qtot -1.393750
  109 pop_tetramer.pdb_108      1 pop_tetramer.pdb      C    109 0.15054999   9.994886   ; qtot -1.243200
  110 pop_tetramer.pdb_109      1 pop_tetramer.pdb      N    110 -0.57106000  11.990826   ; qtot -1.814260
  111 pop_tetramer.pdb_110      1 pop_tetramer.pdb      C    111 -0.11064000   5.963098   ; qtot -1.924900
  112 pop_tetramer.pdb_111      1 pop_tetramer.pdb      C    112 -0.12410000   9.994886   ; qtot -2.049000
  113 pop_tetramer.pdb_112      1 pop_tetramer.pdb      C    113 -0.09105000   9.994886   ; qtot -2.140050
  114 pop_tetramer.pdb_113      1 pop_tetramer.pdb      H    114 0.14820001   3.023841   ; qtot -1.991850
  115 pop_tetramer.pdb_114      1 pop_tetramer.pdb      H    115 0.14211001   3.023841   ; qtot -1.849740
  116 pop_tetramer.pdb_115      1 pop_tetramer.pdb      H    116 0.15779001   3.023841   ; qtot -1.691950
  117 pop_tetramer.pdb_116      1 pop_tetramer.pdb      H    117 0.04535000   3.023841   ; qtot -1.646600
  118 pop_tetramer.pdb_117      1 pop_tetramer.pdb      H    118 0.04535000   3.023841   ; qtot -1.601250
  119 pop_tetramer.pdb_118      1 pop_tetramer.pdb      H    119 0.04535000   3.023841   ; qtot -1.555900
  120 pop_tetramer.pdb_119      1 pop_tetramer.pdb      H    120 0.13947999   3.023841   ; qtot -1.416420
  121 pop_tetramer.pdb_120      1 pop_tetramer.pdb      H    121 0.13855000   3.023841   ; qtot -1.277870
  122 pop_tetramer.pdb_121      1 pop_tetramer.pdb      H    122 0.13454001   3.023841   ; qtot -1.143330
  123 pop_tetramer.pdb_122      1 pop_tetramer.pdb      H    123 0.13879000   3.023841   ; qtot -1.004540
  124 pop_tetramer.pdb_123      1 pop_tetramer.pdb      H    124 0.13879000   3.023841   ; qtot -0.865750
  125 pop_tetramer.pdb_124      1 pop_tetramer.pdb      H    125 0.13454001   3.023841   ; qtot -0.731210
  126 pop_tetramer.pdb_125      1 pop_tetramer.pdb      H    126 0.08838000   3.023841   ; qtot -0.642830
  127 pop_tetramer.pdb_126      1 pop_tetramer.pdb      H    127 0.31542000   3.023841   ; qtot -0.327410
  128 pop_tetramer.pdb_127      1 pop_tetramer.pdb      H    128 0.04437000   3.023841   ; qtot -0.283040
  129 pop_tetramer.pdb_128      1 pop_tetramer.pdb      H    129 0.04437000   3.023841   ; qtot -0.238670
  130 pop_tetramer.pdb_129      1 pop_tetramer.pdb      H    130 0.04437000   3.023841   ; qtot -0.194300
  131 pop_tetramer.pdb_130      1 pop_tetramer.pdb      H    131 0.14211001   3.023841   ; qtot -0.052190
  132 pop_tetramer.pdb_131      1 pop_tetramer.pdb      H    132 0.14820001   3.023841   ; qtot 0.096010
  133 pop_tetramer.pdb_132      1 pop_tetramer.pdb      C    133 0.67806000  12.010780   ; qtot 0.774070
  134 pop_tetramer.pdb_133      1 pop_tetramer.pdb      O    134 -0.61133999  15.999430   ; qtot 0.162730
  135 pop_tetramer.pdb_134      1 pop_tetramer.pdb      C    135 -0.13900000  12.010780   ; qtot 0.023730
  136 pop_tetramer.pdb_135      1 pop_tetramer.pdb      C    136 -0.08754000   9.994886   ; qtot -0.063810
  137 pop_tetramer.pdb_136      1 pop_tetramer.pdb      C    137 -0.12441000   9.994886   ; qtot -0.188220
  138 pop_tetramer.pdb_137      1 pop_tetramer.pdb      C    138 -0.01544000  12.010780   ; qtot -0.203660
  139 pop_tetramer.pdb_138      1 pop_tetramer.pdb      C    139 -0.06771000  12.010780   ; qtot -0.271370
  140 pop_tetramer.pdb_139      1 pop_tetramer.pdb      C    140 0.00893000  12.010780   ; qtot -0.262440
  141 pop_tetramer.pdb_140      1 pop_tetramer.pdb      C    141 -0.14819001   9.994886   ; qtot -0.410630
  142 pop_tetramer.pdb_141      1 pop_tetramer.pdb      C    142 0.12301000  12.010780   ; qtot -0.287620
  143 pop_tetramer.pdb_142      1 pop_tetramer.pdb      O    143 -0.32747000  15.999430   ; qtot -0.615090
  144 pop_tetramer.pdb_143      1 pop_tetramer.pdb      C    144 0.11410000   5.963098   ; qtot -0.500990
  145 pop_tetramer.pdb_144      1 pop_tetramer.pdb      C    145 -0.20444000   9.994886   ; qtot -0.705430
  146 pop_tetramer.pdb_145      1 pop_tetramer.pdb      C    146 -0.08458000   9.994886   ; qtot -0.790010
  147 pop_tetramer.pdb_146      1 pop_tetramer.pdb      C    147 -0.04472000  12.010780   ; qtot -0.834730
  148 pop_tetramer.pdb_147      1 pop_tetramer.pdb      C    148 -0.10875000   9.994886   ; qtot -0.943480
  149 pop_tetramer.pdb_148      1 pop_tetramer.pdb      C    149 -0.11918000   9.994886   ; qtot -1.062660
  150 pop_tetramer.pdb_149      1 pop_tetramer.pdb      C    150 -0.10138000  12.010780   ; qtot -1.164040
  151 pop_tetramer.pdb_150      1 pop_tetramer.pdb      C    151 -0.11918000   9.994886   ; qtot -1.283220
  152 pop_tetramer.pdb_151      1 pop_tetramer.pdb      C    152 -0.10875000   9.994886   ; qtot -1.391970
  153 pop_tetramer.pdb_152      1 pop_tetramer.pdb      C    153 0.14681999   9.994886   ; qtot -1.245150
  154 pop_tetramer.pdb_153      1 pop_tetramer.pdb      N    154 -0.53676999  11.990826   ; qtot -1.781920
  155 pop_tetramer.pdb_154      1 pop_tetramer.pdb      C    155 -0.09681000   5.963098   ; qtot -1.878730
  156 pop_tetramer.pdb_155      1 pop_tetramer.pdb      C    156 -0.12441000   9.994886   ; qtot -2.003140
  157 pop_tetramer.pdb_156      1 pop_tetramer.pdb      C    157 -0.08754000   9.994886   ; qtot -2.090680
  158 pop_tetramer.pdb_157      1 pop_tetramer.pdb      H    158 0.14879000   3.023841   ; qtot -1.941890
  159 pop_tetramer.pdb_158      1 pop_tetramer.pdb      H    159 0.13937999   3.023841   ; qtot -1.802510
  160 pop_tetramer.pdb_159      1 pop_tetramer.pdb      H    160 0.15519001   3.023841   ; qtot -1.647320
  161 pop_tetramer.pdb_160      1 pop_tetramer.pdb      H    161 0.04415000   3.023841   ; qtot -1.603170
  162 pop_tetramer.pdb_161      1 pop_tetramer.pdb      H    162 0.04415000   3.023841   ; qtot -1.559020
  163 pop_tetramer.pdb_162      1 pop_tetramer.pdb      H    163 0.04415000   3.023841   ; qtot -1.514870
  164 pop_tetramer.pdb_163      1 pop_tetramer.pdb      H    164 0.13821000   3.023841   ; qtot -1.376660
  165 pop_tetramer.pdb_164      1 pop_tetramer.pdb      H    165 0.14058000   3.023841   ; qtot -1.236080
  166 pop_tetramer.pdb_165      1 pop_tetramer.pdb      H    166 0.13366000   3.023841   ; qtot -1.102420
  167 pop_tetramer.pdb_166      1 pop_tetramer.pdb      H    167 0.13474000   3.023841   ; qtot -0.967680
  168 pop_tetramer.pdb_167      1 pop_tetramer.pdb      H    168 0.13474000   3.023841   ; qtot -0.832940
  169 pop_tetramer.pdb_168      1 pop_tetramer.pdb      H    169 0.13366000   3.023841   ; qtot -0.699280
  170 pop_tetramer.pdb_169      1 pop_tetramer.pdb      H    170 0.09150000   3.023841   ; qtot -0.607780
  171 pop_tetramer.pdb_170      1 pop_tetramer.pdb      H    171 0.31751001   3.023841   ; qtot -0.290270
  172 pop_tetramer.pdb_171      1 pop_tetramer.pdb      H    172 0.04519000   3.023841   ; qtot -0.245080
  173 pop_tetramer.pdb_172      1 pop_tetramer.pdb      H    173 0.04519000   3.023841   ; qtot -0.199890
  174 pop_tetramer.pdb_173      1 pop_tetramer.pdb      H    174 0.04519000   3.023841   ; qtot -0.154700
  175 pop_tetramer.pdb_174      1 pop_tetramer.pdb      H    175 0.13937999   3.023841   ; qtot -0.015320
  176 pop_tetramer.pdb_175      1 pop_tetramer.pdb      H    176 0.14879000   3.023841   ; qtot 0.133470
  177 pop_tetramer.pdb_176      1 pop_tetramer.pdb      C    177 0.12386000   5.963098   ; qtot 0.257330
  178 pop_tetramer.pdb_177      1 pop_tetramer.pdb      O    178 -0.43059999  15.999430   ; qtot -0.173270
  179 pop_tetramer.pdb_178      1 pop_tetramer.pdb      H    179 0.05052000   3.023841   ; qtot -0.122750
  180 pop_tetramer.pdb_179      1 pop_tetramer.pdb      H    180 0.05052000   3.023841   ; qtot -0.072230
  181 pop_tetramer.pdb_180      1 pop_tetramer.pdb      H    181 0.05052000   3.023841   ; qtot -0.021710
  182 pop_tetramer.pdb_181      1 pop_tetramer.pdb      C    182 -0.11619000   5.963098   ; qtot -0.137900
  183 pop_tetramer.pdb_182      1 pop_tetramer.pdb      C    183 0.19019000  12.010780   ; qtot 0.052290
  184 pop_tetramer.pdb_183      1 pop_tetramer.pdb      C    184 -0.11619000   5.963098   ; qtot -0.063900
  185 pop_tetramer.pdb_184      1 pop_tetramer.pdb      C    185 -0.11619000   5.963098   ; qtot -0.180090
  186 pop_tetramer.pdb_185      1 pop_tetramer.pdb      O    186 -0.44527999  15.999430   ; qtot -0.625370
  187 pop_tetramer.pdb_186      1 pop_tetramer.pdb      C    187 0.74663001  12.010780   ; qtot 0.121260
  188 pop_tetramer.pdb_187      1 pop_tetramer.pdb      O    188 -0.58827001  15.999430   ; qtot -0.467010
  189 pop_tetramer.pdb_188      1 pop_tetramer.pdb      H    189 0.05189000   3.023841   ; qtot -0.415120
  190 pop_tetramer.pdb_189      1 pop_tetramer.pdb      H    190 0.05189000   3.023841   ; qtot -0.363230
  191 pop_tetramer.pdb_190      1 pop_tetramer.pdb      H    191 0.05189000   3.023841   ; qtot -0.311340
  192 pop_tetramer.pdb_191      1 pop_tetramer.pdb      H    192 0.05189000   3.023841   ; qtot -0.259450
  193 pop_tetramer.pdb_192      1 pop_tetramer.pdb      H    193 0.05189000   3.023841   ; qtot -0.207560
  194 pop_tetramer.pdb_193      1 pop_tetramer.pdb      H    194 0.05189000   3.023841   ; qtot -0.155670
  195 pop_tetramer.pdb_194      1 pop_tetramer.pdb      H    195 0.05189000   3.023841   ; qtot -0.103780
  196 pop_tetramer.pdb_195      1 pop_tetramer.pdb      H    196 0.05189000   3.023841   ; qtot -0.051890
  197 pop_tetramer.pdb_196      1 pop_tetramer.pdb      H    197 0.05189000   3.023841   ; qtot -0.000000

[ bonds ]
;    ai     aj funct         c0         c1         c2         c3
      1    178     1   0.13457 252005.673257
      1      2     1   0.12252 487602.327766
      1      3     1   0.14546 233580.248618
      3      4     1   0.13872 301905.092579
      4     26     1   0.10854 332422.631675
      4      5     1   0.13872 301905.092579
      5     27     1   0.10854 332422.631675
      5      6     1   0.13872 301905.092579
      6      7     1   0.14546 233580.248618
      7     14     1   0.13872 301905.092579
      7      8     1   0.13872 301905.092579
      8      9     1   0.13872 301905.092579
      9     10     1   0.13872 301905.092579
     10     13     1   0.13872 301905.092579
     10     11     1   0.13629 356218.264001
     11     12     1   0.14259 306888.771877
     12     30     1   0.10939 309655.084322
     13     14     1   0.13872 301905.092579
     13     32     1   0.10854 332422.631675
     14     33     1   0.10854 332422.631675
      8     15     1   0.14546 233580.248618
     15     20     1   0.13872 301905.092579
     15     16     1   0.13872 301905.092579
     16     17     1   0.13872 301905.092579
     17     18     1   0.13872 301905.092579
     18     19     1   0.13872 301905.092579
     19     20     1   0.13872 301905.092579
     19     36     1   0.10854 332422.631675
     20     37     1   0.10854 332422.631675
     21     23     1   0.15219 221435.259290
     18     21     1   0.14986 242452.869388
     21     38     1   0.10939 309655.084322
     21     22     1   0.14501 294600.927776
     23     41     1   0.10939 309655.084322
     24     25     1   0.13872 301905.092579
      6     24     1   0.13872 301905.092579
      3     25     1   0.13872 301905.092579
      9     28     1   0.10854 332422.631675
     12     29     1   0.10939 309655.084322
     12     31     1   0.10939 309655.084322
     16     34     1   0.10854 332422.631675
     17     35     1   0.10854 332422.631675
     22     39     1   0.10195 422704.914414
     23     40     1   0.10939 309655.084322
     23     42     1   0.10939 309655.084322
     24     43     1   0.10854 332422.631675
     25     44     1   0.10854 332422.631675
     22     45     1   0.13819 412347.817359
     45     46     1   0.12252 487602.327766
     47     69     1   0.13872 301905.092579
     45     47     1   0.14546 233580.248618
     47     48     1   0.13872 301905.092579
     49     50     1   0.13872 301905.092579
     48     49     1   0.13872 301905.092579
     50     68     1   0.13872 301905.092579
     51     52     1   0.13872 301905.092579
     50     51     1   0.14546 233580.248618
     52     59     1   0.14546 233580.248618
     53     72     1   0.10854 332422.631675
     52     53     1   0.13872 301905.092579
     53     54     1   0.13872 301905.092579
     54     55     1   0.13629 356218.264001
     55     56     1   0.14259 306888.771877
     54     57     1   0.13872 301905.092579
     57     58     1   0.13872 301905.092579
     51     58     1   0.13872 301905.092579
     59     60     1   0.13872 301905.092579
     59     64     1   0.13872 301905.092579
     60     61     1   0.13872 301905.092579
     61     79     1   0.10854 332422.631675
     61     62     1   0.13872 301905.092579
     62     65     1   0.14986 242452.869388
     62     63     1   0.13872 301905.092579
     63     80     1   0.10854 332422.631675
     63     64     1   0.13872 301905.092579
     65     82     1   0.10939 309655.084322
     65     66     1   0.14501 294600.927776
     66     89     1   0.13819 412347.817359
     65     67     1   0.15219 221435.259290
     67     84     1   0.10939 309655.084322
     68     87     1   0.10854 332422.631675
     68     69     1   0.13872 301905.092579
     69     88     1   0.10854 332422.631675
     48     70     1   0.10854 332422.631675
     49     71     1   0.10854 332422.631675
     56     73     1   0.10939 309655.084322
     56     74     1   0.10939 309655.084322
     56     75     1   0.10939 309655.084322
     57     76     1   0.10854 332422.631675
     58     77     1   0.10854 332422.631675
     60     78     1   0.10854 332422.631675
     64     81     1   0.10854 332422.631675
     66     83     1   0.10195 422704.914414
     67     85     1   0.10939 309655.084322
     67     86     1   0.10939 309655.084322
     89     90     1   0.12252 487602.327766
     89     91     1   0.14546 233580.248618
     91    113     1   0.13872 301905.092579
     91     92     1   0.13872 301905.092579
     92     93     1   0.13872 301905.092579
     93     94     1   0.13872 301905.092579
     94    112     1   0.13872 301905.092579
     94     95     1   0.14546 233580.248618
     95    102     1   0.13872 301905.092579
     95     96     1   0.13872 301905.092579
     96     97     1   0.13872 301905.092579
     97     98     1   0.13872 301905.092579
     97    116     1   0.10854 332422.631675
     98     99     1   0.13629 356218.264001
     99    100     1   0.14259 306888.771877
    100    119     1   0.10939 309655.084322
    100    117     1   0.10939 309655.084322
    101    120     1   0.10854 332422.631675
     98    101     1   0.13872 301905.092579
    101    102     1   0.13872 301905.092579
     96    103     1   0.14546 233580.248618
    103    104     1   0.13872 301905.092579
    104    122     1   0.10854 332422.631675
    104    105     1   0.13872 301905.092579
    105    123     1   0.10854 332422.631675
    105    106     1   0.13872 301905.092579
    107    108     1   0.13872 301905.092579
    106    107     1   0.13872 301905.092579
    103    108     1   0.13872 301905.092579
    109    126     1   0.10939 309655.084322
    106    109     1   0.14986 242452.869388
    109    111     1   0.15219 221435.259290
    109    110     1   0.14501 294600.927776
    110    127     1   0.10195 422704.914414
    111    130     1   0.10939 309655.084322
    112    131     1   0.10854 332422.631675
    113    132     1   0.10854 332422.631675
    112    113     1   0.13872 301905.092579
     92    114     1   0.10854 332422.631675
     93    115     1   0.10854 332422.631675
    100    118     1   0.10939 309655.084322
    102    121     1   0.10854 332422.631675
    107    124     1   0.10854 332422.631675
    108    125     1   0.10854 332422.631675
    111    128     1   0.10939 309655.084322
    111    129     1   0.10939 309655.084322
    110    133     1   0.13819 412347.817359
    133    135     1   0.14546 233580.248618
    133    134     1   0.12252 487602.327766
    135    136     1   0.13872 301905.092579
    136    158     1   0.10854 332422.631675
    136    137     1   0.13872 301905.092579
    137    159     1   0.10854 332422.631675
    137    138     1   0.13872 301905.092579
    138    139     1   0.14546 233580.248618
    139    146     1   0.13872 301905.092579
    139    140     1   0.13872 301905.092579
    140    141     1   0.13872 301905.092579
    141    160     1   0.10854 332422.631675
    141    142     1   0.13872 301905.092579
    142    145     1   0.13872 301905.092579
    142    143     1   0.13629 356218.264001
    143    144     1   0.14259 306888.771877
    144    162     1   0.10939 309655.084322
    144    161     1   0.10939 309655.084322
    145    164     1   0.10854 332422.631675
    146    165     1   0.10854 332422.631675
    145    146     1   0.13872 301905.092579
    140    147     1   0.14546 233580.248618
    148    166     1   0.10854 332422.631675
    147    148     1   0.13872 301905.092579
    148    149     1   0.13872 301905.092579
    149    150     1   0.13872 301905.092579
    150    151     1   0.13872 301905.092579
    151    152     1   0.13872 301905.092579
    147    152     1   0.13872 301905.092579
    152    169     1   0.10854 332422.631675
    153    170     1   0.10939 309655.084322
    153    155     1   0.15219 221435.259290
    150    153     1   0.14986 242452.869388
    153    154     1   0.14501 294600.927776
    155    174     1   0.10939 309655.084322
    155    173     1   0.10939 309655.084322
    138    156     1   0.13872 301905.092579
    135    157     1   0.13872 301905.092579
    156    157     1   0.13872 301905.092579
    144    163     1   0.10939 309655.084322
    149    167     1   0.10854 332422.631675
    151    168     1   0.10854 332422.631675
    154    171     1   0.10195 422704.914414
    155    172     1   0.10939 309655.084322
    156    175     1   0.10854 332422.631675
    157    176     1   0.10854 332422.631675
    177    181     1   0.10939 309655.084322
    177    180     1   0.10939 309655.084322
    177    178     1   0.14259 306888.771877
    177    179     1   0.10939 309655.084322
    182    191     1   0.10939 309655.084322
    182    190     1   0.10939 309655.084322
    182    183     1   0.15219 221435.259290
    183    186     1   0.14259 306888.771877
    183    184     1   0.15219 221435.259290
    184    192     1   0.10939 309655.084322
    185    195     1   0.10939 309655.084322
    183    185     1   0.15219 221435.259290
    186    187     1   0.13457 252005.673257
    154    187     1   0.13819 412347.817359
    187    188     1   0.12252 487602.327766
    182    189     1   0.10939 309655.084322
    184    193     1   0.10939 309655.084322
    184    194     1   0.10939 309655.084322
    185    196     1   0.10939 309655.084322
    185    197     1   0.10939 309655.084322

[ pairs ]
;    ai     aj funct         c0         c1         c2         c3
    142    147     1
    170    171     1
    110    136     1
     39     47     1
    126    130     1
    186    193     1
     67     89     1
      6     33     1
    151    170     1
      6      9     1
      8     11     1
     59     72     1
     91    131     1
     48     88     1
     55     58     1
    149    152     1
     98    119     1
      3     27     1
     90    113     1
     94    114     1
    139    164     1
     25    178     1
      1     26     1
     93     96     1
     65     90     1
    153    186     1
     70     71     1
    164    165     1
     38     42     1
     65     79     1
      8     24     1
     66     84     1
    150    172     1
      3    177     1
      7     10     1
     60     63     1
      6     15     1
     14     15     1
    108    109     1
    103    124     1
    145    160     1
    141    146     1
     95     98     1
    139    157     1
     54     74     1
    156    159     1
      8     17     1
    151    167     1
    105    126     1
     62     83     1
      1    180     1
     13     28     1
     17     22     1
     99    116     1
     52     68     1
     93    113     1
     45     49     1
     52     57     1
    131    132     1
     22     69     1
     92     95     1
    150    187     1
     39     46     1
    126    129     1
     19     35     1
    109    135     1
    106    130     1
     18     37     1
    154    183     1
    109    124     1
    150    169     1
    185    189     1
     51     72     1
     96    122     1
     59     62     1
     95    115     1
    141    152     1
     61     67     1
      4     24     1
     52     81     1
     98    118     1
    138    176     1
     97    120     1
    102    103     1
     52     61     1
     90     92     1
     97    100     1
    170    174     1
      9     32     1
      8     34     1
     43     44     1
    126    133     1
    186    190     1
     83     91     1
    110    128     1
     18     41     1
     22     42     1
     51     87     1
     62     89     1
    166    167     1
      7     16     1
    184    189     1
    104    125     1
    111    133     1
    182    197     1
     51     76     1
     62     78     1
    103    123     1
    133    158     1
     16     21     1
    135    175     1
     95    108     1
     99    102     1
    148    153     1
     92    132     1
    142    163     1
     89    114     1
     94     97     1
     97    104     1
     82     85     1
    168    169     1
     38     45     1
      9     14     1
     20     21     1
     18     34     1
    155    171     1
      4    178     1
      5     43     1
     63     82     1
    185    192     1
    184    196     1
      5      8     1
      1    179     1
     51     69     1
    137    157     1
    182    192     1
     61     64     1
    140    151     1
    144    145     1
    135    159     1
    139    160     1
      2     25     1
    134    157     1
     23     39     1
     54     77     1
     22     48     1
    109    134     1
    114    115     1
     19     23     1
     17     36     1
     62     86     1
    109    123     1
    154    173     1
     63     66     1
    146    147     1
      5     25     1
     96    112     1
      5     14     1
     57     72     1
     12     13     1
     53     58     1
    175    176     1
     94    103     1
    136    139     1
     66    113     1
     19     38     1
    186    191     1
      9     20     1
    106    133     1
     18     40     1
     22     41     1
     76     77     1
      8     13     1
     68     71     1
     63     79     1
    184    190     1
     14     24     1
    153    168     1
     96    125     1
    183    188     1
     50     77     1
    149    154     1
     96    105     1
    182    195     1
     98    121     1
     11     28     1
     50     57     1
    133    137     1
    143    160     1
     87     88     1
     82     84     1
    127    134     1
      8     37     1
     23     45     1
     78     79     1
     21     47     1
      7     28     1
     66     86     1
    113    114     1
     60     65     1
    108    122     1
     10     29     1
    185    193     1
     62     81     1
     95    131     1
     11     32     1
    136    176     1
      4      7     1
     95    120     1
    107    111     1
    141    148     1
    103    106     1
     52     77     1
     53     64     1
    136    156     1
    143    164     1
    139    159     1
    171    188     1
     93    102     1
    135    138     1
      2      4     1
    138    141     1
      7     43     1
    186    194     1
      8     19     1
     15     28     1
     10     33     1
    154    172     1
     62     85     1
      4     44     1
     56     57     1
    105    108     1
    148    169     1
     46     69     1
     95    104     1
    102    112     1
    137    140     1
     11     14     1
    140    143     1
    138    165     1
    139    152     1
    138    145     1
      1      5     1
    120    121     1
     38     41     1
     80     81     1
      7     25     1
    150    171     1
    185    187     1
    184    191     1
     49     87     1
     10     15     1
     61     80     1
    182    196     1
      3      6     1
    140    156     1
     52     63     1
     47     71     1
    138    158     1
     97    102     1
     65     91     1
     32     33     1
     54     73     1
     15     36     1
     65     80     1
    110    130     1
    106    125     1
     21     46     1
     26     27     1
    151    155     1
    184    187     1
     55     72     1
      3     43     1
    104    107     1
    103    116     1
    107    110     1
    137    146     1
    147    168     1
     45     68     1
     49     69     1
    142    165     1
     48     51     1
     25     26     1
    126    128     1
    186    195     1
      9     16     1
    122    123     1
    106    129     1
     15     18     1
    185    190     1
     55     76     1
    149    170     1
    146    156     1
    112    115     1
     51     71     1
     96    121     1
    107    123     1
     94    132     1
     96    101     1
     58     59     1
     61     66     1
    152    153     1
     98    117     1
     50     53     1
      1     24     1
    139    142     1
    170    173     1
    124    125     1
      8     33     1
    153    188     1
      6     44     1
     38     40     1
     83     90     1
     34     35     1
     54     59     1
    106    122     1
     60     81     1
     17     38     1
     50     88     1
    105    111     1
      6     13     1
      2    177     1
    157    158     1
     51     64     1
    141    164     1
    152    166     1
     95    116     1
    140    166     1
    139    175     1
    141    144     1
     53     60     1
     48     68     1
    142    162     1
     89     93     1
     47     50     1
     36     37     1
    186    189     1
     15     35     1
     18     42     1
    110    129     1
     21     36     1
    105    124     1
    150    174     1
    151    154     1
      6     26     1
     17     20     1
     50     70     1
     96    107     1
    182    193     1
    100    101     1
     91    115     1
     50     59     1
    147    167     1
     93    131     1
     98    103     1
    139    148     1
     52     55     1
     82     86     1
    186    197     1
    134    136     1
    126    127     1
      7     32     1
    186    196     1
    106    128     1
     19     22     1
     59     80     1
    101    116     1
     16     37     1
     10     31     1
    185    191     1
    184    195     1
    111    127     1
     95    113     1
     47     87     1
    147    160     1
     49     52     1
    143    146     1
    171    186     1
    110    157     1
    170    172     1
    186    192     1
     38     39     1
     24     27     1
     22     40     1
     18     39     1
     66     92     1
    154    174     1
     64     65     1
    158    159     1
    133    176     1
    105    110     1
     63     67     1
    153    167     1
    107    126     1
    182    187     1
     99    120     1
    133    156     1
    140    165     1
     16     19     1
    148    151     1
     89    132     1
    140    145     1
    142    161     1
     89    112     1
    155    187     1
     82     83     1
    138    147     1
      9     12     1
     69     70     1
     67     83     1
      7     27     1
     64     78     1
     21     35     1
     66     85     1
    150    173     1
     51     54     1
    185    194     1
    137    175     1
     45     88     1
     61     82     1
    149    155     1
    140    169     1
    182    194     1
    170    187     1
    140    149     1
     49     58     1
     91     94     1
     92    112     1
    127    135     1
     20     34     1
     54     75     1
     18     45     1
    106    127     1
    184    197     1
      7     20     1
     62     84     1
     59     79     1
    150    166     1
     10     30     1
    149    168     1
      1    181     1
     17     23     1
    104    109     1
     51     60     1
     58     68     1
      1     44     1
     53     76     1
     96     99     1
     45     70     1
     52     78     1
     94    121     1
     46     48     1
     53     56     1
    147    150     1
     94    101     1
     97    108     1
     82     89     1

[ angles ]
;    ai     aj     ak funct         c0         c1         c2         c3
     55     54     57     1   126.8062420 484.492885
    151    152    169     1   129.1835930 285.070775
    154    153    170     1   116.5475863 445.222087
     93     92    114     1   129.1835930 285.070775
    141    142    143     1   126.8062420 484.492885
     18     17     35     1   129.1835930 285.070775
     13     14     33     1   129.1835930 285.070775
     94    112    113     1   126.8062420 484.492885
     90     89     91     1   126.8062420 484.492885
      9      8     15     1   126.8062420 484.492885
     21     23     41     1   116.5475863 445.222087
    147    148    149     1   126.8062420 484.492885
      3      1    178     1   126.8062420 484.492885
    183    185    195     1   116.5475863 445.222087
    148    149    167     1   129.1835930 285.070775
     29     12     30     1   115.6031000 408.161690
     51     52     53     1   126.8062420 484.492885
    140    147    148     1   126.8062420 484.492885
     95     96    103     1   126.8062420 484.492885
      8      9     10     1   126.8062420 484.492885
    109    111    128     1   116.5475863 445.222087
      1      3      4     1   126.8062420 484.492885
     73     56     74     1   115.6031000 408.161690
    136    135    157     1   126.8062420 484.492885
     54     57     76     1   129.1835930 285.070775
    183    186    187     1   110.3538806 544.678275
    149    150    153     1   126.8062420 484.492885
     69     68     87     1   129.1835930 285.070775
    141    140    147     1   126.8062420 484.492885
     10      9     28     1   129.1835930 285.070775
      3      4     26     1   129.1835930 285.070775
     97     98    101     1   126.8062420 484.492885
    143    144    161     1   116.5475863 445.222087
     10     13     32     1   129.1835930 285.070775
     66     89     91     1   126.8062420 484.492885
     49     48     70     1   129.1835930 285.070775
    143    142    145     1   126.8062420 484.492885
     65     67     86     1   116.5475863 445.222087
     46     45     47     1   126.8062420 484.492885
     84     67     86     1   115.6031000 408.161690
     63     62     65     1   126.8062420 484.492885
    103    104    105     1   126.8062420 484.492885
     63     64     81     1   129.1835930 285.070775
     10     11     12     1   110.3538806 544.678275
    101    102    121     1   129.1835930 285.070775
    147    148    166     1   129.1835930 285.070775
    142    141    160     1   129.1835930 285.070775
    127    110    133     1   115.5071328 530.901283
     11     12     29     1   116.5475863 445.222087
     45     47     69     1   126.8062420 484.492885
     67     65     82     1   116.5475863 445.222087
    183    184    193     1   116.5475863 445.222087
     51     52     59     1   126.8062420 484.492885
    196    185    197     1   115.6031000 408.161690
    156    157    176     1   129.1835930 285.070775
      9     10     11     1   126.8062420 484.492885
     10     13     14     1   126.8062420 484.492885
     47     48     49     1   126.8062420 484.492885
    195    185    197     1   115.6031000 408.161690
    106    107    124     1   129.1835930 285.070775
    195    185    196     1   115.6031000 408.161690
     61     62     63     1   126.8062420 484.492885
    134    133    135     1   126.8062420 484.492885
     61     60     78     1   129.1835930 285.070775
    136    137    159     1   129.1835930 285.070775
    104    103    108     1   126.8062420 484.492885
     22     45     47     1   126.8062420 484.492885
     85     67     86     1   115.6031000 408.161690
    183    185    196     1   116.5475863 445.222087
     96    103    104     1   126.8062420 484.492885
     59     64     63     1   126.8062420 484.492885
     68     69     88     1   129.1835930 285.070775
    183    182    189     1   116.5475863 445.222087
     40     23     42     1   115.6031000 408.161690
    161    144    163     1   115.6031000 408.161690
     52     53     72     1   129.1835930 285.070775
    178    177    181     1   116.5475863 445.222087
    103    104    122     1   129.1835930 285.070775
    106    109    126     1   116.5475863 445.222087
     18     19     36     1   129.1835930 285.070775
    182    183    185     1   116.5475863 445.222087
     98     97    116     1   129.1835930 285.070775
    139    146    165     1   129.1835930 285.070775
     15     20     37     1   129.1835930 285.070775
      5      6     24     1   126.8062420 484.492885
    109    110    127     1   115.5071328 530.901283
    139    146    145     1   126.8062420 484.492885
    155    153    170     1   116.5475863 445.222087
    190    182    191     1   115.6031000 408.161690
     94     93    115     1   129.1835930 285.070775
      7     14     33     1   129.1835930 285.070775
    110    109    126     1   116.5475863 445.222087
     96     95    102     1   126.8062420 484.492885
      3      4      5     1   126.8062420 484.492885
    148    149    150     1   126.8062420 484.492885
     19     18     21     1   126.8062420 484.492885
     50     68     87     1   129.1835930 285.070775
     84     67     85     1   115.6031000 408.161690
     21     22     39     1   115.5071328 530.901283
    110    133    134     1   126.8062420 484.492885
      8     15     20     1   126.8062420 484.492885
    104    105    123     1   129.1835930 285.070775
      4      3     25     1   126.8062420 484.492885
    182    183    184     1   116.5475863 445.222087
    142    145    164     1   129.1835930 285.070775
     15     20     19     1   126.8062420 484.492885
     93     94     95     1   126.8062420 484.492885
    179    177    181     1   115.6031000 408.161690
     24     25     44     1   129.1835930 285.070775
    183    184    194     1   116.5475863 445.222087
     45     47     48     1   126.8062420 484.492885
     49     50     51     1   126.8062420 484.492885
    192    184    193     1   115.6031000 408.161690
     53     54     55     1   126.8062420 484.492885
      4      5     27     1   129.1835930 285.070775
     66     65     67     1   116.5475863 445.222087
     50     68     69     1   126.8062420 484.492885
    109    110    133     1   117.3465571 463.769802
    139    138    156     1   126.8062420 484.492885
     60     59     64     1   126.8062420 484.492885
     55     56     74     1   116.5475863 445.222087
    153    155    174     1   116.5475863 445.222087
      2      1      3     1   126.8062420 484.492885
    150    149    167     1   129.1835930 285.070775
     16     17     18     1   126.8062420 484.492885
     59     60     61     1   126.8062420 484.492885
     91     92    114     1   129.1835930 285.070775
     40     23     41     1   115.6031000 408.161690
     62     65     67     1   116.5475863 445.222087
     25     24     43     1   129.1835930 285.070775
    178    177    180     1   116.5475863 445.222087
      6     24     43     1   129.1835930 285.070775
     21     22     45     1   117.3465571 463.769802
    149    148    166     1   129.1835930 285.070775
    141    142    145     1   126.8062420 484.492885
    151    150    153     1   126.8062420 484.492885
     18     21     38     1   116.5475863 445.222087
     30     12     31     1   115.6031000 408.161690
     93     94    112     1   126.8062420 484.492885
    193    184    194     1   115.6031000 408.161690
     48     49     50     1   126.8062420 484.492885
      5      4     26     1   129.1835930 285.070775
     99     98    101     1   126.8062420 484.492885
      6      5     27     1   129.1835930 285.070775
    139    140    141     1   126.8062420 484.492885
     99    100    117     1   116.5475863 445.222087
     54     55     56     1   110.3538806 544.678275
    140    141    160     1   129.1835930 285.070775
     62     63     64     1   126.8062420 484.492885
     49     50     68     1   126.8062420 484.492885
      6      7      8     1   126.8062420 484.492885
     22     21     23     1   116.5475863 445.222087
      8      9     28     1   129.1835930 285.070775
     14     13     32     1   129.1835930 285.070775
     60     61     79     1   129.1835930 285.070775
    135    136    137     1   126.8062420 484.492885
    138    139    140     1   126.8062420 484.492885
     41     23     42     1   115.6031000 408.161690
    109    111    130     1   116.5475863 445.222087
     98    101    120     1   129.1835930 285.070775
    162    144    163     1   115.6031000 408.161690
      6     24     25     1   126.8062420 484.492885
    147    152    169     1   129.1835930 285.070775
     54     57     58     1   126.8062420 484.492885
     16     17     35     1   129.1835930 285.070775
    173    155    174     1   115.6031000 408.161690
    179    177    180     1   115.6031000 408.161690
     59     60     78     1   129.1835930 285.070775
    143    144    163     1   116.5475863 445.222087
     47     69     68     1   126.8062420 484.492885
     22     21     38     1   116.5475863 445.222087
     95    102    121     1   129.1835930 285.070775
     62     61     79     1   129.1835930 285.070775
    105    106    107     1   126.8062420 484.492885
     95    102    101     1   126.8062420 484.492885
    192    184    194     1   115.6031000 408.161690
    154    187    188     1   126.8062420 484.492885
      6      7     14     1   126.8062420 484.492885
    106    109    111     1   116.5475863 445.222087
      1    178    177     1   110.3538806 544.678275
      5      6      7     1   126.8062420 484.492885
     21     23     40     1   116.5475863 445.222087
    104    105    106     1   126.8062420 484.492885
     55     56     73     1   116.5475863 445.222087
      7      6     24     1   126.8062420 484.492885
    171    154    187     1   115.5071328 530.901283
     96     97    116     1   129.1835930 285.070775
    117    100    119     1   115.6031000 408.161690
     11     12     31     1   116.5475863 445.222087
     15     16     17     1   126.8062420 484.492885
    137    136    158     1   129.1835930 285.070775
     62     65     66     1   116.5475863 445.222087
     91     92     93     1   126.8062420 484.492885
     94     95     96     1   126.8062420 484.492885
    105    104    122     1   129.1835930 285.070775
      9     10     13     1   126.8062420 484.492885
    178    177    179     1   116.5475863 445.222087
    103    108    125     1   129.1835930 285.070775
      4      5      6     1   126.8062420 484.492885
    138    139    146     1   126.8062420 484.492885
    172    155    174     1   115.6031000 408.161690
      8     15     16     1   126.8062420 484.492885
    142    143    144     1   110.3538806 544.678275
    138    156    175     1   129.1835930 285.070775
     83     66     89     1   115.5071328 530.901283
    150    153    155     1   116.5475863 445.222087
    137    138    156     1   126.8062420 484.492885
     52     59     64     1   126.8062420 484.492885
     52     51     58     1   126.8062420 484.492885
     66     89     90     1   126.8062420 484.492885
     19     20     37     1   129.1835930 285.070775
     65     67     85     1   116.5475863 445.222087
    118    100    119     1   115.6031000 408.161690
     17     18     19     1   126.8062420 484.492885
    152    151    168     1   129.1835930 285.070775
     73     56     75     1   115.6031000 408.161690
    154    153    155     1   116.5475863 445.222087
     20     19     36     1   129.1835930 285.070775
    112    113    132     1   129.1835930 285.070775
      7      8      9     1   126.8062420 484.492885
      3     25     24     1   126.8062420 484.492885
     50     49     71     1   129.1835930 285.070775
     51     58     77     1   129.1835930 285.070775
     57     58     77     1   129.1835930 285.070775
     51     58     57     1   126.8062420 484.492885
    143    144    162     1   116.5475863 445.222087
    186    187    188     1   127.4691416 1685.413543
     52     53     54     1   126.8062420 484.492885
     94     95    102     1   126.8062420 484.492885
     17     16     34     1   129.1835930 285.070775
     95     96     97     1   126.8062420 484.492885
     60     61     62     1   126.8062420 484.492885
     94    112    131     1   129.1835930 285.070775
    184    183    185     1   116.5475863 445.222087
     18     19     20     1   126.8062420 484.492885
    135    157    176     1   129.1835930 285.070775
    102    101    120     1   129.1835930 285.070775
     18     21     23     1   116.5475863 445.222087
    117    100    118     1   115.6031000 408.161690
    135    157    156     1   126.8062420 484.492885
     11     12     30     1   116.5475863 445.222087
    142    145    146     1   126.8062420 484.492885
    136    137    138     1   126.8062420 484.492885
    183    184    192     1   116.5475863 445.222087
     22     45     46     1   126.8062420 484.492885
      7      8     15     1   126.8062420 484.492885
     62     63     80     1   129.1835930 285.070775
    113    112    131     1   129.1835930 285.070775
    183    182    190     1   116.5475863 445.222087
    150    151    152     1   126.8062420 484.492885
    161    144    162     1   115.6031000 408.161690
     23     21     38     1   116.5475863 445.222087
     53     54     57     1   126.8062420 484.492885
    157    156    175     1   129.1835930 285.070775
    182    183    186     1   116.5475863 445.222087
     98     99    100     1   110.3538806 544.678275
    172    155    173     1   115.6031000 408.161690
     95     94    112     1   126.8062420 484.492885
    149    150    151     1   126.8062420 484.492885
     39     22     45     1   115.5071328 530.901283
    150    153    154     1   116.5475863 445.222087
     97     98     99     1   126.8062420 484.492885
    189    182    190     1   115.6031000 408.161690
     65     67     84     1   116.5475863 445.222087
     66     65     82     1   116.5475863 445.222087
    153    154    187     1   117.3465571 463.769802
     47     69     88     1   129.1835930 285.070775
     99    100    119     1   116.5475863 445.222087
    128    111    130     1   115.6031000 408.161690
     65     66     83     1   115.5071328 530.901283
     92     91    113     1   126.8062420 484.492885
     62     65     82     1   116.5475863 445.222087
    137    138    139     1   126.8062420 484.492885
    140    141    142     1   126.8062420 484.492885
     11     10     13     1   126.8062420 484.492885
     97     96    103     1   126.8062420 484.492885
    140    147    152     1   126.8062420 484.492885
      8      7     14     1   126.8062420 484.492885
     51     50     68     1   126.8062420 484.492885
    110    133    135     1   126.8062420 484.492885
     91    113    132     1   129.1835930 285.070775
    133    135    157     1   126.8062420 484.492885
    184    183    186     1   116.5475863 445.222087
     58     57     76     1   129.1835930 285.070775
     91    113    112     1   126.8062420 484.492885
    107    108    125     1   129.1835930 285.070775
     98    101    102     1   126.8062420 484.492885
    147    152    151     1   126.8062420 484.492885
    153    155    173     1   116.5475863 445.222087
     18     21     22     1   116.5475863 445.222087
     50     51     52     1   126.8062420 484.492885
    153    154    171     1   115.5071328 530.901283
     74     56     75     1   115.6031000 408.161690
     92     93    115     1   129.1835930 285.070775
    139    140    147     1   126.8062420 484.492885
     59     64     81     1   129.1835930 285.070775
     89     91    113     1   126.8062420 484.492885
    145    146    165     1   129.1835930 285.070775
    108    107    124     1   129.1835930 285.070775
    110    109    111     1   116.5475863 445.222087
    105    106    109     1   126.8062420 484.492885
    183    182    191     1   116.5475863 445.222087
     52     59     60     1   126.8062420 484.492885
    138    137    159     1   129.1835930 285.070775
    154    187    186     1   126.8062420 484.492885
    140    139    146     1   126.8062420 484.492885
    129    111    130     1   115.6031000 408.161690
     61     62     65     1   126.8062420 484.492885
     21     23     42     1   116.5475863 445.222087
     55     56     75     1   116.5475863 445.222087
    183    185    197     1   116.5475863 445.222087
     48     47     69     1   126.8062420 484.492885
     96     97     98     1   126.8062420 484.492885
    107    106    109     1   126.8062420 484.492885
     53     52     59     1   126.8062420 484.492885
     65     66     89     1   117.3465571 463.769802
     29     12     31     1   115.6031000 408.161690
    189    182    191     1   115.6031000 408.161690
      1      3     25     1   126.8062420 484.492885
    146    145    164     1   129.1835930 285.070775
    103    108    107     1   126.8062420 484.492885
    109    111    129     1   116.5475863 445.222087
      3     25     44     1   129.1835930 285.070775
     15     16     34     1   129.1835930 285.070775
     48     49     71     1   129.1835930 285.070775
    106    107    108     1   126.8062420 484.492885
     50     51     58     1   126.8062420 484.492885
     16     15     20     1   126.8062420 484.492885
    138    156    157     1   126.8062420 484.492885
     99    100    118     1   116.5475863 445.222087
     96    103    108     1   126.8062420 484.492885
    128    111    129     1   115.6031000 408.161690
    150    151    168     1   129.1835930 285.070775
    180    177    181     1   115.6031000 408.161690
      7     14     13     1   126.8062420 484.492885
      2      1    178     1   127.4691416 1685.413543
    135    136    158     1   129.1835930 285.070775
    148    147    152     1   126.8062420 484.492885
     17     18     21     1   126.8062420 484.492885
    106    109    110     1   116.5475863 445.222087
    133    135    136     1   126.8062420 484.492885
    153    155    172     1   116.5475863 445.222087
    106    105    123     1   129.1835930 285.070775
     64     63     80     1   129.1835930 285.070775
    150    153    170     1   116.5475863 445.222087
    185    183    186     1   116.5475863 445.222087
     54     53     72     1   129.1835930 285.070775
     92     93     94     1   126.8062420 484.492885
    111    109    126     1   116.5475863 445.222087
     89     91     92     1   126.8062420 484.492885
     47     48     70     1   129.1835930 285.070775

[ dihedrals ]
;    ai     aj     ak     al funct         c0         c1         c2         c3         c4         c5
    149    150    153    154     1  0.0000000  0.1115010  3
     63     62     65     67     1  0.0000000  0.1115010  3
    150    153    155    172     1  0.0000000  0.4834079  3
      6      7      8      9     1  180.0000000  15.3215155  2
     61     62     65     82     1  0.0000000  0.1115010  3
     22     45     47     69     1  180.0000000  4.1731909  2
    103     96     97    116     1  180.0000000  15.3215155  2
    102     95     94    112     1  180.0000000  4.8669776  2
    182    183    184    193     1  0.0000000  0.4354138  3
     52     59     64     81     1  180.0000000  15.3215155  2
     54     57     58     77     1  180.0000000  15.3215155  2
    106    109    110    133     1  180.0000000  -2.8834993  2
    106    109    110    133     1  0.0000000  1.1413309  1
    140    147    152    169     1  180.0000000  15.3215155  2
    140    141    142    145     1  180.0000000  15.3215155  2
     52     51     58     77     1  180.0000000  15.3215155  2
     22     21     23     40     1  0.0000000  0.4834079  3
     90     89     91    113     1  180.0000000  4.1731909  2
     52     51     58     57     1  180.0000000  15.3215155  2
    137    138    139    140     1  180.0000000  4.8669776  2
    135    136    137    138     1  180.0000000  15.3215155  2
     17     18     21     38     1  0.0000000  0.1115010  3
     12     11     10     13     1  180.0000000  6.4108617  2
     20     15     16     34     1  180.0000000  15.3215155  2
      9      8      7     14     1  180.0000000  15.3215155  2
     59     64     63     80     1  180.0000000  15.3215155  2
     19     18     17     35     1  180.0000000  15.3215155  2
      3     25     24     43     1  180.0000000  15.3215155  2
     51     58     57     54     1  180.0000000  15.3215155  2
     18     21     23     41     1  0.0000000  0.4834079  3
    170    153    154    187     1  0.0000000  0.7624859  2
    170    153    154    187     1  0.0000000  0.1243628  3
     95     94     93    115     1  180.0000000  15.3215155  2
      6      7      8     15     1  180.0000000  15.3215155  2
    184    183    186    187     1  0.0000000  0.8026052  3
    184    183    186    187     1  180.0000000  3.8501921  1
    126    109    111    130     1  0.0000000  0.7999501  3
     50     49     48     70     1  180.0000000  15.3215155  2
    146    139    140    147     1  180.0000000  15.3215155  2
    141    142    143    144     1  180.0000000  6.4108617  2
     10     11     12     31     1  0.0000000  0.1982205  3
     47     69     68     50     1  180.0000000  15.3215155  2
     21     18     19     36     1  180.0000000  15.3215155  2
    166    148    149    167     1  180.0000000  15.3215155  2
      2      1      3      4     1  180.0000000  4.1731909  2
    122    104    105    123     1  180.0000000  15.3215155  2
    154    153    155    172     1  0.0000000  0.4834079  3
     49     48     47     69     1  180.0000000  15.3215155  2
     55     54     57     76     1  180.0000000  15.3215155  2
     82     65     67     85     1  0.0000000  0.7999501  3
     19     18     21     22     1  0.0000000  0.1115010  3
    150    153    154    171     1  0.0000000  0.7624859  2
    150    153    154    171     1  0.0000000  0.1243628  3
    143    142    141    160     1  180.0000000  15.3215155  2
     96     97     98     99     1  180.0000000  15.3215155  2
    170    153    155    173     1  0.0000000  0.7999501  3
    106    109    111    130     1  0.0000000  0.4834079  3
     94     95     96     97     1  180.0000000  15.3215155  2
     45     47     69     88     1  180.0000000  15.3215155  2
    140    139    146    165     1  180.0000000  15.3215155  2
     95    102    101    120     1  180.0000000  15.3215155  2
    105    106    107    108     1  180.0000000  15.3215155  2
    184    183    185    196     1  0.0000000  0.4354138  3
    186    183    185    195     1  0.0000000  0.4667359  3
    186    183    185    195     1  0.0000000  1.4361539  1
    103    104    105    106     1  180.0000000  15.3215155  2
     61     60     59     64     1  180.0000000  15.3215155  2
    137    138    139    146     1  180.0000000  4.8669776  2
     14      7      6     24     1  180.0000000  4.8669776  2
    139    140    147    148     1  180.0000000  4.8669776  2
     15     20     19     36     1  180.0000000  15.3215155  2
    148    147    152    151     1  180.0000000  15.3215155  2
    148    149    150    153     1  180.0000000  15.3215155  2
     60     61     62     63     1  180.0000000  15.3215155  2
     38     21     22     45     1  0.0000000  0.7624859  2
     38     21     22     45     1  0.0000000  0.1243628  3
     43     24     25     44     1  180.0000000  15.3215155  2
     48     49     50     68     1  180.0000000  15.3215155  2
    186    183    184    192     1  0.0000000  0.4667359  3
    186    183    184    192     1  0.0000000  1.4361539  1
     94     93     92    114     1  180.0000000  15.3215155  2
    127    110    133    135     1  180.0000000  7.5690543  2
    127    110    133    135     1  0.0000000  -0.2015131  1
    142    143    144    163     1  0.0000000  0.1982205  3
    184    183    182    191     1  0.0000000  0.4354138  3
     66     65     67     85     1  0.0000000  0.4834079  3
     49     50     51     58     1  180.0000000  4.8669776  2
    155    153    154    187     1  180.0000000  -0.6228629  4
    155    153    154    187     1  180.0000000  -0.5147696  3
    155    153    154    187     1  0.0000000  1.2298012  2
    155    153    154    187     1  0.0000000  -1.2652947  1
     51     50     68     87     1  180.0000000  15.3215155  2
    142    141    140    147     1  180.0000000  15.3215155  2
    105    106    109    110     1  0.0000000  0.1115010  3
      8     15     16     17     1  180.0000000  15.3215155  2
     96    103    104    105     1  180.0000000  15.3215155  2
     53     52     59     60     1  180.0000000  4.8669776  2
    182    183    184    194     1  0.0000000  0.4354138  3
    106    107    108    125     1  180.0000000  15.3215155  2
     15     16     17     18     1  180.0000000  15.3215155  2
     22     45     47     48     1  180.0000000  4.1731909  2
     91    113    112    131     1  180.0000000  15.3215155  2
     50     68     69     88     1  180.0000000  15.3215155  2
      8      9     10     13     1  180.0000000  15.3215155  2
      2      1    178    177     1  180.0000000  4.8693776  2
      2      1    178    177     1  180.0000000  0.7025718  1
     50     51     52     59     1  180.0000000  15.3215155  2
    141    142    145    146     1  180.0000000  15.3215155  2
    107    106    109    111     1  0.0000000  0.1115010  3
     15     20     19     18     1  180.0000000  15.3215155  2
     60     59     64     81     1  180.0000000  15.3215155  2
     23     21     22     39     1  0.0000000  0.7624859  2
     23     21     22     39     1  0.0000000  0.1243628  3
    152    147    148    166     1  180.0000000  15.3215155  2
     32     13     14     33     1  180.0000000  15.3215155  2
    100     99     98    101     1  180.0000000  6.4108617  2
      7      8      9     10     1  180.0000000  15.3215155  2
     18     21     23     40     1  0.0000000  0.4834079  3
    149    150    151    168     1  180.0000000  15.3215155  2
      1      3     25     44     1  180.0000000  15.3215155  2
     89     91     92    114     1  180.0000000  15.3215155  2
     94     95     96    103     1  180.0000000  15.3215155  2
      7     14     13     10     1  180.0000000  15.3215155  2
     26      4      5     27     1  180.0000000  15.3215155  2
     51     50     68     69     1  180.0000000  15.3215155  2
      3      4      5     27     1  180.0000000  15.3215155  2
    142    145    146    165     1  180.0000000  15.3215155  2
     64     63     62     65     1  180.0000000  15.3215155  2
     48     47     69     68     1  180.0000000  15.3215155  2
    186    183    182    191     1  0.0000000  0.4667359  3
    186    183    182    191     1  0.0000000  1.4361539  1
     49     50     68     87     1  180.0000000  15.3215155  2
     38     21     23     42     1  0.0000000  0.7999501  3
     99     98    101    120     1  180.0000000  15.3215155  2
    136    137    138    156     1  180.0000000  15.3215155  2
     93     94    112    113     1  180.0000000  15.3215155  2
    149    150    153    170     1  0.0000000  0.1115010  3
      1    178    177    181     1  0.0000000  0.1982205  3
     98     99    100    118     1  0.0000000  0.1982205  3
    185    183    184    192     1  0.0000000  0.4354138  3
     65     62     63     80     1  180.0000000  15.3215155  2
      6      5      4     26     1  180.0000000  15.3215155  2
    185    183    182    190     1  0.0000000  0.4354138  3
    143    142    145    164     1  180.0000000  15.3215155  2
    110    109    111    130     1  0.0000000  0.4834079  3
     62     63     64     81     1  180.0000000  15.3215155  2
    186    183    185    197     1  0.0000000  0.4667359  3
    186    183    185    197     1  0.0000000  1.4361539  1
     25      3      1    178     1  180.0000000  4.1731909  2
     97     98    101    120     1  180.0000000  15.3215155  2
    124    107    108    125     1  180.0000000  15.3215155  2
     39     22     45     46     1  180.0000000  9.8256037  2
     39     22     45     46     1  0.0000000  5.2557574  1
      8      7     14     33     1  180.0000000  15.3215155  2
     87     68     69     88     1  180.0000000  15.3215155  2
     15      8      9     28     1  180.0000000  15.3215155  2
    127    110    133    134     1  180.0000000  9.8256037  2
    127    110    133    134     1  0.0000000  5.2557574  1
     49     50     68     69     1  180.0000000  15.3215155  2
     95     96     97    116     1  180.0000000  15.3215155  2
     66     65     67     84     1  0.0000000  0.4834079  3
    139    146    145    164     1  180.0000000  15.3215155  2
     18     21     22     39     1  0.0000000  0.7624859  2
     18     21     22     39     1  0.0000000  0.1243628  3
    114     92     93    115     1  180.0000000  15.3215155  2
     91     92     93    115     1  180.0000000  15.3215155  2
    133    135    157    176     1  180.0000000  15.3215155  2
    147    148    149    150     1  180.0000000  15.3215155  2
    133    135    157    156     1  180.0000000  15.3215155  2
    101     98     97    116     1  180.0000000  15.3215155  2
    108    103    104    122     1  180.0000000  15.3215155  2
     16     17     18     21     1  180.0000000  15.3215155  2
     48     49     50     51     1  180.0000000  15.3215155  2
     69     47     48     70     1  180.0000000  15.3215155  2
    138    137    136    158     1  180.0000000  15.3215155  2
    147    152    151    150     1  180.0000000  15.3215155  2
     45     47     48     70     1  180.0000000  15.3215155  2
    150    153    155    174     1  0.0000000  0.4834079  3
     51     58     57     76     1  180.0000000  15.3215155  2
    150    151    152    169     1  180.0000000  15.3215155  2
    102     95     96    103     1  180.0000000  15.3215155  2
      7      6     24     43     1  180.0000000  15.3215155  2
      4      5      6     24     1  180.0000000  15.3215155  2
      4      3     25     44     1  180.0000000  15.3215155  2
    105    106    107    124     1  180.0000000  15.3215155  2
      6     24     25     44     1  180.0000000  15.3215155  2
     20     19     18     21     1  180.0000000  15.3215155  2
     80     63     64     81     1  180.0000000  15.3215155  2
     52     59     60     78     1  180.0000000  15.3215155  2
     18     19     20     37     1  180.0000000  15.3215155  2
     89     91     92     93     1  180.0000000  15.3215155  2
     52     59     64     63     1  180.0000000  15.3215155  2
     22     21     23     42     1  0.0000000  0.4834079  3
    140    147    152    151     1  180.0000000  15.3215155  2
    105    104    103    108     1  180.0000000  15.3215155  2
      1      3      4     26     1  180.0000000  15.3215155  2
     62     65     67     85     1  0.0000000  0.4834079  3
     38     21     23     41     1  0.0000000  0.7999501  3
     67     65     66     83     1  0.0000000  0.7624859  2
     67     65     66     83     1  0.0000000  0.1243628  3
     51     52     59     60     1  180.0000000  4.8669776  2
     57     54     53     72     1  180.0000000  15.3215155  2
     91    113    112     94     1  180.0000000  15.3215155  2
    150    149    148    166     1  180.0000000  15.3215155  2
     58     51     50     68     1  180.0000000  4.8669776  2
      6      7     14     13     1  180.0000000  15.3215155  2
     52     53     54     55     1  180.0000000  15.3215155  2
     59     64     63     62     1  180.0000000  15.3215155  2
     98     99    100    117     1  0.0000000  0.1982205  3
    109    110    133    135     1  180.0000000  7.5690543  2
    109    110    133    135     1  0.0000000  -0.2015131  1
     17     18     19     20     1  180.0000000  15.3215155  2
    105    106    109    126     1  0.0000000  0.1115010  3
    144    143    142    145     1  180.0000000  6.4108617  2
     18     21     22     45     1  180.0000000  -2.8834993  2
     18     21     22     45     1  0.0000000  1.1413309  1
    185    183    182    191     1  0.0000000  0.4354138  3
     11     10      9     28     1  180.0000000  15.3215155  2
     96     95     94    112     1  180.0000000  4.8669776  2
      3      1    178    177     1  180.0000000  11.6309081  2
    170    153    154    171     1  0.0000000  0.7624859  2
    170    153    154    171     1  0.0000000  0.1243628  3
      7      6     24     25     1  180.0000000  15.3215155  2
    147    148    149    167     1  180.0000000  15.3215155  2
    110    133    135    157     1  180.0000000  4.1731909  2
      4      3      1    178     1  180.0000000  4.1731909  2
     95    102    101     98     1  180.0000000  15.3215155  2
     11     10     13     32     1  180.0000000  15.3215155  2
    139    138    156    175     1  180.0000000  15.3215155  2
     95     94    112    131     1  180.0000000  15.3215155  2
     51     52     59     64     1  180.0000000  4.8669776  2
    103    108    107    124     1  180.0000000  15.3215155  2
     97     96    103    104     1  180.0000000  4.8669776  2
     53     54     57     76     1  180.0000000  15.3215155  2
    136    137    138    139     1  180.0000000  15.3215155  2
     17     18     21     22     1  0.0000000  0.1115010  3
    109    106    107    124     1  180.0000000  15.3215155  2
    154    153    155    174     1  0.0000000  0.4834079  3
    154    187    186    183     1  180.0000000  11.6309081  2
     63     62     65     66     1  0.0000000  0.1115010  3
    137    138    156    175     1  180.0000000  15.3215155  2
     98    101    102    121     1  180.0000000  15.3215155  2
     55     54     57     58     1  180.0000000  15.3215155  2
     96     97     98    101     1  180.0000000  15.3215155  2
     47     69     68     87     1  180.0000000  15.3215155  2
     63     62     61     79     1  180.0000000  15.3215155  2
    151    150    153    155     1  0.0000000  0.1115010  3
     14      7      8     15     1  180.0000000  15.3215155  2
     91     92     93     94     1  180.0000000  15.3215155  2
     90     89     91     92     1  180.0000000  4.1731909  2
     51     50     49     71     1  180.0000000  15.3215155  2
    139    140    141    160     1  180.0000000  15.3215155  2
     60     61     62     65     1  180.0000000  15.3215155  2
     97     96    103    108     1  180.0000000  4.8669776  2
    133    135    136    158     1  180.0000000  15.3215155  2
     11     10     13     14     1  180.0000000  15.3215155  2
    184    183    182    189     1  0.0000000  0.4354138  3
    182    183    185    195     1  0.0000000  0.4354138  3
      9      8     15     20     1  180.0000000  4.8669776  2
    150    153    155    173     1  0.0000000  0.4834079  3
     45     47     48     49     1  180.0000000  15.3215155  2
    151    150    149    167     1  180.0000000  15.3215155  2
    182    183    184    192     1  0.0000000  0.4354138  3
     48     47     69     88     1  180.0000000  15.3215155  2
    138    139    146    165     1  180.0000000  15.3215155  2
    155    153    154    171     1  0.0000000  0.7624859  2
    155    153    154    171     1  0.0000000  0.1243628  3
    126    109    111    129     1  0.0000000  0.7999501  3
     22     21     23     41     1  0.0000000  0.4834079  3
    138    139    146    145     1  180.0000000  15.3215155  2
    106    105    104    122     1  180.0000000  15.3215155  2
     62     65     67     84     1  0.0000000  0.4834079  3
     10     11     12     30     1  0.0000000  0.1982205  3
    134    133    135    157     1  180.0000000  4.1731909  2
    147    140    141    160     1  180.0000000  15.3215155  2
      1      3      4      5     1  180.0000000  15.3215155  2
     51     52     53     54     1  180.0000000  15.3215155  2
     83     66     89     91     1  180.0000000  7.5690543  2
     83     66     89     91     1  0.0000000  -0.2015131  1
    104    103    108    125     1  180.0000000  15.3215155  2
     97     96     95    102     1  180.0000000  15.3215155  2
    104    105    106    107     1  180.0000000  15.3215155  2
      8     15     16     34     1  180.0000000  15.3215155  2
    109    110    133    134     1  180.0000000  12.9785537  2
    109    110    133    134     1  0.0000000  -1.7791009  1
     60     59     64     63     1  180.0000000  15.3215155  2
     18     21     23     42     1  0.0000000  0.4834079  3
    131    112    113    132     1  180.0000000  15.3215155  2
     82     65     67     84     1  0.0000000  0.7999501  3
     96    103    108    125     1  180.0000000  15.3215155  2
     15     16     17     35     1  180.0000000  15.3215155  2
    170    153    155    172     1  0.0000000  0.7999501  3
    106    109    111    129     1  0.0000000  0.4834079  3
     61     62     65     67     1  0.0000000  0.1115010  3
     54     55     56     75     1  0.0000000  0.1982205  3
     50     51     58     77     1  180.0000000  15.3215155  2
      8      7      6     24     1  180.0000000  4.8669776  2
    186    183    185    196     1  0.0000000  0.4667359  3
    186    183    185    196     1  0.0000000  1.4361539  1
     52     59     60     61     1  180.0000000  15.3215155  2
     50     51     58     57     1  180.0000000  15.3215155  2
    140    147    148    149     1  180.0000000  15.3215155  2
    153    154    187    188     1  180.0000000  7.5690543  2
    153    154    187    188     1  0.0000000  -0.2015131  1
    186    183    182    189     1  0.0000000  0.4667359  3
    186    183    182    189     1  0.0000000  1.4361539  1
     54     53     52     59     1  180.0000000  15.3215155  2
    158    136    137    159     1  180.0000000  15.3215155  2
    186    183    184    193     1  0.0000000  0.4667359  3
    186    183    184    193     1  0.0000000  1.4361539  1
     66     89     91    113     1  180.0000000  4.1731909  2
    137    136    135    157     1  180.0000000  15.3215155  2
    171    154    187    188     1  180.0000000  2.0338395  2
    171    154    187    188     1  0.0000000  3.7308670  1
     99     98    101    102     1  180.0000000  15.3215155  2
    142    143    144    162     1  0.0000000  0.1982205  3
     23     21     22     45     1  180.0000000  -0.6228629  4
     23     21     22     45     1  180.0000000  -0.5147696  3
     23     21     22     45     1  0.0000000  1.2298012  2
     23     21     22     45     1  0.0000000  -1.2652947  1
      4      5      6      7     1  180.0000000  15.3215155  2
     19     18     21     23     1  0.0000000  0.1115010  3
     96     95    102    121     1  180.0000000  15.3215155  2
    139    146    145    142     1  180.0000000  15.3215155  2
    146    139    138    156     1  180.0000000  4.8669776  2
    143    142    145    146     1  180.0000000  15.3215155  2
    151    150    153    154     1  0.0000000  0.1115010  3
    140    141    142    143     1  180.0000000  15.3215155  2
     96     95    102    101     1  180.0000000  15.3215155  2
     62     61     60     78     1  180.0000000  15.3215155  2
    138    139    140    141     1  180.0000000  15.3215155  2
     97     98    101    102     1  180.0000000  15.3215155  2
     89     91    113    132     1  180.0000000  15.3215155  2
    141    140    147    152     1  180.0000000  4.8669776  2
     62     65     66     83     1  0.0000000  0.7624859  2
     62     65     66     83     1  0.0000000  0.1243628  3
      7      6      5     27     1  180.0000000  15.3215155  2
    108    107    106    109     1  180.0000000  15.3215155  2
     89     91    113    112     1  180.0000000  15.3215155  2
    182    183    185    197     1  0.0000000  0.4354138  3
    107    106    109    110     1  0.0000000  0.1115010  3
     95     96    103    108     1  180.0000000  4.8669776  2
    184    183    182    190     1  0.0000000  0.4354138  3
     66     65     67     86     1  0.0000000  0.4834079  3
     19     18     21     38     1  0.0000000  0.1115010  3
    182    183    185    196     1  0.0000000  0.4354138  3
    182    183    186    187     1  0.0000000  0.8026052  3
    182    183    186    187     1  180.0000000  3.8501921  1
     95     96     97     98     1  180.0000000  15.3215155  2
    107    106    105    123     1  180.0000000  15.3215155  2
     93     94     95     96     1  180.0000000  4.8669776  2
      9     10     13     32     1  180.0000000  15.3215155  2
    105    106    109    111     1  0.0000000  0.1115010  3
      3     25     24      6     1  180.0000000  15.3215155  2
     17     16     15     20     1  180.0000000  15.3215155  2
      7      8     15     16     1  180.0000000  4.8669776  2
     82     65     66     83     1  0.0000000  0.7624859  2
     82     65     66     83     1  0.0000000  0.1243628  3
     92     93     94    112     1  180.0000000  15.3215155  2
    183    186    187    188     1  180.0000000  4.8693776  2
    183    186    187    188     1  180.0000000  0.7025718  1
    153    150    149    167     1  180.0000000  15.3215155  2
     65     66     89     91     1  180.0000000  7.5690543  2
     65     66     89     91     1  0.0000000  -0.2015131  1
    120    101    102    121     1  180.0000000  15.3215155  2
    140    147    148    166     1  180.0000000  15.3215155  2
    126    109    111    128     1  0.0000000  0.7999501  3
     59     60     61     79     1  180.0000000  15.3215155  2
      9     10     11     12     1  180.0000000  6.4108617  2
     93     92     91    113     1  180.0000000  15.3215155  2
     10     11     12     29     1  0.0000000  0.1982205  3
     56     55     54     57     1  180.0000000  6.4108617  2
      6      7     14     33     1  180.0000000  15.3215155  2
    185    183    186    187     1  0.0000000  0.8026052  3
    185    183    186    187     1  180.0000000  3.8501921  1
    141    140    139    146     1  180.0000000  15.3215155  2
     38     21     22     39     1  0.0000000  0.7624859  2
     38     21     22     39     1  0.0000000  0.1243628  3
     83     66     89     90     1  180.0000000  9.8256037  2
     83     66     89     90     1  0.0000000  5.2557574  1
    134    133    135    136     1  180.0000000  4.1731909  2
    150    153    154    187     1  180.0000000  -2.8834993  2
    150    153    154    187     1  0.0000000  1.1413309  1
     94    112    113    132     1  180.0000000  15.3215155  2
      1    178    177    180     1  0.0000000  0.1982205  3
     63     62     65     82     1  0.0000000  0.1115010  3
    185    183    184    193     1  0.0000000  0.4354138  3
     49     50     51     52     1  180.0000000  4.8669776  2
    139    138    137    159     1  180.0000000  15.3215155  2
      7      8     15     20     1  180.0000000  4.8669776  2
    157    135    136    158     1  180.0000000  15.3215155  2
    110    109    111    129     1  0.0000000  0.4834079  3
     65     62     61     79     1  180.0000000  15.3215155  2
    106    109    111    128     1  0.0000000  0.4834079  3
     61     62     65     66     1  0.0000000  0.1115010  3
      9     10     13     14     1  180.0000000  15.3215155  2
      3      4      5      6     1  180.0000000  15.3215155  2
     54     55     56     74     1  0.0000000  0.1982205  3
    138    139    140    147     1  180.0000000  15.3215155  2
      4      3     25     24     1  180.0000000  15.3215155  2
    156    138    137    159     1  180.0000000  15.3215155  2
     47     48     49     71     1  180.0000000  15.3215155  2
     92     91    113    132     1  180.0000000  15.3215155  2
    186    183    182    190     1  0.0000000  0.4667359  3
    186    183    182    190     1  0.0000000  1.4361539  1
     18     17     16     34     1  180.0000000  15.3215155  2
      5      4      3     25     1  180.0000000  15.3215155  2
    145    142    141    160     1  180.0000000  15.3215155  2
    148    147    152    169     1  180.0000000  15.3215155  2
    135    157    156    138     1  180.0000000  15.3215155  2
     62     65     66     89     1  180.0000000  -2.8834993  2
     62     65     66     89     1  0.0000000  1.1413309  1
     92     91    113    112     1  180.0000000  15.3215155  2
     99     98     97    116     1  180.0000000  15.3215155  2
    148    149    150    151     1  180.0000000  15.3215155  2
    186    183    184    194     1  0.0000000  0.4667359  3
    186    183    184    194     1  0.0000000  1.4361539  1
     50     51     52     53     1  180.0000000  15.3215155  2
     16     15     20     37     1  180.0000000  15.3215155  2
    142    143    144    161     1  0.0000000  0.1982205  3
     66     89     91     92     1  180.0000000  4.1731909  2
     52     53     54     57     1  180.0000000  15.3215155  2
     98     99    100    119     1  0.0000000  0.1982205  3
      9      8     15     16     1  180.0000000  4.8669776  2
     93     94     95    102     1  180.0000000  4.8669776  2
     53     54     55     56     1  180.0000000  6.4108617  2
     21     22     45     47     1  180.0000000  7.5690543  2
     21     22     45     47     1  0.0000000  -0.2015131  1
    185    183    182    189     1  0.0000000  0.4354138  3
     36     19     20     37     1  180.0000000  15.3215155  2
     82     65     66     89     1  0.0000000  0.7624859  2
     82     65     66     89     1  0.0000000  0.1243628  3
     76     57     58     77     1  180.0000000  15.3215155  2
    184    183    185    197     1  0.0000000  0.4354138  3
     78     60     61     79     1  180.0000000  15.3215155  2
    175    156    157    176     1  180.0000000  15.3215155  2
     46     45     47     69     1  180.0000000  4.1731909  2
    140    139    146    145     1  180.0000000  15.3215155  2
     10     13     14     33     1  180.0000000  15.3215155  2
    126    109    110    127     1  0.0000000  0.7624859  2
    126    109    110    127     1  0.0000000  0.1243628  3
     45     47     69     68     1  180.0000000  15.3215155  2
     39     22     45     47     1  180.0000000  7.5690543  2
     39     22     45     47     1  0.0000000  -0.2015131  1
     21     18     17     35     1  180.0000000  15.3215155  2
     10      9      8     15     1  180.0000000  15.3215155  2
    141    142    145    164     1  180.0000000  15.3215155  2
     67     65     66     89     1  180.0000000  -0.6228629  4
     67     65     66     89     1  180.0000000  -0.5147696  3
     67     65     66     89     1  0.0000000  1.2298012  2
     67     65     66     89     1  0.0000000  -1.2652947  1
      8      9     10     11     1  180.0000000  15.3215155  2
    168    151    152    169     1  180.0000000  15.3215155  2
    139    138    156    157     1  180.0000000  15.3215155  2
     95     94    112    113     1  180.0000000  15.3215155  2
    149    148    147    152     1  180.0000000  15.3215155  2
     51     52     53     72     1  180.0000000  15.3215155  2
    103    108    107    106     1  180.0000000  15.3215155  2
     53     54     57     58     1  180.0000000  15.3215155  2
     16     15     20     19     1  180.0000000  15.3215155  2
     24      6      5     27     1  180.0000000  15.3215155  2
     61     62     63     80     1  180.0000000  15.3215155  2
    111    109    110    127     1  0.0000000  0.7624859  2
    111    109    110    127     1  0.0000000  0.1243628  3
    149    150    153    155     1  0.0000000  0.1115010  3
     58     51     52     59     1  180.0000000  15.3215155  2
     34     16     17     35     1  180.0000000  15.3215155  2
    137    138    156    157     1  180.0000000  15.3215155  2
      5      6     24     43     1  180.0000000  15.3215155  2
    112     94     93    115     1  180.0000000  15.3215155  2
     65     66     89     90     1  180.0000000  12.9785537  2
     65     66     89     90     1  0.0000000  -1.7791009  1
    135    157    156    175     1  180.0000000  15.3215155  2
    135    136    137    159     1  180.0000000  15.3215155  2
    152    151    150    153     1  180.0000000  15.3215155  2
     52     51     50     68     1  180.0000000  4.8669776  2
    139    140    147    152     1  180.0000000  4.8669776  2
     38     21     23     40     1  0.0000000  0.7999501  3
     64     59     60     78     1  180.0000000  15.3215155  2
     93     94    112    131     1  180.0000000  15.3215155  2
    139    140    141    142     1  180.0000000  15.3215155  2
      7      8      9     28     1  180.0000000  15.3215155  2
      1    178    177    179     1  0.0000000  0.1982205  3
      8     15     20     37     1  180.0000000  15.3215155  2
    185    183    184    194     1  0.0000000  0.4354138  3
    113     91     92    114     1  180.0000000  15.3215155  2
    153    150    151    168     1  180.0000000  15.3215155  2
     61     62     63     64     1  180.0000000  15.3215155  2
      5      6      7      8     1  180.0000000  4.8669776  2
    110    109    111    128     1  0.0000000  0.4834079  3
    151    150    153    170     1  0.0000000  0.1115010  3
     53     52     59     64     1  180.0000000  4.8669776  2
    103    104    105    123     1  180.0000000  15.3215155  2
     92     93     94     95     1  180.0000000  15.3215155  2
     54     55     56     73     1  0.0000000  0.1982205  3
    106    109    110    127     1  0.0000000  0.7624859  2
    106    109    110    127     1  0.0000000  0.1243628  3
      1      3     25     24     1  180.0000000  15.3215155  2
    126    109    110    133     1  0.0000000  0.7624859  2
    126    109    110    133     1  0.0000000  0.1243628  3
      5      6     24     25     1  180.0000000  15.3215155  2
    110    133    135    136     1  180.0000000  4.1731909  2
     62     65     67     86     1  0.0000000  0.4834079  3
      2      1      3     25     1  180.0000000  4.1731909  2
     59     60     61     62     1  180.0000000  15.3215155  2
     47     48     49     50     1  180.0000000  15.3215155  2
     97     98     99    100     1  180.0000000  6.4108617  2
    107    106    109    126     1  0.0000000  0.1115010  3
    141    140    147    148     1  180.0000000  4.8669776  2
     59     52     53     72     1  180.0000000  15.3215155  2
     95     96    103    104     1  180.0000000  4.8669776  2
     94     95    102    121     1  180.0000000  15.3215155  2
    104    103    108    107     1  180.0000000  15.3215155  2
    104    105    106    109     1  180.0000000  15.3215155  2
    154    153    155    173     1  0.0000000  0.4834079  3
    111    109    110    133     1  180.0000000  -0.6228629  4
    111    109    110    133     1  180.0000000  -0.5147696  3
    111    109    110    133     1  0.0000000  1.2298012  2
    111    109    110    133     1  0.0000000  -1.2652947  1
    138    156    157    176     1  180.0000000  15.3215155  2
      7     14     13     32     1  180.0000000  15.3215155  2
     25      3      4     26     1  180.0000000  15.3215155  2
     98     97     96    103     1  180.0000000  15.3215155  2
     13     10      9     28     1  180.0000000  15.3215155  2
    109    106    105    123     1  180.0000000  15.3215155  2
     94     95    102    101     1  180.0000000  15.3215155  2
     82     65     67     86     1  0.0000000  0.7999501  3
     21     22     45     46     1  180.0000000  12.9785537  2
     21     22     45     46     1  0.0000000  -1.7791009  1
     55     54     53     72     1  180.0000000  15.3215155  2
     96    103    104    122     1  180.0000000  15.3215155  2
      8     15     20     19     1  180.0000000  15.3215155  2
    149    150    151    152     1  180.0000000  15.3215155  2
     96    103    108    107     1  180.0000000  15.3215155  2
    170    153    155    174     1  0.0000000  0.7999501  3
      5      6      7     14     1  180.0000000  4.8669776  2
     53     52     51     58     1  180.0000000  15.3215155  2
    184    183    185    195     1  0.0000000  0.4354138  3
    140    139    138    156     1  180.0000000  4.8669776  2
     46     45     47     48     1  180.0000000  4.1731909  2
    153    154    187    186     1  180.0000000  7.5690543  2
    153    154    187    186     1  0.0000000  -0.2015131  1
     68     50     49     71     1  180.0000000  15.3215155  2
     70     48     49     71     1  180.0000000  15.3215155  2
    171    154    187    186     1  180.0000000  7.5690543  2
    171    154    187    186     1  0.0000000  -0.2015131  1
    136    135    157    176     1  180.0000000  15.3215155  2
     17     18     21     23     1  0.0000000  0.1115010  3
     16     17     18     19     1  180.0000000  15.3215155  2
     17     18     19     36     1  180.0000000  15.3215155  2
      8      7     14     13     1  180.0000000  15.3215155  2
    147    152    151    168     1  180.0000000  15.3215155  2
    164    145    146    165     1  180.0000000  15.3215155  2
    133    135    136    137     1  180.0000000  15.3215155  2
    136    135    157    156     1  180.0000000  15.3215155  2
    106    109    105    107     4  180.0000000  1.5341333  2
    146    165    139    145     4  180.0000000  1.5341333  2
    154    187    153    171     4  180.0000000  1.3946667  2
     69     47     68     88     4  180.0000000  1.5341333  2
    136    135    137    158     4  180.0000000  1.5341333  2
    113     91    112    132     4  180.0000000  1.5341333  2
    112    131     94    113     4  180.0000000  1.5341333  2
     45     47     22     46     4  180.0000000  1.5341333  2
    149    148    150    167     4  180.0000000  1.5341333  2
     47     48     69     45     4  180.0000000  1.5341333  2
    187    154    186    188     4  180.0000000  14.6440000  2
     98     99    101     97     4  180.0000000  1.5341333  2
    102    101    121     95     4  180.0000000  1.5341333  2
    113    112    132     91     4  180.0000000  1.5341333  2
    142    143    145    141     4  180.0000000  1.5341333  2
    150    151    153    149     4  180.0000000  1.5341333  2
     61     79     60     62     4  180.0000000  1.5341333  2
    105    106    123    104     4  180.0000000  1.5341333  2
    146    145    165    139     4  180.0000000  1.5341333  2
     51     52     58     50     4  180.0000000  1.5341333  2
      7      8     14      6     4  180.0000000  1.5341333  2
    106    107    109    105     4  180.0000000  1.5341333  2
    102    121     95    101     4  180.0000000  1.5341333  2
     53     72     52     54     4  180.0000000  1.5341333  2
    187    188    154    186     4  180.0000000  14.6440000  2
     63     64     80     62     4  180.0000000  1.5341333  2
      6      5      7     24     4  180.0000000  1.5341333  2
     14     33      7     13     4  180.0000000  1.5341333  2
     14     13     33      7     4  180.0000000  1.5341333  2
     96    103     95     97     4  180.0000000  1.5341333  2
     50     49     51     68     4  180.0000000  1.5341333  2
      5     27      4      6     4  180.0000000  1.5341333  2
     58     57     77     51     4  180.0000000  1.5341333  2
     96     97    103     95     4  180.0000000  1.5341333  2
     51     58     50     52     4  180.0000000  1.5341333  2
    108    125    103    107     4  180.0000000  1.5341333  2
     10     13      9     11     4  180.0000000  1.5341333  2
     61     62     79     60     4  180.0000000  1.5341333  2
      1      2      3    178     4  180.0000000  14.6440000  2
     57     54     58     76     4  180.0000000  1.5341333  2
     89     91     66     90     4  180.0000000  1.5341333  2
    139    140    146    138     4  180.0000000  1.5341333  2
     60     59     61     78     4  180.0000000  1.5341333  2
      4     26      3      5     4  180.0000000  1.5341333  2
      3     25      1      4     4  180.0000000  1.5341333  2
     15     16     20      8     4  180.0000000  1.5341333  2
    101    120     98    102     4  180.0000000  1.5341333  2
     68     69     87     50     4  180.0000000  1.5341333  2
     58     51     57     77     4  180.0000000  1.5341333  2
     97     96     98    116     4  180.0000000  1.5341333  2
     24     25     43      6     4  180.0000000  1.5341333  2
    157    176    135    156     4  180.0000000  1.5341333  2
      9     10     28      8     4  180.0000000  1.5341333  2
      7     14      6      8     4  180.0000000  1.5341333  2
     16     34     15     17     4  180.0000000  1.5341333  2
     50     51     68     49     4  180.0000000  1.5341333  2
     66     65     83     89     4  180.0000000  1.3946667  2
     18     21     17     19     4  180.0000000  1.5341333  2
    156    175    138    157     4  180.0000000  1.5341333  2
    133    135    110    134     4  180.0000000  1.5341333  2
    103    104    108     96     4  180.0000000  1.5341333  2
     96     95     97    103     4  180.0000000  1.5341333  2
    104    105    122    103     4  180.0000000  1.5341333  2
     49     50     71     48     4  180.0000000  1.5341333  2
    103    108     96    104     4  180.0000000  1.5341333  2
    138    137    139    156     4  180.0000000  1.5341333  2
     13     10     14     32     4  180.0000000  1.5341333  2
     92    114     91     93     4  180.0000000  1.5341333  2
     10     11     13      9     4  180.0000000  1.5341333  2
    108    103    107    125     4  180.0000000  1.5341333  2
    152    151    169    147     4  180.0000000  1.5341333  2
     48     49     70     47     4  180.0000000  1.5341333  2
    133    134    135    110     4  180.0000000  1.5341333  2
     54     53     55     57     4  180.0000000  1.5341333  2
    101    102    120     98     4  180.0000000  1.5341333  2
     22     21     39     45     4  180.0000000  1.3946667  2
     45     22     46     47     4  180.0000000  1.5341333  2
    156    157    175    138     4  180.0000000  1.5341333  2
     68     50     69     87     4  180.0000000  1.5341333  2
    145    146    164    142     4  180.0000000  1.5341333  2
     69     88     47     68     4  180.0000000  1.5341333  2
     49     48     50     71     4  180.0000000  1.5341333  2
     51     50     52     58     4  180.0000000  1.5341333  2
     57     76     54     58     4  180.0000000  1.5341333  2
    145    164    142    146     4  180.0000000  1.5341333  2
    151    168    150    152     4  180.0000000  1.5341333  2
     15      8     16     20     4  180.0000000  1.5341333  2
     68     87     50     69     4  180.0000000  1.5341333  2
     91     89     92    113     4  180.0000000  1.5341333  2
    103     96    104    108     4  180.0000000  1.5341333  2
    104    103    105    122     4  180.0000000  1.5341333  2
    157    135    156    176     4  180.0000000  1.5341333  2
    139    146    138    140     4  180.0000000  1.5341333  2
    145    142    146    164     4  180.0000000  1.5341333  2
     61     60     62     79     4  180.0000000  1.5341333  2
     22     39     45     21     4  180.0000000  1.3946667  2
     66     89     65     83     4  180.0000000  1.3946667  2
    105    123    104    106     4  180.0000000  1.5341333  2
      5      6     27      4     4  180.0000000  1.5341333  2
    156    138    157    175     4  180.0000000  1.5341333  2
    110    127    133    109     4  180.0000000  1.3946667  2
     62     61     63     65     4  180.0000000  1.5341333  2
      3      4     25      1     4  180.0000000  1.5341333  2
     53     54     72     52     4  180.0000000  1.5341333  2
    141    140    142    160     4  180.0000000  1.5341333  2
    150    153    149    151     4  180.0000000  1.5341333  2
      8     15      7      9     4  180.0000000  1.5341333  2
      6      7     24      5     4  180.0000000  1.5341333  2
    108    107    125    103     4  180.0000000  1.5341333  2
     20     37     15     19     4  180.0000000  1.5341333  2
     98     97     99    101     4  180.0000000  1.5341333  2
    137    136    138    159     4  180.0000000  1.5341333  2
    147    148    152    140     4  180.0000000  1.5341333  2
    140    139    141    147     4  180.0000000  1.5341333  2
     14      7     13     33     4  180.0000000  1.5341333  2
    135    136    157    133     4  180.0000000  1.5341333  2
     59     52     60     64     4  180.0000000  1.5341333  2
     60     78     59     61     4  180.0000000  1.5341333  2
    141    160    140    142     4  180.0000000  1.5341333  2
    137    138    159    136     4  180.0000000  1.5341333  2
    136    158    135    137     4  180.0000000  1.5341333  2
     69     68     88     47     4  180.0000000  1.5341333  2
     53     52     54     72     4  180.0000000  1.5341333  2
      1      3    178      2     4  180.0000000  14.6440000  2
    107    124    106    108     4  180.0000000  1.5341333  2
    152    147    151    169     4  180.0000000  1.5341333  2
      8      9     15      7     4  180.0000000  1.5341333  2
      8      7      9     15     4  180.0000000  1.5341333  2
     92     93    114     91     4  180.0000000  1.5341333  2
     47     45     48     69     4  180.0000000  1.5341333  2
     18     19     21     17     4  180.0000000  1.5341333  2
     24      6     25     43     4  180.0000000  1.5341333  2
      7      6      8     14     4  180.0000000  1.5341333  2
     91    113     89     92     4  180.0000000  1.5341333  2
    107    108    124    106     4  180.0000000  1.5341333  2
     10      9     11     13     4  180.0000000  1.5341333  2
      3      1      4     25     4  180.0000000  1.5341333  2
     17     16     18     35     4  180.0000000  1.5341333  2
     22     45     21     39     4  180.0000000  1.3946667  2
     45     46     47     22     4  180.0000000  1.5341333  2
     98    101     97     99     4  180.0000000  1.5341333  2
     91     92    113     89     4  180.0000000  1.5341333  2
    110    109    127    133     4  180.0000000  1.3946667  2
     25      3     24     44     4  180.0000000  1.5341333  2
      5      4      6     27     4  180.0000000  1.5341333  2
     64     81     59     63     4  180.0000000  1.5341333  2
    148    147    149    166     4  180.0000000  1.5341333  2
     64     63     81     59     4  180.0000000  1.5341333  2
      9     28      8     10     4  180.0000000  1.5341333  2
    142    141    143    145     4  180.0000000  1.5341333  2
      9      8     10     28     4  180.0000000  1.5341333  2
     17     35     16     18     4  180.0000000  1.5341333  2
     63     80     62     64     4  180.0000000  1.5341333  2
    140    141    147    139     4  180.0000000  1.5341333  2
    113    132     91    112     4  180.0000000  1.5341333  2
     54     57     53     55     4  180.0000000  1.5341333  2
    154    153    171    187     4  180.0000000  1.3946667  2
    152    169    147    151     4  180.0000000  1.5341333  2
     19     36     18     20     4  180.0000000  1.5341333  2
    102     95    101    121     4  180.0000000  1.5341333  2
    106    105    107    109     4  180.0000000  1.5341333  2
    107    106    108    124     4  180.0000000  1.5341333  2
     20     15     19     37     4  180.0000000  1.5341333  2
    148    166    147    149     4  180.0000000  1.5341333  2
     50     68     49     51     4  180.0000000  1.5341333  2
    140    147    139    141     4  180.0000000  1.5341333  2
     59     64     52     60     4  180.0000000  1.5341333  2
     24     43      6     25     4  180.0000000  1.5341333  2
     95     94     96    102     4  180.0000000  1.5341333  2
    133    110    134    135     4  180.0000000  1.5341333  2
    149    167    148    150     4  180.0000000  1.5341333  2
      4      3      5     26     4  180.0000000  1.5341333  2
     95     96    102     94     4  180.0000000  1.5341333  2
    148    149    166    147     4  180.0000000  1.5341333  2
     20     19     37     15     4  180.0000000  1.5341333  2
     52     59     51     53     4  180.0000000  1.5341333  2
    147    152    140    148     4  180.0000000  1.5341333  2
     16     15     17     34     4  180.0000000  1.5341333  2
     63     62     64     80     4  180.0000000  1.5341333  2
     97    116     96     98     4  180.0000000  1.5341333  2
    151    152    168    150     4  180.0000000  1.5341333  2
    157    156    176    135     4  180.0000000  1.5341333  2
     95    102     94     96     4  180.0000000  1.5341333  2
     97     98    116     96     4  180.0000000  1.5341333  2
    138    156    137    139     4  180.0000000  1.5341333  2
    110    133    109    127     4  180.0000000  1.3946667  2
     15     20      8     16     4  180.0000000  1.5341333  2
     89     90     91     66     4  180.0000000  1.5341333  2
     52     51     53     59     4  180.0000000  1.5341333  2
    150    149    151    153     4  180.0000000  1.5341333  2
    135    157    133    136     4  180.0000000  1.5341333  2
     92     91     93    114     4  180.0000000  1.5341333  2
     62     65     61     63     4  180.0000000  1.5341333  2
     19     20     36     18     4  180.0000000  1.5341333  2
    147    140    148    152     4  180.0000000  1.5341333  2
    136    137    158    135     4  180.0000000  1.5341333  2
     17     18     35     16     4  180.0000000  1.5341333  2
    105    104    106    123     4  180.0000000  1.5341333  2
    138    139    156    137     4  180.0000000  1.5341333  2
     94     95    112     93     4  180.0000000  1.5341333  2
    187    186    188    154     4  180.0000000  14.6440000  2
     66     83     89     65     4  180.0000000  1.3946667  2
    146    139    145    165     4  180.0000000  1.5341333  2
    151    150    152    168     4  180.0000000  1.5341333  2
     13     14     32     10     4  180.0000000  1.5341333  2
     93    115     92     94     4  180.0000000  1.5341333  2
     19     18     20     36     4  180.0000000  1.5341333  2
     52     53     59     51     4  180.0000000  1.5341333  2
     94    112     93     95     4  180.0000000  1.5341333  2
     25     44      3     24     4  180.0000000  1.5341333  2
    149    150    167    148     4  180.0000000  1.5341333  2
     48     70     47     49     4  180.0000000  1.5341333  2
     64     59     63     81     4  180.0000000  1.5341333  2
    137    159    136    138     4  180.0000000  1.5341333  2
    112     94    113    131     4  180.0000000  1.5341333  2
      6     24      5      7     4  180.0000000  1.5341333  2
     62     63     65     61     4  180.0000000  1.5341333  2
     59     60     64     52     4  180.0000000  1.5341333  2
     93     92     94    115     4  180.0000000  1.5341333  2
    154    171    187    153     4  180.0000000  1.3946667  2
     58     77     51     57     4  180.0000000  1.5341333  2
     13     32     10     14     4  180.0000000  1.5341333  2
     54     55     57     53     4  180.0000000  1.5341333  2
     25     24     44      3     4  180.0000000  1.5341333  2
    139    138    140    146     4  180.0000000  1.5341333  2
     48     47     49     70     4  180.0000000  1.5341333  2
     57     58     76     54     4  180.0000000  1.5341333  2
     47     69     45     48     4  180.0000000  1.5341333  2
     89     66     90     91     4  180.0000000  1.5341333  2
     94     93     95    112     4  180.0000000  1.5341333  2
    112    113    131     94     4  180.0000000  1.5341333  2
     18     17     19     21     4  180.0000000  1.5341333  2
     60     61     78     59     4  180.0000000  1.5341333  2
     49     71     48     50     4  180.0000000  1.5341333  2
    101     98    102    120     4  180.0000000  1.5341333  2
     93     94    115     92     4  180.0000000  1.5341333  2
      4      5     26      3     4  180.0000000  1.5341333  2
      1    178      2      3     4  180.0000000  14.6440000  2
    142    145    141    143     4  180.0000000  1.5341333  2
    104    122    103    105     4  180.0000000  1.5341333  2
    141    142    160    140     4  180.0000000  1.5341333  2
    135    133    136    157     4  180.0000000  1.5341333  2
     16     17     34     15     4  180.0000000  1.5341333  2


[ moleculetype ]
; Name            nrexcl
MOL1          3

[ atoms ]
;   nr       type  resnr residue  atom   cgnr    charge       mass  typeB    chargeB      massB
; residue    1 MOL1 rtp MOL1 q -0.0
    1     MOL1_0      1   MOL1     Cl      1 -0.11398000  35.453200   ; qtot -0.113980
    2     MOL1_1      1   MOL1      C      2 0.22337000   9.994886   ; qtot 0.109390
    3     MOL1_2      1   MOL1     Cl      3 -0.11398000  35.453200   ; qtot -0.004590
    4     MOL1_3      1   MOL1     Cl      4 -0.11398000  35.453200   ; qtot -0.118570
    5     MOL1_4      1   MOL1      H      5 0.11857000   3.023841   ; qtot -0.000000

[ bonds ]
;    ai     aj funct         c0         c1         c2         c3
      1      2     1   0.17915 144269.526419
      2      3     1   0.17915 144269.526419
      2      4     1   0.17915 144269.526419
      2      5     1   0.10939 309655.084322

[ angles ]
;    ai     aj     ak funct         c0         c1         c2         c3
      3      2      4     1   116.5475863 445.222087
      1      2      3     1   116.5475863 445.222087
      4      2      5     1   116.5475863 445.222087
      1      2      5     1   116.5475863 445.222087
      3      2      5     1   116.5475863 445.222087
      1      2      4     1   116.5475863 445.222087

[ system ]
; Name
FOO

[ molecules ]
; Compound       #mols
pop_tetramer.pdb      1
MOL1               634
