Generated by Interchange
3367
    1pop_t    C    1   0.360   1.430   0.648
    1pop_t    O    2   0.262   1.457   0.714
    1pop_t    C    3   0.498   1.427   0.703
    1pop_t    C    4   0.611   1.394   0.627
    1pop_t    C    5   0.739   1.404   0.683
    1pop_t    C    6   0.757   1.447   0.815
    1pop_t    C    7   0.893   1.463   0.873
    1pop_t    C    8   0.940   1.585   0.930
    1pop_t    C    9   1.069   1.586   0.987
    1pop_t    C   10   1.152   1.474   0.988
    1pop_t    O   11   1.274   1.492   1.048
    1pop_t    C   12   1.362   1.381   1.051
    1pop_t    C   13   1.107   1.356   0.929
    1pop_t    C   14   0.979   1.351   0.873
    1pop_t    C   15   0.860   1.710   0.929
    1pop_t    C   16   0.829   1.777   1.048
    1pop_t    C   17   0.751   1.894   1.048
    1pop_t    C   18   0.701   1.946   0.927
    1pop_t    C   19   0.733   1.879   0.808
    1pop_t    C   20   0.812   1.764   0.809
    1pop_t    C   21   0.622   2.075   0.921
    1pop_t    N   22   0.503   2.071   1.005
    1pop_t    C   23   0.709   2.194   0.963
    1pop_t    C   24   0.643   1.477   0.891
    1pop_t    C   25   0.515   1.468   0.836
    1pop_t    H   26   0.601   1.362   0.524
    1pop_t    H   27   0.825   1.381   0.621
    1pop_t    H   28   1.107   1.678   1.032
    1pop_t    H   29   1.453   1.412   1.104
    1pop_t    H   30   1.391   1.350   0.950
    1pop_t    H   31   1.318   1.297   1.107
    1pop_t    H   32   1.168   1.267   0.926
    1pop_t    H   33   0.945   1.257   0.829
    1pop_t    H   34   0.865   1.739   1.144
    1pop_t    H   35   0.731   1.943   1.142
    1pop_t    H   36   0.696   1.917   0.713
    1pop_t    H   37   0.834   1.716   0.714
    1pop_t    H   38   0.589   2.093   0.818
    1pop_t    H   39   0.520   2.039   1.099
    1pop_t    H   40   0.655   2.289   0.954
    1pop_t    H   41   0.800   2.201   0.902
    1pop_t    H   42   0.740   2.186   1.068
    1pop_t    H   43   0.653   1.511   0.994
    1pop_t    H   44   0.429   1.496   0.896
    1pop_t    C   45   0.408   2.170   0.984
    1pop_t    O   46   0.369   2.199   0.871
    1pop_t    C   47   0.366   2.251   1.102
    1pop_t    C   48   0.418   2.232   1.230
    1pop_t    C   49   0.386   2.320   1.334
    1pop_t    C   50   0.301   2.429   1.313
    1pop_t    C   51   0.269   2.522   1.423
    1pop_t    C   52   0.293   2.662   1.418
    1pop_t    C   53   0.254   2.741   1.528
    1pop_t    C   54   0.196   2.686   1.642
    1pop_t    O   55   0.164   2.777   1.740
    1pop_t    C   56   0.102   2.726   1.857
    1pop_t    C   57   0.176   2.549   1.649
    1pop_t    C   58   0.212   2.468   1.541
    1pop_t    C   59   0.359   2.727   1.302
    1pop_t    C   60   0.296   2.830   1.231
    1pop_t    C   61   0.357   2.890   1.120
    1pop_t    C   62   0.483   2.848   1.076
    1pop_t    C   63   0.547   2.745   1.147
    1pop_t    C   64   0.486   2.687   1.258
    1pop_t    C   65   0.556   2.915   0.961
    1pop_t    N   66   0.479   2.913   0.838
    1pop_t    C   67   0.591   3.060   0.997
    1pop_t    C   68   0.248   2.447   1.184
    1pop_t    C   69   0.281   2.360   1.080
    1pop_t    H   70   0.487   2.152   1.254
    1pop_t    H   71   0.431   2.304   1.432
    1pop_t    H   72   0.272   2.849   1.525
    1pop_t    H   73   0.082   2.811   1.923
    1pop_t    H   74   0.168   2.657   1.911
    1pop_t    H   75   0.006   2.678   1.834
    1pop_t    H   76   0.132   2.501   1.736
    1pop_t    H   77   0.194   2.361   1.547
    1pop_t    H   78   0.197   2.865   1.262
    1pop_t    H   79   0.304   2.971   1.069
    1pop_t    H   80   0.645   2.710   1.116
    1pop_t    H   81   0.540   2.608   1.311
    1pop_t    H   82   0.650   2.861   0.942
    1pop_t    H   83   0.384   2.943   0.848
    1pop_t    H   84   0.649   3.108   0.917
    1pop_t    H   85   0.651   3.065   1.089
    1pop_t    H   86   0.501   3.120   1.012
    1pop_t    H   87   0.183   2.532   1.163
    1pop_t    H   88   0.242   2.380   0.980
    1pop_t    C   89   0.548   2.943   0.722
    1pop_t    O   90   0.656   2.893   0.695
    1pop_t    C   91   0.492   3.052   0.636
    1pop_t    C   92   0.377   3.125   0.669
    1pop_t    C   93   0.338   3.235   0.593
    1pop_t    C   94   0.413   3.277   0.482
    1pop_t    C   95   0.371   3.395   0.404
    1pop_t    C   96   0.455   3.507   0.380
    1pop_t    C   97   0.406   3.612   0.300
    1pop_t    C   98   0.277   3.610   0.245
    1pop_t    O   99   0.245   3.720   0.169
    1pop_t    C  100   0.116   3.722   0.110
    1pop_t    C  101   0.194   3.502   0.271
    1pop_t    C  102   0.241   3.396   0.349
    1pop_t    C  103   0.590   3.520   0.439
    1pop_t    C  104   0.703   3.539   0.357
    1pop_t    C  105   0.832   3.548   0.413
    1pop_t    C  106   0.851   3.539   0.551
    1pop_t    C  107   0.739   3.520   0.633
    1pop_t    C  108   0.610   3.513   0.578
    1pop_t    C  109   0.987   3.554   0.616
    1pop_t    N  110   1.084   3.458   0.566
    1pop_t    C  111   1.042   3.696   0.595
    1pop_t    C  112   0.527   3.203   0.448
    1pop_t    C  113   0.567   3.093   0.525
    1pop_t    H  114   0.317   3.101   0.756
    1pop_t    H  115   0.250   3.292   0.624
    1pop_t    H  116   0.468   3.699   0.280
    1pop_t    H  117   0.107   3.815   0.053
    1pop_t    H  118   0.037   3.722   0.186
    1pop_t    H  119   0.103   3.639   0.040
    1pop_t    H  120   0.093   3.496   0.233
    1pop_t    H  121   0.174   3.312   0.367
    1pop_t    H  122   0.692   3.545   0.250
    1pop_t    H  123   0.916   3.564   0.346
    1pop_t    H  124   0.749   3.513   0.741
    1pop_t    H  125   0.526   3.499   0.644
    1pop_t    H  126   0.978   3.538   0.724
    1pop_t    H  127   1.088   3.450   0.465
    1pop_t    H  128   1.138   3.710   0.646
    1pop_t    H  129   0.972   3.772   0.633
    1pop_t    H  130   1.059   3.717   0.489
    1pop_t    H  131   0.589   3.233   0.364
    1pop_t    H  132   0.660   3.041   0.499
    1pop_t    C  133   1.202   3.445   0.638
    1pop_t    O  134   1.202   3.434   0.760
    1pop_t    C  135   1.330   3.462   0.563
    1pop_t    C  136   1.336   3.494   0.428
    1pop_t    C  137   1.459   3.524   0.367
    1pop_t    C  138   1.578   3.522   0.441
    1pop_t    C  139   1.707   3.555   0.376
    1pop_t    C  140   1.793   3.658   0.421
    1pop_t    C  141   1.916   3.677   0.353
    1pop_t    C  142   1.953   3.599   0.244
    1pop_t    O  143   2.075   3.630   0.190
    1pop_t    C  144   2.118   3.552   0.078
    1pop_t    C  145   1.867   3.500   0.198
    1pop_t    C  146   1.746   3.479   0.264
    1pop_t    C  147   1.759   3.748   0.534
    1pop_t    C  148   1.842   3.758   0.647
    1pop_t    C  149   1.808   3.841   0.755
    1pop_t    C  150   1.690   3.917   0.753
    1pop_t    C  151   1.607   3.906   0.641
    1pop_t    C  152   1.641   3.824   0.533
    1pop_t    C  153   1.656   4.017   0.862
    1pop_t    N  154   1.641   3.958   0.994
    1pop_t    C  155   1.760   4.131   0.865
    1pop_t    C  156   1.572   3.488   0.577
    1pop_t    C  157   1.449   3.460   0.638
    1pop_t    H  158   1.248   3.502   0.366
    1pop_t    H  159   1.460   3.552   0.262
    1pop_t    H  160   1.983   3.756   0.386
    1pop_t    H  161   2.217   3.588   0.048
    1pop_t    H  162   2.051   3.566  -0.007
    1pop_t    H  163   2.127   3.447   0.105
    1pop_t    H  164   1.891   3.437   0.113
    1pop_t    H  165   1.681   3.399   0.227
    1pop_t    H  166   1.934   3.701   0.652
    1pop_t    H  167   1.876   3.848   0.840
    1pop_t    H  168   1.514   3.963   0.636
    1pop_t    H  169   1.574   3.820   0.447
    1pop_t    H  170   1.559   4.062   0.837
    1pop_t    H  171   1.694   3.876   1.019
    1pop_t    H  172   1.734   4.208   0.939
    1pop_t    H  173   1.767   4.180   0.768
    1pop_t    H  174   1.859   4.093   0.892
    1pop_t    H  175   1.662   3.487   0.638
    1pop_t    H  176   1.447   3.439   0.745
    1pop_t    C  177   0.245   1.454   0.447
    1pop_t    O  178   0.363   1.410   0.513
    1pop_t    H  179   0.153   1.425   0.499
    1pop_t    H  180   0.243   1.410   0.347
    1pop_t    H  181   0.249   1.563   0.437
    1pop_t    C  182   1.451   4.364   1.067
    1pop_t    C  183   1.477   4.239   1.153
    1pop_t    C  184   1.578   4.277   1.262
    1pop_t    C  185   1.344   4.190   1.211
    1pop_t    O  186   1.531   4.143   1.060
    1pop_t    C  187   1.583   4.024   1.098
    1pop_t    O  188   1.584   3.980   1.212
    1pop_t    H  189   1.408   4.446   1.125
    1pop_t    H  190   1.544   4.400   1.021
    1pop_t    H  191   1.383   4.342   0.984
    1pop_t    H  192   1.674   4.305   1.218
    1pop_t    H  193   1.597   4.194   1.330
    1pop_t    H  194   1.541   4.361   1.322
    1pop_t    H  195   1.277   4.156   1.130
    1pop_t    H  196   1.360   4.103   1.276
    1pop_t    H  197   1.294   4.267   1.268
    2MOL1    Cl  198   4.319   0.172   2.688
    2MOL1     C  199   4.338   0.348   2.683
    2MOL1    Cl  200   4.499   0.395   2.738
    2MOL1    Cl  201   4.307   0.409   2.520
    2MOL1     H  202   4.264   0.392   2.750
    2MOL1    Cl  203   1.769   2.569   4.203
    2MOL1     C  204   1.760   2.525   4.374
    2MOL1    Cl  205   1.732   2.351   4.393
    2MOL1    Cl  206   1.907   2.574   4.460
    2MOL1     H  207   1.675   2.578   4.419
    2MOL1    Cl  208   1.974   2.224   0.975
    2MOL1     C  209   1.851   2.349   0.995
    2MOL1    Cl  210   1.836   2.446   0.847
    2MOL1    Cl  211   1.695   2.276   1.038
    2MOL1     H  212   1.881   2.415   1.076
    2MOL1    Cl  213   2.708   0.680   3.690
    2MOL1     C  214   2.596   0.605   3.805
    2MOL1    Cl  215   2.605   0.429   3.796
    2MOL1    Cl  216   2.631   0.661   3.970
    2MOL1     H  217   2.494   0.636   3.779
    2MOL1    Cl  218   2.144   1.934   2.865
    2MOL1     C  219   2.291   1.883   2.950
    2MOL1    Cl  220   2.401   1.798   2.840
    2MOL1    Cl  221   2.373   2.023   3.023
    2MOL1     H  222   2.263   1.814   3.031
    2MOL1    Cl  223   5.102   1.214   0.405
    2MOL1     C  224   5.037   1.265   0.562
    2MOL1    Cl  225   5.158   1.359   0.651
    2MOL1    Cl  226   4.889   1.359   0.540
    2MOL1     H  227   5.013   1.176   0.620
    2MOL1    Cl  228   2.978   0.832   2.709
    2MOL1     C  229   2.939   0.780   2.545
    2MOL1    Cl  230   2.903   0.606   2.541
    2MOL1    Cl  231   2.803   0.873   2.480
    2MOL1     H  232   3.026   0.798   2.481
    2MOL1    Cl  233   3.688   4.097   4.953
    2MOL1     C  234   3.757   4.032   4.804
    2MOL1    Cl  235   3.896   3.927   4.839
    2MOL1    Cl  236   3.634   3.943   4.712
    2MOL1     H  237   3.792   4.116   4.743
    2MOL1    Cl  238   0.834   4.020   3.391
    2MOL1     C  239   0.776   4.167   3.470
    2MOL1    Cl  240   0.599   4.167   3.480
    2MOL1    Cl  241   0.847   4.184   3.631
    2MOL1     H  242   0.806   4.253   3.409
    2MOL1    Cl  243   3.813   1.233   2.673
    2MOL1     C  244   3.926   1.329   2.576
    2MOL1    Cl  245   3.916   1.500   2.620
    2MOL1    Cl  246   4.092   1.270   2.597
    2MOL1     H  247   3.899   1.319   2.471
    2MOL1    Cl  248   4.944   2.919   4.532
    2MOL1     C  249   4.909   3.085   4.482
    2MOL1    Cl  250   5.022   3.137   4.355
    2MOL1    Cl  251   4.742   3.099   4.426
    2MOL1     H  252   4.923   3.151   4.568
    2MOL1    Cl  253   0.625   2.915   1.632
    2MOL1     C  254   0.603   2.845   1.471
    2MOL1    Cl  255   0.453   2.903   1.397
    2MOL1    Cl  256   0.742   2.883   1.367
    2MOL1     H  257   0.597   2.736   1.481
    2MOL1    Cl  258   1.631   2.005   2.499
    2MOL1     C  259   1.474   1.995   2.419
    2MOL1    Cl  260   1.494   1.983   2.243
    2MOL1    Cl  261   1.381   1.856   2.480
    2MOL1     H  262   1.418   2.086   2.441
    2MOL1    Cl  263   4.205   4.344   0.843
    2MOL1     C  264   4.294   4.430   0.716
    2MOL1    Cl  265   4.212   4.580   0.672
    2MOL1    Cl  266   4.460   4.462   0.767
    2MOL1     H  267   4.297   4.366   0.627
    2MOL1    Cl  268   2.552   5.033   3.891
    2MOL1     C  269   2.601   5.200   3.921
    2MOL1    Cl  270   2.752   5.237   3.835
    2MOL1    Cl  271   2.473   5.312   3.872
    2MOL1     H  272   2.618   5.212   4.028
    2MOL1    Cl  273   2.923   1.677   3.178
    2MOL1     C  274   2.926   1.822   3.076
    2MOL1    Cl  275   2.804   1.938   3.130
    2MOL1    Cl  276   3.087   1.896   3.076
    2MOL1     H  277   2.902   1.792   2.974
    2MOL1    Cl  278   0.762   3.142   5.159
    2MOL1     C  279   0.691   3.107   5.001
    2MOL1    Cl  280   0.577   2.972   5.011
    2MOL1    Cl  281   0.611   3.252   4.935
    2MOL1     H  282   0.772   3.079   4.933
    2MOL1    Cl  283   4.738   3.626   2.111
    2MOL1     C  284   4.588   3.537   2.142
    2MOL1    Cl  285   4.596   3.452   2.297
    2MOL1    Cl  286   4.449   3.646   2.138
    2MOL1     H  287   4.576   3.462   2.063
    2MOL1    Cl  288   5.340   3.551   4.888
    2MOL1     C  289   5.241   3.698   4.898
    2MOL1    Cl  290   5.104   3.672   5.008
    2MOL1    Cl  291   5.339   3.835   4.952
    2MOL1     H  292   5.202   3.720   4.799
    2MOL1    Cl  293   2.166   1.008   3.636
    2MOL1     C  294   2.140   1.140   3.521
    2MOL1    Cl  295   2.264   1.266   3.542
    2MOL1    Cl  296   2.142   1.079   3.355
    2MOL1     H  297   2.042   1.184   3.541
    2MOL1    Cl  298   1.528   1.936   2.682
    2MOL1     C  299   1.366   1.989   2.728
    2MOL1    Cl  300   1.331   2.149   2.660
    2MOL1    Cl  301   1.244   1.872   2.675
    2MOL1     H  302   1.361   1.997   2.837
    2MOL1    Cl  303   2.940   4.799   4.886
    2MOL1     C  304   3.066   4.676   4.887
    2MOL1    Cl  305   3.020   4.538   4.786
    2MOL1    Cl  306   3.220   4.744   4.832
    2MOL1     H  307   3.079   4.641   4.990
    2MOL1    Cl  308   2.789   2.374   1.896
    2MOL1     C  309   2.711   2.471   2.023
    2MOL1    Cl  310   2.776   2.636   2.024
    2MOL1    Cl  311   2.535   2.473   2.000
    2MOL1     H  312   2.732   2.424   2.120
    2MOL1    Cl  313   2.589   2.028   5.172
    2MOL1     C  314   2.749   2.022   5.096
    2MOL1    Cl  315   2.748   1.913   4.956
    2MOL1    Cl  316   2.800   2.184   5.047
    2MOL1     H  317   2.820   1.984   5.169
    2MOL1    Cl  318   5.178   0.330   1.302
    2MOL1     C  319   5.022   0.250   1.328
    2MOL1    Cl  320   5.006   0.196   1.496
    2MOL1    Cl  321   4.888   0.358   1.285
    2MOL1     H  322   5.017   0.162   1.263
    2MOL1    Cl  323   3.126   0.995   1.192
    2MOL1     C  324   3.077   0.843   1.268
    2MOL1    Cl  325   2.923   0.787   1.202
    2MOL1    Cl  326   3.203   0.720   1.248
    2MOL1     H  327   3.064   0.861   1.375
    2MOL1    Cl  328   3.860   3.129   1.921
    2MOL1     C  329   3.957   3.268   1.871
    2MOL1    Cl  330   3.988   3.264   1.697
    2MOL1    Cl  331   3.875   3.419   1.916
    2MOL1     H  332   4.052   3.264   1.924
    2MOL1    Cl  333   1.237   0.837   3.600
    2MOL1     C  334   1.072   0.848   3.664
    2MOL1    Cl  335   1.009   0.687   3.699
    2MOL1    Cl  336   1.068   0.950   3.809
    2MOL1     H  337   1.009   0.894   3.588
    2MOL1    Cl  338   0.705   5.072   4.266
    2MOL1     C  339   0.669   5.161   4.117
    2MOL1    Cl  340   0.697   5.334   4.139
    2MOL1    Cl  341   0.766   5.099   3.982
    2MOL1     H  342   0.563   5.146   4.092
    2MOL1    Cl  343   2.707   3.763   3.591
    2MOL1     C  344   2.801   3.700   3.456
    2MOL1    Cl  345   2.940   3.606   3.515
    2MOL1    Cl  346   2.700   3.601   3.350
    2MOL1     H  347   2.839   3.785   3.398
    2MOL1    Cl  348   0.150   0.929   2.419
    2MOL1     C  349   0.325   0.918   2.441
    2MOL1    Cl  350   0.383   0.755   2.404
    2MOL1    Cl  351   0.409   1.038   2.341
    2MOL1     H  352   0.348   0.939   2.546
    2MOL1    Cl  353   5.158   2.054   2.159
    2MOL1     C  354   4.991   2.007   2.123
    2MOL1    Cl  355   4.888   2.149   2.107
    2MOL1    Cl  356   4.985   1.908   1.975
    2MOL1     H  357   4.954   1.946   2.206
    2MOL1    Cl  358   1.264   3.738   2.282
    2MOL1     C  359   1.255   3.561   2.286
    2MOL1    Cl  360   1.387   3.493   2.382
    2MOL1    Cl  361   1.098   3.508   2.349
    2MOL1     H  362   1.265   3.524   2.183
    2MOL1    Cl  363   4.084   1.324   2.049
    2MOL1     C  364   3.944   1.429   2.024
    2MOL1    Cl  365   3.984   1.561   1.913
    2MOL1    Cl  366   3.807   1.335   1.961
    2MOL1     H  367   3.915   1.471   2.120
    2MOL1    Cl  368   0.876   2.300   2.013
    2MOL1     C  369   0.848   2.172   2.133
    2MOL1    Cl  370   0.986   2.061   2.139
    2MOL1    Cl  371   0.817   2.242   2.292
    2MOL1     H  372   0.760   2.115   2.102
    2MOL1    Cl  373   2.156   3.557   1.731
    2MOL1     C  374   2.161   3.732   1.759
    2MOL1    Cl  375   2.325   3.783   1.805
    2MOL1    Cl  376   2.106   3.820   1.616
    2MOL1     H  377   2.094   3.755   1.842
    2MOL1    Cl  378   0.942   4.506   0.986
    2MOL1     C  379   1.019   4.537   1.142
    2MOL1    Cl  380   1.191   4.573   1.121
    2MOL1    Cl  381   0.938   4.669   1.228
    2MOL1     H  382   1.011   4.446   1.203
    2MOL1    Cl  383   0.188   1.345   4.964
    2MOL1     C  384   0.260   1.270   4.820
    2MOL1    Cl  385   0.259   1.384   4.684
    2MOL1    Cl  386   0.425   1.216   4.854
    2MOL1     H  387   0.200   1.183   4.792
    2MOL1    Cl  388   1.351   3.729   4.716
    2MOL1     C  389   1.333   3.897   4.770
    2MOL1    Cl  390   1.181   3.918   4.859
    2MOL1    Cl  391   1.471   3.946   4.870
    2MOL1     H  392   1.330   3.961   4.682
    2MOL1    Cl  393   0.185   0.641   4.870
    2MOL1     C  394   0.332   0.737   4.847
    2MOL1    Cl  395   0.325   0.826   4.694
    2MOL1    Cl  396   0.357   0.848   4.982
    2MOL1     H  397   0.418   0.669   4.842
    2MOL1    Cl  398   1.058   4.434   2.182
    2MOL1     C  399   1.106   4.295   2.281
    2MOL1    Cl  400   1.003   4.155   2.245
    2MOL1    Cl  401   1.276   4.255   2.255
    2MOL1     H  402   1.092   4.321   2.386
    2MOL1    Cl  403   3.725   4.297   0.159
    2MOL1     C  404   3.712   4.122   0.133
    2MOL1    Cl  405   3.791   4.033   0.263
    2MOL1    Cl  406   3.541   4.075   0.120
    2MOL1     H  407   3.762   4.098   0.039
    2MOL1    Cl  408   1.698   1.410   1.464
    2MOL1     C  409   1.597   1.555   1.449
    2MOL1    Cl  410   1.676   1.676   1.347
    2MOL1    Cl  411   1.437   1.513   1.384
    2MOL1     H  412   1.583   1.598   1.549
    2MOL1    Cl  413   3.459   0.588   2.130
    2MOL1     C  414   3.471   0.666   2.289
    2MOL1    Cl  415   3.458   0.546   2.419
    2MOL1    Cl  416   3.623   0.756   2.303
    2MOL1     H  417   3.388   0.737   2.299
    2MOL1    Cl  418   0.256   0.734   1.878
    2MOL1     C  419   0.147   0.631   1.973
    2MOL1    Cl  420   0.176   0.460   1.938
    2MOL1    Cl  421   0.167   0.664   2.146
    2MOL1     H  422   0.044   0.655   1.945
    2MOL1    Cl  423   3.964   2.516   1.077
    2MOL1     C  424   3.857   2.647   1.130
    2MOL1    Cl  425   3.767   2.600   1.275
    2MOL1    Cl  426   3.951   2.795   1.160
    2MOL1     H  427   3.786   2.668   1.050
    2MOL1    Cl  428   4.833   1.680   3.358
    2MOL1     C  429   4.965   1.798   3.363
    2MOL1    Cl  430   4.942   1.911   3.498
    2MOL1    Cl  431   5.122   1.717   3.375
    2MOL1     H  432   4.963   1.856   3.270
    2MOL1    Cl  433   2.148   3.555   2.328
    2MOL1     C  434   2.003   3.569   2.428
    2MOL1    Cl  435   1.954   3.739   2.444
    2MOL1    Cl  436   1.871   3.472   2.361
    2MOL1     H  437   2.026   3.530   2.528
    2MOL1    Cl  438   0.522   0.102   4.807
    2MOL1     C  439   0.582   0.255   4.874
    2MOL1    Cl  440   0.448   0.368   4.902
    2MOL1    Cl  441   0.671   0.227   5.024
    2MOL1     H  442   0.650   0.300   4.801
    2MOL1    Cl  443   4.381   0.743   4.433
    2MOL1     C  444   4.521   0.702   4.534
    2MOL1    Cl  445   4.599   0.555   4.474
    2MOL1    Cl  446   4.637   0.837   4.537
    2MOL1     H  447   4.487   0.685   4.636
    2MOL1    Cl  448   3.686   4.715   1.577
    2MOL1     C  449   3.857   4.672   1.568
    2MOL1    Cl  450   3.881   4.530   1.465
    2MOL1    Cl  451   3.953   4.809   1.509
    2MOL1     H  452   3.891   4.647   1.669
    2MOL1    Cl  453   4.653   4.501   4.910
    2MOL1     C  454   4.486   4.560   4.901
    2MOL1    Cl  455   4.410   4.558   5.061
    2MOL1    Cl  456   4.481   4.723   4.832
    2MOL1     H  457   4.430   4.493   4.836
    2MOL1    Cl  458   4.039   4.384   1.972
    2MOL1     C  459   3.999   4.382   1.800
    2MOL1    Cl  460   4.140   4.430   1.703
    2MOL1    Cl  461   3.942   4.222   1.751
    2MOL1     H  462   3.919   4.454   1.782
    2MOL1    Cl  463   3.811   4.235   3.374
    2MOL1     C  464   3.861   4.066   3.373
    2MOL1    Cl  465   3.734   3.963   3.304
    2MOL1    Cl  466   4.012   4.046   3.283
    2MOL1     H  467   3.878   4.034   3.476
    2MOL1    Cl  468   0.465   0.860   3.550
    2MOL1     C  469   0.371   0.895   3.404
    2MOL1    Cl  470   0.231   0.996   3.442
    2MOL1    Cl  471   0.473   0.973   3.282
    2MOL1     H  472   0.335   0.800   3.363
    2MOL1    Cl  473   2.945   2.599   2.989
    2MOL1     C  474   3.051   2.654   2.858
    2MOL1    Cl  475   3.015   2.568   2.708
    2MOL1    Cl  476   3.036   2.829   2.835
    2MOL1     H  477   3.154   2.632   2.886
    2MOL1    Cl  478   3.901   2.300   2.421
    2MOL1     C  479   3.734   2.359   2.437
    2MOL1    Cl  480   3.634   2.240   2.520
    2MOL1    Cl  481   3.732   2.514   2.523
    2MOL1     H  482   3.693   2.375   2.337
    2MOL1    Cl  483   5.171   0.738   2.502
    2MOL1     C  484   5.015   0.674   2.448
    2MOL1    Cl  485   4.970   0.744   2.292
    2MOL1    Cl  486   5.020   0.497   2.438
    2MOL1     H  487   4.939   0.702   2.522
    2MOL1    Cl  488   0.256   0.039   3.008
    2MOL1     C  489   0.382   0.160   3.040
    2MOL1    Cl  490   0.319   0.287   3.146
    2MOL1    Cl  491   0.525   0.084   3.111
    2MOL1     H  492   0.411   0.205   2.945
    2MOL1    Cl  493   5.049   3.712   1.417
    2MOL1     C  494   5.211   3.696   1.346
    2MOL1    Cl  495   5.279   3.856   1.311
    2MOL1    Cl  496   5.318   3.605   1.453
    2MOL1     H  497   5.201   3.641   1.252
    2MOL1    Cl  498   1.522   3.400   1.096
    2MOL1     C  499   1.542   3.256   0.994
    2MOL1    Cl  500   1.421   3.256   0.865
    2MOL1    Cl  501   1.705   3.249   0.927
    2MOL1     H  502   1.526   3.168   1.056
    2MOL1    Cl  503   2.598   4.322   4.203
    2MOL1     C  504   2.737   4.425   4.241
    2MOL1    Cl  505   2.709   4.514   4.392
    2MOL1    Cl  506   2.885   4.329   4.252
    2MOL1     H  507   2.749   4.498   4.161
    2MOL1    Cl  508   4.809   1.823   0.372
    2MOL1     C  509   4.672   1.711   0.358
    2MOL1    Cl  510   4.562   1.762   0.229
    2MOL1    Cl  511   4.730   1.546   0.329
    2MOL1     H  512   4.617   1.712   0.452
    2MOL1    Cl  513   2.775   4.814   4.442
    2MOL1     C  514   2.944   4.766   4.417
    2MOL1    Cl  515   3.046   4.824   4.550
    2MOL1    Cl  516   2.956   4.590   4.402
    2MOL1     H  517   2.979   4.811   4.324
    2MOL1    Cl  518   3.658   4.192   1.919
    2MOL1     C  519   3.794   4.167   2.029
    2MOL1    Cl  520   3.801   4.297   2.150
    2MOL1    Cl  521   3.783   4.009   2.108
    2MOL1     H  522   3.887   4.170   1.971
    2MOL1    Cl  523   1.142   0.193   3.471
    2MOL1     C  524   0.966   0.198   3.448
    2MOL1    Cl  525   0.891   0.312   3.561
    2MOL1    Cl  526   0.927   0.240   3.281
    2MOL1     H  527   0.926   0.098   3.468
    2MOL1    Cl  528   0.891   1.554   2.524
    2MOL1     C  529   0.928   1.413   2.625
    2MOL1    Cl  530   1.025   1.461   2.765
    2MOL1    Cl  531   0.780   1.332   2.676
    2MOL1     H  532   0.987   1.343   2.565
    2MOL1    Cl  533   1.163   0.933   2.342
    2MOL1     C  534   1.186   0.758   2.358
    2MOL1    Cl  535   1.340   0.723   2.440
    2MOL1    Cl  536   1.051   0.685   2.445
    2MOL1     H  537   1.190   0.715   2.258
    2MOL1    Cl  538   3.059   1.317   3.896
    2MOL1     C  539   2.961   1.171   3.872
    2MOL1    Cl  540   3.053   1.047   3.785
    2MOL1    Cl  541   2.903   1.108   4.027
    2MOL1     H  542   2.874   1.198   3.811
    2MOL1    Cl  543   4.493   5.242   1.280
    2MOL1     C  544   4.629   5.134   1.243
    2MOL1    Cl  545   4.782   5.209   1.290
    2MOL1    Cl  546   4.608   4.978   1.324
    2MOL1     H  547   4.630   5.117   1.135
    2MOL1    Cl  548   0.383   4.520   0.324
    2MOL1     C  549   0.532   4.424   0.312
    2MOL1    Cl  550   0.645   4.467   0.442
    2MOL1    Cl  551   0.495   4.251   0.316
    2MOL1     H  552   0.579   4.447   0.216
    2MOL1    Cl  553   2.343   3.463   2.104
    2MOL1     C  554   2.430   3.421   2.253
    2MOL1    Cl  555   2.423   3.555   2.368
    2MOL1    Cl  556   2.362   3.274   2.324
    2MOL1     H  557   2.534   3.403   2.227
    2MOL1    Cl  558   0.182   3.312   1.247
    2MOL1     C  559   0.307   3.237   1.146
    2MOL1    Cl  560   0.423   3.359   1.090
    2MOL1    Cl  561   0.390   3.108   1.235
    2MOL1     H  562   0.259   3.193   1.059
    2MOL1    Cl  563   3.547   3.657   1.063
    2MOL1     C  564   3.372   3.630   1.049
    2MOL1    Cl  565   3.293   3.770   0.975
    2MOL1    Cl  566   3.339   3.483   0.955
    2MOL1     H  567   3.331   3.616   1.149
    2MOL1    Cl  568   3.216   2.899   5.092
    2MOL1     C  569   3.205   3.005   4.950
    2MOL1    Cl  570   3.037   3.058   4.924
    2MOL1    Cl  571   3.312   3.144   4.967
    2MOL1     H  572   3.236   2.948   4.862
    2MOL1    Cl  573   1.143   1.357   1.772
    2MOL1     C  574   1.114   1.228   1.891
    2MOL1    Cl  575   1.060   1.297   2.045
    2MOL1    Cl  576   0.995   1.112   1.829
    2MOL1     H  577   1.208   1.175   1.907
    2MOL1    Cl  578   2.131   2.748   4.764
    2MOL1     C  579   1.978   2.660   4.750
    2MOL1    Cl  580   1.865   2.747   4.645
    2MOL1    Cl  581   2.006   2.496   4.689
    2MOL1     H  582   1.934   2.652   4.850
    2MOL1    Cl  583   2.133   4.099   4.301
    2MOL1     C  584   2.240   4.116   4.161
    2MOL1    Cl  585   2.153   4.080   4.011
    2MOL1    Cl  586   2.308   4.280   4.155
    2MOL1     H  587   2.322   4.045   4.171
    2MOL1    Cl  588   0.792   0.286   0.280
    2MOL1     C  589   0.796   0.342   0.112
    2MOL1    Cl  590   0.940   0.441   0.082
    2MOL1    Cl  591   0.792   0.204   0.000
    2MOL1     H  592   0.708   0.403   0.093
    2MOL1    Cl  593   1.175   0.745   2.869
    2MOL1     C  594   1.141   0.588   2.944
    2MOL1    Cl  595   1.208   0.581   3.108
    2MOL1    Cl  596   0.966   0.558   2.947
    2MOL1     H  597   1.188   0.510   2.884
    2MOL1    Cl  598   4.623   3.298   3.171
    2MOL1     C  599   4.501   3.252   3.290
    2MOL1    Cl  600   4.392   3.129   3.223
    2MOL1    Cl  601   4.578   3.192   3.438
    2MOL1     H  602   4.442   3.340   3.316
    2MOL1    Cl  603   3.250   4.951   5.128
    2MOL1     C  604   3.237   4.794   5.210
    2MOL1    Cl  605   3.068   4.746   5.227
    2MOL1    Cl  606   3.329   4.670   5.122
    2MOL1     H  607   3.281   4.805   5.310
    2MOL1    Cl  608   1.766   0.207   3.746
    2MOL1     C  609   1.873   0.112   3.642
    2MOL1    Cl  610   1.842   0.148   3.471
    2MOL1    Cl  611   2.043   0.144   3.682
    2MOL1     H  612   1.853   0.006   3.659
    2MOL1    Cl  613   1.151   0.752   4.055
    2MOL1     C  614   0.994   0.829   4.081
    2MOL1    Cl  615   0.864   0.735   4.005
    2MOL1    Cl  616   0.963   0.850   4.255
    2MOL1     H  617   0.996   0.928   4.035
    2MOL1    Cl  618   2.133   5.170   2.552
    2MOL1     C  619   2.037   5.151   2.405
    2MOL1    Cl  620   2.114   5.234   2.268
    2MOL1    Cl  621   2.014   4.979   2.367
    2MOL1     H  622   1.939   5.195   2.421
    2MOL1    Cl  623   1.176   1.288   2.257
    2MOL1     C  624   1.274   1.243   2.398
    2MOL1    Cl  625   1.172   1.217   2.540
    2MOL1    Cl  626   1.370   1.098   2.363
    2MOL1     H  627   1.343   1.325   2.419
    2MOL1    Cl  628   1.449   1.643   0.221
    2MOL1     C  629   1.621   1.633   0.181
    2MOL1    Cl  630   1.648   1.512   0.054
    2MOL1    Cl  631   1.682   1.791   0.130
    2MOL1     H  632   1.675   1.602   0.270
    2MOL1    Cl  633   4.246   2.944   2.522
    2MOL1     C  634   4.238   3.116   2.484
    2MOL1    Cl  635   4.325   3.152   2.334
    2MOL1    Cl  636   4.069   3.170   2.473
    2MOL1     H  637   4.286   3.172   2.565
    2MOL1    Cl  638   2.968   4.763   1.266
    2MOL1     C  639   2.907   4.851   1.407
    2MOL1    Cl  640   2.955   4.771   1.557
    2MOL1    Cl  641   2.964   5.019   1.405
    2MOL1     H  642   2.798   4.852   1.402
    2MOL1    Cl  643   4.271   2.488   3.499
    2MOL1     C  644   4.330   2.474   3.332
    2MOL1    Cl  645   4.474   2.371   3.326
    2MOL1    Cl  646   4.204   2.411   3.226
    2MOL1     H  647   4.358   2.574   3.297
    2MOL1    Cl  648   4.442   0.796   3.786
    2MOL1     C  649   4.299   0.769   3.685
    2MOL1    Cl  650   4.247   0.920   3.608
    2MOL1    Cl  651   4.332   0.645   3.563
    2MOL1     H  652   4.218   0.733   3.749
    2MOL1    Cl  653   4.330   0.957   3.400
    2MOL1     C  654   4.172   0.969   3.321
    2MOL1    Cl  655   4.101   1.129   3.349
    2MOL1    Cl  656   4.186   0.936   3.148
    2MOL1     H  657   4.106   0.893   3.365
    2MOL1    Cl  658   2.203   0.210   3.345
    2MOL1     C  659   2.069   0.318   3.304
    2MOL1    Cl  660   2.123   0.448   3.197
    2MOL1    Cl  661   1.936   0.227   3.229
    2MOL1     H  662   2.032   0.363   3.396
    2MOL1    Cl  663   0.675   4.407   3.726
    2MOL1     C  664   0.524   4.488   3.680
    2MOL1    Cl  665   0.541   4.566   3.522
    2MOL1    Cl  666   0.390   4.373   3.680
    2MOL1     H  667   0.503   4.566   3.755
    2MOL1    Cl  668   0.149   1.927   4.710
    2MOL1     C  669   0.304   1.937   4.796
    2MOL1    Cl  670   0.300   1.836   4.941
    2MOL1    Cl  671   0.437   1.890   4.690
    2MOL1     H  672   0.319   2.041   4.827
    2MOL1    Cl  673   1.206   5.197   5.155
    2MOL1     C  674   1.070   5.092   5.196
    2MOL1    Cl  675   1.124   4.955   5.294
    2MOL1    Cl  676   0.944   5.184   5.282
    2MOL1     H  677   1.027   5.054   5.104
    2MOL1    Cl  678   0.905   2.437   1.349
    2MOL1     C  679   0.901   2.291   1.249
    2MOL1    Cl  680   0.902   2.333   1.077
    2MOL1    Cl  681   1.038   2.185   1.287
    2MOL1     H  682   0.809   2.237   1.271
    2MOL1    Cl  683   4.846   1.836   2.367
    2MOL1     C  684   4.791   1.668   2.353
    2MOL1    Cl  685   4.662   1.655   2.232
    2MOL1    Cl  686   4.926   1.561   2.311
    2MOL1     H  687   4.750   1.637   2.449
    2MOL1    Cl  688   3.010   1.276   2.450
    2MOL1     C  689   2.919   1.321   2.595
    2MOL1    Cl  690   3.028   1.353   2.730
    2MOL1    Cl  691   2.817   1.462   2.563
    2MOL1     H  692   2.854   1.237   2.622
    2MOL1    Cl  693   3.027   0.583   2.771
    2MOL1     C  694   3.168   0.546   2.670
    2MOL1    Cl  695   3.121   0.445   2.532
    2MOL1    Cl  696   3.245   0.696   2.614
    2MOL1     H  697   3.240   0.491   2.730
    2MOL1    Cl  698   2.455   4.561   1.084
    2MOL1     C  699   2.325   4.680   1.105
    2MOL1    Cl  700   2.174   4.599   1.153
    2MOL1    Cl  701   2.371   4.802   1.225
    2MOL1     H  702   2.309   4.730   1.010
    2MOL1    Cl  703   0.646   3.569   4.110
    2MOL1     C  704   0.540   3.427   4.110
    2MOL1    Cl  705   0.452   3.416   3.957
    2MOL1    Cl  706   0.633   3.280   4.140
    2MOL1     H  707   0.467   3.439   4.191
    2MOL1    Cl  708   2.395   0.016   1.733
    2MOL1     C  709   2.539   0.119   1.719
    2MOL1    Cl  710   2.677   0.025   1.660
    2MOL1    Cl  711   2.506   0.256   1.612
    2MOL1     H  712   2.563   0.157   1.818
    2MOL1    Cl  713   2.775   4.897   3.509
    2MOL1     C  714   2.652   5.022   3.533
    2MOL1    Cl  715   2.522   4.962   3.636
    2MOL1    Cl  716   2.724   5.168   3.602
    2MOL1     H  717   2.610   5.048   3.435
    2MOL1    Cl  718   3.815   3.697   4.844
    2MOL1     C  719   3.640   3.678   4.823
    2MOL1    Cl  720   3.554   3.822   4.880
    2MOL1    Cl  721   3.601   3.645   4.654
    2MOL1     H  722   3.607   3.592   4.883
    2MOL1    Cl  723   1.570   0.312   4.784
    2MOL1     C  724   1.718   0.229   4.834
    2MOL1    Cl  725   1.749   0.088   4.731
    2MOL1    Cl  726   1.857   0.340   4.830
    2MOL1     H  727   1.705   0.194   4.937
    2MOL1    Cl  728   3.428   3.948   1.938
    2MOL1     C  729   3.423   3.781   1.880
    2MOL1    Cl  730   3.479   3.669   2.006
    2MOL1    Cl  731   3.260   3.738   1.826
    2MOL1     H  732   3.491   3.773   1.794
    2MOL1    Cl  733   0.254   2.816   2.046
    2MOL1     C  734   0.209   2.697   2.168
    2MOL1    Cl  735   0.287   2.734   2.323
    2MOL1    Cl  736   0.033   2.690   2.187
    2MOL1     H  737   0.243   2.598   2.135
    2MOL1    Cl  738   1.690   0.896   3.502
    2MOL1     C  739   1.856   0.911   3.561
    2MOL1    Cl  740   1.912   0.757   3.629
    2MOL1    Cl  741   1.964   0.963   3.430
    2MOL1     H  742   1.858   0.986   3.640
    2MOL1    Cl  743   1.323   4.682   3.705
    2MOL1     C  744   1.447   4.558   3.683
    2MOL1    Cl  745   1.440   4.492   3.519
    2MOL1    Cl  746   1.608   4.624   3.716
    2MOL1     H  747   1.427   4.477   3.754
    2MOL1    Cl  748   1.480   3.282   3.565
    2MOL1     C  749   1.307   3.246   3.552
    2MOL1    Cl  750   1.213   3.356   3.654
    2MOL1    Cl  751   1.254   3.256   3.383
    2MOL1     H  752   1.291   3.144   3.587
    2MOL1    Cl  753   4.876   2.488   2.526
    2MOL1     C  754   4.860   2.315   2.489
    2MOL1    Cl  755   4.729   2.289   2.373
    2MOL1    Cl  756   5.013   2.251   2.426
    2MOL1     H  757   4.836   2.262   2.581
    2MOL1    Cl  758   2.542   1.372   1.797
    2MOL1     C  759   2.399   1.473   1.819
    2MOL1    Cl  760   2.305   1.420   1.959
    2MOL1    Cl  761   2.445   1.644   1.836
    2MOL1     H  762   2.337   1.464   1.729
    2MOL1    Cl  763   1.093   0.117   3.739
    2MOL1     C  764   1.267   0.148   3.733
    2MOL1    Cl  765   1.312   0.278   3.844
    2MOL1    Cl  766   1.358   0.000   3.771
    2MOL1     H  767   1.293   0.179   3.631
    2MOL1    Cl  768   4.507   3.731   2.839
    2MOL1     C  769   4.347   3.800   2.808
    2MOL1    Cl  770   4.361   3.965   2.745
    2MOL1    Cl  771   4.255   3.698   2.696
    2MOL1     H  772   4.292   3.804   2.903
    2MOL1    Cl  773   4.338   1.404   4.046
    2MOL1     C  774   4.495   1.324   4.035
    2MOL1    Cl  775   4.590   1.352   4.182
    2MOL1    Cl  776   4.475   1.150   4.006
    2MOL1     H  777   4.550   1.367   3.950
    2MOL1    Cl  778   3.878   2.072   2.484
    2MOL1     C  779   3.805   2.073   2.645
    2MOL1    Cl  780   3.789   2.239   2.706
    2MOL1    Cl  781   3.648   1.992   2.644
    2MOL1     H  782   3.872   2.019   2.713
    2MOL1    Cl  783   4.873   3.858   3.360
    2MOL1     C  784   4.981   3.998   3.349
    2MOL1    Cl  785   5.101   3.974   3.221
    2MOL1    Cl  786   4.888   4.146   3.320
    2MOL1     H  787   5.034   4.009   3.444
    2MOL1    Cl  788   0.325   1.681   0.607
    2MOL1     C  789   0.406   1.828   0.550
    2MOL1    Cl  790   0.505   1.794   0.408
    2MOL1    Cl  791   0.287   1.954   0.514
    2MOL1     H  792   0.471   1.865   0.630
    2MOL1    Cl  793   3.795   1.857   3.555
    2MOL1     C  794   3.652   1.753   3.572
    2MOL1    Cl  795   3.655   1.668   3.727
    2MOL1    Cl  796   3.504   1.848   3.555
    2MOL1     H  797   3.655   1.679   3.492
    2MOL1    Cl  798   1.389   2.458   2.846
    2MOL1     C  799   1.445   2.483   3.012
    2MOL1    Cl  800   1.333   2.588   3.100
    2MOL1    Cl  801   1.464   2.327   3.095
    2MOL1     H  802   1.542   2.532   3.009
    2MOL1    Cl  803   0.803   4.802   5.007
    2MOL1     C  804   0.835   4.628   5.012
    2MOL1    Cl  805   0.689   4.537   4.969
    2MOL1    Cl  806   0.969   4.586   4.904
    2MOL1     H  807   0.863   4.601   5.114
    2MOL1    Cl  808   4.573   4.708   0.162
    2MOL1     C  809   4.715   4.813   0.172
    2MOL1    Cl  810   4.672   4.971   0.240
    2MOL1    Cl  811   4.842   4.737   0.269
    2MOL1     H  812   4.754   4.829   0.071
    2MOL1    Cl  813   0.528   1.589   0.486
    2MOL1     C  814   0.660   1.661   0.580
    2MOL1    Cl  815   0.628   1.648   0.754
    2MOL1    Cl  816   0.815   1.584   0.539
    2MOL1     H  817   0.667   1.767   0.554
    2MOL1    Cl  818   2.621   0.294   3.538
    2MOL1     C  819   2.464   0.352   3.479
    2MOL1    Cl  820   2.334   0.242   3.531
    2MOL1    Cl  821   2.432   0.517   3.535
    2MOL1     H  822   2.467   0.353   3.370
    2MOL1    Cl  823   0.505   1.379   3.357
    2MOL1     C  824   0.544   1.550   3.378
    2MOL1    Cl  825   0.423   1.629   3.480
    2MOL1    Cl  826   0.706   1.569   3.447
    2MOL1     H  827   0.543   1.598   3.280
    2MOL1    Cl  828   0.412   4.378   5.168
    2MOL1     C  829   0.336   4.383   5.009
    2MOL1    Cl  830   0.227   4.245   4.987
    2MOL1    Cl  831   0.248   4.536   4.986
    2MOL1     H  832   0.414   4.377   4.933
    2MOL1    Cl  833   4.296   1.539   2.332
    2MOL1     C  834   4.294   1.426   2.195
    2MOL1    Cl  835   4.459   1.394   2.140
    2MOL1    Cl  836   4.212   1.276   2.240
    2MOL1     H  837   4.238   1.472   2.114
    2MOL1    Cl  838   1.461   0.800   1.707
    2MOL1     C  839   1.495   0.648   1.792
    2MOL1    Cl  840   1.641   0.664   1.891
    2MOL1    Cl  841   1.357   0.600   1.892
    2MOL1     H  842   1.512   0.570   1.718
    2MOL1    Cl  843   2.128   2.101   3.561
    2MOL1     C  844   2.105   1.938   3.626
    2MOL1    Cl  845   1.962   1.862   3.553
    2MOL1    Cl  846   2.249   1.838   3.599
    2MOL1     H  847   2.088   1.946   3.734
    2MOL1    Cl  848   2.535   3.703   3.809
    2MOL1     C  849   2.653   3.571   3.802
    2MOL1    Cl  850   2.815   3.629   3.842
    2MOL1    Cl  851   2.605   3.440   3.911
    2MOL1     H  852   2.654   3.532   3.700
    2MOL1    Cl  853   0.806   1.377   3.549
    2MOL1     C  854   0.886   1.377   3.707
    2MOL1    Cl  855   0.914   1.543   3.763
    2MOL1    Cl  856   0.791   1.286   3.826
    2MOL1     H  857   0.983   1.328   3.697
    2MOL1    Cl  858   0.910   4.337   1.968
    2MOL1     C  859   0.770   4.430   1.910
    2MOL1    Cl  860   0.751   4.411   1.735
    2MOL1    Cl  861   0.623   4.379   1.995
    2MOL1     H  862   0.788   4.535   1.932
    2MOL1    Cl  863   3.761   4.317   2.463
    2MOL1     C  864   3.709   4.195   2.581
    2MOL1    Cl  865   3.676   4.041   2.500
    2MOL1    Cl  866   3.832   4.174   2.707
    2MOL1     H  867   3.617   4.231   2.628
    2MOL1    Cl  868   0.648   2.683   3.603
    2MOL1     C  869   0.617   2.523   3.532
    2MOL1    Cl  870   0.582   2.538   3.359
    2MOL1    Cl  871   0.754   2.415   3.559
    2MOL1     H  872   0.529   2.480   3.582
    2MOL1    Cl  873   1.903   4.060   1.931
    2MOL1     C  874   1.773   3.962   1.861
    2MOL1    Cl  875   1.679   4.056   1.744
    2MOL1    Cl  876   1.840   3.816   1.785
    2MOL1     H  877   1.706   3.931   1.942
    2MOL1    Cl  878   1.462   1.637   2.553
    2MOL1     C  879   1.636   1.632   2.581
    2MOL1    Cl  880   1.675   1.520   2.713
    2MOL1    Cl  881   1.722   1.585   2.433
    2MOL1     H  882   1.670   1.732   2.610
    2MOL1    Cl  883   4.112   0.067   3.978
    2MOL1     C  884   3.948   0.106   4.031
    2MOL1    Cl  885   3.900   0.001   4.166
    2MOL1    Cl  886   3.936   0.276   4.077
    2MOL1     H  887   3.879   0.088   3.948
    2MOL1    Cl  888   0.001   4.520   4.632
    2MOL1     C  889   0.174   4.547   4.606
    2MOL1    Cl  890   0.243   4.420   4.505
    2MOL1    Cl  891   0.202   4.707   4.534
    2MOL1     H  892   0.224   4.545   4.704
    2MOL1    Cl  893   1.307   1.755   1.086
    2MOL1     C  894   1.327   1.754   0.911
    2MOL1    Cl  895   1.432   1.620   0.861
    2MOL1    Cl  896   1.170   1.743   0.830
    2MOL1     H  897   1.375   1.848   0.881
    2MOL1    Cl  898   2.653   2.688   0.467
    2MOL1     C  899   2.710   2.745   0.310
    2MOL1    Cl  900   2.878   2.694   0.282
    2MOL1    Cl  901   2.605   2.687   0.180
    2MOL1     H  902   2.707   2.855   0.310
    2MOL1    Cl  903   3.533   1.242   3.505
    2MOL1     C  904   3.613   1.399   3.483
    2MOL1    Cl  905   3.740   1.421   3.604
    2MOL1    Cl  906   3.680   1.412   3.319
    2MOL1     H  907   3.539   1.477   3.496
    2MOL1    Cl  908   3.359   0.349   2.044
    2MOL1     C  909   3.519   0.336   1.969
    2MOL1    Cl  910   3.600   0.187   2.021
    2MOL1    Cl  911   3.505   0.341   1.792
    2MOL1     H  912   3.579   0.421   2.001
    2MOL1    Cl  913   4.279   2.654   1.606
    2MOL1     C  914   4.126   2.684   1.521
    2MOL1    Cl  915   4.145   2.813   1.402
    2MOL1    Cl  916   4.069   2.535   1.443
    2MOL1     H  917   4.052   2.715   1.595
    2MOL1    Cl  918   2.922   4.118   2.563
    2MOL1     C  919   3.018   4.219   2.672
    2MOL1    Cl  920   3.182   4.153   2.691
    2MOL1    Cl  921   3.025   4.386   2.613
    2MOL1     H  922   2.970   4.219   2.770
    2MOL1    Cl  923   4.406   1.014   2.633
    2MOL1     C  924   4.447   1.103   2.780
    2MOL1    Cl  925   4.620   1.141   2.784
    2MOL1    Cl  926   4.351   1.252   2.791
    2MOL1     H  927   4.424   1.041   2.867
    2MOL1    Cl  928   1.234   2.120   4.896
    2MOL1     C  929   1.074   2.048   4.921
    2MOL1    Cl  930   1.008   1.990   4.767
    2MOL1    Cl  931   1.083   1.916   5.038
    2MOL1     H  932   1.007   2.125   4.960
    2MOL1    Cl  933   2.427   4.535   4.486
    2MOL1     C  934   2.465   4.643   4.620
    2MOL1    Cl  935   2.424   4.568   4.775
    2MOL1    Cl  936   2.636   4.689   4.617
    2MOL1     H  937   2.405   4.734   4.610
    2MOL1    Cl  938   2.315   5.054   4.868
    2MOL1     C  939   2.319   5.071   5.045
    2MOL1    Cl  940   2.237   5.220   5.094
    2MOL1    Cl  941   2.245   4.930   5.123
    2MOL1     H  942   2.424   5.077   5.076
    2MOL1    Cl  943   2.205   1.273   2.914
    2MOL1     C  944   2.042   1.291   2.981
    2MOL1    Cl  945   2.033   1.219   3.143
    2MOL1    Cl  946   1.995   1.461   2.985
    2MOL1     H  947   1.972   1.237   2.916
    2MOL1    Cl  948   1.918   2.042   5.141
    2MOL1     C  949   1.930   2.218   5.140
    2MOL1    Cl  950   1.872   2.286   5.293
    2MOL1    Cl  951   2.096   2.269   5.108
    2MOL1     H  952   1.866   2.256   5.060
    2MOL1    Cl  953   2.260   1.998   1.612
    2MOL1     C  954   2.323   1.847   1.678
    2MOL1    Cl  955   2.424   1.878   1.820
    2MOL1    Cl  956   2.191   1.736   1.718
    2MOL1     H  957   2.385   1.799   1.601
    2MOL1    Cl  958   2.892   2.580   0.866
    2MOL1     C  959   2.748   2.681   0.843
    2MOL1    Cl  960   2.783   2.815   0.732
    2MOL1    Cl  961   2.613   2.584   0.782
    2MOL1     H  962   2.719   2.723   0.939
    2MOL1    Cl  963   2.999   1.795   2.145
    2MOL1     C  964   3.062   1.885   2.006
    2MOL1    Cl  965   3.231   1.842   1.976
    2MOL1    Cl  966   2.964   1.855   1.862
    2MOL1     H  967   3.057   1.992   2.029
    2MOL1    Cl  968   4.711   4.554   2.543
    2MOL1     C  969   4.704   4.565   2.719
    2MOL1    Cl  970   4.541   4.527   2.777
    2MOL1    Cl  971   4.823   4.458   2.793
    2MOL1     H  972   4.727   4.668   2.748
    2MOL1    Cl  973   3.286   0.286   5.001
    2MOL1     C  974   3.235   0.424   4.902
    2MOL1    Cl  975   3.069   0.471   4.943
    2MOL1    Cl  976   3.345   0.561   4.924
    2MOL1     H  977   3.237   0.394   4.797
    2MOL1    Cl  978   4.107   4.026   4.044
    2MOL1     C  979   3.958   3.988   4.133
    2MOL1    Cl  980   3.979   3.842   4.230
    2MOL1    Cl  981   3.912   4.125   4.236
    2MOL1     H  982   3.878   3.971   4.061
    2MOL1    Cl  983   2.110   1.339   2.510
    2MOL1     C  984   2.006   1.389   2.644
    2MOL1    Cl  985   2.008   1.566   2.663
    2MOL1    Cl  986   1.840   1.332   2.620
    2MOL1     H  987   2.044   1.345   2.736
    2MOL1    Cl  988   2.523   0.426   0.080
    2MOL1     C  989   2.683   0.479   0.132
    2MOL1    Cl  990   2.692   0.656   0.134
    2MOL1    Cl  991   2.721   0.414   0.292
    2MOL1     H  992   2.757   0.442   0.061
    2MOL1    Cl  993   2.451   3.030   2.174
    2MOL1     C  994   2.424   2.917   2.040
    2MOL1    Cl  995   2.281   2.818   2.070
    2MOL1    Cl  996   2.409   3.005   1.887
    2MOL1     H  997   2.511   2.851   2.034
    2MOL1    Cl  998   1.035   4.965   1.776
    2MOL1     C  999   1.067   4.970   1.602
    2MOL1    Cl 1000   1.240   4.994   1.572
    2MOL1    Cl 1001   1.010   4.823   1.523
    2MOL1     H 1002   1.013   5.055   1.560
    2MOL1    Cl 1003   4.364   2.307   4.288
    2MOL1     C 1004   4.243   2.310   4.417
    2MOL1    Cl 1005   4.321   2.300   4.576
    2MOL1    Cl 1006   4.143   2.455   4.406
    2MOL1     H 1007   4.179   2.222   4.406
    2MOL1    Cl 1008   2.055   5.176   5.304
    2MOL1     C 1009   1.933   5.090   5.209
    2MOL1    Cl 1010   1.951   5.127   5.037
    2MOL1    Cl 1011   1.944   4.916   5.237
    2MOL1     H 1012   1.834   5.124   5.241
    2MOL1    Cl 1013   3.498   3.769   0.485
    2MOL1     C 1014   3.460   3.848   0.638
    2MOL1    Cl 1015   3.286   3.871   0.656
    2MOL1    Cl 1016   3.525   3.754   0.774
    2MOL1     H 1017   3.508   3.946   0.639
    2MOL1    Cl 1018   4.533   0.873   1.020
    2MOL1     C 1019   4.664   0.980   1.071
    2MOL1    Cl 1020   4.621   1.149   1.043
    2MOL1    Cl 1021   4.704   0.953   1.242
    2MOL1     H 1022   4.753   0.956   1.011
    2MOL1    Cl 1023   4.075   1.977   1.932
    2MOL1     C 1024   4.165   1.834   1.983
    2MOL1    Cl 1025   4.282   1.787   1.858
    2MOL1    Cl 1026   4.247   1.864   2.137
    2MOL1     H 1027   4.095   1.752   1.996
    2MOL1    Cl 1028   3.862   3.335   4.868
    2MOL1     C 1029   4.007   3.251   4.810
    2MOL1    Cl 1030   4.051   3.119   4.920
    2MOL1    Cl 1031   3.981   3.190   4.646
    2MOL1     H 1032   4.090   3.323   4.808
    2MOL1    Cl 1033   1.129   0.550   3.905
    2MOL1     C 1034   1.247   0.559   3.774
    2MOL1    Cl 1035   1.402   0.489   3.824
    2MOL1    Cl 1036   1.186   0.478   3.629
    2MOL1     H 1037   1.264   0.665   3.750
    2MOL1    Cl 1038   3.443   0.270   1.508
    2MOL1     C 1039   3.587   0.346   1.437
    2MOL1    Cl 1040   3.554   0.399   1.272
    2MOL1    Cl 1041   3.640   0.483   1.537
    2MOL1     H 1042   3.667   0.272   1.435
    2MOL1    Cl 1043   1.336   0.476   4.150
    2MOL1     C 1044   1.173   0.456   4.216
    2MOL1    Cl 1045   1.056   0.427   4.087
    2MOL1    Cl 1046   1.171   0.322   4.333
    2MOL1     H 1047   1.146   0.547   4.269
    2MOL1    Cl 1048   2.354   1.119   4.078
    2MOL1     C 1049   2.297   1.130   4.246
    2MOL1    Cl 1050   2.411   1.222   4.345
    2MOL1    Cl 1051   2.136   1.203   4.252
    2MOL1     H 1052   2.290   1.028   4.286
    2MOL1    Cl 1053   3.230   0.541   0.353
    2MOL1     C 1054   3.328   0.686   0.328
    2MOL1    Cl 1055   3.464   0.651   0.219
    2MOL1    Cl 1056   3.229   0.819   0.264
    2MOL1     H 1057   3.369   0.717   0.425
    2MOL1    Cl 1058   1.673   2.264   2.628
    2MOL1     C 1059   1.659   2.186   2.786
    2MOL1    Cl 1060   1.492   2.199   2.847
    2MOL1    Cl 1061   1.710   2.017   2.778
    2MOL1     H 1062   1.724   2.239   2.856
    2MOL1    Cl 1063   4.940   4.161   4.602
    2MOL1     C 1064   4.996   4.014   4.683
    2MOL1    Cl 1065   4.983   3.874   4.576
    2MOL1    Cl 1066   5.163   4.035   4.738
    2MOL1     H 1067   4.933   3.997   4.770
    2MOL1    Cl 1068   0.681   0.982   2.777
    2MOL1     C 1069   0.853   0.942   2.762
    2MOL1    Cl 1070   0.874   0.795   2.665
    2MOL1    Cl 1071   0.943   1.077   2.691
    2MOL1     H 1072   0.892   0.923   2.862
    2MOL1    Cl 1073   4.562   1.024   3.615
    2MOL1     C 1074   4.733   0.987   3.641
    2MOL1    Cl 1075   4.807   1.108   3.747
    2MOL1    Cl 1076   4.752   0.824   3.708
    2MOL1     H 1077   4.784   0.991   3.544
    2MOL1    Cl 1078   4.985   4.699   0.638
    2MOL1     C 1079   5.111   4.821   0.663
    2MOL1    Cl 1080   5.039   4.981   0.688
    2MOL1    Cl 1081   5.214   4.777   0.801
    2MOL1     H 1082   5.173   4.824   0.573
    2MOL1    Cl 1083   0.844   3.113   0.268
    2MOL1     C 1084   0.816   3.287   0.283
    2MOL1    Cl 1085   0.960   3.378   0.235
    2MOL1    Cl 1086   0.677   3.336   0.184
    2MOL1     H 1087   0.794   3.310   0.387
    2MOL1    Cl 1088   1.350   2.575   4.678
    2MOL1     C 1089   1.227   2.453   4.716
    2MOL1    Cl 1090   1.294   2.326   4.819
    2MOL1    Cl 1091   1.086   2.528   4.793
    2MOL1     H 1092   1.194   2.407   4.622
    2MOL1    Cl 1093   1.503   4.236   0.095
    2MOL1     C 1094   1.629   4.118   0.133
    2MOL1    Cl 1095   1.630   3.987   0.013
    2MOL1    Cl 1096   1.787   4.196   0.142
    2MOL1     H 1097   1.606   4.074   0.231
    2MOL1    Cl 1098   0.638   3.349   0.838
    2MOL1     C 1099   0.775   3.253   0.780
    2MOL1    Cl 1100   0.719   3.104   0.703
    2MOL1    Cl 1101   0.874   3.348   0.666
    2MOL1     H 1102   0.837   3.227   0.865
    2MOL1    Cl 1103   4.184   1.785   2.658
    2MOL1     C 1104   4.268   1.633   2.626
    2MOL1    Cl 1105   4.160   1.518   2.544
    2MOL1    Cl 1106   4.414   1.662   2.530
    2MOL1     H 1107   4.298   1.589   2.721
    2MOL1    Cl 1108   1.998   0.505   4.390
    2MOL1     C 1109   2.139   0.612   4.401
    2MOL1    Cl 1110   2.156   0.677   4.565
    2MOL1    Cl 1111   2.287   0.526   4.353
    2MOL1     H 1112   2.125   0.695   4.332
    2MOL1    Cl 1113   0.276   0.221   2.698
    2MOL1     C 1114   0.415   0.143   2.620
    2MOL1    Cl 1115   0.415   0.175   2.446
    2MOL1    Cl 1116   0.566   0.198   2.694
    2MOL1     H 1117   0.406   0.035   2.636
    2MOL1    Cl 1118   1.775   4.396   4.533
    2MOL1     C 1119   1.835   4.560   4.501
    2MOL1    Cl 1120   2.012   4.563   4.504
    2MOL1    Cl 1121   1.775   4.618   4.345
    2MOL1     H 1122   1.798   4.626   4.579
    2MOL1    Cl 1123   4.364   4.597   1.643
    2MOL1     C 1124   4.256   4.647   1.512
    2MOL1    Cl 1125   4.090   4.595   1.545
    2MOL1    Cl 1126   4.263   4.822   1.489
    2MOL1     H 1127   4.290   4.599   1.420
    2MOL1    Cl 1128   1.156   2.668   0.644
    2MOL1     C 1129   1.101   2.558   0.517
    2MOL1    Cl 1130   1.211   2.419   0.504
    2MOL1    Cl 1131   0.936   2.504   0.548
    2MOL1     H 1132   1.102   2.612   0.422
    2MOL1    Cl 1133   1.304   0.993   4.066
    2MOL1     C 1134   1.374   0.912   4.208
    2MOL1    Cl 1135   1.357   1.012   4.352
    2MOL1    Cl 1136   1.298   0.753   4.232
    2MOL1     H 1137   1.480   0.896   4.189
    2MOL1    Cl 1138   1.928   1.701   0.860
    2MOL1     C 1139   1.896   1.529   0.891
    2MOL1    Cl 1140   1.724   1.492   0.868
    2MOL1    Cl 1141   1.996   1.428   0.785
    2MOL1     H 1142   1.923   1.507   0.994
    2MOL1    Cl 1143   1.360   4.430   1.529
    2MOL1     C 1144   1.288   4.582   1.473
    2MOL1    Cl 1145   1.411   4.687   1.400
    2MOL1    Cl 1146   1.157   4.550   1.358
    2MOL1     H 1147   1.245   4.634   1.559
    2MOL1    Cl 1148   5.072   2.852   2.686
    2MOL1     C 1149   4.968   2.719   2.634
    2MOL1    Cl 1150   4.945   2.602   2.765
    2MOL1    Cl 1151   4.811   2.781   2.579
    2MOL1     H 1152   5.016   2.668   2.550
    2MOL1    Cl 1153   0.931   2.340   0.301
    2MOL1     C 1154   0.884   2.491   0.222
    2MOL1    Cl 1155   0.851   2.617   0.342
    2MOL1    Cl 1156   1.010   2.545   0.109
    2MOL1     H 1157   0.793   2.473   0.165
    2MOL1    Cl 1158   3.674   4.699   3.560
    2MOL1     C 1159   3.645   4.772   3.401
    2MOL1    Cl 1160   3.614   4.647   3.280
    2MOL1    Cl 1161   3.509   4.886   3.409
    2MOL1     H 1162   3.734   4.828   3.372
    2MOL1    Cl 1163   2.009   1.058   2.470
    2MOL1     C 1164   2.174   1.049   2.405
    2MOL1    Cl 1165   2.281   0.964   2.516
    2MOL1    Cl 1166   2.173   0.970   2.246
    2MOL1     H 1167   2.211   1.151   2.392
    2MOL1    Cl 1168   0.583   4.516   4.626
    2MOL1     C 1169   0.686   4.571   4.493
    2MOL1    Cl 1170   0.650   4.739   4.451
    2MOL1    Cl 1171   0.857   4.553   4.535
    2MOL1     H 1172   0.666   4.509   4.405
    2MOL1    Cl 1173   2.109   4.935   4.064
    2MOL1     C 1174   2.045   4.852   3.922
    2MOL1    Cl 1175   2.173   4.827   3.802
    2MOL1    Cl 1176   1.971   4.697   3.967
    2MOL1     H 1177   1.968   4.915   3.877
    2MOL1    Cl 1178   1.183   0.425   1.154
    2MOL1     C 1179   1.234   0.288   1.254
    2MOL1    Cl 1180   1.148   0.290   1.409
    2MOL1    Cl 1181   1.206   0.135   1.169
    2MOL1     H 1182   1.341   0.298   1.274
    2MOL1    Cl 1183   2.415   3.118   1.133
    2MOL1     C 1184   2.587   3.086   1.103
    2MOL1    Cl 1185   2.606   2.949   0.993
    2MOL1    Cl 1186   2.666   3.230   1.038
    2MOL1     H 1187   2.634   3.061   1.198
    2MOL1    Cl 1188   1.173   3.566   1.066
    2MOL1     C 1189   1.008   3.622   1.096
    2MOL1    Cl 1190   0.926   3.516   1.212
    2MOL1    Cl 1191   1.008   3.789   1.154
    2MOL1     H 1192   0.953   3.618   1.002
    2MOL1    Cl 1193   3.594   2.339   2.055
    2MOL1     C 1194   3.765   2.377   2.080
    2MOL1    Cl 1195   3.849   2.238   2.153
    2MOL1    Cl 1196   3.843   2.423   1.928
    2MOL1     H 1197   3.772   2.461   2.149
    2MOL1    Cl 1198   2.847   2.452   1.078
    2MOL1     C 1199   2.749   2.457   1.225
    2MOL1    Cl 1200   2.844   2.517   1.362
    2MOL1    Cl 1201   2.605   2.557   1.201
    2MOL1     H 1202   2.717   2.355   1.248
    2MOL1    Cl 1203   2.588   3.535   4.244
    2MOL1     C 1204   2.753   3.488   4.285
    2MOL1    Cl 1205   2.871   3.580   4.189
    2MOL1    Cl 1206   2.783   3.510   4.458
    2MOL1     H 1207   2.766   3.381   4.261
    2MOL1    Cl 1208   1.286   2.685   4.074
    2MOL1     C 1209   1.186   2.804   4.159
    2MOL1    Cl 1210   1.017   2.750   4.166
    2MOL1    Cl 1211   1.249   2.834   4.322
    2MOL1     H 1212   1.189   2.898   4.103
    2MOL1    Cl 1213   1.671   2.969   3.553
    2MOL1     C 1214   1.508   2.944   3.490
    2MOL1    Cl 1215   1.451   3.090   3.407
    2MOL1    Cl 1216   1.503   2.805   3.381
    2MOL1     H 1217   1.441   2.925   3.574
    2MOL1    Cl 1218   3.889   4.633   3.931
    2MOL1     C 1219   3.776   4.766   3.901
    2MOL1    Cl 1220   3.613   4.721   3.955
    2MOL1    Cl 1221   3.830   4.913   3.983
    2MOL1     H 1222   3.772   4.785   3.794
    2MOL1    Cl 1223   0.004   3.036   0.355
    2MOL1     C 1224   0.070   3.113   0.500
    2MOL1    Cl 1225   0.001   3.274   0.523
    2MOL1    Cl 1226   0.042   3.012   0.643
    2MOL1     H 1227   0.178   3.123   0.487
    2MOL1    Cl 1228   1.511   2.191   5.046
    2MOL1     C 1229   1.417   2.333   5.095
    2MOL1    Cl 1230   1.459   2.381   5.260
    2MOL1    Cl 1231   1.444   2.467   4.982
    2MOL1     H 1232   1.311   2.306   5.092
    2MOL1    Cl 1233   0.377   2.010   2.926
    2MOL1     C 1234   0.279   1.967   3.068
    2MOL1    Cl 1235   0.112   1.933   3.020
    2MOL1    Cl 1236   0.350   1.827   3.151
    2MOL1     H 1237   0.279   2.052   3.136
    2MOL1    Cl 1238   3.709   0.140   5.099
    2MOL1     C 1239   3.672   0.231   4.952
    2MOL1    Cl 1240   3.518   0.177   4.883
    2MOL1    Cl 1241   3.667   0.405   4.987
    2MOL1     H 1242   3.751   0.213   4.879
    2MOL1    Cl 1243   1.934   2.716   2.199
    2MOL1     C 1244   1.783   2.807   2.176
    2MOL1    Cl 1245   1.800   2.972   2.239
    2MOL1    Cl 1246   1.738   2.810   2.005
    2MOL1     H 1247   1.704   2.757   2.232
    2MOL1    Cl 1248   4.185   0.780   4.338
    2MOL1     C 1249   4.165   0.620   4.265
    2MOL1    Cl 1250   4.266   0.604   4.121
    2MOL1    Cl 1251   4.204   0.493   4.383
    2MOL1     H 1252   4.060   0.608   4.236
    2MOL1    Cl 1253   0.465   3.898   1.586
    2MOL1     C 1254   0.311   3.817   1.619
    2MOL1    Cl 1255   0.254   3.731   1.475
    2MOL1    Cl 1256   0.327   3.705   1.756
    2MOL1     H 1257   0.237   3.893   1.645
    2MOL1    Cl 1258   0.337   1.684   0.825
    2MOL1     C 1259   0.231   1.623   0.953
    2MOL1    Cl 1260   0.095   1.733   0.980
    2MOL1    Cl 1261   0.173   1.460   0.913
    2MOL1     H 1262   0.289   1.616   1.046
    2MOL1    Cl 1263   3.655   2.364   2.839
    2MOL1     C 1264   3.709   2.532   2.846
    2MOL1    Cl 1265   3.579   2.642   2.794
    2MOL1    Cl 1266   3.764   2.574   3.009
    2MOL1     H 1267   3.793   2.544   2.777
    2MOL1    Cl 1268   0.354   4.761   2.688
    2MOL1     C 1269   0.272   4.847   2.820
    2MOL1    Cl 1270   0.334   5.012   2.835
    2MOL1    Cl 1271   0.097   4.848   2.794
    2MOL1     H 1272   0.292   4.794   2.913
    2MOL1    Cl 1273   0.249   4.701   2.476
    2MOL1     C 1274   0.092   4.646   2.537
    2MOL1    Cl 1275   0.001   4.564   2.410
    2MOL1    Cl 1276   0.114   4.540   2.677
    2MOL1     H 1277   0.036   4.734   2.570
    2MOL1    Cl 1278   0.429   2.480   2.245
    2MOL1     C 1279   0.537   2.577   2.347
    2MOL1    Cl 1280   0.704   2.520   2.334
    2MOL1    Cl 1281   0.525   2.748   2.304
    2MOL1     H 1282   0.505   2.565   2.451
    2MOL1    Cl 1283   0.479   3.988   2.758
    2MOL1     C 1284   0.627   3.985   2.855
    2MOL1    Cl 1285   0.616   4.100   2.989
    2MOL1    Cl 1286   0.659   3.821   2.915
    2MOL1     H 1287   0.710   4.015   2.791
    2MOL1    Cl 1288   2.511   0.800   4.093
    2MOL1     C 1289   2.352   0.735   4.051
    2MOL1    Cl 1290   2.229   0.793   4.164
    2MOL1    Cl 1291   2.308   0.777   3.885
    2MOL1     H 1292   2.356   0.626   4.059
    2MOL1    Cl 1293   2.001   2.038   2.155
    2MOL1     C 1294   1.854   1.963   2.219
    2MOL1    Cl 1295   1.710   2.031   2.142
    2MOL1    Cl 1296   1.859   1.787   2.198
    2MOL1     H 1297   1.849   1.984   2.326
    2MOL1    Cl 1298   1.143   3.279   2.406
    2MOL1     C 1299   0.983   3.215   2.366
    2MOL1    Cl 1300   0.899   3.324   2.253
    2MOL1    Cl 1301   0.996   3.053   2.297
    2MOL1     H 1302   0.924   3.209   2.457
    2MOL1    Cl 1303   4.924   3.825   3.120
    2MOL1     C 1304   4.749   3.800   3.139
    2MOL1    Cl 1305   4.667   3.812   2.983
    2MOL1    Cl 1306   4.717   3.643   3.215
    2MOL1     H 1307   4.710   3.878   3.205
    2MOL1    Cl 1308   4.204   1.049   4.380
    2MOL1     C 1309   4.227   1.027   4.554
    2MOL1    Cl 1310   4.351   0.904   4.585
    2MOL1    Cl 1311   4.272   1.181   4.630
    2MOL1     H 1312   4.133   0.993   4.598
    2MOL1    Cl 1313   0.009   3.117   4.684
    2MOL1     C 1314   0.181   3.102   4.649
    2MOL1    Cl 1315   0.238   2.938   4.684
    2MOL1    Cl 1316   0.215   3.144   4.480
    2MOL1     H 1317   0.236   3.172   4.714
    2MOL1    Cl 1318   0.996   1.752   0.161
    2MOL1     C 1319   1.007   1.845   0.311
    2MOL1    Cl 1320   1.083   1.748   0.438
    2MOL1    Cl 1321   1.098   1.995   0.285
    2MOL1     H 1322   0.906   1.871   0.343
    2MOL1    Cl 1323   1.832   2.081   1.658
    2MOL1     C 1324   1.940   2.129   1.790
    2MOL1    Cl 1325   2.106   2.077   1.757
    2MOL1    Cl 1326   1.933   2.304   1.815
    2MOL1     H 1327   1.906   2.080   1.881
    2MOL1    Cl 1328   2.368   4.531   3.789
    2MOL1     C 1329   2.508   4.474   3.882
    2MOL1    Cl 1330   2.635   4.597   3.885
    2MOL1    Cl 1331   2.459   4.431   4.046
    2MOL1     H 1332   2.547   4.385   3.833
    2MOL1    Cl 1333   3.281   0.573   1.562
    2MOL1     C 1334   3.287   0.526   1.733
    2MOL1    Cl 1335   3.162   0.610   1.825
    2MOL1    Cl 1336   3.270   0.351   1.750
    2MOL1     H 1337   3.385   0.555   1.773
    2MOL1    Cl 1338   2.305   4.793   4.878
    2MOL1     C 1339   2.463   4.825   4.951
    2MOL1    Cl 1340   2.450   4.839   5.127
    2MOL1    Cl 1341   2.578   4.697   4.907
    2MOL1     H 1342   2.500   4.920   4.911
    2MOL1    Cl 1343   2.681   1.737   3.392
    2MOL1     C 1344   2.696   1.908   3.437
    2MOL1    Cl 1345   2.855   1.971   3.392
    2MOL1    Cl 1346   2.567   2.003   3.361
    2MOL1     H 1347   2.685   1.916   3.546
    2MOL1    Cl 1348   0.728   1.653   5.051
    2MOL1     C 1349   0.816   1.800   5.006
    2MOL1    Cl 1350   0.853   1.897   5.150
    2MOL1    Cl 1351   0.964   1.760   4.918
    2MOL1     H 1352   0.752   1.860   4.941
    2MOL1    Cl 1353   3.020   1.075   3.205
    2MOL1     C 1354   3.159   1.162   3.136
    2MOL1    Cl 1355   3.258   1.052   3.038
    2MOL1    Cl 1356   3.104   1.300   3.040
    2MOL1     H 1357   3.220   1.199   3.218
    2MOL1    Cl 1358   3.571   0.853   1.652
    2MOL1     C 1359   3.732   0.788   1.682
    2MOL1    Cl 1360   3.810   0.741   1.530
    2MOL1    Cl 1361   3.832   0.906   1.769
    2MOL1     H 1362   3.723   0.699   1.745
    2MOL1    Cl 1363   0.542   0.286   0.491
    2MOL1     C 1364   0.582   0.442   0.565
    2MOL1    Cl 1365   0.687   0.536   0.457
    2MOL1    Cl 1366   0.435   0.532   0.604
    2MOL1     H 1367   0.637   0.423   0.658
    2MOL1    Cl 1368   0.904   3.738   3.599
    2MOL1     C 1369   0.849   3.820   3.746
    2MOL1    Cl 1370   0.988   3.881   3.838
    2MOL1    Cl 1371   0.738   3.953   3.706
    2MOL1     H 1372   0.795   3.748   3.808
    2MOL1    Cl 1373   5.176   4.270   4.633
    2MOL1     C 1374   5.172   4.235   4.459
    2MOL1    Cl 1375   5.306   4.316   4.376
    2MOL1    Cl 1376   5.176   4.061   4.431
    2MOL1     H 1377   5.078   4.274   4.419
    2MOL1    Cl 1378   3.628   1.693   0.887
    2MOL1     C 1379   3.762   1.802   0.926
    2MOL1    Cl 1380   3.702   1.953   0.998
    2MOL1    Cl 1381   3.877   1.723   1.034
    2MOL1     H 1382   3.814   1.827   0.833
    2MOL1    Cl 1383   3.387   4.499   3.627
    2MOL1     C 1384   3.481   4.556   3.766
    2MOL1    Cl 1385   3.412   4.494   3.917
    2MOL1    Cl 1386   3.650   4.507   3.750
    2MOL1     H 1387   3.477   4.665   3.768
    2MOL1    Cl 1388   1.743   4.736   3.388
    2MOL1     C 1389   1.685   4.747   3.221
    2MOL1    Cl 1390   1.516   4.695   3.211
    2MOL1    Cl 1391   1.703   4.912   3.160
    2MOL1     H 1392   1.745   4.680   3.159
    2MOL1    Cl 1393   2.626   0.618   2.454
    2MOL1     C 1394   2.631   0.547   2.617
    2MOL1    Cl 1395   2.641   0.674   2.740
    2MOL1    Cl 1396   2.489   0.445   2.644
    2MOL1     H 1397   2.720   0.485   2.624
    2MOL1    Cl 1398   3.368   2.139   4.064
    2MOL1     C 1399   3.322   2.141   4.235
    2MOL1    Cl 1400   3.223   1.999   4.276
    2MOL1    Cl 1401   3.466   2.148   4.338
    2MOL1     H 1402   3.262   2.231   4.254
    2MOL1    Cl 1403   2.861   2.302   0.526
    2MOL1     C 1404   2.939   2.418   0.635
    2MOL1    Cl 1405   3.002   2.336   0.779
    2MOL1    Cl 1406   3.070   2.504   0.551
    2MOL1     H 1407   2.865   2.491   0.666
    2MOL1    Cl 1408   1.677   0.707   5.021
    2MOL1     C 1409   1.647   0.539   4.975
    2MOL1    Cl 1410   1.625   0.526   4.800
    2MOL1    Cl 1411   1.779   0.434   5.029
    2MOL1     H 1412   1.555   0.506   5.024
    2MOL1    Cl 1413   0.659   1.538   1.587
    2MOL1     C 1414   0.780   1.630   1.677
    2MOL1    Cl 1415   0.706   1.716   1.813
    2MOL1    Cl 1416   0.909   1.523   1.735
    2MOL1     H 1417   0.824   1.704   1.610
    2MOL1    Cl 1418   5.022   3.034   0.244
    2MOL1     C 1419   5.005   3.196   0.314
    2MOL1    Cl 1420   4.902   3.191   0.458
    2MOL1    Cl 1421   5.164   3.264   0.353
    2MOL1     H 1422   4.957   3.261   0.240
    2MOL1    Cl 1423   0.540   1.796   4.083
    2MOL1     C 1424   0.676   1.699   4.023
    2MOL1    Cl 1425   0.683   1.543   4.106
    2MOL1    Cl 1426   0.662   1.676   3.848
    2MOL1     H 1427   0.768   1.753   4.043
    2MOL1    Cl 1428   0.815   0.827   0.458
    2MOL1     C 1429   0.985   0.778   0.448
    2MOL1    Cl 1430   1.092   0.919   0.465
    2MOL1    Cl 1431   1.023   0.658   0.573
    2MOL1     H 1432   1.003   0.733   0.350
    2MOL1    Cl 1433   3.540   4.796   5.037
    2MOL1     C 1434   3.517   4.920   4.914
    2MOL1    Cl 1435   3.347   4.969   4.905
    2MOL1    Cl 1436   3.621   5.060   4.946
    2MOL1     H 1437   3.546   4.878   4.817
    2MOL1    Cl 1438   2.988   3.915   3.605
    2MOL1     C 1439   3.153   3.850   3.599
    2MOL1    Cl 1440   3.154   3.691   3.520
    2MOL1    Cl 1441   3.261   3.962   3.515
    2MOL1     H 1442   3.188   3.837   3.702
    2MOL1    Cl 1443   2.781   4.354   3.450
    2MOL1     C 1444   2.866   4.326   3.297
    2MOL1    Cl 1445   3.022   4.248   3.326
    2MOL1    Cl 1446   2.766   4.228   3.188
    2MOL1     H 1447   2.884   4.423   3.249
    2MOL1    Cl 1448   3.477   1.180   2.725
    2MOL1     C 1449   3.448   1.355   2.721
    2MOL1    Cl 1450   3.601   1.443   2.708
    2MOL1    Cl 1451   3.341   1.397   2.586
    2MOL1     H 1452   3.398   1.384   2.814
    2MOL1    Cl 1453   4.746   2.094   5.142
    2MOL1     C 1454   4.569   2.092   5.145
    2MOL1    Cl 1455   4.509   1.967   5.255
    2MOL1    Cl 1456   4.506   2.251   5.191
    2MOL1     H 1457   4.533   2.069   5.044
    2MOL1    Cl 1458   3.222   2.347   0.858
    2MOL1     C 1459   3.222   2.177   0.810
    2MOL1    Cl 1460   3.363   2.093   0.876
    2MOL1    Cl 1461   3.072   2.098   0.862
    2MOL1     H 1462   3.226   2.172   0.700
    2MOL1    Cl 1463   4.599   4.592   1.534
    2MOL1     C 1464   4.601   4.766   1.564
    2MOL1    Cl 1465   4.503   4.805   1.707
    2MOL1    Cl 1466   4.767   4.823   1.585
    2MOL1     H 1467   4.558   4.817   1.478
    2MOL1    Cl 1468   4.629   0.567   3.168
    2MOL1     C 1469   4.658   0.729   3.235
    2MOL1    Cl 1470   4.570   0.750   3.387
    2MOL1    Cl 1471   4.831   0.756   3.258
    2MOL1     H 1472   4.621   0.802   3.163
    2MOL1    Cl 1473   3.402   2.191   0.386
    2MOL1     C 1474   3.575   2.199   0.421
    2MOL1    Cl 1475   3.638   2.362   0.390
    2MOL1    Cl 1476   3.608   2.151   0.589
    2MOL1     H 1477   3.627   2.129   0.355
    2MOL1    Cl 1478   1.734   0.324   2.722
    2MOL1     C 1479   1.773   0.151   2.719
    2MOL1    Cl 1480   1.893   0.112   2.843
    2MOL1    Cl 1481   1.626   0.054   2.742
    2MOL1     H 1482   1.815   0.126   2.621
    2MOL1    Cl 1483   1.407   4.684   5.158
    2MOL1     C 1484   1.251   4.727   5.086
    2MOL1    Cl 1485   1.258   4.713   4.910
    2MOL1    Cl 1486   1.122   4.624   5.152
    2MOL1     H 1487   1.229   4.830   5.112
    2MOL1    Cl 1488   5.221   0.304   4.654
    2MOL1     C 1489   5.129   0.285   4.504
    2MOL1    Cl 1490   5.080   0.116   4.483
    2MOL1    Cl 1491   4.987   0.391   4.505
    2MOL1     H 1492   5.193   0.314   4.421
    2MOL1    Cl 1493   4.227   4.771   0.203
    2MOL1     C 1494   4.360   4.875   0.255
    2MOL1    Cl 1495   4.452   4.798   0.386
    2MOL1    Cl 1496   4.467   4.913   0.119
    2MOL1     H 1497   4.318   4.968   0.293
    2MOL1    Cl 1498   0.508   2.707   3.999
    2MOL1     C 1499   0.679   2.662   3.998
    2MOL1    Cl 1500   0.711   2.538   3.876
    2MOL1    Cl 1501   0.780   2.805   3.969
    2MOL1     H 1502   0.705   2.622   4.097
    2MOL1    Cl 1503   4.076   1.185   1.549
    2MOL1     C 1504   4.100   1.332   1.644
    2MOL1    Cl 1505   3.992   1.461   1.589
    2MOL1    Cl 1506   4.074   1.299   1.817
    2MOL1     H 1507   4.203   1.365   1.631
    2MOL1    Cl 1508   1.527   4.898   0.244
    2MOL1     C 1509   1.492   4.962   0.405
    2MOL1    Cl 1510   1.340   4.897   0.467
    2MOL1    Cl 1511   1.626   4.926   0.516
    2MOL1     H 1512   1.483   5.071   0.397
    2MOL1    Cl 1513   3.148   1.181   4.201
    2MOL1     C 1514   3.231   1.105   4.065
    2MOL1    Cl 1515   3.141   0.963   4.008
    2MOL1    Cl 1516   3.254   1.221   3.933
    2MOL1     H 1517   3.329   1.072   4.099
    2MOL1    Cl 1518   4.538   3.669   3.673
    2MOL1     C 1519   4.647   3.536   3.716
    2MOL1    Cl 1520   4.567   3.423   3.827
    2MOL1    Cl 1521   4.703   3.452   3.571
    2MOL1     H 1522   4.734   3.578   3.767
    2MOL1    Cl 1523   1.236   0.738   0.604
    2MOL1     C 1524   1.349   0.874   0.598
    2MOL1    Cl 1525   1.338   0.972   0.745
    2MOL1    Cl 1526   1.515   0.816   0.574
    2MOL1     H 1527   1.322   0.938   0.513
    2MOL1    Cl 1528   1.292   2.165   1.172
    2MOL1     C 1529   1.175   2.071   1.077
    2MOL1    Cl 1530   1.088   1.957   1.182
    2MOL1    Cl 1531   1.061   2.178   0.994
    2MOL1     H 1532   1.230   2.014   1.002
    2MOL1    Cl 1533   3.430   3.030   2.303
    2MOL1     C 1534   3.467   3.103   2.460
    2MOL1    Cl 1535   3.616   3.035   2.527
    2MOL1    Cl 1536   3.480   3.279   2.444
    2MOL1     H 1537   3.384   3.081   2.529
    2MOL1    Cl 1538   3.235   3.730   2.866
    2MOL1     C 1539   3.250   3.556   2.834
    2MOL1    Cl 1540   3.356   3.480   2.953
    2MOL1    Cl 1541   3.090   3.480   2.835
    2MOL1     H 1542   3.294   3.543   2.735
    2MOL1    Cl 1543   1.205   1.132   0.443
    2MOL1     C 1544   1.317   1.162   0.308
    2MOL1    Cl 1545   1.398   1.318   0.327
    2MOL1    Cl 1546   1.436   1.030   0.296
    2MOL1     H 1547   1.259   1.164   0.215
    2MOL1    Cl 1548   3.064   0.387   0.955
    2MOL1     C 1549   3.050   0.228   0.880
    2MOL1    Cl 1550   3.022   0.243   0.706
    2MOL1    Cl 1551   3.194   0.130   0.911
    2MOL1     H 1552   2.964   0.177   0.924
    2MOL1    Cl 1553   1.789   3.377   1.135
    2MOL1     C 1554   1.928   3.362   1.027
    2MOL1    Cl 1555   1.931   3.494   0.909
    2MOL1    Cl 1556   2.079   3.358   1.121
    2MOL1     H 1557   1.920   3.267   0.973
    2MOL1    Cl 1558   2.932   3.640   2.072
    2MOL1     C 1559   2.960   3.800   2.000
    2MOL1    Cl 1560   3.112   3.868   2.058
    2MOL1    Cl 1561   2.958   3.790   1.823
    2MOL1     H 1562   2.878   3.866   2.031
    2MOL1    Cl 1563   4.659   0.470   4.021
    2MOL1     C 1564   4.647   0.500   4.195
    2MOL1    Cl 1565   4.570   0.657   4.226
    2MOL1    Cl 1566   4.558   0.370   4.276
    2MOL1     H 1567   4.748   0.503   4.237
    2MOL1    Cl 1568   4.717   3.188   4.819
    2MOL1     C 1569   4.658   3.022   4.800
    2MOL1    Cl 1570   4.561   3.008   4.653
    2MOL1    Cl 1571   4.794   2.908   4.797
    2MOL1     H 1572   4.595   2.998   4.886
    2MOL1    Cl 1573   0.929   4.715   2.363
    2MOL1     C 1574   1.104   4.688   2.376
    2MOL1    Cl 1575   1.181   4.822   2.462
    2MOL1    Cl 1576   1.137   4.534   2.457
    2MOL1     H 1577   1.145   4.684   2.275
    2MOL1    Cl 1578   5.188   0.149   0.501
    2MOL1     C 1579   5.134   0.238   0.357
    2MOL1    Cl 1580   5.238   0.200   0.218
    2MOL1    Cl 1581   4.965   0.199   0.320
    2MOL1     H 1582   5.141   0.344   0.377
    2MOL1    Cl 1583   4.574   0.402   3.526
    2MOL1     C 1584   4.592   0.502   3.672
    2MOL1    Cl 1585   4.434   0.534   3.745
    2MOL1    Cl 1586   4.700   0.423   3.788
    2MOL1     H 1587   4.636   0.597   3.643
    2MOL1    Cl 1588   3.748   5.010   4.505
    2MOL1     C 1589   3.618   5.113   4.443
    2MOL1    Cl 1590   3.462   5.029   4.451
    2MOL1    Cl 1591   3.611   5.266   4.532
    2MOL1     H 1592   3.639   5.135   4.338
    2MOL1    Cl 1593   1.303   1.987   1.581
    2MOL1     C 1594   1.440   1.886   1.532
    2MOL1    Cl 1595   1.579   1.914   1.638
    2MOL1    Cl 1596   1.394   1.715   1.534
    2MOL1     H 1597   1.468   1.913   1.430
    2MOL1    Cl 1598   3.246   1.632   2.808
    2MOL1     C 1599   3.332   1.780   2.762
    2MOL1    Cl 1600   3.329   1.802   2.586
    2MOL1    Cl 1601   3.262   1.921   2.844
    2MOL1     H 1602   3.436   1.771   2.794
    2MOL1    Cl 1603   3.540   0.551   0.598
    2MOL1     C 1604   3.628   0.417   0.522
    2MOL1    Cl 1605   3.640   0.279   0.633
    2MOL1    Cl 1606   3.548   0.368   0.372
    2MOL1     H 1607   3.729   0.451   0.498
    2MOL1    Cl 1608   0.711   1.608   2.053
    2MOL1     C 1609   0.698   1.442   1.992
    2MOL1    Cl 1610   0.838   1.346   2.044
    2MOL1    Cl 1611   0.547   1.367   2.047
    2MOL1     H 1612   0.697   1.446   1.883
    2MOL1    Cl 1613   2.776   3.975   1.375
    2MOL1     C 1614   2.839   3.809   1.367
    2MOL1    Cl 1615   2.724   3.703   1.285
    2MOL1    Cl 1616   2.996   3.806   1.285
    2MOL1     H 1617   2.853   3.773   1.469
    2MOL1    Cl 1618   2.500   2.424   4.463
    2MOL1     C 1619   2.411   2.564   4.401
    2MOL1    Cl 1620   2.289   2.617   4.518
    2MOL1    Cl 1621   2.522   2.697   4.363
    2MOL1     H 1622   2.360   2.534   4.309
    2MOL1    Cl 1623   0.446   2.405   0.898
    2MOL1     C 1624   0.585   2.514   0.904
    2MOL1    Cl 1625   0.718   2.452   0.804
    2MOL1    Cl 1626   0.539   2.677   0.853
    2MOL1     H 1627   0.620   2.520   1.008
    2MOL1    Cl 1628   2.468   0.711   1.597
    2MOL1     C 1629   2.516   0.542   1.620
    2MOL1    Cl 1630   2.657   0.531   1.727
    2MOL1    Cl 1631   2.381   0.447   1.685
    2MOL1     H 1632   2.543   0.500   1.523
    2MOL1    Cl 1633   2.382   3.735   0.173
    2MOL1     C 1634   2.485   3.597   0.134
    2MOL1    Cl 1635   2.413   3.500   0.005
    2MOL1    Cl 1636   2.647   3.652   0.087
    2MOL1     H 1637   2.495   3.535   0.223
    2MOL1    Cl 1638   0.281   3.437   4.841
    2MOL1     C 1639   0.153   3.440   4.963
    2MOL1    Cl 1640   0.183   3.318   5.088
    2MOL1    Cl 1641   0.140   3.601   5.035
    2MOL1     H 1642   0.058   3.417   4.914
    2MOL1    Cl 1643   4.005   2.114   1.727
    2MOL1     C 1644   3.935   1.954   1.696
    2MOL1    Cl 1645   4.055   1.826   1.726
    2MOL1    Cl 1646   3.791   1.929   1.797
    2MOL1     H 1647   3.905   1.949   1.592
    2MOL1    Cl 1648   2.298   2.985   2.731
    2MOL1     C 1649   2.229   2.823   2.711
    2MOL1    Cl 1650   2.353   2.699   2.736
    2MOL1    Cl 1651   2.093   2.800   2.823
    2MOL1     H 1652   2.192   2.814   2.609
    2MOL1    Cl 1653   4.390   2.868   0.603
    2MOL1     C 1654   4.511   2.865   0.733
    2MOL1    Cl 1655   4.458   2.964   0.869
    2MOL1    Cl 1656   4.542   2.698   0.785
    2MOL1     H 1657   4.604   2.906   0.694
    2MOL1    Cl 1658   4.966   4.316   1.707
    2MOL1     C 1659   5.128   4.288   1.773
    2MOL1    Cl 1660   5.177   4.423   1.878
    2MOL1    Cl 1661   5.134   4.135   1.862
    2MOL1     H 1662   5.199   4.282   1.690
    2MOL1    Cl 1663   3.151   1.673   3.857
    2MOL1     C 1664   3.326   1.691   3.843
    2MOL1    Cl 1665   3.388   1.598   3.705
    2MOL1    Cl 1666   3.371   1.862   3.826
    2MOL1     H 1667   3.372   1.652   3.934
    2MOL1    Cl 1668   0.892   3.615   2.434
    2MOL1     C 1669   0.943   3.781   2.401
    2MOL1    Cl 1670   1.076   3.828   2.509
    2MOL1    Cl 1671   0.991   3.799   2.232
    2MOL1     H 1672   0.859   3.848   2.420
    2MOL1    Cl 1673   2.858   4.093   2.351
    2MOL1     C 1674   3.024   4.138   2.312
    2MOL1    Cl 1675   3.107   4.202   2.455
    2MOL1    Cl 1676   3.112   3.999   2.246
    2MOL1     H 1677   3.022   4.216   2.236
    2MOL1    Cl 1678   1.240   3.174   2.234
    2MOL1     C 1679   1.300   3.042   2.337
    2MOL1    Cl 1680   1.372   3.106   2.485
    2MOL1    Cl 1681   1.169   2.929   2.375
    2MOL1     H 1682   1.376   2.988   2.281
    2MOL1    Cl 1683   4.765   0.082   5.174
    2MOL1     C 1684   4.611   0.169   5.169
    2MOL1    Cl 1685   4.503   0.098   5.047
    2MOL1    Cl 1686   4.534   0.169   5.328
    2MOL1     H 1687   4.631   0.273   5.140
    2MOL1    Cl 1688   4.333   5.059   2.387
    2MOL1     C 1689   4.199   4.945   2.405
    2MOL1    Cl 1690   4.251   4.801   2.493
    2MOL1    Cl 1691   4.062   5.023   2.488
    2MOL1     H 1692   4.166   4.915   2.306
    2MOL1    Cl 1693   1.315   5.100   3.185
    2MOL1     C 1694   1.455   5.008   3.127
    2MOL1    Cl 1695   1.410   4.905   2.991
    2MOL1    Cl 1696   1.587   5.117   3.081
    2MOL1     H 1697   1.490   4.944   3.209
    2MOL1    Cl 1698   3.255   4.916   3.671
    2MOL1     C 1699   3.390   4.983   3.763
    2MOL1    Cl 1700   3.533   5.000   3.659
    2MOL1    Cl 1701   3.346   5.139   3.834
    2MOL1     H 1702   3.415   4.914   3.844
    2MOL1    Cl 1703   3.772   2.120   4.788
    2MOL1     C 1704   3.645   2.202   4.879
    2MOL1    Cl 1705   3.521   2.266   4.769
    2MOL1    Cl 1706   3.573   2.093   4.998
    2MOL1     H 1707   3.690   2.286   4.932
    2MOL1    Cl 1708   4.895   4.397   2.462
    2MOL1     C 1709   4.840   4.247   2.539
    2MOL1    Cl 1710   4.938   4.211   2.682
    2MOL1    Cl 1711   4.669   4.259   2.582
    2MOL1     H 1712   4.852   4.165   2.468
    2MOL1    Cl 1713   5.150   3.300   2.456
    2MOL1     C 1714   5.074   3.140   2.455
    2MOL1    Cl 1715   5.184   3.018   2.523
    2MOL1    Cl 1716   4.921   3.143   2.546
    2MOL1     H 1717   5.051   3.113   2.352
    2MOL1    Cl 1718   1.423   2.360   1.060
    2MOL1     C 1719   1.420   2.301   0.893
    2MOL1    Cl 1720   1.574   2.226   0.850
    2MOL1    Cl 1721   1.286   2.186   0.870
    2MOL1     H 1722   1.403   2.386   0.826
    2MOL1    Cl 1723   1.173   1.803   4.055
    2MOL1     C 1724   1.120   1.971   4.074
    2MOL1    Cl 1725   1.049   1.996   4.235
    2MOL1    Cl 1726   1.256   2.082   4.048
    2MOL1     H 1727   1.044   1.992   3.999
    2MOL1    Cl 1728   4.188   3.516   1.397
    2MOL1     C 1729   4.053   3.585   1.305
    2MOL1    Cl 1730   4.063   3.762   1.305
    2MOL1    Cl 1731   4.052   3.523   1.140
    2MOL1     H 1732   3.960   3.556   1.354
    2MOL1    Cl 1733   0.407   5.180   2.220
    2MOL1     C 1734   0.249   5.168   2.143
    2MOL1    Cl 1735   0.245   5.261   1.992
    2MOL1    Cl 1736   0.207   4.999   2.114
    2MOL1     H 1737   0.174   5.211   2.211
    2MOL1    Cl 1738   1.312   2.380   1.676
    2MOL1     C 1739   1.327   2.542   1.745
    2MOL1    Cl 1740   1.193   2.575   1.856
    2MOL1    Cl 1741   1.483   2.561   1.827
    2MOL1     H 1742   1.322   2.615   1.663
    2MOL1    Cl 1743   1.031   2.229   4.080
    2MOL1     C 1744   0.876   2.306   4.118
    2MOL1    Cl 1745   0.798   2.225   4.255
    2MOL1    Cl 1746   0.898   2.478   4.152
    2MOL1     H 1747   0.811   2.296   4.030
    2MOL1    Cl 1748   0.932   0.922   5.187
    2MOL1     C 1749   1.108   0.903   5.174
    2MOL1    Cl 1750   1.190   0.989   5.305
    2MOL1    Cl 1751   1.152   0.732   5.174
    2MOL1     H 1752   1.140   0.947   5.079
    2MOL1    Cl 1753   3.854   2.895   0.946
    2MOL1     C 1754   3.687   2.927   0.996
    2MOL1    Cl 1755   3.647   3.099   0.973
    2MOL1    Cl 1756   3.574   2.825   0.906
    2MOL1     H 1757   3.678   2.904   1.102
    2MOL1    Cl 1758   3.826   5.084   2.990
    2MOL1     C 1759   3.679   4.993   3.029
    2MOL1    Cl 1760   3.535   5.088   2.990
    2MOL1    Cl 1761   3.677   4.839   2.941
    2MOL1     H 1762   3.679   4.972   3.136
    2MOL1    Cl 1763   4.721   3.130   5.038
    2MOL1     C 1764   4.632   3.198   5.174
    2MOL1    Cl 1765   4.465   3.235   5.127
    2MOL1    Cl 1766   4.634   3.086   5.312
    2MOL1     H 1767   4.681   3.291   5.205
    2MOL1    Cl 1768   4.592   2.770   2.880
    2MOL1     C 1769   4.452   2.837   2.964
    2MOL1    Cl 1770   4.329   2.712   2.991
    2MOL1    Cl 1771   4.501   2.910   3.119
    2MOL1     H 1772   4.408   2.915   2.902
    2MOL1    Cl 1773   2.349   4.508   3.365
    2MOL1     C 1774   2.400   4.493   3.534
    2MOL1    Cl 1775   2.553   4.404   3.545
    2MOL1    Cl 1776   2.416   4.653   3.608
    2MOL1     H 1777   2.324   4.438   3.588
    2MOL1    Cl 1778   3.680   2.368   0.971
    2MOL1     C 1779   3.546   2.255   0.945
    2MOL1    Cl 1780   3.400   2.311   1.028
    2MOL1    Cl 1781   3.515   2.235   0.771
    2MOL1     H 1782   3.575   2.158   0.986
    2MOL1    Cl 1783   2.195   1.836   2.504
    2MOL1     C 1784   2.299   1.977   2.524
    2MOL1    Cl 1785   2.212   2.109   2.603
    2MOL1    Cl 1786   2.445   1.935   2.616
    2MOL1     H 1787   2.330   2.011   2.425
    2MOL1    Cl 1788   2.997   2.776   3.513
    2MOL1     C 1789   2.946   2.944   3.491
    2MOL1    Cl 1790   2.911   2.977   3.321
    2MOL1    Cl 1791   2.805   2.980   3.592
    2MOL1     H 1792   3.028   3.009   3.522
    2MOL1    Cl 1793   4.857   1.843   1.711
    2MOL1     C 1794   5.015   1.917   1.682
    2MOL1    Cl 1795   5.140   1.793   1.665
    2MOL1    Cl 1796   5.009   2.020   1.537
    2MOL1     H 1797   5.040   1.980   1.767
    2MOL1    Cl 1798   1.613   1.483   3.474
    2MOL1     C 1799   1.665   1.365   3.595
    2MOL1    Cl 1800   1.657   1.435   3.758
    2MOL1    Cl 1801   1.565   1.219   3.586
    2MOL1     H 1802   1.768   1.337   3.574
    2MOL1    Cl 1803   3.468   4.334   2.320
    2MOL1     C 1804   3.432   4.178   2.245
    2MOL1    Cl 1805   3.293   4.193   2.135
    2MOL1    Cl 1806   3.574   4.116   2.158
    2MOL1     H 1807   3.406   4.107   2.324
    2MOL1    Cl 1808   1.935   3.500   0.485
    2MOL1     C 1809   2.109   3.526   0.500
    2MOL1    Cl 1810   2.143   3.676   0.589
    2MOL1    Cl 1811   2.186   3.388   0.580
    2MOL1     H 1812   2.152   3.535   0.400
    2MOL1    Cl 1813   4.715   2.005   3.245
    2MOL1     C 1814   4.608   2.145   3.248
    2MOL1    Cl 1815   4.683   2.283   3.166
    2MOL1    Cl 1816   4.452   2.106   3.174
    2MOL1     H 1817   4.590   2.173   3.352
    2MOL1    Cl 1818   2.482   3.707   1.344
    2MOL1     C 1819   2.420   3.853   1.421
    2MOL1    Cl 1820   2.550   3.942   1.501
    2MOL1    Cl 1821   2.338   3.956   1.302
    2MOL1     H 1822   2.347   3.824   1.497
    2MOL1    Cl 1823   1.029   4.771   4.715
    2MOL1     C 1824   1.060   4.932   4.783
    2MOL1    Cl 1825   0.915   4.993   4.864
    2MOL1    Cl 1826   1.197   4.927   4.895
    2MOL1     H 1827   1.085   5.000   4.701
    2MOL1    Cl 1828   3.620   3.072   3.679
    2MOL1     C 1829   3.663   3.238   3.725
    2MOL1    Cl 1830   3.745   3.321   3.591
    2MOL1    Cl 1831   3.519   3.328   3.775
    2MOL1     H 1832   3.731   3.233   3.810
    2MOL1    Cl 1833   3.685   3.763   1.348
    2MOL1     C 1834   3.789   3.823   1.218
    2MOL1    Cl 1835   3.691   3.876   1.080
    2MOL1    Cl 1836   3.891   3.956   1.276
    2MOL1     H 1837   3.854   3.742   1.185
    2MOL1    Cl 1838   2.408   1.355   3.965
    2MOL1     C 1839   2.544   1.247   3.929
    2MOL1    Cl 1840   2.496   1.122   3.813
    2MOL1    Cl 1841   2.682   1.340   3.866
    2MOL1     H 1842   2.575   1.198   4.021
    2MOL1    Cl 1843   1.974   3.759   4.887
    2MOL1     C 1844   2.100   3.640   4.847
    2MOL1    Cl 1845   2.233   3.649   4.963
    2MOL1    Cl 1846   2.032   3.477   4.842
    2MOL1     H 1847   2.139   3.664   4.747
    2MOL1    Cl 1848   4.254   3.650   3.233
    2MOL1     C 1849   4.327   3.805   3.188
    2MOL1    Cl 1850   4.447   3.782   3.060
    2MOL1    Cl 1851   4.202   3.919   3.136
    2MOL1     H 1852   4.377   3.846   3.276
    2MOL1    Cl 1853   2.605   5.300   4.575
    2MOL1     C 1854   2.491   5.231   4.691
    2MOL1    Cl 1855   2.329   5.301   4.668
    2MOL1    Cl 1856   2.485   5.055   4.675
    2MOL1     H 1857   2.525   5.256   4.791
    2MOL1    Cl 1858   3.073   1.450   5.109
    2MOL1     C 1859   3.097   1.586   4.998
    2MOL1    Cl 1860   3.100   1.529   4.830
    2MOL1    Cl 1861   2.969   1.707   5.020
    2MOL1     H 1862   3.193   1.632   5.021
    2MOL1    Cl 1863   0.701   0.754   4.239
    2MOL1     C 1864   0.654   0.619   4.135
    2MOL1    Cl 1865   0.576   0.678   3.987
    2MOL1    Cl 1866   0.796   0.520   4.095
    2MOL1     H 1867   0.583   0.557   4.189
    2MOL1    Cl 1868   3.461   0.965   2.173
    2MOL1     C 1869   3.561   0.911   2.037
    2MOL1    Cl 1870   3.476   0.786   1.944
    2MOL1    Cl 1871   3.605   1.047   1.934
    2MOL1     H 1872   3.652   0.867   2.078
    2MOL1    Cl 1873   2.773   0.001   2.689
    2MOL1     C 1874   2.822   0.114   2.563
    2MOL1    Cl 1875   2.968   0.202   2.611
    2MOL1    Cl 1876   2.848   0.029   2.409
    2MOL1     H 1877   2.741   0.187   2.549
    2MOL1    Cl 1878   2.864   4.583   2.466
    2MOL1     C 1879   2.691   4.552   2.448
    2MOL1    Cl 1880   2.650   4.392   2.514
    2MOL1    Cl 1881   2.596   4.678   2.528
    2MOL1     H 1882   2.667   4.553   2.342
    2MOL1    Cl 1883   0.844   0.882   2.244
    2MOL1     C 1884   0.841   1.032   2.151
    2MOL1    Cl 1885   0.679   1.062   2.086
    2MOL1    Cl 1886   0.893   1.169   2.251
    2MOL1     H 1887   0.910   1.022   2.067
    2MOL1    Cl 1888   2.252   4.475   3.165
    2MOL1     C 1889   2.375   4.347   3.158
    2MOL1    Cl 1890   2.535   4.417   3.131
    2MOL1    Cl 1891   2.373   4.250   3.306
    2MOL1     H 1892   2.351   4.282   3.073
    2MOL1    Cl 1893   4.193   1.811   4.629
    2MOL1     C 1894   4.252   1.844   4.792
    2MOL1    Cl 1895   4.314   2.009   4.804
    2MOL1    Cl 1896   4.124   1.816   4.912
    2MOL1     H 1897   4.334   1.775   4.814
    2MOL1    Cl 1898   0.456   0.543   0.320
    2MOL1     C 1899   0.288   0.575   0.365
    2MOL1    Cl 1900   0.239   0.469   0.499
    2MOL1    Cl 1901   0.267   0.745   0.409
    2MOL1     H 1902   0.224   0.553   0.279
    2MOL1    Cl 1903   3.797   3.923   5.113
    2MOL1     C 1904   3.943   3.828   5.145
    2MOL1    Cl 1905   4.054   3.835   5.007
    2MOL1    Cl 1906   4.024   3.887   5.292
    2MOL1     H 1907   3.914   3.724   5.162
    2MOL1    Cl 1908   1.846   2.429   2.755
    2MOL1     C 1909   2.006   2.368   2.710
    2MOL1    Cl 1910   2.130   2.433   2.818
    2MOL1    Cl 1911   2.007   2.191   2.712
    2MOL1     H 1912   2.028   2.402   2.608
    2MOL1    Cl 1913   1.971   4.035   1.608
    2MOL1     C 1914   2.100   4.150   1.571
    2MOL1    Cl 1915   2.253   4.065   1.543
    2MOL1    Cl 1916   2.057   4.249   1.431
    2MOL1     H 1917   2.112   4.216   1.657
    2MOL1    Cl 1918   4.290   3.588   1.975
    2MOL1     C 1919   4.122   3.591   1.920
    2MOL1    Cl 1920   4.086   3.745   1.840
    2MOL1    Cl 1921   4.089   3.455   1.811
    2MOL1     H 1922   4.057   3.582   2.007
    2MOL1    Cl 1923   2.511   4.744   0.677
    2MOL1     C 1924   2.627   4.611   0.662
    2MOL1    Cl 1925   2.792   4.674   0.650
    2MOL1    Cl 1926   2.612   4.499   0.798
    2MOL1     H 1927   2.605   4.556   0.570
    2MOL1    Cl 1928   2.860   2.518   4.715
    2MOL1     C 1929   2.794   2.361   4.763
    2MOL1    Cl 1930   2.923   2.254   4.821
    2MOL1    Cl 1931   2.669   2.380   4.887
    2MOL1     H 1932   2.748   2.314   4.675
    2MOL1    Cl 1933   1.653   3.210   2.649
    2MOL1     C 1934   1.552   3.349   2.694
    2MOL1    Cl 1935   1.583   3.485   2.585
    2MOL1    Cl 1936   1.381   3.305   2.691
    2MOL1     H 1937   1.578   3.379   2.795
    2MOL1    Cl 1938   0.570   4.227   4.789
    2MOL1     C 1939   0.701   4.242   4.907
    2MOL1    Cl 1940   0.642   4.315   5.057
    2MOL1    Cl 1941   0.773   4.083   4.940
    2MOL1     H 1942   0.779   4.306   4.865
    2MOL1    Cl 1943   0.076   2.257   1.830
    2MOL1     C 1944   0.242   2.305   1.868
    2MOL1    Cl 1945   0.326   2.360   1.722
    2MOL1    Cl 1946   0.244   2.431   1.993
    2MOL1     H 1947   0.295   2.217   1.907
    2MOL1    Cl 1948   4.647   1.106   4.150
    2MOL1     C 1949   4.509   1.007   4.200
    2MOL1    Cl 1950   4.466   0.890   4.074
    2MOL1    Cl 1951   4.544   0.924   4.353
    2MOL1     H 1952   4.423   1.074   4.216
    2MOL1    Cl 1953   4.073   1.279   0.447
    2MOL1     C 1954   3.992   1.122   0.453
    2MOL1    Cl 1955   3.847   1.122   0.352
    2MOL1    Cl 1956   4.103   0.993   0.402
    2MOL1     H 1957   3.963   1.102   0.556
    2MOL1    Cl 1958   2.091   1.611   3.959
    2MOL1     C 1959   1.923   1.656   3.927
    2MOL1    Cl 1960   1.856   1.748   4.063
    2MOL1    Cl 1961   1.910   1.749   3.777
    2MOL1     H 1962   1.864   1.564   3.916
    2MOL1    Cl 1963   0.394   1.733   2.038
    2MOL1     C 1964   0.268   1.847   2.088
    2MOL1    Cl 1965   0.161   1.773   2.208
    2MOL1    Cl 1966   0.341   1.995   2.153
    2MOL1     H 1967   0.209   1.874   2.001
    2MOL1    Cl 1968   1.809   0.487   3.464
    2MOL1     C 1969   1.685   0.612   3.445
    2MOL1    Cl 1970   1.742   0.741   3.338
    2MOL1    Cl 1971   1.534   0.543   3.385
    2MOL1     H 1972   1.666   0.656   3.544
    2MOL1    Cl 1973   2.163   4.329   1.173
    2MOL1     C 1974   2.317   4.248   1.207
    2MOL1    Cl 1975   2.453   4.358   1.178
    2MOL1    Cl 1976   2.321   4.188   1.373
    2MOL1     H 1977   2.327   4.163   1.139
    2MOL1    Cl 1978   3.400   1.911   4.434
    2MOL1     C 1979   3.468   1.770   4.352
    2MOL1    Cl 1980   3.645   1.773   4.358
    2MOL1    Cl 1981   3.406   1.620   4.423
    2MOL1     H 1982   3.437   1.773   4.247
    2MOL1    Cl 1983   2.200   3.866   4.331
    2MOL1     C 1984   2.266   3.755   4.210
    2MOL1    Cl 1985   2.411   3.674   4.272
    2MOL1    Cl 1986   2.144   3.636   4.161
    2MOL1     H 1987   2.294   3.813   4.122
    2MOL1    Cl 1988   3.014   0.987   4.873
    2MOL1     C 1989   3.176   0.981   4.945
    2MOL1    Cl 1990   3.196   1.112   5.062
    2MOL1    Cl 1991   3.204   0.824   5.021
    2MOL1     H 1992   3.249   0.995   4.865
    2MOL1    Cl 1993   3.254   2.874   2.357
    2MOL1     C 1994   3.111   2.795   2.425
    2MOL1    Cl 1995   3.127   2.619   2.418
    2MOL1    Cl 1996   3.084   2.848   2.592
    2MOL1     H 1997   3.024   2.824   2.366
    2MOL1    Cl 1998   4.671   4.369   0.786
    2MOL1     C 1999   4.716   4.249   0.909
    2MOL1    Cl 2000   4.571   4.175   0.979
    2MOL1    Cl 2001   4.822   4.126   0.839
    2MOL1     H 2002   4.770   4.300   0.988
    2MOL1    Cl 2003   2.166   2.812   4.289
    2MOL1     C 2004   2.111   2.859   4.451
    2MOL1    Cl 2005   2.070   2.716   4.547
    2MOL1    Cl 2006   2.235   2.956   4.533
    2MOL1     H 2007   2.021   2.921   4.440
    2MOL1    Cl 2008   2.500   4.337   4.405
    2MOL1     C 2009   2.539   4.164   4.409
    2MOL1    Cl 2010   2.407   4.073   4.484
    2MOL1    Cl 2011   2.571   4.104   4.245
    2MOL1     H 2012   2.629   4.151   4.468
    2MOL1    Cl 2013   4.445   4.994   2.667
    2MOL1     C 2014   4.381   5.158   2.648
    2MOL1    Cl 2015   4.486   5.254   2.543
    2MOL1    Cl 2016   4.216   5.154   2.584
    2MOL1     H 2017   4.378   5.206   2.747
    2MOL1    Cl 2018   1.913   3.805   1.993
    2MOL1     C 2019   1.850   3.674   2.093
    2MOL1    Cl 2020   1.965   3.632   2.221
    2MOL1    Cl 2021   1.693   3.719   2.163
    2MOL1     H 2022   1.835   3.586   2.030
    2MOL1    Cl 2023   3.484   0.613   0.988
    2MOL1     C 2024   3.499   0.788   1.009
    2MOL1    Cl 2025   3.339   0.864   1.010
    2MOL1    Cl 2026   3.587   0.826   1.159
    2MOL1     H 2027   3.556   0.828   0.925
    2MOL1    Cl 2028   0.252   3.942   3.003
    2MOL1     C 2029   0.321   3.787   3.053
    2MOL1    Cl 2030   0.195   3.679   3.115
    2MOL1    Cl 2031   0.408   3.711   2.919
    2MOL1     H 2032   0.393   3.806   3.134
    2MOL1    Cl 2033   2.745   2.709   4.857
    2MOL1     C 2034   2.910   2.748   4.806
    2MOL1    Cl 2035   3.028   2.657   4.903
    2MOL1    Cl 2036   2.932   2.713   4.634
    2MOL1     H 2037   2.927   2.854   4.823
    2MOL1    Cl 2038   2.220   0.701   0.526
    2MOL1     C 2039   2.280   0.656   0.687
    2MOL1    Cl 2040   2.371   0.790   0.759
    2MOL1    Cl 2041   2.145   0.609   0.792
    2MOL1     H 2042   2.346   0.570   0.676
    2MOL1    Cl 2043   2.748   0.389   2.197
    2MOL1     C 2044   2.913   0.353   2.252
    2MOL1    Cl 2045   2.913   0.317   2.426
    2MOL1    Cl 2046   2.981   0.218   2.161
    2MOL1     H 2047   2.975   0.441   2.235
    2MOL1    Cl 2048   1.852   3.697   4.586
    2MOL1     C 2049   1.848   3.531   4.648
    2MOL1    Cl 2050   1.816   3.531   4.822
    2MOL1    Cl 2051   1.727   3.435   4.562
    2MOL1     H 2052   1.946   3.486   4.631
    2MOL1    Cl 2053   1.074   2.820   0.782
    2MOL1     C 2054   0.907   2.802   0.726
    2MOL1    Cl 2055   0.885   2.883   0.570
    2MOL1    Cl 2056   0.864   2.630   0.714
    2MOL1     H 2057   0.841   2.849   0.799
    2MOL1    Cl 2058   2.937   0.353   3.527
    2MOL1     C 2059   2.988   0.208   3.439
    2MOL1    Cl 2060   3.089   0.253   3.300
    2MOL1    Cl 2061   3.076   0.097   3.546
    2MOL1     H 2062   2.899   0.157   3.402
    2MOL1    Cl 2063   2.194   3.094   1.068
    2MOL1     C 2064   2.080   2.988   1.153
    2MOL1    Cl 2065   2.150   2.932   1.306
    2MOL1    Cl 2066   1.927   3.072   1.182
    2MOL1     H 2067   2.061   2.901   1.090
    2MOL1    Cl 2068   3.001   5.058   3.984
    2MOL1     C 2069   3.113   5.195   3.995
    2MOL1    Cl 2070   3.053   5.316   4.110
    2MOL1    Cl 2071   3.274   5.139   4.042
    2MOL1     H 2072   3.120   5.241   3.896
    2MOL1    Cl 2073   3.056   3.454   0.061
    2MOL1     C 2074   2.981   3.302   0.115
    2MOL1    Cl 2075   2.854   3.252   0.003
    2MOL1    Cl 2076   3.104   3.175   0.132
    2MOL1     H 2077   2.936   3.320   0.213
    2MOL1    Cl 2078   0.286   0.247   4.145
    2MOL1     C 2079   0.246   0.418   4.164
    2MOL1    Cl 2080   0.101   0.459   4.069
    2MOL1    Cl 2081   0.221   0.458   4.335
    2MOL1     H 2082   0.329   0.478   4.126
    2MOL1    Cl 2083   2.314   2.484   4.050
    2MOL1     C 2084   2.416   2.606   3.972
    2MOL1    Cl 2085   2.543   2.661   4.082
    2MOL1    Cl 2086   2.488   2.540   3.823
    2MOL1     H 2087   2.354   2.691   3.945
    2MOL1    Cl 2088   0.974   1.489   0.229
    2MOL1     C 2089   0.808   1.494   0.167
    2MOL1    Cl 2090   0.699   1.570   0.285
    2MOL1    Cl 2091   0.801   1.580   0.012
    2MOL1     H 2092   0.774   1.391   0.151
    2MOL1    Cl 2093   4.800   2.929   2.032
    2MOL1     C 2094   4.666   2.983   1.929
    2MOL1    Cl 2095   4.511   2.924   1.992
    2MOL1    Cl 2096   4.664   3.160   1.917
    2MOL1     H 2097   4.681   2.942   1.829
    2MOL1    Cl 2098   3.272   3.164   0.614
    2MOL1     C 2099   3.118   3.250   0.603
    2MOL1    Cl 2100   3.136   3.400   0.512
    2MOL1    Cl 2101   2.994   3.146   0.529
    2MOL1     H 2102   3.085   3.275   0.704
    2MOL1    Cl 2103   2.480   4.932   1.714
    2MOL1     C 2104   2.574   4.874   1.576
    2MOL1    Cl 2105   2.476   4.769   1.473
    2MOL1    Cl 2106   2.638   5.011   1.482
    2MOL1     H 2107   2.659   4.816   1.613
    2MOL1    Cl 2108   2.673   4.049   5.035
    2MOL1     C 2109   2.661   4.033   4.859
    2MOL1    Cl 2110   2.682   4.190   4.780
    2MOL1    Cl 2111   2.780   3.917   4.798
    2MOL1     H 2112   2.561   3.996   4.834
    2MOL1    Cl 2113   4.108   4.016   2.617
    2MOL1     C 2114   3.992   3.935   2.723
    2MOL1    Cl 2115   4.049   3.772   2.765
    2MOL1    Cl 2116   3.963   4.030   2.870
    2MOL1     H 2117   3.897   3.925   2.669
    2MOL1    Cl 2118   2.259   1.526   2.634
    2MOL1     C 2119   2.337   1.522   2.475
    2MOL1    Cl 2120   2.404   1.362   2.443
    2MOL1    Cl 2121   2.222   1.568   2.348
    2MOL1     H 2122   2.419   1.595   2.475
    2MOL1    Cl 2123   4.895   2.475   0.508
    2MOL1     C 2124   4.916   2.367   0.646
    2MOL1    Cl 2125   4.763   2.348   0.734
    2MOL1    Cl 2126   4.977   2.209   0.593
    2MOL1     H 2127   4.989   2.411   0.714
    2MOL1    Cl 2128   4.241   0.630   3.043
    2MOL1     C 2129   4.230   0.602   3.218
    2MOL1    Cl 2130   4.093   0.496   3.255
    2MOL1    Cl 2131   4.381   0.532   3.279
    2MOL1     H 2132   4.214   0.698   3.267
    2MOL1    Cl 2133   4.969   2.340   0.276
    2MOL1     C 2134   4.831   2.330   0.166
    2MOL1    Cl 2135   4.880   2.370   0.000
    2MOL1    Cl 2136   4.758   2.169   0.172
    2MOL1     H 2137   4.755   2.403   0.198
    2MOL1    Cl 2138   3.473   1.086   1.023
    2MOL1     C 2139   3.381   1.223   1.088
    2MOL1    Cl 2140   3.467   1.375   1.061
    2MOL1    Cl 2141   3.219   1.229   1.016
    2MOL1     H 2142   3.370   1.208   1.196
    2MOL1    Cl 2143   2.719   4.430   4.846
    2MOL1     C 2144   2.770   4.423   4.677
    2MOL1    Cl 2145   2.885   4.290   4.652
    2MOL1    Cl 2146   2.629   4.404   4.570
    2MOL1     H 2147   2.820   4.516   4.651
    2MOL1    Cl 2148   1.353   5.156   0.661
    2MOL1     C 2149   1.493   5.243   0.596
    2MOL1    Cl 2150   1.636   5.138   0.596
    2MOL1    Cl 2151   1.459   5.302   0.433
    2MOL1     H 2152   1.513   5.329   0.660
    2MOL1    Cl 2153   1.387   3.484   4.519
    2MOL1     C 2154   1.418   3.312   4.495
    2MOL1    Cl 2155   1.547   3.287   4.377
    2MOL1    Cl 2156   1.458   3.234   4.649
    2MOL1     H 2157   1.326   3.266   4.456
    2MOL1    Cl 2158   1.113   2.297   2.592
    2MOL1     C 2159   1.191   2.263   2.437
    2MOL1    Cl 2160   1.110   2.351   2.306
    2MOL1    Cl 2161   1.363   2.306   2.443
    2MOL1     H 2162   1.183   2.156   2.417
    2MOL1    Cl 2163   1.434   1.159   0.526
    2MOL1     C 2164   1.545   1.297   0.529
    2MOL1    Cl 2165   1.671   1.278   0.406
    2MOL1    Cl 2166   1.456   1.449   0.504
    2MOL1     H 2167   1.593   1.301   0.627
    2MOL1    Cl 2168   0.482   5.089   3.238
    2MOL1     C 2169   0.349   5.206   3.250
    2MOL1    Cl 2170   0.209   5.152   3.156
    2MOL1    Cl 2171   0.304   5.231   3.420
    2MOL1     H 2172   0.384   5.301   3.210
    2MOL1    Cl 2173   2.683   3.879   0.421
    2MOL1     C 2174   2.803   3.975   0.333
    2MOL1    Cl 2175   2.889   3.875   0.215
    2MOL1    Cl 2176   2.727   4.114   0.254
    2MOL1     H 2177   2.876   4.013   0.406
    2MOL1    Cl 2178   5.045   2.086   0.765
    2MOL1     C 2179   5.111   1.938   0.837
    2MOL1    Cl 2180   4.984   1.849   0.923
    2MOL1    Cl 2181   5.185   1.836   0.712
    2MOL1     H 2182   5.188   1.966   0.909
    2MOL1    Cl 2183   3.148   4.896   4.057
    2MOL1     C 2184   3.248   4.760   4.111
    2MOL1    Cl 2185   3.167   4.606   4.080
    2MOL1    Cl 2186   3.407   4.764   4.033
    2MOL1     H 2187   3.263   4.770   4.219
    2MOL1    Cl 2188   0.534   3.285   3.382
    2MOL1     C 2189   0.401   3.205   3.467
    2MOL1    Cl 2190   0.385   3.269   3.632
    2MOL1    Cl 2191   0.249   3.225   3.378
    2MOL1     H 2192   0.423   3.098   3.473
    2MOL1    Cl 2193   2.920   0.642   1.913
    2MOL1     C 2194   2.919   0.467   1.888
    2MOL1    Cl 2195   3.016   0.386   2.012
    2MOL1    Cl 2196   2.753   0.405   1.888
    2MOL1     H 2197   2.963   0.446   1.790
    2MOL1    Cl 2198   4.913   5.164   4.324
    2MOL1     C 2199   4.841   5.002   4.335
    2MOL1    Cl 2200   4.921   4.907   4.461
    2MOL1    Cl 2201   4.667   5.013   4.366
    2MOL1     H 2202   4.856   4.952   4.239
    2MOL1    Cl 2203   4.084   0.817   2.006
    2MOL1     C 2204   4.029   0.976   2.062
    2MOL1    Cl 2205   4.025   1.091   1.928
    2MOL1    Cl 2206   3.869   0.964   2.138
    2MOL1     H 2207   4.100   1.012   2.137
    2MOL1    Cl 2208   2.290   4.678   2.592
    2MOL1     C 2209   2.335   4.750   2.437
    2MOL1    Cl 2210   2.357   4.624   2.314
    2MOL1    Cl 2211   2.213   4.867   2.384
    2MOL1     H 2212   2.430   4.802   2.449
    2MOL1    Cl 2213   2.366   2.655   1.049
    2MOL1     C 2214   2.246   2.652   0.918
    2MOL1    Cl 2215   2.313   2.571   0.775
    2MOL1    Cl 2216   2.098   2.571   0.972
    2MOL1     H 2217   2.222   2.754   0.891
    2MOL1    Cl 2218   2.157   4.842   0.301
    2MOL1     C 2219   2.243   4.735   0.413
    2MOL1    Cl 2220   2.323   4.829   0.540
    2MOL1    Cl 2221   2.131   4.617   0.485
    2MOL1     H 2222   2.319   4.680   0.357
    2MOL1    Cl 2223   3.657   1.171   2.261
    2MOL1     C 2224   3.672   1.165   2.437
    2MOL1    Cl 2225   3.536   1.076   2.509
    2MOL1    Cl 2226   3.826   1.093   2.484
    2MOL1     H 2227   3.669   1.268   2.475
    2MOL1    Cl 2228   3.721   3.906   0.728
    2MOL1     C 2229   3.701   4.040   0.842
    2MOL1    Cl 2230   3.675   4.192   0.754
    2MOL1    Cl 2231   3.566   4.008   0.953
    2MOL1     H 2232   3.792   4.050   0.901
    2MOL1    Cl 2233   1.705   4.469   2.134
    2MOL1     C 2234   1.739   4.295   2.137
    2MOL1    Cl 2235   1.886   4.261   2.230
    2MOL1    Cl 2236   1.601   4.206   2.204
    2MOL1     H 2237   1.755   4.261   2.035
    2MOL1    Cl 2238   4.945   2.854   2.875
    2MOL1     C 2239   5.065   2.841   3.005
    2MOL1    Cl 2240   4.984   2.822   3.162
    2MOL1    Cl 2241   5.175   2.705   2.975
    2MOL1     H 2242   5.123   2.933   3.008
    2MOL1    Cl 2243   1.693   1.201   2.097
    2MOL1     C 2244   1.594   1.295   2.210
    2MOL1    Cl 2245   1.628   1.249   2.377
    2MOL1    Cl 2246   1.622   1.469   2.186
    2MOL1     H 2247   1.489   1.274   2.189
    2MOL1    Cl 2248   1.048   4.389   0.262
    2MOL1     C 2249   1.094   4.218   0.248
    2MOL1    Cl 2250   1.268   4.202   0.223
    2MOL1    Cl 2251   1.042   4.128   0.391
    2MOL1     H 2252   1.043   4.176   0.161
    2MOL1    Cl 2253   3.151   2.587   0.830
    2MOL1     C 2254   3.148   2.735   0.927
    2MOL1    Cl 2255   2.981   2.778   0.968
    2MOL1    Cl 2256   3.245   2.716   1.074
    2MOL1     H 2257   3.190   2.816   0.867
    2MOL1    Cl 2258   0.461   1.984   2.454
    2MOL1     C 2259   0.620   2.001   2.532
    2MOL1    Cl 2260   0.657   1.858   2.629
    2MOL1    Cl 2261   0.746   2.029   2.411
    2MOL1     H 2262   0.616   2.088   2.598
    2MOL1    Cl 2263   2.463   0.789   5.058
    2MOL1     C 2264   2.631   0.776   5.004
    2MOL1    Cl 2265   2.668   0.610   4.955
    2MOL1    Cl 2266   2.662   0.889   4.871
    2MOL1     H 2267   2.696   0.803   5.087
    2MOL1    Cl 2268   0.291   4.218   4.261
    2MOL1     C 2269   0.421   4.330   4.217
    2MOL1    Cl 2270   0.410   4.479   4.312
    2MOL1    Cl 2271   0.579   4.253   4.240
    2MOL1     H 2272   0.410   4.356   4.111
    2MOL1    Cl 2273   4.986   3.984   1.367
    2MOL1     C 2274   5.066   3.984   1.525
    2MOL1    Cl 2275   5.003   4.114   1.627
    2MOL1    Cl 2276   5.045   3.827   1.605
    2MOL1     H 2277   5.173   4.000   1.510
    2MOL1    Cl 2278   2.589   2.477   0.330
    2MOL1     C 2279   2.608   2.305   0.370
    2MOL1    Cl 2280   2.754   2.240   0.293
    2MOL1    Cl 2281   2.614   2.282   0.546
    2MOL1     H 2282   2.522   2.251   0.331
    2MOL1    Cl 2283   5.080   5.026   3.724
    2MOL1     C 2284   5.206   5.054   3.602
    2MOL1    Cl 2285   5.339   4.940   3.623
    2MOL1    Cl 2286   5.138   5.042   3.439
    2MOL1     H 2287   5.244   5.156   3.616
    2MOL1    Cl 2288   3.514   2.593   2.192
    2MOL1     C 2289   3.362   2.504   2.205
    2MOL1    Cl 2290   3.275   2.507   2.050
    2MOL1    Cl 2291   3.391   2.337   2.256
    2MOL1     H 2292   3.299   2.553   2.280
    2MOL1    Cl 2293   4.064   1.406   5.314
    2MOL1     C 2294   4.106   1.268   5.211
    2MOL1    Cl 2295   4.072   1.306   5.041
    2MOL1    Cl 2296   4.276   1.224   5.232
    2MOL1     H 2297   4.044   1.183   5.240
    2MOL1    Cl 2298   1.044   2.181   4.610
    2MOL1     C 2299   1.166   2.065   4.554
    2MOL1    Cl 2300   1.092   1.907   4.525
    2MOL1    Cl 2301   1.245   2.125   4.407
    2MOL1     H 2302   1.241   2.054   4.632
    2MOL1    Cl 2303   0.238   0.296   2.180
    2MOL1     C 2304   0.393   0.381   2.189
    2MOL1    Cl 2305   0.405   0.501   2.060
    2MOL1    Cl 2306   0.413   0.457   2.347
    2MOL1     H 2307   0.473   0.308   2.175
    2MOL1    Cl 2308   3.656   0.491   1.066
    2MOL1     C 2309   3.818   0.431   1.106
    2MOL1    Cl 2310   3.843   0.269   1.041
    2MOL1    Cl 2311   3.942   0.542   1.046
    2MOL1     H 2312   3.826   0.426   1.215
    2MOL1    Cl 2313   3.045   2.201   3.504
    2MOL1     C 2314   3.126   2.263   3.649
    2MOL1    Cl 2315   3.142   2.136   3.771
    2MOL1    Cl 2316   3.285   2.330   3.608
    2MOL1     H 2317   3.064   2.344   3.691
    2MOL1    Cl 2318   3.771   2.719   3.491
    2MOL1     C 2319   3.754   2.889   3.538
    2MOL1    Cl 2320   3.760   2.906   3.714
    2MOL1    Cl 2321   3.880   2.988   3.462
    2MOL1     H 2322   3.657   2.925   3.503
    2MOL1    Cl 2323   3.246   4.546   1.925
    2MOL1     C 2324   3.214   4.457   1.776
    2MOL1    Cl 2325   3.149   4.565   1.652
    2MOL1    Cl 2326   3.361   4.376   1.718
    2MOL1     H 2327   3.139   4.380   1.798
    2MOL1    Cl 2328   0.677   1.251   4.278
    2MOL1     C 2329   0.536   1.327   4.202
    2MOL1    Cl 2330   0.389   1.232   4.235
    2MOL1    Cl 2331   0.516   1.493   4.259
    2MOL1     H 2332   0.551   1.329   4.094
    2MOL1    Cl 2333   0.252   1.820   1.524
    2MOL1     C 2334   0.372   1.893   1.632
    2MOL1    Cl 2335   0.530   1.816   1.611
    2MOL1    Cl 2336   0.384   2.068   1.604
    2MOL1     H 2337   0.340   1.877   1.735
    2MOL1    Cl 2338   0.058   2.806   1.424
    2MOL1     C 2339   0.070   2.980   1.395
    2MOL1    Cl 2340   0.239   3.033   1.406
    2MOL1    Cl 2341   0.002   3.022   1.237
    2MOL1     H 2342   0.013   3.032   1.472
    2MOL1    Cl 2343   0.832   3.522   0.016
    2MOL1     C 2344   0.907   3.673   0.072
    2MOL1    Cl 2345   0.833   3.726   0.224
    2MOL1    Cl 2346   1.082   3.652   0.092
    2MOL1     H 2347   0.890   3.750  -0.003
    2MOL1    Cl 2348   3.741   1.447   1.475
    2MOL1     C 2349   3.674   1.287   1.509
    2MOL1    Cl 2350   3.787   1.159   1.461
    2MOL1    Cl 2351   3.633   1.272   1.681
    2MOL1     H 2352   3.582   1.275   1.451
    2MOL1    Cl 2353   3.611   1.627   4.845
    2MOL1     C 2354   3.490   1.731   4.770
    2MOL1    Cl 2355   3.538   1.776   4.606
    2MOL1    Cl 2356   3.331   1.651   4.769
    2MOL1     H 2357   3.481   1.822   4.830
    2MOL1    Cl 2358   0.666   4.074   4.455
    2MOL1     C 2359   0.695   3.991   4.302
    2MOL1    Cl 2360   0.561   4.018   4.189
    2MOL1    Cl 2361   0.849   4.043   4.230
    2MOL1     H 2362   0.702   3.883   4.322
    2MOL1    Cl 2363   3.746   3.255   5.066
    2MOL1     C 2364   3.604   3.225   5.167
    2MOL1    Cl 2365   3.555   3.055   5.157
    2MOL1    Cl 2366   3.637   3.270   5.336
    2MOL1     H 2367   3.522   3.287   5.130
    2MOL1    Cl 2368   1.057   2.860   1.576
    2MOL1     C 2369   0.941   2.732   1.535
    2MOL1    Cl 2370   0.946   2.696   1.362
    2MOL1    Cl 2371   0.973   2.586   1.631
    2MOL1     H 2372   0.841   2.768   1.560
    2MOL1    Cl 2373   4.242   5.135   5.160
    2MOL1     C 2374   4.408   5.087   5.198
    2MOL1    Cl 2375   4.471   5.183   5.334
    2MOL1    Cl 2376   4.416   4.914   5.236
    2MOL1     H 2377   4.470   5.107   5.111
    2MOL1    Cl 2378   4.286   1.160   0.452
    2MOL1     C 2379   4.395   1.124   0.317
    2MOL1    Cl 2380   4.358   0.965   0.248
    2MOL1    Cl 2381   4.384   1.250   0.193
    2MOL1     H 2382   4.497   1.122   0.356
    2MOL1    Cl 2383   2.992   0.717   3.548
    2MOL1     C 2384   3.097   0.854   3.512
    2MOL1    Cl 2385   3.252   0.799   3.447
    2MOL1    Cl 2386   3.018   0.965   3.398
    2MOL1     H 2387   3.116   0.909   3.605
    2MOL1    Cl 2388   4.348   1.252   4.928
    2MOL1     C 2389   4.345   1.429   4.936
    2MOL1    Cl 2390   4.491   1.497   4.863
    2MOL1    Cl 2391   4.200   1.493   4.856
    2MOL1     H 2392   4.342   1.459   5.041
    2MOL1    Cl 2393   4.758   2.082   3.652
    2MOL1     C 2394   4.761   2.157   3.813
    2MOL1    Cl 2395   4.698   2.046   3.935
    2MOL1    Cl 2396   4.926   2.207   3.854
    2MOL1     H 2397   4.698   2.246   3.811
    2MOL1    Cl 2398   3.468   0.867   3.736
    2MOL1     C 2399   3.392   0.730   3.819
    2MOL1    Cl 2400   3.274   0.650   3.713
    2MOL1    Cl 2401   3.514   0.614   3.873
    2MOL1     H 2402   3.339   0.768   3.907
    2MOL1    Cl 2403   3.853   3.644   1.545
    2MOL1     C 2404   3.856   3.796   1.636
    2MOL1    Cl 2405   3.795   3.772   1.800
    2MOL1    Cl 2406   4.021   3.863   1.640
    2MOL1     H 2407   3.792   3.868   1.585
    2MOL1    Cl 2408   0.467   0.009   1.384
    2MOL1     C 2409   0.546   0.167   1.378
    2MOL1    Cl 2410   0.694   0.159   1.281
    2MOL1    Cl 2411   0.436   0.289   1.313
    2MOL1     H 2412   0.573   0.196   1.480
    2MOL1    Cl 2413   2.227   3.906   3.535
    2MOL1     C 2414   2.164   3.976   3.685
    2MOL1    Cl 2415   2.136   3.850   3.806
    2MOL1    Cl 2416   2.276   4.099   3.748
    2MOL1     H 2417   2.069   4.025   3.663
    2MOL1    Cl 2418   4.657   4.054   1.402
    2MOL1     C 2419   4.521   3.963   1.335
    2MOL1    Cl 2420   4.555   3.789   1.335
    2MOL1    Cl 2421   4.372   3.998   1.425
    2MOL1     H 2422   4.506   3.995   1.231
    2MOL1    Cl 2423   3.216   4.275   4.416
    2MOL1     C 2424   3.207   4.356   4.574
    2MOL1    Cl 2425   3.115   4.506   4.562
    2MOL1    Cl 2426   3.136   4.248   4.695
    2MOL1     H 2427   3.309   4.380   4.605
    2MOL1    Cl 2428   1.912   1.929   4.842
    2MOL1     C 2429   2.069   1.856   4.805
    2MOL1    Cl 2430   2.050   1.720   4.694
    2MOL1    Cl 2431   2.179   1.978   4.737
    2MOL1     H 2432   2.113   1.819   4.898
    2MOL1    Cl 2433   1.490   3.634   2.064
    2MOL1     C 2434   1.501   3.496   1.954
    2MOL1    Cl 2435   1.555   3.549   1.793
    2MOL1    Cl 2436   1.610   3.373   2.018
    2MOL1     H 2437   1.402   3.452   1.944
    2MOL1    Cl 2438   1.783   0.243   1.389
    2MOL1     C 2439   1.812   0.106   1.498
    2MOL1    Cl 2440   1.952   0.138   1.602
    2MOL1    Cl 2441   1.668   0.072   1.595
    2MOL1     H 2442   1.835   0.018   1.437
    2MOL1    Cl 2443   4.368   4.532   3.890
    2MOL1     C 2444   4.216   4.451   3.847
    2MOL1    Cl 2445   4.119   4.554   3.741
    2MOL1    Cl 2446   4.248   4.295   3.771
    2MOL1     H 2447   4.160   4.434   3.940
    2MOL1    Cl 2448   0.715   0.838   3.829
    2MOL1     C 2449   0.694   1.013   3.818
    2MOL1    Cl 2450   0.556   1.053   3.714
    2MOL1    Cl 2451   0.674   1.084   3.979
    2MOL1     H 2452   0.784   1.056   3.773
    2MOL1    Cl 2453   1.795   4.500   0.820
    2MOL1     C 2454   1.680   4.474   0.688
    2MOL1    Cl 2455   1.686   4.608   0.572
    2MOL1    Cl 2456   1.712   4.320   0.606
    2MOL1     H 2457   1.579   4.470   0.730
    2MOL1    Cl 2458   3.848   1.063   3.380
    2MOL1     C 2459   3.859   0.917   3.280
    2MOL1    Cl 2460   3.966   0.944   3.141
    2MOL1    Cl 2461   3.916   0.780   3.377
    2MOL1     H 2462   3.759   0.893   3.243
    2MOL1    Cl 2463   0.069   4.510   3.903
    2MOL1     C 2464   0.177   4.628   3.979
    2MOL1    Cl 2465   0.087   4.736   4.087
    2MOL1    Cl 2466   0.306   4.546   4.068
    2MOL1     H 2467   0.223   4.688   3.900
    2MOL1    Cl 2468   4.406   1.738   5.040
    2MOL1     C 2469   4.406   1.653   5.195
    2MOL1    Cl 2470   4.249   1.576   5.223
    2MOL1    Cl 2471   4.537   1.533   5.201
    2MOL1     H 2472   4.423   1.726   5.274
    2MOL1    Cl 2473   0.398   0.791   2.814
    2MOL1     C 2474   0.507   0.656   2.782
    2MOL1    Cl 2475   0.676   0.707   2.799
    2MOL1    Cl 2476   0.472   0.520   2.891
    2MOL1     H 2477   0.491   0.622   2.679
    2MOL1    Cl 2478   0.353   2.230   2.122
    2MOL1     C 2479   0.519   2.206   2.064
    2MOL1    Cl 2480   0.538   2.269   1.900
    2MOL1    Cl 2481   0.635   2.281   2.174
    2MOL1     H 2482   0.539   2.098   2.062
    2MOL1    Cl 2483   3.617   2.317   1.562
    2MOL1     C 2484   3.660   2.160   1.631
    2MOL1    Cl 2485   3.772   2.180   1.767
    2MOL1    Cl 2486   3.515   2.072   1.683
    2MOL1     H 2487   3.710   2.100   1.554
    2MOL1    Cl 2488   2.737   0.932   4.294
    2MOL1     C 2489   2.624   0.917   4.429
    2MOL1    Cl 2490   2.516   0.778   4.404
    2MOL1    Cl 2491   2.711   0.902   4.582
    2MOL1     H 2492   2.562   1.007   4.432
    2MOL1    Cl 2493   4.824   2.534   4.996
    2MOL1     C 2494   4.656   2.523   4.943
    2MOL1    Cl 2495   4.551   2.621   5.046
    2MOL1    Cl 2496   4.641   2.573   4.773
    2MOL1     H 2497   4.624   2.419   4.950
    2MOL1    Cl 2498   3.717   0.665   2.927
    2MOL1     C 2499   3.837   0.776   2.859
    2MOL1    Cl 2500   3.888   0.721   2.698
    2MOL1    Cl 2501   3.773   0.941   2.852
    2MOL1     H 2502   3.925   0.776   2.925
    2MOL1    Cl 2503   3.329   1.997   3.264
    2MOL1     C 2504   3.276   2.165   3.257
    2MOL1    Cl 2505   3.102   2.177   3.289
    2MOL1    Cl 2506   3.367   2.264   3.372
    2MOL1     H 2507   3.295   2.203   3.156
    2MOL1    Cl 2508   3.792   1.646   1.675
    2MOL1     C 2509   3.720   1.711   1.527
    2MOL1    Cl 2510   3.796   1.639   1.384
    2MOL1    Cl 2511   3.545   1.684   1.525
    2MOL1     H 2512   3.738   1.819   1.525
    2MOL1    Cl 2513   0.435   3.512   1.744
    2MOL1     C 2514   0.432   3.433   1.585
    2MOL1    Cl 2515   0.281   3.470   1.500
    2MOL1    Cl 2516   0.571   3.484   1.488
    2MOL1     H 2517   0.438   3.325   1.600
    2MOL1    Cl 2518   2.435   3.932   4.664
    2MOL1     C 2519   2.478   3.762   4.646
    2MOL1    Cl 2520   2.369   3.681   4.532
    2MOL1    Cl 2521   2.646   3.745   4.593
    2MOL1     H 2522   2.468   3.713   4.744
    2MOL1    Cl 2523   2.127   1.630   1.970
    2MOL1     C 2524   1.957   1.597   1.935
    2MOL1    Cl 2525   1.942   1.489   1.795
    2MOL1    Cl 2526   1.876   1.527   2.076
    2MOL1     H 2527   1.908   1.692   1.910
    2MOL1    Cl 2528   4.644   2.496   0.475
    2MOL1     C 2529   4.556   2.629   0.397
    2MOL1    Cl 2530   4.599   2.640   0.226
    2MOL1    Cl 2531   4.381   2.607   0.416
    2MOL1     H 2532   4.584   2.722   0.446
    2MOL1    Cl 2533   3.053   4.750   3.571
    2MOL1     C 2534   3.122   4.588   3.581
    2MOL1    Cl 2535   3.175   4.552   3.746
    2MOL1    Cl 2536   3.005   4.467   3.526
    2MOL1     H 2537   3.209   4.583   3.515
    2MOL1    Cl 2538   5.020   3.881   5.042
    2MOL1     C 2539   5.028   3.855   5.217
    2MOL1    Cl 2540   5.094   3.999   5.297
    2MOL1    Cl 2541   4.868   3.816   5.281
    2MOL1     H 2542   5.094   3.771   5.236
    2MOL1    Cl 2543   1.261   2.807   3.435
    2MOL1     C 2544   1.189   2.667   3.355
    2MOL1    Cl 2545   1.130   2.711   3.194
    2MOL1    Cl 2546   1.305   2.534   3.344
    2MOL1     H 2547   1.104   2.633   3.414
    2MOL1    Cl 2548   2.646   2.813   1.180
    2MOL1     C 2549   2.534   2.818   1.317
    2MOL1    Cl 2550   2.579   2.948   1.429
    2MOL1    Cl 2551   2.368   2.839   1.260
    2MOL1     H 2552   2.541   2.723   1.370
    2MOL1    Cl 2553   0.257   3.605   3.625
    2MOL1     C 2554   0.081   3.596   3.605
    2MOL1    Cl 2555   0.028   3.694   3.468
    2MOL1    Cl 2556   0.030   3.427   3.584
    2MOL1     H 2557   0.034   3.635   3.696
    2MOL1    Cl 2558   2.332   4.720   3.240
    2MOL1     C 2559   2.435   4.845   3.312
    2MOL1    Cl 2560   2.392   4.873   3.481
    2MOL1    Cl 2561   2.606   4.801   3.298
    2MOL1     H 2562   2.419   4.938   3.257
    2MOL1    Cl 2563   5.097   2.838   4.318
    2MOL1     C 2564   5.011   2.731   4.206
    2MOL1    Cl 2565   4.904   2.620   4.294
    2MOL1    Cl 2566   4.920   2.825   4.087
    2MOL1     H 2567   5.086   2.671   4.152
    2MOL1    Cl 2568   2.557   2.152   3.703
    2MOL1     C 2569   2.554   2.260   3.563
    2MOL1    Cl 2570   2.418   2.373   3.574
    2MOL1    Cl 2571   2.707   2.348   3.549
    2MOL1     H 2572   2.542   2.199   3.473
    2MOL1    Cl 2573   2.031   0.931   3.907
    2MOL1     C 2574   1.953   1.008   4.046
    2MOL1    Cl 2575   1.812   1.102   3.994
    2MOL1    Cl 2576   1.905   0.886   4.165
    2MOL1     H 2577   2.024   1.075   4.093
    2MOL1    Cl 2578   0.786   0.262   0.840
    2MOL1     C 2579   0.926   0.365   0.872
    2MOL1    Cl 2580   0.883   0.494   0.986
    2MOL1    Cl 2581   1.062   0.269   0.934
    2MOL1     H 2582   0.957   0.412   0.778
    2MOL1    Cl 2583   4.206   1.299   3.573
    2MOL1     C 2584   4.169   1.445   3.665
    2MOL1    Cl 2585   3.997   1.486   3.651
    2MOL1    Cl 2586   4.215   1.426   3.835
    2MOL1     H 2587   4.227   1.528   3.623
    2MOL1    Cl 2588   3.064   5.014   3.435
    2MOL1     C 2589   3.236   4.989   3.402
    2MOL1    Cl 2590   3.335   5.106   3.491
    2MOL1    Cl 2591   3.284   4.823   3.443
    2MOL1     H 2592   3.253   5.004   3.295
    2MOL1    Cl 2593   2.309   2.388   3.142
    2MOL1     C 2594   2.223   2.540   3.115
    2MOL1    Cl 2595   2.319   2.648   3.012
    2MOL1    Cl 2596   2.064   2.511   3.043
    2MOL1     H 2597   2.209   2.589   3.212
    2MOL1    Cl 2598   1.484   0.828   5.285
    2MOL1     C 2599   1.472   0.664   5.220
    2MOL1    Cl 2600   1.383   0.559   5.331
    2MOL1    Cl 2601   1.395   0.666   5.060
    2MOL1     H 2602   1.573   0.624   5.208
    2MOL1    Cl 2603   2.274   4.510   4.278
    2MOL1     C 2604   2.206   4.390   4.389
    2MOL1    Cl 2605   2.303   4.241   4.386
    2MOL1    Cl 2606   2.198   4.455   4.554
    2MOL1     H 2607   2.105   4.366   4.356
    2MOL1    Cl 2608   0.732   3.679   4.919
    2MOL1     C 2609   0.772   3.760   5.071
    2MOL1    Cl 2610   0.944   3.805   5.074
    2MOL1    Cl 2611   0.670   3.902   5.094
    2MOL1     H 2612   0.753   3.690   5.153
    2MOL1    Cl 2613   5.163   2.907   1.818
    2MOL1     C 2614   5.106   3.069   1.863
    2MOL1    Cl 2615   4.931   3.067   1.893
    2MOL1    Cl 2616   5.193   3.128   2.005
    2MOL1     H 2617   5.126   3.137   1.779
    2MOL1    Cl 2618   3.312   1.351   3.537
    2MOL1     C 2619   3.334   1.187   3.599
    2MOL1    Cl 2620   3.386   1.077   3.470
    2MOL1    Cl 2621   3.451   1.187   3.732
    2MOL1     H 2622   3.238   1.152   3.638
    2MOL1    Cl 2623   1.524   0.206   1.153
    2MOL1     C 2624   1.509   0.110   1.301
    2MOL1    Cl 2625   1.648   0.002   1.321
    2MOL1    Cl 2626   1.491   0.216   1.442
    2MOL1     H 2627   1.419   0.048   1.293
    2MOL1    Cl 2628   2.636   2.994   3.813
    2MOL1     C 2629   2.771   2.926   3.904
    2MOL1    Cl 2630   2.869   3.054   3.977
    2MOL1    Cl 2631   2.713   2.813   4.028
    2MOL1     H 2632   2.835   2.870   3.834
    2MOL1    Cl 2633   4.994   3.251   1.218
    2MOL1     C 2634   5.116   3.377   1.243
    2MOL1    Cl 2635   5.071   3.480   1.380
    2MOL1    Cl 2636   5.276   3.306   1.268
    2MOL1     H 2637   5.119   3.440   1.153
    2MOL1    Cl 2638   2.055   0.212   0.176
    2MOL1     C 2639   1.893   0.283   0.180
    2MOL1    Cl 2640   1.771   0.162   0.137
    2MOL1    Cl 2641   1.858   0.352   0.340
    2MOL1     H 2642   1.888   0.364   0.106
    2MOL1    Cl 2643   1.277   1.964   3.050
    2MOL1     C 2644   1.126   1.899   2.983
    2MOL1    Cl 2645   1.041   2.023   2.889
    2MOL1    Cl 2646   1.159   1.756   2.883
    2MOL1     H 2647   1.062   1.868   3.066
    2MOL1    Cl 2648   2.888   3.892   2.477
    2MOL1     C 2649   2.711   3.896   2.467
    2MOL1    Cl 2650   2.655   3.791   2.335
    2MOL1    Cl 2651   2.639   3.847   2.621
    2MOL1     H 2652   2.680   3.998   2.445
    2MOL1    Cl 2653   1.636   0.673   2.855
    2MOL1     C 2654   1.481   0.599   2.902
    2MOL1    Cl 2655   1.457   0.447   2.815
    2MOL1    Cl 2656   1.475   0.574   3.077
    2MOL1     H 2657   1.401   0.668   2.874
    2MOL1    Cl 2658   5.085   4.839   2.753
    2MOL1     C 2659   5.086   5.007   2.810
    2MOL1    Cl 2660   4.935   5.045   2.894
    2MOL1    Cl 2661   5.225   5.036   2.916
    2MOL1     H 2662   5.095   5.072   2.723
    2MOL1    Cl 2663   2.791   3.990   3.272
    2MOL1     C 2664   2.651   3.883   3.259
    2MOL1    Cl 2665   2.509   3.974   3.204
    2MOL1    Cl 2666   2.684   3.748   3.150
    2MOL1     H 2667   2.629   3.843   3.359
    2MOL1    Cl 2668   5.080   4.919   0.082
    2MOL1     C 2669   5.023   5.033   0.206
    2MOL1    Cl 2670   5.131   5.030   0.347
    2MOL1    Cl 2671   5.012   5.197   0.139
    2MOL1     H 2672   4.924   5.002   0.238
    2MOL1    Cl 2673   0.376   2.096   3.438
    2MOL1     C 2674   0.434   1.928   3.439
    2MOL1    Cl 2675   0.548   1.900   3.306
    2MOL1    Cl 2676   0.509   1.889   3.595
    2MOL1     H 2677   0.348   1.862   3.425
    2MOL1    Cl 2678   4.722   0.437   4.674
    2MOL1     C 2679   4.632   0.450   4.826
    2MOL1    Cl 2680   4.465   0.395   4.805
    2MOL1    Cl 2681   4.713   0.358   4.954
    2MOL1     H 2682   4.630   0.556   4.855
    2MOL1    Cl 2683   4.251   2.284   2.474
    2MOL1     C 2684   4.327   2.434   2.528
    2MOL1    Cl 2685   4.497   2.440   2.478
    2MOL1    Cl 2686   4.239   2.575   2.465
    2MOL1     H 2687   4.323   2.438   2.637
    2MOL1    Cl 2688   3.596   4.768   1.796
    2MOL1     C 2689   3.473   4.665   1.721
    2MOL1    Cl 2690   3.366   4.762   1.618
    2MOL1    Cl 2691   3.550   4.536   1.627
    2MOL1     H 2692   3.414   4.619   1.800
    2MOL1    Cl 2693   5.329   5.267   0.835
    2MOL1     C 2694   5.197   5.220   0.727
    2MOL1    Cl 2695   5.253   5.100   0.608
    2MOL1    Cl 2696   5.060   5.156   0.820
    2MOL1     H 2697   5.163   5.308   0.673
    2MOL1    Cl 2698   4.028   4.988   0.265
    2MOL1     C 2699   3.978   5.157   0.246
    2MOL1    Cl 2700   3.836   5.192   0.346
    2MOL1    Cl 2701   4.112   5.266   0.287
    2MOL1     H 2702   3.952   5.173   0.141
    2MOL1    Cl 2703   0.601   4.989   2.469
    2MOL1     C 2704   0.646   5.158   2.440
    2MOL1    Cl 2705   0.645   5.194   2.267
    2MOL1    Cl 2706   0.537   5.267   2.527
    2MOL1     H 2707   0.747   5.173   2.478
    2MOL1    Cl 2708   2.712   5.091   4.377
    2MOL1     C 2709   2.860   5.182   4.411
    2MOL1    Cl 2710   3.000   5.074   4.417
    2MOL1    Cl 2711   2.885   5.309   4.290
    2MOL1     H 2712   2.849   5.230   4.509
    2MOL1    Cl 2713   4.351   4.305   1.740
    2MOL1     C 2714   4.460   4.181   1.803
    2MOL1    Cl 2715   4.509   4.218   1.969
    2MOL1    Cl 2716   4.384   4.021   1.795
    2MOL1     H 2717   4.550   4.179   1.740
    2MOL1    Cl 2718   3.318   3.837   4.823
    2MOL1     C 2719   3.284   3.669   4.870
    2MOL1    Cl 2720   3.376   3.625   5.015
    2MOL1    Cl 2721   3.110   3.647   4.898
    2MOL1     H 2722   3.314   3.604   4.788
    2MOL1    Cl 2723   2.895   0.423   4.270
    2MOL1     C 2724   2.770   0.529   4.337
    2MOL1    Cl 2725   2.812   0.699   4.311
    2MOL1    Cl 2726   2.612   0.493   4.265
    2MOL1     H 2727   2.763   0.511   4.444
    2MOL1    Cl 2728   3.489   3.240   1.760
    2MOL1     C 2729   3.351   3.339   1.809
    2MOL1    Cl 2730   3.289   3.286   1.967
    2MOL1    Cl 2731   3.394   3.510   1.814
    2MOL1     H 2732   3.271   3.325   1.736
    2MOL1    Cl 2733   0.165   3.184   3.598
    2MOL1     C 2734   0.107   3.019   3.625
    2MOL1    Cl 2735   0.203   2.903   3.533
    2MOL1    Cl 2736   0.109   2.980   3.798
    2MOL1     H 2737   0.003   3.014   3.590
    2MOL1    Cl 2738   1.594   3.958   3.211
    2MOL1     C 2739   1.513   3.842   3.104
    2MOL1    Cl 2740   1.404   3.737   3.196
    2MOL1    Cl 2741   1.424   3.926   2.976
    2MOL1     H 2742   1.590   3.779   3.057
    2MOL1    Cl 2743   2.812   4.358   1.638
    2MOL1     C 2744   2.868   4.226   1.741
    2MOL1    Cl 2745   2.956   4.289   1.881
    2MOL1    Cl 2746   2.732   4.125   1.792
    2MOL1     H 2747   2.936   4.163   1.683
    2MOL1    Cl 2748   5.086   1.826   2.955
    2MOL1     C 2749   5.134   1.655   2.961
    2MOL1    Cl 2750   5.190   1.601   2.802
    2MOL1    Cl 2751   5.260   1.631   3.083
    2MOL1     H 2752   5.047   1.596   2.989
    2MOL1    Cl 2753   4.369   3.314   3.063
    2MOL1     C 2754   4.417   3.457   2.969
    2MOL1    Cl 2755   4.514   3.567   3.069
    2MOL1    Cl 2756   4.507   3.409   2.824
    2MOL1     H 2757   4.327   3.510   2.938
    2MOL1    Cl 2758   2.774   4.782   2.689
    2MOL1     C 2759   2.735   4.955   2.678
    2MOL1    Cl 2760   2.562   4.982   2.704
    2MOL1    Cl 2761   2.831   5.047   2.796
    2MOL1     H 2762   2.761   4.990   2.578
    2MOL1    Cl 2763   3.209   3.211   2.413
    2MOL1     C 2764   3.034   3.215   2.440
    2MOL1    Cl 2765   2.961   3.352   2.355
    2MOL1    Cl 2766   2.959   3.063   2.388
    2MOL1     H 2767   3.016   3.227   2.547
    2MOL1    Cl 2768   1.968   3.487   4.315
    2MOL1     C 2769   1.937   3.511   4.143
    2MOL1    Cl 2770   2.076   3.461   4.046
    2MOL1    Cl 2771   1.791   3.423   4.093
    2MOL1     H 2772   1.920   3.618   4.125
    2MOL1    Cl 2773   4.864   1.614   0.545
    2MOL1     C 2774   4.894   1.775   0.612
    2MOL1    Cl 2775   5.010   1.863   0.511
    2MOL1    Cl 2776   4.742   1.866   0.625
    2MOL1     H 2777   4.936   1.764   0.712
    2MOL1    Cl 2778   2.055   3.137   2.247
    2MOL1     C 2779   2.086   3.058   2.091
    2MOL1    Cl 2780   2.252   3.090   2.037
    2MOL1    Cl 2781   2.057   2.883   2.104
    2MOL1     H 2782   2.017   3.099   2.017
    2MOL1    Cl 2783   1.910   1.089   5.019
    2MOL1     C 2784   1.993   0.941   4.967
    2MOL1    Cl 2785   1.910   0.869   4.828
    2MOL1    Cl 2786   2.162   0.976   4.928
    2MOL1     H 2787   1.990   0.870   5.050
    2MOL1    Cl 2788   0.139   5.094   3.950
    2MOL1     C 2789   0.312   5.094   3.987
    2MOL1    Cl 2790   0.360   5.245   4.067
    2MOL1    Cl 2791   0.354   4.954   4.087
    2MOL1     H 2792   0.367   5.086   3.893
    2MOL1    Cl 2793   1.772   4.362   1.658
    2MOL1     C 2794   1.682   4.502   1.718
    2MOL1    Cl 2795   1.574   4.565   1.592
    2MOL1    Cl 2796   1.589   4.459   1.863
    2MOL1     H 2797   1.753   4.580   1.745
    2MOL1    Cl 2798   4.723   0.839   4.091
    2MOL1     C 2799   4.849   0.898   4.200
    2MOL1    Cl 2800   4.894   1.065   4.160
    2MOL1    Cl 2801   4.795   0.887   4.369
    2MOL1     H 2802   4.937   0.835   4.189
    2MOL1    Cl 2803   2.401   3.162   0.399
    2MOL1     C 2804   2.359   3.300   0.297
    2MOL1    Cl 2805   2.204   3.271   0.214
    2MOL1    Cl 2806   2.351   3.449   0.393
    2MOL1     H 2807   2.436   3.312   0.221
    2MOL1    Cl 2808   2.532   4.288   1.462
    2MOL1     C 2809   2.675   4.269   1.360
    2MOL1    Cl 2810   2.723   4.424   1.290
    2MOL1    Cl 2811   2.809   4.198   1.452
    2MOL1     H 2812   2.650   4.201   1.278
    2MOL1    Cl 2813   1.733   0.666   3.984
    2MOL1     C 2814   1.663   0.825   3.947
    2MOL1    Cl 2815   1.757   0.906   3.820
    2MOL1    Cl 2816   1.494   0.808   3.898
    2MOL1     H 2817   1.668   0.886   4.037
    2MOL1    Cl 2818   1.612   1.190   2.719
    2MOL1     C 2819   1.630   1.089   2.864
    2MOL1    Cl 2820   1.725   1.173   2.988
    2MOL1    Cl 2821   1.471   1.044   2.928
    2MOL1     H 2822   1.682   0.998   2.836
    2MOL1    Cl 2823   1.868   3.263   3.559
    2MOL1     C 2824   2.006   3.203   3.466
    2MOL1    Cl 2825   2.137   3.154   3.573
    2MOL1    Cl 2826   1.957   3.069   3.361
    2MOL1     H 2827   2.042   3.285   3.402
    2MOL1    Cl 2828   3.857   4.259   2.933
    2MOL1     C 2829   3.829   4.322   3.096
    2MOL1    Cl 2830   3.798   4.496   3.092
    2MOL1    Cl 2831   3.694   4.236   3.173
    2MOL1     H 2832   3.919   4.304   3.156
    2MOL1    Cl 2833   2.722   5.072   0.345
    2MOL1     C 2834   2.671   5.116   0.509
    2MOL1    Cl 2835   2.756   5.261   0.565
    2MOL1    Cl 2836   2.495   5.141   0.514
    2MOL1     H 2837   2.695   5.034   0.576
    2MOL1    Cl 2838   1.549   3.725   4.002
    2MOL1     C 2839   1.658   3.809   4.113
    2MOL1    Cl 2840   1.596   3.971   4.150
    2MOL1    Cl 2841   1.680   3.716   4.262
    2MOL1     H 2842   1.755   3.819   4.065
    2MOL1    Cl 2843   2.501   2.233   1.235
    2MOL1     C 2844   2.360   2.247   1.342
    2MOL1    Cl 2845   2.223   2.317   1.255
    2MOL1    Cl 2846   2.317   2.089   1.410
    2MOL1     H 2847   2.387   2.314   1.425
    2MOL1    Cl 2848   2.061   1.298   2.293
    2MOL1     C 2849   1.994   1.250   2.136
    2MOL1    Cl 2850   2.108   1.286   2.006
    2MOL1    Cl 2851   1.953   1.077   2.137
    2MOL1     H 2852   1.902   1.307   2.119
    2MOL1    Cl 2853   2.448   2.921   0.412
    2MOL1     C 2854   2.302   2.856   0.335
    2MOL1    Cl 2855   2.186   2.802   0.458
    2MOL1    Cl 2856   2.229   2.977   0.229
    2MOL1     H 2857   2.330   2.770   0.275
    2MOL1    Cl 2858   3.449   2.606   4.342
    2MOL1     C 2859   3.602   2.515   4.350
    2MOL1    Cl 2860   3.600   2.403   4.487
    2MOL1    Cl 2861   3.631   2.428   4.198
    2MOL1     H 2862   3.683   2.587   4.365
    2MOL1    Cl 2863   0.851   0.292   1.871
    2MOL1     C 2864   0.703   0.313   1.967
    2MOL1    Cl 2865   0.699   0.474   2.041
    2MOL1    Cl 2866   0.560   0.287   1.866
    2MOL1     H 2867   0.702   0.238   2.047
    2MOL1    Cl 2868   4.367   4.967   0.913
    2MOL1     C 2869   4.282   4.859   0.802
    2MOL1    Cl 2870   4.149   4.944   0.721
    2MOL1    Cl 2871   4.394   4.792   0.682
    2MOL1     H 2872   4.240   4.776   0.859
    2MOL1    Cl 2873   0.181   4.428   1.166
    2MOL1     C 2874   0.300   4.321   1.090
    2MOL1    Cl 2875   0.460   4.396   1.091
    2MOL1    Cl 2876   0.304   4.164   1.171
    2MOL1     H 2877   0.270   4.305   0.986
    2MOL1    Cl 2878   2.411   2.315   3.807
    2MOL1     C 2879   2.244   2.371   3.790
    2MOL1    Cl 2880   2.137   2.284   3.901
    2MOL1    Cl 2881   2.235   2.546   3.818
    2MOL1     H 2882   2.211   2.351   3.688
    2MOL1    Cl 2883   0.608   4.167   1.125
    2MOL1     C 2884   0.566   4.073   1.269
    2MOL1    Cl 2885   0.712   4.021   1.355
    2MOL1    Cl 2886   0.460   4.167   1.376
    2MOL1     H 2887   0.511   3.984   1.237
    2MOL1    Cl 2888   1.184   3.962   0.354
    2MOL1     C 2889   1.351   3.914   0.320
    2MOL1    Cl 2890   1.378   3.903   0.145
    2MOL1    Cl 2891   1.464   4.030   0.393
    2MOL1     H 2892   1.368   3.816   0.364
    2MOL1    Cl 2893   3.161   2.283   2.558
    2MOL1     C 2894   3.195   2.111   2.584
    2MOL1    Cl 2895   3.090   2.045   2.710
    2MOL1    Cl 2896   3.175   2.020   2.433
    2MOL1     H 2897   3.299   2.101   2.617
    2MOL1    Cl 2898   1.974   2.627   2.407
    2MOL1     C 2899   1.902   2.756   2.504
    2MOL1    Cl 2900   1.727   2.765   2.475
    2MOL1    Cl 2901   1.935   2.731   2.676
    2MOL1     H 2902   1.947   2.851   2.474
    2MOL1    Cl 2903   3.326   4.982   2.124
    2MOL1     C 2904   3.410   5.137   2.111
    2MOL1    Cl 2905   3.546   5.124   1.998
    2MOL1    Cl 2906   3.298   5.264   2.059
    2MOL1     H 2907   3.450   5.163   2.209
    2MOL1    Cl 2908   0.894   2.370   4.429
    2MOL1     C 2909   0.985   2.522   4.427
    2MOL1    Cl 2910   1.126   2.508   4.321
    2MOL1    Cl 2911   0.882   2.657   4.377
    2MOL1     H 2912   1.021   2.542   4.529
    2MOL1    Cl 2913   4.537   3.779   5.008
    2MOL1     C 2914   4.648   3.901   4.944
    2MOL1    Cl 2915   4.705   3.855   4.783
    2MOL1    Cl 2916   4.570   4.060   4.940
    2MOL1     H 2917   4.734   3.907   5.011
    2MOL1    Cl 2918   5.016   2.030   4.118
    2MOL1     C 2919   4.922   1.888   4.166
    2MOL1    Cl 2920   4.810   1.841   4.037
    2MOL1    Cl 2921   5.029   1.753   4.207
    2MOL1     H 2922   4.863   1.913   4.255
    2MOL1    Cl 2923   4.078   2.369   2.623
    2MOL1     C 2924   4.065   2.322   2.793
    2MOL1    Cl 2925   3.908   2.371   2.859
    2MOL1    Cl 2926   4.088   2.147   2.811
    2MOL1     H 2927   4.144   2.373   2.849
    2MOL1    Cl 2928   1.422   2.661   5.210
    2MOL1     C 2929   1.457   2.831   5.176
    2MOL1    Cl 2930   1.430   2.930   5.321
    2MOL1    Cl 2931   1.623   2.851   5.118
    2MOL1     H 2932   1.389   2.866   5.098
    2MOL1    Cl 2933   3.825   2.104   2.994
    2MOL1     C 2934   3.701   2.172   3.100
    2MOL1    Cl 2935   3.550   2.198   3.011
    2MOL1    Cl 2936   3.674   2.067   3.240
    2MOL1     H 2937   3.737   2.269   3.136
    2MOL1    Cl 2938   2.703   4.770   1.131
    2MOL1     C 2939   2.786   4.897   1.039
    2MOL1    Cl 2940   2.847   4.833   0.886
    2MOL1    Cl 2941   2.677   5.033   1.010
    2MOL1     H 2942   2.871   4.932   1.098
    2MOL1    Cl 2943   1.386   3.502   0.956
    2MOL1     C 2944   1.529   3.604   0.934
    2MOL1    Cl 2945   1.510   3.757   1.022
    2MOL1    Cl 2946   1.675   3.519   0.988
    2MOL1     H 2947   1.539   3.626   0.828
    2MOL1    Cl 2948   5.131   3.053   5.168
    2MOL1     C 2949   5.076   3.220   5.146
    2MOL1    Cl 2950   5.087   3.267   4.975
    2MOL1    Cl 2951   4.910   3.240   5.205
    2MOL1     H 2952   5.141   3.286   5.204
    2MOL1    Cl 2953   2.989   5.183   3.058
    2MOL1     C 2954   2.918   5.021   3.071
    2MOL1    Cl 2955   2.746   5.025   3.029
    2MOL1    Cl 2956   3.006   4.907   2.967
    2MOL1     H 2957   2.928   4.988   3.175
    2MOL1    Cl 2958   4.741   3.710   3.561
    2MOL1     C 2959   4.796   3.851   3.653
    2MOL1    Cl 2960   4.659   3.956   3.692
    2MOL1    Cl 2961   4.880   3.801   3.801
    2MOL1     H 2962   4.866   3.907   3.591
    2MOL1    Cl 2963   1.778   1.021   3.212
    2MOL1     C 2964   1.603   1.004   3.195
    2MOL1    Cl 2965   1.528   1.161   3.161
    2MOL1    Cl 2966   1.563   0.888   3.068
    2MOL1     H 2967   1.563   0.967   3.290
    2MOL1    Cl 2968   3.489   2.804   4.562
    2MOL1     C 2969   3.331   2.730   4.592
    2MOL1    Cl 2970   3.347   2.590   4.699
    2MOL1    Cl 2971   3.218   2.849   4.661
    2MOL1     H 2972   3.290   2.696   4.496
    2MOL1    Cl 2973   2.510   4.243   0.638
    2MOL1     C 2974   2.362   4.319   0.576
    2MOL1    Cl 2975   2.321   4.255   0.416
    2MOL1    Cl 2976   2.228   4.294   0.690
    2MOL1     H 2977   2.380   4.426   0.568
    2MOL1    Cl 2978   3.144   1.684   0.162
    2MOL1     C 2979   3.245   1.601   0.281
    2MOL1    Cl 2980   3.191   1.640   0.446
    2MOL1    Cl 2981   3.241   1.425   0.255
    2MOL1     H 2982   3.348   1.635   0.270
    2MOL1    Cl 2983   2.158   1.812   4.084
    2MOL1     C 2984   2.314   1.785   4.005
    2MOL1    Cl 2985   2.290   1.741   3.835
    2MOL1    Cl 2986   2.416   1.930   4.018
    2MOL1     H 2987   2.365   1.703   4.055
    2MOL1    Cl 2988   1.341   1.138   2.705
    2MOL1     C 2989   1.326   0.963   2.678
    2MOL1    Cl 2990   1.196   0.929   2.562
    2MOL1    Cl 2991   1.479   0.895   2.621
    2MOL1     H 2992   1.300   0.916   2.773
    2MOL1    Cl 2993   2.909   4.464   5.182
    2MOL1     C 2994   2.824   4.310   5.162
    2MOL1    Cl 2995   2.682   4.330   5.058
    2MOL1    Cl 2996   2.933   4.186   5.096
    2MOL1     H 2997   2.790   4.277   5.260
    2MOL1    Cl 2998   2.282   4.597   1.391
    2MOL1     C 2999   2.284   4.525   1.553
    2MOL1    Cl 3000   2.268   4.349   1.543
    2MOL1    Cl 3001   2.432   4.570   1.640
    2MOL1     H 3002   2.198   4.564   1.609
    2MOL1    Cl 3003   1.129   2.438   5.098
    2MOL1     C 3004   0.987   2.532   5.148
    2MOL1    Cl 3005   0.846   2.488   5.051
    2MOL1    Cl 3006   0.955   2.508   5.320
    2MOL1     H 3007   1.009   2.638   5.131
    2MOL1    Cl 3008   1.738   1.332   1.901
    2MOL1     C 3009   1.653   1.181   1.861
    2MOL1    Cl 3010   1.648   1.157   1.686
    2MOL1    Cl 3011   1.730   1.043   1.941
    2MOL1     H 3012   1.550   1.189   1.898
    2MOL1    Cl 3013   0.592   3.551   3.772
    2MOL1     C 3014   0.543   3.625   3.619
    2MOL1    Cl 3015   0.683   3.691   3.534
    2MOL1    Cl 3016   0.458   3.507   3.518
    2MOL1     H 3017   0.474   3.707   3.641
    2MOL1    Cl 3018   0.251   0.000   3.907
    2MOL1     C 3019   0.307   0.154   3.841
    2MOL1    Cl 3020   0.449   0.130   3.738
    2MOL1    Cl 3021   0.177   0.234   3.750
    2MOL1     H 3022   0.335   0.219   3.924
    2MOL1    Cl 3023   4.135   5.252   3.395
    2MOL1     C 3024   4.277   5.209   3.298
    2MOL1    Cl 3025   4.405   5.142   3.400
    2MOL1    Cl 3026   4.232   5.094   3.170
    2MOL1     H 3027   4.314   5.300   3.250
    2MOL1    Cl 3028   3.165   3.878   1.566
    2MOL1     C 3029   3.261   4.026   1.547
    2MOL1    Cl 3030   3.282   4.107   1.703
    2MOL1    Cl 3031   3.418   3.989   1.474
    2MOL1     H 3032   3.207   4.093   1.481
    2MOL1    Cl 3033   4.534   4.164   3.917
    2MOL1     C 3034   4.647   4.249   3.810
    2MOL1    Cl 3035   4.592   4.240   3.642
    2MOL1    Cl 3036   4.666   4.418   3.861
    2MOL1     H 3037   4.744   4.200   3.817
    2MOL1    Cl 3038   1.016   3.832   0.305
    2MOL1     C 3039   0.891   3.925   0.389
    2MOL1    Cl 3040   0.954   3.991   0.541
    2MOL1    Cl 3041   0.829   4.055   0.286
    2MOL1     H 3042   0.808   3.858   0.413
    2MOL1    Cl 3043   4.940   2.308   5.121
    2MOL1     C 3044   5.113   2.341   5.110
    2MOL1    Cl 3045   5.192   2.225   5.002
    2MOL1    Cl 3046   5.142   2.507   5.055
    2MOL1     H 3047   5.157   2.330   5.210
    2MOL1    Cl 3048   1.190   5.078   2.498
    2MOL1     C 3049   1.023   5.133   2.477
    2MOL1    Cl 3050   1.017   5.273   2.368
    2MOL1    Cl 3051   0.921   5.002   2.416
    2MOL1     H 3052   0.985   5.164   2.574
    2MOL1    Cl 3053   1.149   1.155   4.160
    2MOL1     C 3054   1.000   1.242   4.195
    2MOL1    Cl 3055   0.894   1.146   4.300
    2MOL1    Cl 3056   1.035   1.399   4.270
    2MOL1     H 3057   0.947   1.260   4.101
    2MOL1    Cl 3058   3.895   2.651   4.388
    2MOL1     C 3059   3.903   2.704   4.219
    2MOL1    Cl 3060   3.866   2.569   4.110
    2MOL1    Cl 3061   3.793   2.840   4.191
    2MOL1     H 3062   4.005   2.738   4.199
    2MOL1    Cl 3063   2.145   3.533   5.190
    2MOL1     C 3064   2.321   3.521   5.209
    2MOL1    Cl 3065   2.384   3.661   5.297
    2MOL1    Cl 3066   2.365   3.371   5.292
    2MOL1     H 3067   2.366   3.520   5.109
    2MOL1    Cl 3068   1.425   0.670   1.055
    2MOL1     C 3069   1.292   0.607   0.957
    2MOL1    Cl 3070   1.305   0.431   0.939
    2MOL1    Cl 3071   1.136   0.651   1.028
    2MOL1     H 3072   1.298   0.652   0.857
    2MOL1    Cl 3073   0.466   3.732   0.750
    2MOL1     C 3074   0.336   3.742   0.631
    2MOL1    Cl 3075   0.326   3.592   0.536
    2MOL1    Cl 3076   0.181   3.774   0.710
    2MOL1     H 3077   0.358   3.824   0.563
    2MOL1    Cl 3078   3.067   1.646   3.534
    2MOL1     C 3079   3.207   1.741   3.480
    2MOL1    Cl 3080   3.299   1.652   3.357
    2MOL1    Cl 3081   3.155   1.898   3.417
    2MOL1     H 3082   3.272   1.758   3.566
    2MOL1    Cl 3083   2.770   4.577   0.251
    2MOL1     C 3084   2.816   4.737   0.311
    2MOL1    Cl 3085   2.943   4.808   0.209
    2MOL1    Cl 3086   2.675   4.844   0.319
    2MOL1     H 3087   2.856   4.726   0.412
    2MOL1    Cl 3088   3.706   3.324   3.353
    2MOL1     C 3089   3.672   3.489   3.408
    2MOL1    Cl 3090   3.523   3.493   3.504
    2MOL1    Cl 3091   3.808   3.552   3.503
    2MOL1     H 3092   3.658   3.552   3.321
    2MOL1    Cl 3093   3.076   4.025   1.087
    2MOL1     C 3094   2.925   3.978   1.008
    2MOL1    Cl 3095   2.951   3.954   0.834
    2MOL1    Cl 3096   2.858   3.832   1.082
    2MOL1     H 3097   2.853   4.059   1.021
    2MOL1    Cl 3098   4.355   4.226   1.116
    2MOL1     C 3099   4.489   4.334   1.158
    2MOL1    Cl 3100   4.630   4.242   1.214
    2MOL1    Cl 3101   4.532   4.436   1.020
    2MOL1     H 3102   4.456   4.399   1.239
    2MOL1    Cl 3103   4.758   3.168   0.212
    2MOL1     C 3104   4.628   3.058   0.260
    2MOL1    Cl 3105   4.500   3.055   0.138
    2MOL1    Cl 3106   4.692   2.895   0.287
    2MOL1     H 3107   4.585   3.094   0.354
    2MOL1    Cl 3108   2.879   0.848   2.213
    2MOL1     C 3109   2.886   1.021   2.250
    2MOL1    Cl 3110   2.744   1.070   2.345
    2MOL1    Cl 3111   3.035   1.060   2.338
    2MOL1     H 3112   2.886   1.077   2.156
    2MOL1    Cl 3113   3.281   4.608   3.051
    2MOL1     C 3114   3.452   4.621   3.007
    2MOL1    Cl 3115   3.536   4.467   3.034
    2MOL1    Cl 3116   3.469   4.673   2.839
    2MOL1     H 3117   3.499   4.697   3.071
    2MOL1    Cl 3118   3.745   3.351   4.023
    2MOL1     C 3119   3.767   3.509   3.947
    2MOL1    Cl 3120   3.898   3.504   3.828
    2MOL1    Cl 3121   3.616   3.563   3.870
    2MOL1     H 3122   3.793   3.582   4.024
    2MOL1    Cl 3123   4.235   0.155   0.197
    2MOL1     C 3124   4.178   0.321   0.214
    2MOL1    Cl 3125   4.296   0.434   0.144
    2MOL1    Cl 3126   4.020   0.341   0.138
    2MOL1     H 3127   4.168   0.344   0.320
    2MOL1    Cl 3128   3.383   3.260   3.503
    2MOL1     C 3129   3.259   3.138   3.469
    2MOL1    Cl 3130   3.117   3.213   3.393
    2MOL1    Cl 3131   3.325   3.010   3.365
    2MOL1     H 3132   3.228   3.093   3.563
    2MOL1    Cl 3133   0.468   2.502   2.002
    2MOL1     C 3134   0.557   2.618   1.902
    2MOL1    Cl 3135   0.624   2.748   2.002
    2MOL1    Cl 3136   0.686   2.536   1.812
    2MOL1     H 3137   0.487   2.662   1.830
    2MOL1    Cl 3138   5.151   4.470   3.008
    2MOL1     C 3139   5.182   4.296   3.011
    2MOL1    Cl 3140   5.328   4.260   3.104
    2MOL1    Cl 3141   5.043   4.209   3.078
    2MOL1     H 3142   5.197   4.262   2.908
    2MOL1    Cl 3143   2.450   3.568   1.663
    2MOL1     C 3144   2.338   3.515   1.535
    2MOL1    Cl 3145   2.424   3.496   1.382
    2MOL1    Cl 3146   2.259   3.364   1.581
    2MOL1     H 3147   2.262   3.592   1.523
    2MOL1    Cl 3148   5.053   1.369   2.272
    2MOL1     C 3149   5.078   1.353   2.446
    2MOL1    Cl 3150   5.134   1.189   2.486
    2MOL1    Cl 3151   5.192   1.474   2.505
    2MOL1     H 3152   4.982   1.369   2.496
    2MOL1    Cl 3153   4.308   3.148   4.139
    2MOL1     C 3154   4.189   3.126   4.010
    2MOL1    Cl 3155   4.264   3.047   3.870
    2MOL1    Cl 3156   4.051   3.032   4.068
    2MOL1     H 3157   4.153   3.224   3.978
    2MOL1    Cl 3158   1.639   3.375   3.385
    2MOL1     C 3159   1.588   3.525   3.465
    2MOL1    Cl 3160   1.688   3.558   3.607
    2MOL1    Cl 3161   1.594   3.661   3.351
    2MOL1     H 3162   1.484   3.513   3.498
    2MOL1    Cl 3163   2.447   3.412   2.611
    2MOL1     C 3164   2.542   3.264   2.627
    2MOL1    Cl 3165   2.484   3.139   2.515
    2MOL1    Cl 3166   2.714   3.297   2.598
    2MOL1     H 3167   2.531   3.226   2.729
    2MOL1    Cl 3168   1.859   2.976   0.264
    2MOL1     C 3169   1.934   2.863   0.152
    2MOL1    Cl 3170   1.817   2.807   0.031
    2MOL1    Cl 3171   2.075   2.937   0.073
    2MOL1     H 3172   1.969   2.776   0.209
    2MOL1    Cl 3173   4.799   0.706   3.003
    2MOL1     C 3174   4.821   0.820   2.870
    2MOL1    Cl 3175   4.707   0.955   2.883
    2MOL1    Cl 3176   4.988   0.880   2.866
    2MOL1     H 3177   4.801   0.767   2.776
    2MOL1    Cl 3178   4.728   2.130   1.255
    2MOL1     C 3179   4.884   2.048   1.272
    2MOL1    Cl 3180   4.941   1.989   1.114
    2MOL1    Cl 3181   5.004   2.156   1.344
    2MOL1     H 3182   4.871   1.962   1.338
    2MOL1    Cl 3183   3.237   3.892   0.439
    2MOL1     C 3184   3.234   4.067   0.412
    2MOL1    Cl 3185   3.370   4.117   0.311
    2MOL1    Cl 3186   3.080   4.115   0.338
    2MOL1     H 3187   3.242   4.117   0.509
    2MOL1    Cl 3188   2.688   4.206   3.591
    2MOL1     C 3189   2.697   4.030   3.615
    2MOL1    Cl 3190   2.720   3.992   3.786
    2MOL1    Cl 3191   2.551   3.951   3.552
    2MOL1     H 3192   2.783   3.993   3.559
    2MOL1    Cl 3193   2.144   4.416   2.253
    2MOL1     C 3194   2.030   4.546   2.216
    2MOL1    Cl 3195   2.093   4.702   2.272
    2MOL1    Cl 3196   1.996   4.552   2.042
    2MOL1     H 3197   1.936   4.526   2.269
    2MOL1    Cl 3198   1.603   1.767   0.864
    2MOL1     C 3199   1.588   1.787   0.688
    2MOL1    Cl 3200   1.617   1.633   0.605
    2MOL1    Cl 3201   1.428   1.851   0.646
    2MOL1     H 3202   1.664   1.859   0.655
    2MOL1    Cl 3203   0.094   2.927   4.406
    2MOL1     C 3204   0.249   2.850   4.370
    2MOL1    Cl 3205   0.313   2.770   4.515
    2MOL1    Cl 3206   0.232   2.734   4.238
    2MOL1     H 3207   0.320   2.928   4.340
    2MOL1    Cl 3208   0.349   1.691   4.656
    2MOL1     C 3209   0.493   1.621   4.730
    2MOL1    Cl 3210   0.461   1.456   4.785
    2MOL1    Cl 3211   0.630   1.624   4.617
    2MOL1     H 3212   0.520   1.682   4.817
    2MOL1    Cl 3213   4.868   2.768   0.452
    2MOL1     C 3214   4.965   2.837   0.583
    2MOL1    Cl 3215   4.866   2.947   0.682
    2MOL1    Cl 3216   5.034   2.709   0.684
    2MOL1     H 3217   5.047   2.894   0.539
    2MOL1    Cl 3218   2.226   4.223   5.006
    2MOL1     C 3219   2.210   4.233   4.830
    2MOL1    Cl 3220   2.249   4.397   4.773
    2MOL1    Cl 3221   2.315   4.114   4.751
    2MOL1     H 3222   2.107   4.211   4.803
    2MOL1    Cl 3223   2.973   3.637   3.253
    2MOL1     C 3224   3.074   3.491   3.251
    2MOL1    Cl 3225   3.015   3.376   3.130
    2MOL1    Cl 3226   3.243   3.534   3.220
    2MOL1     H 3227   3.068   3.444   3.349
    2MOL1    Cl 3228   3.084   4.482   0.355
    2MOL1     C 3229   2.965   4.357   0.396
    2MOL1    Cl 3230   3.027   4.251   0.524
    2MOL1    Cl 3231   2.811   4.430   0.444
    2MOL1     H 3232   2.948   4.296   0.307
    2MOL1    Cl 3233   3.278   4.562   0.461
    2MOL1     C 3234   3.440   4.493   0.474
    2MOL1    Cl 3235   3.507   4.520   0.636
    2MOL1    Cl 3236   3.437   4.320   0.436
    2MOL1     H 3237   3.504   4.543   0.402
    2MOL1    Cl 3238   2.379   3.926   1.004
    2MOL1     C 3239   2.401   3.752   1.027
    2MOL1    Cl 3240   2.570   3.714   1.063
    2MOL1    Cl 3241   2.294   3.692   1.155
    2MOL1     H 3242   2.374   3.701   0.933
    2MOL1    Cl 3243   4.124   3.758   3.810
    2MOL1     C 3244   4.088   3.916   3.738
    2MOL1    Cl 3245   3.971   4.004   3.837
    2MOL1    Cl 3246   4.236   4.011   3.718
    2MOL1     H 3247   4.044   3.900   3.639
    2MOL1    Cl 3248   5.309   4.905   4.290
    2MOL1     C 3249   5.216   4.782   4.201
    2MOL1    Cl 3250   5.069   4.739   4.291
    2MOL1    Cl 3251   5.175   4.841   4.039
    2MOL1     H 3252   5.278   4.693   4.191
    2MOL1    Cl 3253   4.012   0.301   3.522
    2MOL1     C 3254   4.186   0.317   3.548
    2MOL1    Cl 3255   4.221   0.452   3.657
    2MOL1    Cl 3256   4.253   0.166   3.614
    2MOL1     H 3257   4.234   0.337   3.452
    2MOL1    Cl 3258   2.291   2.735   3.401
    2MOL1     C 3259   2.454   2.685   3.449
    2MOL1    Cl 3260   2.461   2.651   3.623
    2MOL1    Cl 3261   2.506   2.542   3.356
    2MOL1     H 3262   2.524   2.766   3.427
    2MOL1    Cl 3263   5.161   4.674   2.588
    2MOL1     C 3264   5.002   4.651   2.662
    2MOL1    Cl 3265   5.016   4.648   2.839
    2MOL1    Cl 3266   4.889   4.777   2.610
    2MOL1     H 3267   4.963   4.554   2.629
    2MOL1    Cl 3268   2.518   0.888   1.989
    2MOL1     C 3269   2.364   0.844   2.065
    2MOL1    Cl 3270   2.314   0.682   2.015
    2MOL1    Cl 3271   2.377   0.855   2.241
    2MOL1     H 3272   2.288   0.916   2.031
    2MOL1    Cl 3273   0.339   2.485   3.114
    2MOL1     C 3274   0.266   2.334   3.057
    2MOL1    Cl 3275   0.392   2.218   3.009
    2MOL1    Cl 3276   0.161   2.264   3.181
    2MOL1     H 3277   0.205   2.356   2.969
    2MOL1    Cl 3278   0.926   3.969   1.050
    2MOL1     C 3279   1.084   4.045   1.081
    2MOL1    Cl 3280   1.098   4.197   0.992
    2MOL1    Cl 3281   1.107   4.072   1.255
    2MOL1     H 3282   1.162   3.977   1.046
    2MOL1    Cl 3283   2.749   3.025   0.802
    2MOL1     C 3284   2.589   3.063   0.737
    2MOL1    Cl 3285   2.468   2.948   0.798
    2MOL1    Cl 3286   2.543   3.229   0.777
    2MOL1     H 3287   2.593   3.053   0.628
    2MOL1    Cl 3288   0.729   0.680   0.982
    2MOL1     C 3289   0.586   0.611   0.903
    2MOL1    Cl 3290   0.559   0.687   0.745
    2MOL1    Cl 3291   0.604   0.436   0.886
    2MOL1     H 3292   0.499   0.631   0.966
    2MOL1    Cl 3293   5.057   2.290   3.198
    2MOL1     C 3294   5.032   2.134   3.277
    2MOL1    Cl 3295   5.187   2.050   3.301
    2MOL1    Cl 3296   4.948   2.154   3.431
    2MOL1     H 3297   4.970   2.072   3.212
    2MOL1    Cl 3298   2.640   1.044   3.642
    2MOL1     C 3299   2.539   1.011   3.500
    2MOL1    Cl 3300   2.598   0.867   3.415
    2MOL1    Cl 3301   2.370   0.990   3.548
    2MOL1     H 3302   2.546   1.096   3.432
    2MOL1    Cl 3303   5.183   0.981   2.328
    2MOL1     C 3304   5.061   1.043   2.216
    2MOL1    Cl 3305   4.959   1.164   2.297
    2MOL1    Cl 3306   5.138   1.113   2.072
    2MOL1     H 3307   4.998   0.960   2.185
    2MOL1    Cl 3308   3.957   0.711   4.498
    2MOL1     C 3309   3.958   0.535   4.519
    2MOL1    Cl 3310   4.092   0.485   4.623
    2MOL1    Cl 3311   3.803   0.480   4.587
    2MOL1     H 3312   3.971   0.489   4.421
    2MOL1    Cl 3313   4.979   0.774   5.007
    2MOL1     C 3314   5.113   0.875   5.062
    2MOL1    Cl 3315   5.056   0.997   5.178
    2MOL1    Cl 3316   5.240   0.775   5.135
    2MOL1     H 3317   5.155   0.927   4.976
    2MOL1    Cl 3318   2.794   0.445   1.558
    2MOL1     C 3319   2.905   0.579   1.524
    2MOL1    Cl 3320   3.070   0.519   1.498
    2MOL1    Cl 3321   2.850   0.671   1.383
    2MOL1     H 3322   2.906   0.646   1.610
    2MOL1    Cl 3323   1.984   1.359   3.974
    2MOL1     C 3324   2.073   1.340   3.822
    2MOL1    Cl 3325   2.226   1.429   3.827
    2MOL1    Cl 3326   2.101   1.169   3.786
    2MOL1     H 3327   2.012   1.382   3.741
    2MOL1    Cl 3328   3.417   1.515   2.054
    2MOL1     C 3329   3.510   1.366   2.072
    2MOL1    Cl 3330   3.653   1.394   2.173
    2MOL1    Cl 3331   3.409   1.237   2.141
    2MOL1     H 3332   3.544   1.333   1.973
    2MOL1    Cl 3333   4.020   2.032   4.340
    2MOL1     C 3334   3.885   2.147   4.350
    2MOL1    Cl 3335   3.875   2.243   4.202
    2MOL1    Cl 3336   3.733   2.062   4.381
    2MOL1     H 3337   3.904   2.215   4.434
    2MOL1    Cl 3338   1.346   2.515   4.226
    2MOL1     C 3339   1.435   2.369   4.272
    2MOL1    Cl 3340   1.344   2.224   4.226
    2MOL1    Cl 3341   1.596   2.368   4.200
    2MOL1     H 3342   1.446   2.369   4.381
    2MOL1    Cl 3343   1.084   0.603   1.927
    2MOL1     C 3344   1.127   0.474   2.040
    2MOL1    Cl 3345   1.292   0.497   2.101
    2MOL1    Cl 3346   1.012   0.467   2.175
    2MOL1     H 3347   1.123   0.379   1.987
    2MOL1    Cl 3348   3.059   0.260   4.112
    2MOL1     C 3349   3.186   0.367   4.171
    2MOL1    Cl 3350   3.243   0.315   4.331
    2MOL1    Cl 3351   3.321   0.373   4.056
    2MOL1     H 3352   3.145   0.468   4.181
    2MOL1    Cl 3353   3.410   2.987   0.217
    2MOL1     C 3354   3.547   2.915   0.304
    2MOL1    Cl 3355   3.591   2.759   0.232
    2MOL1    Cl 3356   3.686   3.025   0.303
    2MOL1     H 3357   3.517   2.898   0.407
    2MOL1    Cl 3358   4.372   3.313   0.275
    2MOL1     C 3359   4.246   3.235   0.179
    2MOL1    Cl 3360   4.281   3.250   0.006
    2MOL1    Cl 3361   4.230   3.064   0.225
    2MOL1     H 3362   4.151   3.285   0.199
    2MOL1    Cl 3363   2.197   1.993   4.467
    2MOL1     C 3364   2.281   1.944   4.319
    2MOL1    Cl 3365   2.224   2.040   4.181
    2MOL1    Cl 3366   2.456   1.961   4.338
    2MOL1     H 3367   2.258   1.839   4.299
  5.5400000  5.5400000  5.5400000
