FOO
 3367
    1PMP     C1    1   0.718   4.333   2.439
    1PMP     O2    2   0.615   4.235   2.458
    1PMP     C3    3   0.546   4.191   2.347
    1PMP     C4    4   0.547   4.253   2.221
    1PMP     C5    5   0.472   4.202   2.113
    1PMP     C6    6   0.467   4.271   1.981
    1PMP     C7    7   0.492   4.409   1.970
    1PMP     C8    8   0.478   4.476   1.848
    1PMP     C9    9   0.438   4.407   1.732
    1PMP    C10   10   0.416   4.478   1.604
    1PMP    O11   11   0.445   4.598   1.599
    1PMP    C12   12   0.419   4.269   1.742
    1PMP    C13   13   0.433   4.202   1.864
    1PMP    C14   14   0.398   4.084   2.135
    1PMP    C15   15   0.395   4.019   2.259
    1PMP    C16   16   0.317   3.895   2.279
    1PMP    C17   17   0.198   3.872   2.206
    1PMP    C18   18   0.125   3.754   2.223
    1PMP    C19   19   0.167   3.655   2.312
    1PMP    C20   20   0.085   3.529   2.326
    1PMP    C21   21   0.063   3.484   2.471
    1PMP    N22   22   0.147   3.420   2.252
    1PMP    C23   23   0.286   3.677   2.384
    1PMP    C24   24   0.359   3.795   2.368
    1PMP    C25   25   0.469   4.075   2.364
    1PMP    H26   26   0.668   4.426   2.409
    1PMP    H27   27   0.766   4.343   2.537
    1PMP    H28   28   0.786   4.293   2.364
    1PMP    H29   29   0.607   4.342   2.206
    1PMP    H30   30   0.519   4.469   2.057
    1PMP    H31   31   0.496   4.583   1.845
    1PMP    H32   32   0.391   4.211   1.654
    1PMP    H33   33   0.417   4.095   1.864
    1PMP    H34   34   0.340   4.042   2.054
    1PMP    H35   35   0.160   3.947   2.137
    1PMP    H36   36   0.035   3.740   2.164
    1PMP    H37   37  -0.015   3.548   2.284
    1PMP    H38   38   0.161   3.453   2.509
    1PMP    H39   39   0.022   3.570   2.523
    1PMP    H40   40  -0.008   3.401   2.465
    1PMP    H41   41   0.212   3.359   2.301
    1PMP    H42   42   0.324   3.601   2.451
    1PMP    H43   43   0.451   3.807   2.423
    1PMP    H44   44   0.465   4.031   2.463
    2PMP    C45   45   0.226   2.769   1.485
    2PMP    O46   46   0.276   2.677   1.582
    2PMP    C47   47   0.302   2.721   1.710
    2PMP    C48   48   0.269   2.849   1.760
    2PMP    C49   49   0.298   2.886   1.892
    2PMP    C50   50   0.257   3.017   1.949
    2PMP    C51   51   0.237   3.130   1.868
    2PMP    C52   52   0.194   3.252   1.923
    2PMP    C53   53   0.172   3.265   2.061
    2PMP    C54   54   0.122   3.391   2.119
    2PMP    O55   55   0.052   3.467   2.053
    2PMP    C56   56   0.194   3.153   2.142
    2PMP    C57   57   0.234   3.031   2.087
    2PMP    C58   58   0.364   2.791   1.973
    2PMP    C59   59   0.396   2.663   1.928
    2PMP    C60   60   0.461   2.566   2.019
    2PMP    C61   61   0.554   2.611   2.115
    2PMP    C62   62   0.612   2.522   2.205
    2PMP    C63   63   0.581   2.386   2.204
    2PMP    C64   64   0.649   2.295   2.304
    2PMP    C65   65   0.705   2.168   2.239
    2PMP    N66   66   0.560   2.254   2.413
    2PMP    C67   67   0.488   2.340   2.108
    2PMP    C68   68   0.429   2.429   2.017
    2PMP    C69   69   0.364   2.629   1.796
    2PMP    H70   70   0.298   2.852   1.480
    2PMP    H71   71   0.222   2.713   1.391
    2PMP    H72   72   0.126   2.800   1.518
    2PMP    H73   73   0.217   2.919   1.696
    2PMP    H74   74   0.255   3.126   1.761
    2PMP    H75   75   0.179   3.338   1.858
    2PMP    H76   76   0.175   3.157   2.249
    2PMP    H77   77   0.244   2.947   2.154
    2PMP    H78   78   0.390   2.817   2.075
    2PMP    H79   79   0.583   2.715   2.120
    2PMP    H80   80   0.682   2.561   2.279
    2PMP    H81   81   0.734   2.348   2.348
    2PMP    H82   82   0.620   2.108   2.207
    2PMP    H83   83   0.766   2.203   2.155
    2PMP    H84   84   0.765   2.119   2.316
    2PMP    H85   85   0.546   2.155   2.427
    2PMP    H86   86   0.460   2.235   2.105
    2PMP    H87   87   0.357   2.391   1.946
    2PMP    H88   88   0.388   2.531   1.756
    3PMP    C89   89   0.344   2.341   3.384
    3PMP    O90   90   0.365   2.199   3.392
    3PMP    C91   91   0.361   2.128   3.274
    3PMP    C92   92   0.389   2.183   3.148
    3PMP    C93   93   0.382   2.105   3.032
    3PMP    C94   94   0.415   2.163   2.900
    3PMP    C95   95   0.382   2.295   2.868
    3PMP    C96   96   0.416   2.350   2.744
    3PMP    C97   97   0.486   2.275   2.648
    3PMP    C98   98   0.528   2.335   2.520
    3PMP    O99   99   0.541   2.457   2.511
    3PMP   C100  100   0.518   2.141   2.680
    3PMP   C101  101   0.483   2.087   2.803
    3PMP   C102  102   0.346   1.970   3.043
    3PMP   C103  103   0.318   1.912   3.168
    3PMP   C104  104   0.279   1.770   3.177
    3PMP   C105  105   0.194   1.713   3.081
    3PMP   C106  106   0.155   1.580   3.091
    3PMP   C107  107   0.198   1.499   3.196
    3PMP   C108  108   0.145   1.357   3.206
    3PMP   C109  109   0.096   1.324   3.347
    3PMP   N110  110   0.241   1.254   3.166
    3PMP   C111  111   0.285   1.555   3.292
    3PMP   C112  112   0.324   1.689   3.282
    3PMP   C113  113   0.328   1.992   3.282
    3PMP   H114  114   0.259   2.357   3.316
    3PMP   H115  115   0.321   2.372   3.486
    3PMP   H116  116   0.437   2.383   3.347
    3PMP   H117  117   0.420   2.286   3.140
    3PMP   H118  118   0.327   2.357   2.939
    3PMP   H119  119   0.388   2.453   2.722
    3PMP   H120  120   0.573   2.079   2.610
    3PMP   H121  121   0.512   1.985   2.826
    3PMP   H122  122   0.339   1.909   2.954
    3PMP   H123  123   0.156   1.773   2.999
    3PMP   H124  124   0.087   1.539   3.016
    3PMP   H125  125   0.058   1.350   3.140
    3PMP   H126  126   0.184   1.318   3.411
    3PMP   H127  127   0.029   1.406   3.375
    3PMP   H128  128   0.043   1.229   3.339
    3PMP   H129  129   0.245   1.173   3.226
    3PMP   H130  130   0.321   1.496   3.375
    3PMP   H131  131   0.390   1.730   3.358
    3PMP   H132  132   0.307   1.949   3.380
    4PMP   C133  133   0.122   0.574   2.450
    4PMP   O134  134   0.146   0.473   2.549
    4PMP   C135  135   0.194   0.512   2.672
    4PMP   C136  136   0.209   0.645   2.715
    4PMP   C137  137   0.257   0.676   2.844
    4PMP   C138  138   0.265   0.816   2.892
    4PMP   C139  139   0.290   0.923   2.804
    4PMP   C140  140   0.293   1.055   2.850
    4PMP   C141  141   0.270   1.085   2.986
    4PMP   C142  142   0.263   1.225   3.032
    4PMP   O143  143   0.264   1.317   2.951
    4PMP   C144  144   0.245   0.977   3.073
    4PMP   C145  145   0.244   0.846   3.027
    4PMP   C146  146   0.295   0.569   2.927
    4PMP   C147  147   0.282   0.436   2.887
    4PMP   C148  148   0.317   0.327   2.979
    4PMP   C149  149   0.432   0.336   3.060
    4PMP   C150  150   0.462   0.237   3.153
    4PMP   C151  151   0.378   0.126   3.169
    4PMP   C152  152   0.407   0.024   3.277
    4PMP   C153  153   0.477  -0.099   3.219
    4PMP   N154  154   0.285  -0.019   3.345
    4PMP   C155  155   0.265   0.115   3.086
    4PMP   C156  156   0.235   0.214   2.992
    4PMP   C157  157   0.230   0.409   2.759
    4PMP   H158  158   0.217   0.625   2.433
    4PMP   H159  159   0.088   0.518   2.362
    4PMP   H160  160   0.044   0.639   2.489
    4PMP   H161  161   0.178   0.726   2.651
    4PMP   H162  162   0.308   0.904   2.699
    4PMP   H163  163   0.313   1.135   2.780
    4PMP   H164  164   0.224   0.994   3.178
    4PMP   H165  165   0.221   0.767   3.098
    4PMP   H166  166   0.333   0.590   3.026
    4PMP   H167  167   0.498   0.422   3.051
    4PMP   H168  168   0.550   0.248   3.215
    4PMP   H169  169   0.474   0.069   3.352
    4PMP   H170  170   0.407  -0.144   3.148
    4PMP   H171  171   0.568  -0.062   3.171
    4PMP   H172  172   0.499  -0.164   3.304
    4PMP   H173  173   0.241  -0.106   3.318
    4PMP   H174  174   0.198   0.031   3.097
    4PMP   H175  175   0.145   0.205   2.933
    4PMP   H176  176   0.218   0.307   2.725
    5CAP   C177  177   0.337   4.480   1.380
    5CAP   O178  178   0.359   4.407   1.502
    5CAP   H179  179   0.270   4.563   1.405
    5CAP   H180  180   0.291   4.408   1.312
    5CAP   H181  181   0.435   4.513   1.345
    6CAP   C182  182   0.247   0.417   3.506
    6CAP   C183  183   0.165   0.287   3.513
    6CAP   C184  184   0.140   0.253   3.661
    6CAP   C185  185   0.033   0.310   3.436
    6CAP   O186  186   0.252   0.190   3.450
    6CAP   C187  187   0.208   0.064   3.421
    6CAP   O188  188   0.104   0.013   3.459
    6CAP   H189  189   0.189   0.493   3.559
    6CAP   H190  190   0.342   0.396   3.555
    6CAP   H191  191   0.259   0.440   3.400
    6CAP   H192  192   0.238   0.239   3.706
    6CAP   H193  193   0.079   0.162   3.663
    6CAP   H194  194   0.086   0.338   3.703
    6CAP   H195  195   0.062   0.324   3.331
    6CAP   H196  196  -0.030   0.223   3.451
    6CAP   H197  197  -0.012   0.400   3.479
    7TCM     c1  198   4.225   0.493   2.535
    7TCM    cl1  199   4.120   0.384   2.438
    7TCM    cl2  200   4.271   0.635   2.435
    7TCM     h1  201   4.171   0.526   2.623
    7TCM    cl3  202   4.374   0.405   2.584
    8TCM     c1  203   1.575   2.409   4.304
    8TCM    cl1  204   1.419   2.385   4.218
    8TCM    cl2  205   1.547   2.501   4.456
    8TCM     h1  206   1.619   2.312   4.328
    8TCM    cl3  207   1.687   2.501   4.198
    9TCM     c1  208   1.793   2.084   0.574
    9TCM    cl1  209   1.788   1.920   0.645
    9TCM    cl2  210   1.705   2.085   0.418
    9TCM     h1  211   1.745   2.155   0.643
    9TCM    cl3  212   1.963   2.132   0.546
   10TCM     c1  213   2.725   0.538   3.569
   10TCM    cl1  214   2.730   0.715   3.598
   10TCM    cl2  215   2.830   0.455   3.689
   10TCM     h1  216   2.622   0.503   3.580
   10TCM    cl3  217   2.783   0.505   3.403
   11TCM     c1  218   2.383   1.697   2.766
   11TCM    cl1  219   2.487   1.823   2.842
   11TCM    cl2  220   2.297   1.608   2.896
   11TCM     h1  221   2.311   1.744   2.699
   11TCM    cl3  222   2.486   1.582   2.674
   12TCM     c1  223   0.260   1.238   0.262
   12TCM    cl1  224   0.362   1.099   0.311
   12TCM    cl2  225   0.202   1.324   0.408
   12TCM     h1  226   0.319   1.307   0.200
   12TCM    cl3  227   0.119   1.180   0.167
   13TCM     c1  228   2.913   0.739   2.392
   13TCM    cl1  229   2.735   0.762   2.402
   13TCM    cl2  230   2.950   0.593   2.295
   13TCM     h1  231   2.959   0.826   2.346
   13TCM    cl3  232   2.979   0.717   2.558
   14TCM     c1  233   4.039   3.773   4.659
   14TCM    cl1  234   4.008   3.754   4.483
   14TCM    cl2  235   3.913   3.880   4.729
   14TCM     h1  236   4.034   3.675   4.707
   14TCM    cl3  237   4.201   3.845   4.683
   15TCM     c1  238   0.511   3.942   3.177
   15TCM    cl1  239   0.664   3.863   3.130
   15TCM    cl2  240   0.481   4.084   3.070
   15TCM     h1  241   0.428   3.871   3.167
   15TCM    cl3  242   0.522   3.997   3.347
   16TCM     c1  243   4.055   1.086   2.538
   16TCM    cl1  244   4.145   1.172   2.667
   16TCM    cl2  245   4.171   1.004   2.428
   16TCM     h1  246   3.989   1.012   2.583
   16TCM    cl3  247   3.959   1.204   2.444
   17TCM     c1  248   4.889   2.761   4.288
   17TCM    cl1  249   4.711   2.780   4.272
   17TCM    cl2  250   4.925   2.619   4.391
   17TCM     h1  251   4.933   2.747   4.189
   17TCM    cl3  252   4.957   2.909   4.364
   18TCM     c1  253   0.501   2.628   1.125
   18TCM    cl1  254   0.499   2.769   1.237
   18TCM    cl2  255   0.470   2.477   1.216
   18TCM     h1  256   0.424   2.641   1.049
   18TCM    cl3  257   0.662   2.618   1.046
   19TCM     c1  258   1.522   1.694   1.978
   19TCM    cl1  259   1.445   1.548   1.908
   19TCM    cl2  260   1.700   1.677   1.972
   19TCM     h1  261   1.491   1.782   1.921
   19TCM    cl3  262   1.470   1.711   2.148
   20TCM     c1  263   4.717   4.333   0.489
   20TCM    cl1  264   4.771   4.482   0.573
   20TCM    cl2  265   4.768   4.338   0.317
   20TCM     h1  266   4.763   4.246   0.537
   20TCM    cl3  267   4.539   4.320   0.499
   21TCM     c1  268   2.553   0.105   3.674
   21TCM    cl1  269   2.608  -0.006   3.803
   21TCM    cl2  270   2.678   0.116   3.546
   21TCM     h1  271   2.459   0.068   3.631
   21TCM    cl3  272   2.526   0.268   3.744
   22TCM     c1  273   2.869   1.582   2.726
   22TCM    cl1  274   3.030   1.573   2.804
   22TCM    cl2  275   2.878   1.504   2.564
   22TCM     h1  276   2.795   1.530   2.788
   22TCM    cl3  277   2.823   1.754   2.706
   23TCM     c1  278   0.674   2.967   4.665
   23TCM    cl1  279   0.740   3.097   4.561
   23TCM    cl2  280   0.565   2.862   4.568
   23TCM     h1  281   0.756   2.908   4.705
   23TCM    cl3  282   0.581   3.040   4.799
   24TCM     c1  283   4.738   3.535   2.075
   24TCM    cl1  284   4.620   3.653   2.009
   24TCM    cl2  285   4.720   3.379   1.988
   24TCM     h1  286   4.840   3.573   2.060
   24TCM    cl3  287   4.706   3.512   2.250
   25TCM     c1  288   0.363   3.684   4.500
   25TCM    cl1  289   0.219   3.577   4.490
   25TCM    cl2  290   0.316   3.841   4.572
   25TCM     h1  291   0.439   3.636   4.562
   25TCM    cl3  292   0.427   3.711   4.335
   26TCM     c1  293   2.278   0.930   3.095
   26TCM    cl1  294   2.416   0.987   2.996
   26TCM    cl2  295   2.172   0.827   2.993
   26TCM     h1  296   2.314   0.872   3.181
   26TCM    cl3  297   2.183   1.071   3.153
   27TCM     c1  298   1.208   1.677   2.464
   27TCM    cl1  299   1.199   1.818   2.353
   27TCM    cl2  300   1.127   1.718   2.619
   27TCM     h1  301   1.158   1.592   2.418
   27TCM    cl3  302   1.380   1.636   2.495
   28TCM     c1  303   3.216   4.248   4.742
   28TCM    cl1  304   3.297   4.313   4.596
   28TCM    cl2  305   3.104   4.116   4.695
   28TCM     h1  306   3.290   4.209   4.812
   28TCM    cl3  307   3.123   4.379   4.823
   29TCM     c1  308   2.789   2.337   2.086
   29TCM    cl1  309   2.619   2.381   2.046
   29TCM    cl2  310   2.812   2.345   2.264
   29TCM     h1  311   2.810   2.236   2.050
   29TCM    cl3  312   2.900   2.453   2.007
   30TCM     c1  313   2.963   2.234   4.877
   30TCM    cl1  314   2.941   2.086   4.976
   30TCM    cl2  315   3.067   2.350   4.966
   30TCM     h1  316   3.011   2.207   4.782
   30TCM    cl3  317   2.803   2.308   4.846
   31TCM     c1  318   0.117   4.935   0.889
   31TCM    cl1  319   0.166   5.027   0.743
   31TCM    cl2  320   0.065   5.049   1.017
   31TCM     h1  321   0.034   4.868   0.863
   31TCM    cl3  322   0.255   4.838   0.950
   32TCM     c1  323   3.015   0.609   0.962
   32TCM    cl1  324   3.043   0.449   0.887
   32TCM    cl2  325   2.839   0.640   0.971
   32TCM     h1  326   3.058   0.611   1.063
   32TCM    cl3  327   3.093   0.737   0.863
   33TCM     c1  328   4.060   3.079   1.602
   33TCM    cl1  329   3.911   2.983   1.572
   33TCM    cl2  330   4.026   3.204   1.727
   33TCM     h1  331   4.140   3.014   1.636
   33TCM    cl3  332   4.109   3.160   1.449
   34TCM     c1  333   1.179   0.866   3.416
   34TCM    cl1  334   1.071   0.802   3.545
   34TCM    cl2  335   1.277   1.001   3.482
   34TCM     h1  336   1.245   0.786   3.381
   34TCM    cl3  337   1.079   0.926   3.280
   35TCM     c1  338   2.800   3.521   3.234
   35TCM    cl1  339   2.955   3.581   3.165
   35TCM    cl2  340   2.767   3.606   3.388
   35TCM     h1  341   2.719   3.540   3.163
   35TCM    cl3  342   2.814   3.345   3.265
   36TCM     c1  343   0.611   0.631   2.290
   36TCM    cl1  344   0.763   0.665   2.379
   36TCM    cl2  345   0.640   0.649   2.114
   36TCM     h1  346   0.579   0.529   2.311
   36TCM    cl3  347   0.484   0.747   2.340
   37TCM     c1  348   4.884   2.174   2.078
   37TCM    cl1  349   4.784   2.147   2.225
   37TCM    cl2  350   4.787   2.137   1.932
   37TCM     h1  351   4.915   2.279   2.075
   37TCM    cl3  352   5.028   2.068   2.082
   38TCM     c1  353   1.399   3.501   2.055
   38TCM    cl1  354   1.543   3.608   2.061
   38TCM    cl2  355   1.321   3.516   1.895
   38TCM     h1  356   1.431   3.397   2.071
   38TCM    cl3  357   1.284   3.548   2.184
   39TCM     c1  358   3.771   1.334   2.022
   39TCM    cl1  359   3.752   1.215   2.154
   39TCM    cl2  360   3.634   1.450   2.028
   39TCM     h1  361   3.866   1.388   2.034
   39TCM    cl3  362   3.770   1.248   1.864
   40TCM     c1  363   1.086   1.945   2.019
   40TCM    cl1  364   0.994   1.914   1.868
   40TCM    cl2  365   1.042   2.106   2.083
   40TCM     h1  366   1.063   1.868   2.093
   40TCM    cl3  367   1.261   1.942   1.981
   41TCM     c1  368   2.370   3.828   1.635
   41TCM    cl1  369   2.343   3.976   1.732
   41TCM    cl2  370   2.212   3.755   1.592
   41TCM     h1  371   2.425   3.854   1.544
   41TCM    cl3  372   2.466   3.710   1.731
   42TCM     c1  373   0.957   4.324   1.041
   42TCM    cl1  374   1.090   4.250   0.947
   42TCM    cl2  375   0.806   4.318   0.945
   42TCM     h1  376   0.943   4.270   1.135
   42TCM    cl3  377   0.997   4.496   1.077
   43TCM     c1  378   0.525   0.997   4.666
   43TCM    cl1  379   0.551   0.970   4.491
   43TCM    cl2  380   0.538   0.840   4.753
   43TCM     h1  381   0.600   1.067   4.705
   43TCM    cl3  382   0.361   1.065   4.693
   44TCM     c1  383   1.370   3.902   4.461
   44TCM    cl1  384   1.234   3.989   4.539
   44TCM    cl2  385   1.454   4.013   4.348
   44TCM     h1  386   1.440   3.868   4.537
   44TCM    cl3  387   1.305   3.762   4.369
   45TCM     c1  388   0.329   0.608   4.528
   45TCM    cl1  389   0.495   0.572   4.470
   45TCM    cl2  390   0.232   0.457   4.528
   45TCM     h1  391   0.334   0.648   4.629
   45TCM    cl3  392   0.252   0.728   4.419
   46TCM     c1  393   1.193   3.967   2.049
   46TCM    cl1  394   1.350   3.915   2.117
   46TCM    cl2  395   1.102   3.823   1.992
   46TCM     h1  396   1.135   4.019   2.126
   46TCM    cl3  397   1.222   4.078   1.910
   47TCM     c1  398   3.583   4.027   4.887
   47TCM    cl1  399   3.683   4.009   5.035
   47TCM    cl2  400   3.595   4.195   4.826
   47TCM     h1  401   3.618   3.957   4.810
   47TCM    cl3  402   3.411   3.991   4.926
   48TCM     c1  403   1.535   1.478   1.264
   48TCM    cl1  404   1.622   1.321   1.280
   48TCM    cl2  405   1.649   1.612   1.295
   48TCM     h1  406   1.494   1.487   1.163
   48TCM    cl3  407   1.402   1.483   1.384
   49TCM     c1  408   3.346   0.383   2.122
   49TCM    cl1  409   3.418   0.410   2.284
   49TCM    cl2  410   3.475   0.346   2.003
   49TCM     h1  411   3.276   0.299   2.126
   49TCM    cl3  412   3.257   0.531   2.071
   50TCM     c1  413   0.332   0.466   1.708
   50TCM    cl1  414   0.454   0.398   1.594
   50TCM    cl2  415   0.410   0.503   1.865
   50TCM     h1  416   0.290   0.558   1.665
   50TCM    cl3  417   0.202   0.346   1.734
   51TCM     c1  418   3.572   2.595   0.875
   51TCM    cl1  419   3.469   2.688   0.988
   51TCM    cl2  420   3.742   2.601   0.932
   51TCM     h1  421   3.538   2.491   0.872
   51TCM    cl3  422   3.562   2.667   0.711
   52TCM     c1  423   4.763   1.615   3.198
   52TCM    cl1  424   4.756   1.437   3.222
   52TCM    cl2  425   4.808   1.650   3.028
   52TCM     h1  426   4.666   1.659   3.220
   52TCM    cl3  427   4.886   1.684   3.309
   53TCM     c1  428   2.128   3.324   2.205
   53TCM    cl1  429   2.214   3.167   2.197
   53TCM    cl2  430   2.243   3.457   2.167
   53TCM     h1  431   2.046   3.324   2.132
   53TCM    cl3  432   2.063   3.347   2.370
   54TCM     c1  433   0.582   0.142   4.429
   54TCM    cl1  434   0.460   0.113   4.301
   54TCM    cl2  435   0.501   0.214   4.572
   54TCM     h1  436   0.630   0.048   4.457
   54TCM    cl3  437   0.706   0.256   4.367
   55TCM     c1  438   4.561   0.209   4.348
   55TCM    cl1  439   4.635   0.072   4.439
   55TCM    cl2  440   4.442   0.144   4.231
   55TCM     h1  441   4.511   0.276   4.418
   55TCM    cl3  442   4.688   0.299   4.259
   56TCM     c1  443   3.743   4.476   1.334
   56TCM    cl1  444   3.699   4.425   1.500
   56TCM    cl2  445   3.804   4.335   1.241
   56TCM     h1  446   3.655   4.517   1.284
   56TCM    cl3  447   3.872   4.601   1.342
   57TCM     c1  448   4.729   4.299   4.727
   57TCM    cl1  449   4.630   4.180   4.637
   57TCM    cl2  450   4.697   4.282   4.903
   57TCM     h1  451   4.835   4.281   4.707
   57TCM    cl3  452   4.685   4.464   4.674
   58TCM     c1  453   3.988   4.085   1.490
   58TCM    cl1  454   4.033   4.254   1.529
   58TCM    cl2  455   4.048   4.044   1.327
   58TCM     h1  456   4.032   4.018   1.564
   58TCM    cl3  457   3.809   4.067   1.492
   59TCM     c1  458   3.828   3.789   3.272
   59TCM    cl1  459   3.883   3.883   3.414
   59TCM    cl2  460   3.940   3.652   3.243
   59TCM     h1  461   3.727   3.752   3.289
   59TCM    cl3  462   3.830   3.896   3.128
   60TCM     c1  463   0.609   0.741   3.253
   60TCM    cl1  464   0.612   0.750   3.074
   60TCM    cl2  465   0.768   0.686   3.314
   60TCM     h1  466   0.587   0.840   3.294
   60TCM    cl3  467   0.481   0.626   3.304
   61TCM     c1  468   3.141   2.484   2.720
   61TCM    cl1  469   3.096   2.310   2.725
   61TCM    cl2  470   3.247   2.523   2.859
   61TCM     h1  471   3.194   2.505   2.626
   61TCM    cl3  472   2.992   2.583   2.728
   62TCM     c1  473   3.773   2.225   2.305
   62TCM    cl1  474   3.823   2.348   2.426
   62TCM    cl2  475   3.682   2.094   2.387
   62TCM     h1  476   3.708   2.273   2.231
   62TCM    cl3  477   3.917   2.156   2.225
   63TCM     c1  478   0.225   0.287   2.171
   63TCM    cl1  479   0.365   0.386   2.224
   63TCM    cl2  480   0.106   0.394   2.090
   63TCM     h1  481   0.259   0.210   2.101
   63TCM    cl3  482   0.149   0.210   2.314
   64TCM     c1  483   0.686   0.179   2.583
   64TCM    cl1  484   0.690   0.206   2.760
   64TCM    cl2  485   0.737   0.010   2.547
   64TCM     h1  486   0.584   0.195   2.546
   64TCM    cl3  487   0.797   0.293   2.501
   65TCM     c1  488   4.994   3.535   1.179
   65TCM    cl1  489   4.877   3.586   1.305
   65TCM    cl2  490   5.155   3.608   1.213
   65TCM     h1  491   5.003   3.426   1.179
   65TCM    cl3  492   4.937   3.591   1.019
   66TCM     c1  493   1.624   3.339   0.717
   66TCM    cl1  494   1.743   3.406   0.601
   66TCM    cl2  495   1.467   3.314   0.633
   66TCM     h1  496   1.660   3.244   0.756
   66TCM    cl3  497   1.600   3.454   0.852
   67TCM     c1  498   2.754   4.257   3.937
   67TCM    cl1  499   2.652   4.394   3.992
   67TCM    cl2  500   2.751   4.126   4.060
   67TCM     h1  501   2.716   4.218   3.842
   67TCM    cl3  502   2.922   4.315   3.914
   68TCM     c1  503   4.929   1.583   0.073
   68TCM    cl1  504   4.936   1.572  -0.106
   68TCM    cl2  505   5.094   1.564   0.140
   68TCM     h1  506   4.888   1.680   0.102
   68TCM    cl3  507   4.823   1.452   0.137
   69TCM     c1  508   3.015   4.493   4.322
   69TCM    cl1  509   3.021   4.539   4.495
   69TCM    cl2  510   2.868   4.561   4.244
   69TCM     h1  511   3.103   4.531   4.271
   69TCM    cl3  512   3.012   4.314   4.308
   70TCM     c1  513   3.794   3.980   1.928
   70TCM    cl1  514   3.692   3.838   1.970
   70TCM    cl2  515   3.695   4.099   1.837
   70TCM     h1  516   3.832   4.026   2.019
   70TCM    cl3  517   3.931   3.926   1.826
   71TCM     c1  518   0.935   0.360   3.169
   71TCM    cl1  519   0.920   0.182   3.168
   71TCM    cl2  520   0.813   0.430   3.057
   71TCM     h1  521   0.918   0.398   3.270
   71TCM    cl3  522   1.100   0.406   3.116
   72TCM     c1  523   0.996   1.312   2.531
   72TCM    cl1  524   0.919   1.458   2.462
   72TCM    cl2  525   0.947   1.294   2.702
   72TCM     h1  526   0.966   1.224   2.474
   72TCM    cl3  527   1.175   1.329   2.525
   73TCM     c1  528   1.083   0.623   2.097
   73TCM    cl1  529   0.987   0.772   2.123
   73TCM    cl2  530   1.039   0.553   1.938
   73TCM     h1  531   1.190   0.648   2.097
   73TCM    cl3  532   1.049   0.503   2.225
   74TCM     c1  533   2.903   1.033   3.549
   74TCM    cl1  534   2.962   1.186   3.476
   74TCM    cl2  535   2.875   1.058   3.724
   74TCM     h1  536   2.810   1.002   3.501
   74TCM    cl3  537   3.028   0.907   3.529
   75TCM     c1  538   4.765   4.769   1.057
   75TCM    cl1  539   4.751   4.844   0.895
   75TCM    cl2  540   4.759   4.895   1.184
   75TCM     h1  541   4.683   4.698   1.072
   75TCM    cl3  542   4.922   4.682   1.067
   76TCM     c1  543   0.539   3.971   0.001
   76TCM    cl1  544   0.409   4.059   0.087
   76TCM    cl2  545   0.467   3.834  -0.090
   76TCM     h1  546   0.590   4.039  -0.068
   76TCM    cl3  547   0.657   3.907   0.120
   77TCM     c1  548   2.507   3.356   1.956
   77TCM    cl1  549   2.648   3.381   1.847
   77TCM    cl2  550   2.555   3.250   2.092
   77TCM     h1  551   2.473   3.453   1.994
   77TCM    cl3  552   2.374   3.278   1.864
   78TCM     c1  553   0.422   2.941   0.684
   78TCM    cl1  554   0.254   2.997   0.657
   78TCM    cl2  555   0.461   2.812   0.565
   78TCM     h1  556   0.492   3.024   0.671
   78TCM    cl3  557   0.438   2.876   0.850
   79TCM     c1  558   3.411   3.424   0.714
   79TCM    cl1  559   3.370   3.548   0.592
   79TCM    cl2  560   3.320   3.458   0.866
   79TCM     h1  561   3.384   3.325   0.677
   79TCM    cl3  562   3.587   3.429   0.748
   80TCM     c1  563   3.176   2.923   4.750
   80TCM    cl1  564   3.196   3.102   4.746
   80TCM    cl2  565   3.181   2.865   4.919
   80TCM     h1  566   3.079   2.897   4.706
   80TCM    cl3  567   3.307   2.846   4.655
   81TCM     c1  568   0.994   1.144   1.598
   81TCM    cl1  569   1.042   1.169   1.769
   81TCM    cl2  570   1.085   1.259   1.494
   81TCM     h1  571   1.016   1.041   1.568
   81TCM    cl3  572   0.818   1.176   1.581
   82TCM     c1  573   1.984   2.574   4.559
   82TCM    cl1  574   1.945   2.432   4.456
   82TCM    cl2  575   2.115   2.530   4.674
   82TCM     h1  576   2.018   2.657   4.496
   82TCM    cl3  577   1.838   2.622   4.651
   83TCM     c1  578   2.229   3.976   3.918
   83TCM    cl1  579   2.364   3.871   3.973
   83TCM    cl2  580   2.114   4.000   4.053
   83TCM     h1  581   2.269   4.072   3.886
   83TCM    cl3  582   2.143   3.898   3.781
   84TCM     c1  583   0.820   0.210   4.764
   84TCM    cl1  584   0.791   0.041   4.711
   84TCM    cl2  585   0.934   0.290   4.650
   84TCM     h1  586   0.726   0.265   4.765
   84TCM    cl3  587   0.892   0.209   4.928
   85TCM     c1  588   1.107   0.451   2.681
   85TCM    cl1  589   1.211   0.395   2.547
   85TCM    cl2  590   1.204   0.548   2.796
   85TCM     h1  591   1.025   0.512   2.641
   85TCM    cl3  592   1.039   0.309   2.767
   86TCM     c1  593   4.561   3.021   3.009
   86TCM    cl1  594   4.722   3.061   2.940
   86TCM    cl2  595   4.578   2.891   3.131
   86TCM     h1  596   4.519   3.110   3.055
   86TCM    cl3  597   4.453   2.963   2.878
   87TCM     c1  598   3.203   4.660   0.062
   87TCM    cl1  599   3.361   4.736   0.103
   87TCM    cl2  600   3.095   4.781  -0.015
   87TCM     h1  601   3.219   4.577  -0.006
   87TCM    cl3  602   3.126   4.601   0.212
   88TCM     c1  603   1.730   0.046   3.518
   88TCM    cl1  604   1.652   0.040   3.357
   88TCM    cl2  605   1.788   0.213   3.550
   88TCM     h1  606   1.658   0.017   3.595
   88TCM    cl3  607   1.870  -0.066   3.523
   89TCM     c1  608   1.025   0.658   3.897
   89TCM    cl1  609   1.164   0.600   3.995
   89TCM    cl2  610   0.883   0.681   4.004
   89TCM     h1  611   1.050   0.753   3.849
   89TCM    cl3  612   0.988   0.535   3.772
   90TCM     c1  613   2.254   4.697   2.169
   90TCM    cl1  614   2.368   4.559   2.164
   90TCM    cl2  615   2.105   4.654   2.079
   90TCM     h1  616   2.228   4.720   2.273
   90TCM    cl3  617   2.330   4.841   2.093
   91TCM     c1  618   1.163   1.320   2.082
   91TCM    cl1  619   1.269   1.176   2.068
   91TCM    cl2  620   1.241   1.438   2.191
   91TCM     h1  621   1.149   1.364   1.983
   91TCM    cl3  622   1.004   1.272   2.149
   92TCM     c1  623   1.390   1.570   4.831
   92TCM    cl1  624   1.447   1.564   5.001
   92TCM    cl2  625   1.267   1.699   4.814
   92TCM     h1  626   1.474   1.590   4.764
   92TCM    cl3  627   1.316   1.412   4.789
   93TCM     c1  628   4.315   3.148   2.173
   93TCM    cl1  629   4.341   2.980   2.117
   93TCM    cl2  630   4.222   3.240   2.050
   93TCM     h1  631   4.259   3.147   2.267
   93TCM    cl3  632   4.473   3.228   2.199
   94TCM     c1  633   3.016   4.623   1.111
   94TCM    cl1  634   2.961   4.552   0.955
   94TCM    cl2  635   3.177   4.699   1.089
   94TCM     h1  636   2.944   4.698   1.144
   94TCM    cl3  637   3.026   4.493   1.234
   95TCM     c1  638   4.451   2.564   2.978
   95TCM    cl1  639   4.629   2.544   2.993
   95TCM    cl2  640   4.375   2.536   3.138
   95TCM     h1  641   4.429   2.666   2.944
   95TCM    cl3  642   4.388   2.445   2.860
   96TCM     c1  643   4.416   0.628   3.507
   96TCM    cl1  644   4.268   0.693   3.585
   96TCM    cl2  645   4.369   0.527   3.366
   96TCM     h1  646   4.480   0.710   3.475
   96TCM    cl3  647   4.504   0.525   3.625
   97TCM     c1  648   4.192   0.834   3.093
   97TCM    cl1  649   4.190   1.010   3.059
   97TCM    cl2  650   4.106   0.803   3.247
   97TCM     h1  651   4.142   0.781   3.012
   97TCM    cl3  652   4.361   0.777   3.107
   98TCM     c1  653   2.038   0.190   3.078
   98TCM    cl1  654   2.003   0.153   3.250
   98TCM    cl2  655   2.139   0.058   3.008
   98TCM     h1  656   1.944   0.197   3.022
   98TCM    cl3  657   2.127   0.345   3.067
   99TCM     c1  658   0.342   4.298   3.435
   99TCM    cl1  659   0.277   4.332   3.271
   99TCM    cl2  660   0.230   4.187   3.521
   99TCM     h1  661   0.440   4.251   3.427
   99TCM    cl3  662   0.357   4.451   3.528
  100TCM     c1  663   0.363   1.783   4.772
  100TCM    cl1  664   0.334   1.772   4.595
  100TCM    cl2  665   0.537   1.817   4.801
  100TCM     h1  666   0.303   1.864   4.814
  100TCM    cl3  667   0.319   1.628   4.850
  101TCM     c1  668   1.083   4.910   4.962
  101TCM    cl1  669   1.211   4.823   5.054
  101TCM    cl2  670   0.924   4.835   4.998
  101TCM     h1  671   1.082   5.015   4.991
  101TCM    cl3  672   1.116   4.896   4.786
  102TCM     c1  673   0.708   2.161   0.917
  102TCM    cl1  674   0.561   2.262   0.935
  102TCM    cl2  675   0.697   2.066   0.765
  102TCM     h1  676   0.796   2.226   0.913
  102TCM    cl3  677   0.721   2.049   1.057
  103TCM     c1  678   4.761   1.731   2.096
  103TCM    cl1  679   4.843   1.780   2.248
  103TCM    cl2  680   4.873   1.759   1.958
  103TCM     h1  681   4.735   1.625   2.101
  103TCM    cl3  682   4.613   1.830   2.075
  104TCM     c1  683   2.988   1.193   2.379
  104TCM    cl1  684   3.032   1.253   2.216
  104TCM    cl2  685   3.101   1.061   2.427
  104TCM     h1  686   2.994   1.274   2.452
  104TCM    cl3  687   2.821   1.128   2.376
  105TCM     c1  688   3.063   0.307   2.622
  105TCM    cl1  689   3.161   0.417   2.725
  105TCM    cl2  690   2.960   0.203   2.726
  105TCM     h1  691   3.000   0.366   2.555
  105TCM    cl3  692   3.173   0.204   2.524
  106TCM     c1  693   2.461   4.509   0.909
  106TCM    cl1  694   2.303   4.594   0.911
  106TCM    cl2  695   2.591   4.626   0.867
  106TCM     h1  696   2.481   4.465   1.007
  106TCM    cl3  697   2.457   4.380   0.785
  107TCM     c1  698   0.440   3.408   3.931
  107TCM    cl1  699   0.369   3.434   4.094
  107TCM    cl2  700   0.336   3.487   3.807
  107TCM     h1  701   0.540   3.451   3.927
  107TCM    cl3  702   0.449   3.232   3.897
  108TCM     c1  703   2.535   4.982   1.825
  108TCM    cl1  704   2.711   4.967   1.790
  108TCM    cl2  705   2.443   4.964   1.673
  108TCM     h1  706   2.505   4.905   1.896
  108TCM    cl3  707   2.501   5.144   1.895
  109TCM     c1  708   2.775   4.734   3.588
  109TCM    cl1  709   2.774   4.657   3.751
  109TCM    cl2  710   2.607   4.749   3.528
  109TCM     h1  711   2.821   4.833   3.594
  109TCM    cl3  712   2.868   4.630   3.475
  110TCM     c1  713   3.586   3.545   4.731
  110TCM    cl1  714   3.563   3.384   4.806
  110TCM    cl2  715   3.741   3.547   4.641
  110TCM     h1  716   3.504   3.566   4.662
  110TCM    cl3  717   3.591   3.671   4.858
  111TCM     c1  718   1.906   4.983   4.547
  111TCM    cl1  719   1.965   4.840   4.637
  111TCM    cl2  720   1.727   4.993   4.565
  111TCM     h1  721   1.952   5.074   4.587
  111TCM    cl3  722   1.947   4.965   4.373
  112TCM     c1  723   3.406   3.860   1.742
  112TCM    cl1  724   3.340   4.024   1.712
  112TCM    cl2  725   3.546   3.831   1.633
  112TCM     h1  726   3.439   3.852   1.846
  112TCM    cl3  727   3.280   3.737   1.709
  113TCM     c1  728   4.999   2.644   1.893
  113TCM    cl1  729   4.931   2.758   1.773
  113TCM    cl2  730   4.885   2.508   1.918
  113TCM     h1  731   5.095   2.605   1.858
  113TCM    cl3  732   5.022   2.728   2.050
  114TCM     c1  733   1.880   0.803   3.208
  114TCM    cl1  734   1.952   0.638   3.210
  114TCM    cl2  735   1.926   0.886   3.359
  114TCM     h1  736   1.918   0.858   3.122
  114TCM    cl3  737   1.702   0.792   3.198
  115TCM     c1  738   1.552   4.642   3.413
  115TCM    cl1  739   1.714   4.635   3.336
  115TCM    cl2  740   1.440   4.732   3.305
  115TCM     h1  741   1.515   4.541   3.429
  115TCM    cl3  742   1.565   4.727   3.570
  116TCM     c1  743   1.268   3.135   3.688
  116TCM    cl1  744   1.241   3.121   3.511
  116TCM    cl2  745   1.202   2.989   3.770
  116TCM     h1  746   1.375   3.142   3.709
  116TCM    cl3  747   1.185   3.282   3.750
  117TCM     c1  748   0.230   2.370   2.342
  117TCM    cl1  749   0.157   2.416   2.499
  117TCM    cl2  750   0.123   2.421   2.208
  117TCM     h1  751   0.328   2.417   2.331
  117TCM    cl3  752   0.247   2.191   2.338
  118TCM     c1  753   2.388   1.300   1.728
  118TCM    cl1  754   2.305   1.442   1.799
  118TCM    cl2  755   2.545   1.352   1.657
  118TCM     h1  756   2.406   1.225   1.805
  118TCM    cl3  757   2.284   1.230   1.599
  119TCM     c1  758   1.205   0.082   3.412
  119TCM    cl1  759   1.315   0.177   3.308
  119TCM    cl2  760   1.087   0.192   3.490
  119TCM     h1  761   1.152   0.008   3.352
  119TCM    cl3  762   1.301  -0.001   3.539
  120TCM     c1  763   4.408   3.486   2.449
  120TCM    cl1  764   4.320   3.373   2.558
  120TCM    cl2  765   4.474   3.622   2.545
  120TCM     h1  766   4.491   3.433   2.401
  120TCM    cl3  767   4.297   3.548   2.323
  121TCM     c1  768   4.597   1.225   3.703
  121TCM    cl1  769   4.452   1.131   3.748
  121TCM    cl2  770   4.724   1.114   3.641
  121TCM     h1  771   4.571   1.297   3.624
  121TCM    cl3  772   4.657   1.313   3.847
  122TCM     c1  773   3.777   1.745   2.339
  122TCM    cl1  774   3.739   1.785   2.168
  122TCM    cl2  775   3.947   1.789   2.374
  122TCM     h1  776   3.710   1.800   2.405
  122TCM    cl3  777   3.754   1.569   2.365
  123TCM     c1  778   0.001   4.013   3.293
  123TCM    cl1  779   0.162   3.978   3.221
  123TCM    cl2  780  -0.034   3.891   3.420
  123TCM     h1  781   0.001   4.113   3.336
  123TCM    cl3  782  -0.123   4.001   3.163
  124TCM     c1  783   0.549   1.699   0.189
  124TCM    cl1  784   0.424   1.824   0.154
  124TCM    cl2  785   0.474   1.537   0.181
  124TCM     h1  786   0.629   1.706   0.114
  124TCM    cl3  787   0.617   1.728   0.352
  125TCM     c1  788   3.545   1.570   3.232
  125TCM    cl1  789   3.496   1.405   3.284
  125TCM    cl2  790   3.573   1.570   3.055
  125TCM     h1  791   3.466   1.642   3.257
  125TCM    cl3  792   3.697   1.614   3.316
  126TCM     c1  793   1.573   2.420   2.663
  126TCM    cl1  794   1.695   2.296   2.708
  126TCM    cl2  795   1.542   2.527   2.805
  126TCM     h1  796   1.610   2.480   2.580
  126TCM    cl3  797   1.420   2.339   2.616
  127TCM     c1  798   0.500   2.773   0.056
  127TCM    cl1  799   0.438   2.701   0.209
  127TCM    cl2  800   0.479   2.655  -0.078
  127TCM     h1  801   0.444   2.864   0.034
  127TCM    cl3  802   0.674   2.810   0.077
  128TCM     c1  803   0.789   4.529   4.846
  128TCM    cl1  804   0.875   4.381   4.793
  128TCM    cl2  805   0.619   4.487   4.888
  128TCM     h1  806   0.839   4.570   4.934
  128TCM    cl3  807   0.792   4.651   4.714
  129TCM     c1  808   4.746   4.602   0.072
  129TCM    cl1  809   4.624   4.676  -0.036
  129TCM    cl2  810   4.749   4.692   0.228
  129TCM     h1  811   4.720   4.498   0.091
  129TCM    cl3  812   4.907   4.610  -0.006
  130TCM     c1  813   0.765   1.245   0.488
  130TCM    cl1  814   0.614   1.334   0.450
  130TCM    cl2  815   0.751   1.076   0.428
  130TCM     h1  816   0.850   1.294   0.440
  130TCM    cl3  817   0.789   1.243   0.666
  131TCM     c1  818   2.310   0.257   3.378
  131TCM    cl1  819   2.429   0.387   3.412
  131TCM    cl2  820   2.238   0.199   3.532
  131TCM     h1  821   2.231   0.295   3.313
  131TCM    cl3  822   2.395   0.120   3.297
  132TCM     c1  823   0.564   1.282   3.285
  132TCM    cl1  824   0.736   1.329   3.271
  132TCM    cl2  825   0.511   1.294   3.456
  132TCM     h1  826   0.502   1.347   3.222
  132TCM    cl3  827   0.546   1.111   3.233
  133TCM     c1  828   0.242   4.303   4.851
  133TCM    cl1  829   0.263   4.472   4.799
  133TCM    cl2  830   0.310   4.192   4.728
  133TCM     h1  831   0.293   4.287   4.947
  133TCM    cl3  832   0.066   4.269   4.872
  134TCM     c1  833   4.286   1.193   2.000
  134TCM    cl1  834   4.391   1.102   2.113
  134TCM    cl2  835   4.330   1.367   2.002
  134TCM     h1  836   4.299   1.154   1.899
  134TCM    cl3  837   4.115   1.174   2.050
  135TCM     c1  838   1.337   0.754   1.784
  135TCM    cl1  839   1.397   0.634   1.903
  135TCM    cl2  840   1.230   0.872   1.867
  135TCM     h1  841   1.422   0.807   1.740
  135TCM    cl3  842   1.245   0.670   1.655
  136TCM     c1  843   4.833   4.981   3.137
  136TCM    cl1  844   4.890   5.151   3.133
  136TCM    cl2  845   4.799   4.933   3.307
  136TCM     h1  846   4.743   4.971   3.077
  136TCM    cl3  847   4.961   4.875   3.071
  137TCM     c1  848   2.144   1.495   3.269
  137TCM    cl1  849   2.299   1.413   3.312
  137TCM    cl2  850   2.076   1.420   3.121
  137TCM     h1  851   2.073   1.484   3.351
  137TCM    cl3  852   2.175   1.669   3.240
  138TCM     c1  853   2.606   3.431   3.707
  138TCM    cl1  854   2.524   3.329   3.831
  138TCM    cl2  855   2.782   3.430   3.738
  138TCM     h1  856   2.585   3.391   3.608
  138TCM    cl3  857   2.544   3.599   3.719
  139TCM     c1  858   0.940   1.276   3.552
  139TCM    cl1  859   1.088   1.264   3.653
  139TCM    cl2  860   0.828   1.393   3.628
  139TCM     h1  861   0.966   1.310   3.452
  139TCM    cl3  862   0.861   1.115   3.544
  140TCM     c1  863   0.823   4.563   1.529
  140TCM    cl1  864   0.736   4.522   1.377
  140TCM    cl2  865   0.797   4.433   1.650
  140TCM     h1  866   0.929   4.571   1.507
  140TCM    cl3  867   0.763   4.719   1.594
  141TCM     c1  868   3.672   4.150   2.420
  141TCM    cl1  869   3.712   4.045   2.281
  141TCM    cl2  870   3.495   4.177   2.426
  141TCM     h1  871   3.705   4.103   2.513
  141TCM    cl3  872   3.755   4.308   2.402
  142TCM     c1  873   0.781   2.339   3.232
  142TCM    cl1  874   0.727   2.277   3.072
  142TCM    cl2  875   0.742   2.219   3.359
  142TCM     h1  876   0.889   2.356   3.229
  142TCM    cl3  877   0.697   2.493   3.268
  143TCM     c1  878   1.841   3.728   1.394
  143TCM    cl1  879   1.875   3.552   1.389
  143TCM    cl2  880   1.852   3.785   1.564
  143TCM     h1  881   1.913   3.782   1.332
  143TCM    cl3  882   1.675   3.759   1.333
  144TCM     c1  883   1.717   1.577   2.370
  144TCM    cl1  884   1.671   1.435   2.270
  144TCM    cl2  885   1.874   1.641   2.312
  144TCM     h1  886   1.640   1.654   2.362
  144TCM    cl3  887   1.732   1.526   2.542
  145TCM     c1  888   3.806   0.090   3.782
  145TCM    cl1  889   3.758  -0.016   3.918
  145TCM    cl2  890   3.837  -0.011   3.637
  145TCM     h1  891   3.726   0.161   3.760
  145TCM    cl3  892   3.955   0.179   3.826
  146TCM     c1  893   0.049   4.576   4.484
  146TCM    cl1  894   0.225   4.609   4.471
  146TCM    cl2  895  -0.019   4.668   4.623
  146TCM     h1  896  -0.001   4.607   4.392
  146TCM    cl3  897   0.023   4.401   4.510
  147TCM     c1  898   1.100   1.650   0.593
  147TCM    cl1  899   0.974   1.548   0.516
  147TCM    cl2  900   1.143   1.582   0.753
  147TCM     h1  901   1.189   1.653   0.529
  147TCM    cl3  902   1.037   1.817   0.614
  148TCM     c1  903   2.840   2.819   0.015
  148TCM    cl1  904   2.819   2.894  -0.147
  148TCM    cl2  905   2.787   2.648   0.007
  148TCM     h1  906   2.945   2.824   0.044
  148TCM    cl3  907   2.740   2.909   0.135
  149TCM     c1  908   3.760   1.239   3.083
  149TCM    cl1  909   3.606   1.199   3.001
  149TCM    cl2  910   3.895   1.224   2.967
  149TCM     h1  911   3.755   1.342   3.122
  149TCM    cl3  912   3.786   1.125   3.219
  150TCM     c1  913   3.493   0.154   1.696
  150TCM    cl1  914   3.397   0.058   1.579
  150TCM    cl2  915   3.580   0.286   1.611
  150TCM     h1  916   3.427   0.196   1.772
  150TCM    cl3  917   3.612   0.046   1.777
  151TCM     c1  918   3.629   2.457   1.257
  151TCM    cl1  919   3.477   2.515   1.333
  151TCM    cl2  920   3.589   2.333   1.134
  151TCM     h1  921   3.680   2.541   1.209
  151TCM    cl3  922   3.734   2.384   1.382
  152TCM     c1  923   3.127   3.997   2.488
  152TCM    cl1  924   3.219   3.985   2.643
  152TCM    cl2  925   3.208   3.897   2.364
  152TCM     h1  926   3.025   3.963   2.503
  152TCM    cl3  927   3.126   4.168   2.434
  153TCM     c1  928   4.402   0.838   2.712
  153TCM    cl1  929   4.227   0.816   2.742
  153TCM    cl2  930   4.491   0.697   2.778
  153TCM     h1  931   4.421   0.847   2.605
  153TCM    cl3  932   4.457   0.987   2.795
  154TCM     c1  933   0.880   1.924   4.749
  154TCM    cl1  934   1.029   2.021   4.774
  154TCM    cl2  935   0.904   1.763   4.825
  154TCM     h1  936   0.795   1.974   4.796
  154TCM    cl3  937   0.849   1.902   4.574
  155TCM     c1  938   2.220   4.496   4.610
  155TCM    cl1  939   2.267   4.659   4.552
  155TCM    cl2  940   2.197   4.501   4.787
  155TCM     h1  941   2.127   4.466   4.561
  155TCM    cl3  942   2.349   4.377   4.571
  156TCM     c1  943   2.313   4.975   4.875
  156TCM    cl1  944   2.307   5.002   4.698
  156TCM    cl2  945   2.419   4.835   4.910
  156TCM     h1  946   2.352   5.064   4.925
  156TCM    cl3  947   2.148   4.939   4.935
  157TCM     c1  948   2.085   1.154   2.812
  157TCM    cl1  949   1.939   1.253   2.780
  157TCM    cl2  950   2.231   1.259   2.814
  157TCM     h1  951   2.075   1.104   2.908
  157TCM    cl3  952   2.104   1.031   2.682
  158TCM     c1  953   1.813   2.274   0.055
  158TCM    cl1  954   1.941   2.304   0.177
  158TCM    cl2  955   1.782   2.097   0.043
  158TCM     h1  956   1.721   2.325   0.085
  158TCM    cl3  957   1.866   2.335  -0.105
  159TCM     c1  958   2.177   1.614   1.498
  159TCM    cl1  959   2.244   1.753   1.590
  159TCM    cl2  960   2.303   1.549   1.389
  159TCM     h1  961   2.145   1.536   1.568
  159TCM    cl3  962   2.036   1.670   1.402
  160TCM     c1  963   2.662   2.711   0.493
  160TCM    cl1  964   2.806   2.794   0.560
  160TCM    cl2  965   2.709   2.621   0.345
  160TCM     h1  966   2.622   2.641   0.566
  160TCM    cl3  967   2.538   2.832   0.450
  161TCM     c1  968   3.207   2.118   1.760
  161TCM    cl1  969   3.285   2.010   1.880
  161TCM    cl2  970   3.303   2.268   1.744
  161TCM     h1  971   3.202   2.068   1.663
  161TCM    cl3  972   3.042   2.159   1.816
  162TCM     c1  973   4.673   4.450   2.417
  162TCM    cl1  974   4.496   4.477   2.405
  162TCM    cl2  975   4.760   4.578   2.327
  162TCM     h1  976   4.703   4.452   2.522
  162TCM    cl3  977   4.714   4.290   2.347
  163TCM     c1  978   3.114   0.033   4.386
  163TCM    cl1  979   3.108  -0.144   4.360
  163TCM    cl2  980   3.129   0.115   4.227
  163TCM     h1  981   3.022   0.066   4.435
  163TCM    cl3  982   3.256   0.074   4.488
  164TCM     c1  983   3.983   3.864   3.836
  164TCM    cl1  984   3.967   3.931   4.002
  164TCM    cl2  985   4.066   3.983   3.731
  164TCM     h1  986   4.040   3.771   3.840
  164TCM    cl3  987   3.819   3.830   3.769
  165TCM     c1  988   2.106   1.372   2.419
  165TCM    cl1  989   2.253   1.271   2.436
  165TCM    cl2  990   2.102   1.491   2.554
  165TCM     h1  991   2.109   1.426   2.324
  165TCM    cl3  992   1.960   1.267   2.424
  166TCM     c1  993   2.863   0.043   4.852
  166TCM    cl1  994   2.690   0.075   4.817
  166TCM    cl2  995   2.908   0.124   5.006
  166TCM     h1  996   2.878  -0.065   4.861
  166TCM    cl3  997   2.964   0.106   4.718
  167TCM     c1  998   2.555   2.735   2.127
  167TCM    cl1  999   2.692   2.779   2.020
  167TCM    cl2 1000   2.453   2.879   2.156
  167TCM     h1 1001   2.495   2.656   2.080
  167TCM    cl3 1002   2.620   2.676   2.284
  168TCM     c1 1003   1.179   4.817   1.469
  168TCM    cl1 1004   1.124   4.980   1.518
  168TCM    cl2 1005   1.085   4.763   1.326
  168TCM     h1 1006   1.285   4.820   1.444
  168TCM    cl3 1007   1.153   4.701   1.603
  169TCM     c1 1008   4.277   2.228   4.607
  169TCM    cl1 1009   4.330   2.323   4.749
  169TCM    cl2 1010   4.417   2.140   4.538
  169TCM     h1 1011   4.199   2.157   4.637
  169TCM    cl3 1012   4.211   2.341   4.483
  170TCM     c1 1013   1.969   4.645   0.071
  170TCM    cl1 1014   1.885   4.701   0.219
  170TCM    cl2 1015   1.885   4.501   0.005
  170TCM     h1 1016   1.970   4.724  -0.004
  170TCM    cl3 1017   2.138   4.602   0.114
  171TCM     c1 1018   3.588   3.468   0.324
  171TCM    cl1 1019   3.636   3.452   0.152
  171TCM    cl2 1020   3.705   3.573   0.410
  171TCM     h1 1021   3.488   3.512   0.331
  171TCM    cl3 1022   3.587   3.305   0.399
  172TCM     c1 1023   4.933   0.325   0.761
  172TCM    cl1 1024   4.816   0.189   0.775
  172TCM    cl2 1025   4.960   0.398   0.922
  172TCM     h1 1026   5.028   0.287   0.722
  172TCM    cl3 1027   4.868   0.449   0.649
  173TCM     c1 1028   4.123   1.695   1.954
  173TCM    cl1 1029   4.093   1.851   2.038
  173TCM    cl2 1030   4.221   1.723   1.807
  173TCM     h1 1031   4.177   1.628   2.021
  173TCM    cl3 1032   3.966   1.621   1.908
  174TCM     c1 1033   3.877   1.741   4.939
  174TCM    cl1 1034   3.843   1.819   4.781
  174TCM    cl2 1035   4.039   1.792   4.997
  174TCM     h1 1036   3.801   1.771   5.012
  174TCM    cl3 1037   3.875   1.563   4.919
  175TCM     c1 1038   4.142   3.180   4.728
  175TCM    cl1 1039   4.244   3.167   4.875
  175TCM    cl2 1040   3.998   3.282   4.762
  175TCM     h1 1041   4.200   3.225   4.646
  175TCM    cl3 1042   4.088   3.016   4.679
  176TCM     c1 1043   1.313   0.459   3.623
  176TCM    cl1 1044   1.271   0.505   3.455
  176TCM    cl2 1045   1.371   0.605   3.710
  176TCM     h1 1046   1.224   0.419   3.674
  176TCM    cl3 1047   1.442   0.334   3.622
  177TCM     c1 1048   3.367   0.124   1.146
  177TCM    cl1 1049   3.249   0.023   1.236
  177TCM    cl2 1050   3.504   0.167   1.253
  177TCM     h1 1051   3.403   0.068   1.059
  177TCM    cl3 1052   3.286   0.274   1.091
  178TCM     c1 1053   1.085   0.205   4.043
  178TCM    cl1 1054   0.925   0.287   4.050
  178TCM    cl2 1055   1.196   0.280   4.163
  178TCM     h1 1056   1.073   0.099   4.066
  178TCM    cl3 1057   1.154   0.223   3.878
  179TCM     c1 1058   2.477   1.066   3.886
  179TCM    cl1 1059   2.623   1.111   3.979
  179TCM    cl2 1060   2.378   0.951   3.980
  179TCM     h1 1061   2.418   1.156   3.865
  179TCM    cl3 1062   2.524   0.990   3.731
  180TCM     c1 1063   3.332   0.540   0.217
  180TCM    cl1 1064   3.444   0.474   0.093
  180TCM    cl2 1065   3.197   0.425   0.243
  180TCM     h1 1066   3.386   0.556   0.310
  180TCM    cl3 1067   3.266   0.696   0.158
  181TCM     c1 1068   1.646   1.994   2.518
  181TCM    cl1 1069   1.480   1.972   2.582
  181TCM    cl2 1070   1.653   1.933   2.349
  181TCM     h1 1071   1.672   2.099   2.519
  181TCM    cl3 1072   1.761   1.900   2.618
  182TCM     c1 1073   4.884   3.972   4.480
  182TCM    cl1 1074   4.995   4.033   4.606
  182TCM    cl2 1075   4.951   3.821   4.410
  182TCM     h1 1076   4.786   3.951   4.523
  182TCM    cl3 1077   4.867   4.096   4.351
  183TCM     c1 1078   0.707   1.023   2.455
  183TCM    cl1 1079   0.644   1.185   2.498
  183TCM    cl2 1080   0.844   0.980   2.563
  183TCM     h1 1081   0.628   0.948   2.467
  183TCM    cl3 1082   0.763   1.024   2.285
  184TCM     c1 1083   4.943   0.816   3.425
  184TCM    cl1 1084   5.031   0.680   3.347
  184TCM    cl2 1085   4.777   0.763   3.468
  184TCM     h1 1086   4.997   0.846   3.515
  184TCM    cl3 1087   4.934   0.953   3.310
  185TCM     c1 1088   0.218   4.538   0.268
  185TCM    cl1 1089   0.240   4.659   0.137
  185TCM    cl2 1090   0.193   4.375   0.197
  185TCM     h1 1091   0.307   4.537   0.332
  185TCM    cl3 1092   0.075   4.581   0.367
  186TCM     c1 1093   0.860   3.126   0.118
  186TCM    cl1 1094   0.960   3.261   0.181
  186TCM    cl2 1095   0.908   3.088  -0.051
  186TCM     h1 1096   0.874   3.037   0.181
  186TCM    cl3 1097   0.687   3.176   0.121
  187TCM     c1 1098   1.172   2.268   4.546
  187TCM    cl1 1099   1.318   2.179   4.490
  187TCM    cl2 1100   1.028   2.203   4.463
  187TCM     h1 1101   1.162   2.257   4.654
  187TCM    cl3 1102   1.188   2.442   4.504
  188TCM     c1 1103   1.699   4.145   4.694
  188TCM    cl1 1104   1.730   4.157   4.870
  188TCM    cl2 1105   1.529   4.192   4.660
  188TCM     h1 1106   1.767   4.211   4.639
  188TCM    cl3 1107   1.724   3.975   4.640
  189TCM     c1 1108   0.812   3.146   0.545
  189TCM    cl1 1109   0.750   3.126   0.713
  189TCM    cl2 1110   0.751   3.012   0.444
  189TCM     h1 1111   0.777   3.242   0.505
  189TCM    cl3 1112   0.992   3.144   0.546
  190TCM     c1 1113   4.199   1.510   2.348
  190TCM    cl1 1114   4.295   1.360   2.376
  190TCM    cl2 1115   4.067   1.475   2.232
  190TCM     h1 1116   4.157   1.545   2.442
  190TCM    cl3 1117   4.306   1.637   2.279
  191TCM     c1 1118   2.272   0.329   4.149
  191TCM    cl1 1119   2.337   0.492   4.188
  191TCM    cl2 1120   2.190   0.262   4.294
  191TCM     h1 1121   2.201   0.337   4.066
  191TCM    cl3 1122   2.407   0.220   4.101
  192TCM     c1 1123   0.448   4.874   2.346
  192TCM    cl1 1124   0.528   4.763   2.230
  192TCM    cl2 1125   0.271   4.845   2.349
  192TCM     h1 1126   0.490   4.858   2.446
  192TCM    cl3 1127   0.478   5.044   2.296
  193TCM     c1 1128   1.791   4.510   4.473
  193TCM    cl1 1129   1.740   4.357   4.394
  193TCM    cl2 1130   1.921   4.587   4.375
  193TCM     h1 1131   1.706   4.578   4.481
  193TCM    cl3 1132   1.855   4.472   4.636
  194TCM     c1 1133   4.235   4.473   1.271
  194TCM    cl1 1134   4.308   4.592   1.157
  194TCM    cl2 1135   4.327   4.478   1.425
  194TCM     h1 1136   4.131   4.498   1.289
  194TCM    cl3 1137   4.247   4.310   1.199
  195TCM     c1 1138   0.995   2.339   0.493
  195TCM    cl1 1139   0.941   2.169   0.505
  195TCM    cl2 1140   1.111   2.356   0.357
  195TCM     h1 1141   0.909   2.404   0.475
  195TCM    cl3 1142   1.075   2.388   0.646
  196TCM     c1 1143   1.302   0.933   4.015
  196TCM    cl1 1144   1.410   1.071   4.053
  196TCM    cl2 1145   1.245   0.948   3.845
  196TCM     h1 1146   1.356   0.839   4.027
  196TCM    cl3 1147   1.161   0.935   4.126
  197TCM     c1 1148   1.733   1.338   0.443
  197TCM    cl1 1149   1.644   1.409   0.582
  197TCM    cl2 1150   1.631   1.346   0.295
  197TCM     h1 1151   1.825   1.393   0.427
  197TCM    cl3 1152   1.770   1.166   0.479
  198TCM     c1 1153   1.298   4.463   1.277
  198TCM    cl1 1154   1.379   4.333   1.185
  198TCM    cl2 1155   1.419   4.547   1.379
  198TCM     h1 1156   1.252   4.534   1.208
  198TCM    cl3 1157   1.171   4.392   1.383
  199TCM     c1 1158   0.163   2.778   2.462
  199TCM    cl1 1159  -0.000   2.727   2.407
  199TCM    cl2 1160   0.166   2.956   2.478
  199TCM     h1 1161   0.186   2.731   2.559
  199TCM    cl3 1162   0.286   2.727   2.341
  200TCM     c1 1163   0.848   2.071   0.170
  200TCM    cl1 1164   1.005   1.987   0.154
  200TCM    cl2 1165   0.726   1.990   0.067
  200TCM     h1 1166   0.816   2.069   0.274
  200TCM    cl3 1167   0.867   2.241   0.116
  201TCM     c1 1168   3.725   4.493   3.121
  201TCM    cl1 1169   3.552   4.533   3.141
  201TCM    cl2 1170   3.821   4.577   3.247
  201TCM     h1 1171   3.740   4.385   3.130
  201TCM    cl3 1172   3.780   4.547   2.959
  202TCM     c1 1173   2.259   0.869   2.379
  202TCM    cl1 1174   2.403   0.963   2.324
  202TCM    cl2 1175   2.275   0.699   2.326
  202TCM     h1 1176   2.252   0.873   2.488
  202TCM    cl3 1177   2.111   0.940   2.306
  203TCM     c1 1178   0.641   4.422   4.382
  203TCM    cl1 1179   0.813   4.459   4.413
  203TCM    cl2 1180   0.566   4.562   4.297
  203TCM     h1 1181   0.633   4.333   4.319
  203TCM    cl3 1182   0.556   4.395   4.537
  204TCM     c1 1183   2.229   4.695   3.792
  204TCM    cl1 1184   2.397   4.703   3.856
  204TCM    cl2 1185   2.144   4.848   3.830
  204TCM     h1 1186   2.232   4.681   3.684
  204TCM    cl3 1187   2.144   4.557   3.869
  205TCM     c1 1188   1.039   0.126   1.166
  205TCM    cl1 1189   1.202   0.085   1.102
  205TCM    cl2 1190   0.928   0.159   1.029
  205TCM     h1 1191   1.001   0.042   1.225
  205TCM    cl3 1192   1.052   0.272   1.270
  206TCM     c1 1193   2.446   3.130   0.810
  206TCM    cl1 1194   2.592   3.037   0.857
  206TCM    cl2 1195   2.346   3.162   0.956
  206TCM     h1 1196   2.475   3.225   0.764
  206TCM    cl3 1197   2.350   3.034   0.694
  207TCM     c1 1198   1.149   3.488   0.715
  207TCM    cl1 1199   0.990   3.441   0.785
  207TCM    cl2 1200   1.238   3.591   0.832
  207TCM     h1 1201   1.207   3.398   0.694
  207TCM    cl3 1202   1.122   3.579   0.563
  208TCM     c1 1203   3.719   2.230   1.901
  208TCM    cl1 1204   3.663   2.244   1.731
  208TCM    cl2 1205   3.616   2.112   1.989
  208TCM     h1 1206   3.823   2.196   1.903
  208TCM    cl3 1207   3.706   2.389   1.981
  209TCM     c1 1208   2.795   2.364   0.767
  209TCM    cl1 1209   2.814   2.532   0.827
  209TCM    cl2 1210   2.957   2.287   0.754
  209TCM     h1 1211   2.732   2.307   0.835
  209TCM    cl3 1212   2.719   2.369   0.605
  210TCM     c1 1213   2.689   3.563   4.102
  210TCM    cl1 1214   2.510   3.561   4.112
  210TCM    cl2 1215   2.756   3.551   4.268
  210TCM     h1 1216   2.723   3.479   4.042
  210TCM    cl3 1217   2.741   3.717   4.027
  211TCM     c1 1218   1.459   2.763   3.977
  211TCM    cl1 1219   1.630   2.815   3.962
  211TCM    cl2 1220   1.413   2.759   4.151
  211TCM     h1 1221   1.394   2.833   3.924
  211TCM    cl3 1222   1.440   2.599   3.907
  212TCM     c1 1223   1.443   2.825   3.449
  212TCM    cl1 1224   1.514   2.865   3.609
  212TCM    cl2 1225   1.299   2.721   3.473
  212TCM     h1 1226   1.414   2.917   3.398
  212TCM    cl3 1227   1.565   2.737   3.350
  213TCM     c1 1228   3.815   4.634   3.782
  213TCM    cl1 1229   3.698   4.514   3.847
  213TCM    cl2 1230   3.835   4.606   3.606
  213TCM     h1 1231   3.777   4.735   3.799
  213TCM    cl3 1232   3.973   4.614   3.864
  214TCM     c1 1233   0.371   3.236   0.335
  214TCM    cl1 1234   0.383   3.061   0.298
  214TCM    cl2 1235   0.506   3.282   0.444
  214TCM     h1 1236   0.377   3.294   0.243
  214TCM    cl3 1237   0.216   3.270   0.419
  215TCM     c1 1238   1.304   2.171   0.093
  215TCM    cl1 1239   1.462   2.224   0.159
  215TCM    cl2 1240   1.327   2.026  -0.010
  215TCM     h1 1241   1.236   2.148   0.175
  215TCM    cl3 1242   1.234   2.302  -0.007
  216TCM     c1 1243   0.561   1.424   2.876
  216TCM    cl1 1244   0.564   1.533   3.019
  216TCM    cl2 1245   0.633   1.265   2.918
  216TCM     h1 1246   0.458   1.409   2.845
  216TCM    cl3 1247   0.654   1.499   2.742
  217TCM     c1 1248   3.598   0.176   4.705
  217TCM    cl1 1249   3.621   0.196   4.528
  217TCM    cl2 1250   3.527   0.326   4.773
  217TCM     h1 1251   3.530   0.092   4.724
  217TCM    cl3 1252   3.756   0.144   4.783
  218TCM     c1 1253   1.790   2.589   1.719
  218TCM    cl1 1254   1.797   2.743   1.627
  218TCM    cl2 1255   1.631   2.576   1.802
  218TCM     h1 1256   1.803   2.505   1.651
  218TCM    cl3 1257   1.922   2.589   1.841
  219TCM     c1 1258   4.238   0.394   3.976
  219TCM    cl1 1259   4.159   0.361   4.133
  219TCM    cl2 1260   4.406   0.452   4.003
  219TCM     h1 1261   4.240   0.302   3.916
  219TCM    cl3 1262   4.145   0.520   3.889
  220TCM     c1 1263   0.374   3.724   1.584
  220TCM    cl1 1264   0.435   3.727   1.416
  220TCM    cl2 1265   0.195   3.715   1.583
  220TCM     h1 1266   0.415   3.637   1.637
  220TCM    cl3 1267   0.427   3.874   1.668
  221TCM     c1 1268   0.484   1.430   0.770
  221TCM    cl1 1269   0.519   1.592   0.701
  221TCM    cl2 1270   0.308   1.396   0.755
  221TCM     h1 1271   0.541   1.354   0.716
  221TCM    cl3 1272   0.531   1.427   0.943
  222TCM     c1 1273   3.547   2.249   2.691
  222TCM    cl1 1274   3.432   2.196   2.819
  222TCM    cl2 1275   3.705   2.289   2.766
  222TCM     h1 1276   3.560   2.169   2.619
  222TCM    cl3 1277   3.482   2.395   2.609
  223TCM     c1 1278   0.443   4.442   2.674
  223TCM    cl1 1279   0.455   4.577   2.556
  223TCM    cl2 1280   0.299   4.468   2.778
  223TCM     h1 1281   0.434   4.347   2.621
  223TCM    cl3 1282   0.590   4.440   2.777
  224TCM     c1 1283   0.154   4.443   2.067
  224TCM    cl1 1284   0.010   4.549   2.054
  224TCM    cl2 1285   0.101   4.277   2.111
  224TCM     h1 1286   0.207   4.441   1.971
  224TCM    cl3 1287   0.263   4.507   2.194
  225TCM     c1 1288   0.832   2.306   1.874
  225TCM    cl1 1289   0.676   2.342   1.793
  225TCM    cl2 1290   0.877   2.444   1.980
  225TCM     h1 1291   0.822   2.216   1.934
  225TCM    cl3 1292   0.959   2.282   1.751
  226TCM     c1 1293   0.716   3.946   2.597
  226TCM    cl1 1294   0.888   3.979   2.637
  226TCM    cl2 1295   0.610   4.013   2.726
  226TCM     h1 1296   0.692   3.993   2.501
  226TCM    cl3 1297   0.690   3.769   2.587
  227TCM     c1 1298   2.348   0.630   3.805
  227TCM    cl1 1299   2.243   0.486   3.826
  227TCM    cl2 1300   2.368   0.663   3.629
  227TCM     h1 1301   2.301   0.717   3.853
  227TCM    cl3 1302   2.509   0.601   3.878
  228TCM     c1 1303   1.765   2.098   1.958
  228TCM    cl1 1304   1.886   2.030   2.072
  228TCM    cl2 1305   1.767   2.277   1.968
  228TCM     h1 1306   1.789   2.067   1.856
  228TCM    cl3 1307   1.602   2.039   2.002
  229TCM     c1 1308   1.100   3.188   2.080
  229TCM    cl1 1309   1.247   3.162   1.980
  229TCM    cl2 1310   1.015   3.336   2.025
  229TCM     h1 1311   1.034   3.101   2.071
  229TCM    cl3 1312   1.149   3.208   2.252
  230TCM     c1 1313   4.725   3.492   2.778
  230TCM    cl1 1314   4.877   3.399   2.799
  230TCM    cl2 1315   4.741   3.653   2.855
  230TCM     h1 1316   4.704   3.504   2.671
  230TCM    cl3 1317   4.590   3.402   2.855
  231TCM     c1 1318   4.452   0.772   4.355
  231TCM    cl1 1319   4.285   0.752   4.291
  231TCM    cl2 1320   4.558   0.646   4.285
  231TCM     h1 1321   4.490   0.871   4.329
  231TCM    cl3 1322   4.450   0.754   4.534
  232TCM     c1 1323   0.364   3.187   4.358
  232TCM    cl1 1324   0.275   3.074   4.464
  232TCM    cl2 1325   0.478   3.094   4.255
  232TCM     h1 1326   0.294   3.242   4.295
  232TCM    cl3 1327   0.456   3.303   4.459
  233TCM     c1 1328   1.084   1.607   0.126
  233TCM    cl1 1329   1.122   1.432   0.136
  233TCM    cl2 1330   1.185   1.695   0.245
  233TCM     h1 1331   1.105   1.644   0.025
  233TCM    cl3 1332   0.910   1.632   0.163
  234TCM     c1 1333   1.943   1.992   1.566
  234TCM    cl1 1334   1.914   1.875   1.699
  234TCM    cl2 1335   1.934   2.158   1.632
  234TCM     h1 1336   2.042   1.974   1.523
  234TCM    cl3 1337   1.818   1.971   1.439
  235TCM     c1 1338   2.483   4.409   3.671
  235TCM    cl1 1339   2.392   4.290   3.769
  235TCM    cl2 1340   2.379   4.468   3.537
  235TCM     h1 1341   2.513   4.493   3.734
  235TCM    cl3 1342   2.630   4.332   3.603
  236TCM     c1 1343   3.253   0.470   1.591
  236TCM    cl1 1344   3.138   0.605   1.566
  236TCM    cl2 1345   3.241   0.354   1.454
  236TCM     h1 1346   3.355   0.509   1.597
  236TCM    cl3 1347   3.212   0.384   1.743
  237TCM     c1 1348   2.619   4.695   4.644
  237TCM    cl1 1349   2.572   4.567   4.760
  237TCM    cl2 1350   2.613   4.630   4.477
  237TCM     h1 1351   2.551   4.779   4.652
  237TCM    cl3 1352   2.787   4.748   4.680
  238TCM     c1 1353   2.701   1.682   3.128
  238TCM    cl1 1354   2.659   1.538   3.030
  238TCM    cl2 1355   2.866   1.739   3.084
  238TCM     h1 1356   2.629   1.762   3.109
  238TCM    cl3 1357   2.699   1.638   3.302
  239TCM     c1 1358   0.814   1.425   4.721
  239TCM    cl1 1359   0.958   1.387   4.821
  239TCM    cl2 1360   0.678   1.471   4.828
  239TCM     h1 1361   0.837   1.508   4.654
  239TCM    cl3 1362   0.769   1.280   4.625
  240TCM     c1 1363   3.046   1.012   2.777
  240TCM    cl1 1364   2.927   0.934   2.887
  240TCM    cl2 1365   3.212   0.990   2.841
  240TCM     h1 1366   3.039   0.964   2.678
  240TCM    cl3 1367   3.008   1.186   2.761
  241TCM     c1 1368   3.478   0.595   1.216
  241TCM    cl1 1369   3.533   0.577   1.385
  241TCM    cl2 1370   3.568   0.729   1.138
  241TCM     h1 1371   3.496   0.502   1.161
  241TCM    cl3 1372   3.302   0.633   1.214
  242TCM     c1 1373   0.263   0.244   0.371
  242TCM    cl1 1374   0.388   0.119   0.400
  242TCM    cl2 1375   0.325   0.367   0.256
  242TCM     h1 1376   0.173   0.197   0.329
  242TCM    cl3 1377   0.221   0.324   0.526
  243TCM     c1 1378   0.766   3.650   3.633
  243TCM    cl1 1379   0.892   3.701   3.750
  243TCM    cl2 1380   0.639   3.777   3.624
  243TCM     h1 1381   0.811   3.635   3.535
  243TCM    cl3 1382   0.691   3.497   3.689
  244TCM     c1 1383   0.319   4.128   4.343
  244TCM    cl1 1384   0.290   4.294   4.282
  244TCM    cl2 1385   0.493   4.086   4.323
  244TCM     h1 1386   0.292   4.122   4.449
  244TCM    cl3 1387   0.221   4.011   4.250
  245TCM     c1 1388   3.664   1.867   0.457
  245TCM    cl1 1389   3.712   1.919   0.622
  245TCM    cl2 1390   3.805   1.879   0.346
  245TCM     h1 1391   3.629   1.763   0.460
  245TCM    cl3 1392   3.533   1.973   0.397
  246TCM     c1 1393   3.657   4.286   3.555
  246TCM    cl1 1394   3.671   4.237   3.382
  246TCM    cl2 1395   3.790   4.209   3.648
  246TCM     h1 1396   3.665   4.395   3.563
  246TCM    cl3 1397   3.499   4.232   3.620
  247TCM     c1 1398   1.684   4.806   3.019
  247TCM    cl1 1399   1.794   4.676   2.966
  247TCM    cl2 1400   1.551   4.824   2.899
  247TCM     h1 1401   1.642   4.782   3.117
  247TCM    cl3 1402   1.775   4.960   3.031
  248TCM     c1 1403   2.584   0.380   2.380
  248TCM    cl1 1404   2.743   0.323   2.442
  248TCM    cl2 1405   2.607   0.470   2.227
  248TCM     h1 1406   2.519   0.294   2.362
  248TCM    cl3 1407   2.508   0.487   2.503
  249TCM     c1 1408   3.315   2.020   3.873
  249TCM    cl1 1409   3.294   1.989   4.048
  249TCM    cl2 1410   3.268   2.190   3.837
  249TCM     h1 1411   3.420   2.005   3.845
  249TCM    cl3 1412   3.212   1.908   3.779
  250TCM     c1 1413   3.078   2.552   0.280
  250TCM    cl1 1414   3.031   2.494   0.443
  250TCM    cl2 1415   3.249   2.505   0.249
  250TCM     h1 1416   3.013   2.507   0.205
  250TCM    cl3 1417   3.064   2.731   0.274
  251TCM     c1 1418   1.416   0.158   4.727
  251TCM    cl1 1419   1.549   0.277   4.739
  251TCM    cl2 1420   1.263   0.237   4.779
  251TCM     h1 1421   1.406   0.124   4.623
  251TCM    cl3 1422   1.451   0.019   4.834
  252TCM     c1 1423   0.917   1.544   1.664
  252TCM    cl1 1424   0.985   1.626   1.519
  252TCM    cl2 1425   0.773   1.633   1.721
  252TCM     h1 1426   0.889   1.442   1.637
  252TCM    cl3 1427   1.041   1.540   1.794
  253TCM     c1 1428   0.006   2.970   0.181
  253TCM    cl1 1429   0.010   2.960   0.360
  253TCM    cl2 1430   0.131   2.860   0.114
  253TCM     h1 1431  -0.093   2.940   0.145
  253TCM    cl3 1432   0.041   3.138   0.130
  254TCM     c1 1433   0.565   1.555   3.813
  254TCM    cl1 1434   0.442   1.573   3.684
  254TCM    cl2 1435   0.483   1.549   3.973
  254TCM     h1 1436   0.621   1.463   3.797
  254TCM    cl3 1437   0.677   1.694   3.808
  255TCM     c1 1438   0.999   0.677   0.153
  255TCM    cl1 1439   0.978   0.502   0.119
  255TCM    cl2 1440   0.984   0.704   0.330
  255TCM     h1 1441   1.097   0.710   0.119
  255TCM    cl3 1442   0.871   0.769   0.069
  256TCM     c1 1443   3.461   4.681   4.705
  256TCM    cl1 1444   3.291   4.732   4.683
  256TCM    cl2 1445   3.468   4.542   4.819
  256TCM     h1 1446   3.503   4.651   4.608
  256TCM    cl3 1447   3.557   4.817   4.773
  257TCM     c1 1448   3.112   3.643   3.493
  257TCM    cl1 1449   3.022   3.708   3.635
  257TCM    cl2 1450   3.102   3.464   3.493
  257TCM     h1 1451   3.067   3.682   3.401
  257TCM    cl3 1452   3.283   3.694   3.502
  258TCM     c1 1453   2.920   4.158   2.947
  258TCM    cl1 1454   3.062   4.075   3.018
  258TCM    cl2 1455   2.891   4.094   2.781
  258TCM     h1 1456   2.832   4.140   3.009
  258TCM    cl3 1457   2.949   4.335   2.937
  259TCM     c1 1458   3.631   1.200   2.612
  259TCM    cl1 1459   3.704   1.351   2.675
  259TCM    cl2 1460   3.462   1.186   2.671
  259TCM     h1 1461   3.631   1.201   2.503
  259TCM    cl3 1462   3.724   1.058   2.671
  260TCM     c1 1463   4.705   1.939   4.825
  260TCM    cl1 1464   4.663   2.113   4.835
  260TCM    cl2 1465   4.716   1.872   4.991
  260TCM     h1 1466   4.628   1.886   4.769
  260TCM    cl3 1467   4.863   1.921   4.742
  261TCM     c1 1468   3.131   2.141   0.449
  261TCM    cl1 1469   3.223   2.039   0.564
  261TCM    cl2 1470   2.963   2.079   0.439
  261TCM     h1 1471   3.129   2.244   0.485
  261TCM    cl3 1472   3.208   2.134   0.287
  262TCM     c1 1473   4.821   4.602   1.438
  262TCM    cl1 1474   4.691   4.544   1.328
  262TCM    cl2 1475   4.975   4.521   1.395
  262TCM     h1 1476   4.832   4.711   1.428
  262TCM    cl3 1477   4.777   4.563   1.608
  263TCM     c1 1478   4.712   0.458   3.142
  263TCM    cl1 1479   4.567   0.388   3.064
  263TCM    cl2 1480   4.709   0.423   3.318
  263TCM     h1 1481   4.803   0.415   3.098
  263TCM    cl3 1482   4.713   0.636   3.118
  264TCM     c1 1483   3.586   2.171   0.098
  264TCM    cl1 1484   3.659   2.018   0.037
  264TCM    cl2 1485   3.567   2.286  -0.038
  264TCM     h1 1486   3.489   2.150   0.143
  264TCM    cl3 1487   3.696   2.243   0.221
  265TCM     c1 1488   1.736   0.090   2.703
  265TCM    cl1 1489   1.836   0.225   2.767
  265TCM    cl2 1490   1.840  -0.053   2.674
  265TCM     h1 1491   1.658   0.065   2.775
  265TCM    cl3 1492   1.661   0.140   2.547
  266TCM     c1 1493   1.262   4.427   4.604
  266TCM    cl1 1494   1.182   4.549   4.710
  266TCM    cl2 1495   1.403   4.504   4.523
  266TCM     h1 1496   1.296   4.343   4.665
  266TCM    cl3 1497   1.147   4.369   4.480
  267TCM     c1 1498   0.116   0.134   4.393
  267TCM    cl1 1499   0.082   0.111   4.218
  267TCM    cl2 1500   0.149  -0.024   4.470
  267TCM     h1 1501   0.202   0.200   4.405
  267TCM    cl3 1502  -0.028   0.208   4.470
  268TCM     c1 1503   4.247   4.570   0.185
  268TCM    cl1 1504   4.249   4.629   0.016
  268TCM    cl2 1505   4.416   4.547   0.241
  268TCM     h1 1506   4.197   4.642   0.249
  268TCM    cl3 1507   4.160   4.413   0.193
  269TCM     c1 1508   0.586   2.404   3.646
  269TCM    cl1 1509   0.527   2.569   3.604
  269TCM    cl2 1510   0.462   2.317   3.741
  269TCM     h1 1511   0.606   2.349   3.554
  269TCM    cl3 1512   0.737   2.418   3.743
  270TCM     c1 1513   4.034   1.206   1.624
  270TCM    cl1 1514   4.104   1.347   1.709
  270TCM    cl2 1515   4.094   1.055   1.701
  270TCM     h1 1516   3.925   1.209   1.630
  270TCM    cl3 1517   4.084   1.208   1.452
  271TCM     c1 1518   1.488   4.624   4.906
  271TCM    cl1 1519   1.594   4.680   4.772
  271TCM    cl2 1520   1.551   4.685   5.062
  271TCM     h1 1521   1.387   4.661   4.890
  271TCM    cl3 1522   1.488   4.445   4.910
  272TCM     c1 1523   3.217   1.002   3.816
  272TCM    cl1 1524   3.217   1.178   3.781
  272TCM    cl2 1525   3.250   0.975   3.991
  272TCM     h1 1526   3.119   0.959   3.792
  272TCM    cl3 1527   3.344   0.922   3.718
  273TCM     c1 1528   4.451   3.301   3.329
  273TCM    cl1 1529   4.369   3.303   3.169
  273TCM    cl2 1530   4.608   3.216   3.313
  273TCM     h1 1531   4.468   3.403   3.363
  273TCM    cl3 1532   4.347   3.214   3.447
  274TCM     c1 1533   1.362   0.713   0.405
  274TCM    cl1 1534   1.537   0.725   0.440
  274TCM    cl2 1535   1.323   0.546   0.350
  274TCM     h1 1536   1.305   0.736   0.495
  274TCM    cl3 1537   1.319   0.830   0.275
  275TCM     c1 1538   1.107   1.992   1.026
  275TCM    cl1 1539   1.177   2.099   1.152
  275TCM    cl2 1540   1.226   1.865   0.982
  275TCM     h1 1541   1.016   1.945   1.065
  275TCM    cl3 1542   1.067   2.089   0.880
  276TCM     c1 1543   3.345   2.927   2.300
  276TCM    cl1 1544   3.398   2.756   2.315
  276TCM    cl2 1545   3.460   3.016   2.194
  276TCM     h1 1546   3.245   2.931   2.256
  276TCM    cl3 1547   3.342   3.003   2.462
  277TCM     c1 1548   3.010   3.487   2.612
  277TCM    cl1 1549   3.106   3.530   2.467
  277TCM    cl2 1550   2.836   3.478   2.569
  277TCM     h1 1551   3.042   3.390   2.651
  277TCM    cl3 1552   3.033   3.613   2.738
  278TCM     c1 1553   1.188   1.084   4.997
  278TCM    cl1 1554   1.077   1.068   5.137
  278TCM    cl2 1555   1.210   0.922   4.922
  278TCM     h1 1556   1.145   1.153   4.923
  278TCM    cl3 1557   1.347   1.145   5.053
  279TCM     c1 1558   3.165   0.060   0.641
  279TCM    cl1 1559   3.181   0.045   0.820
  279TCM    cl2 1560   3.302  -0.023   0.562
  279TCM     h1 1561   3.071   0.015   0.609
  279TCM    cl3 1562   3.167   0.234   0.596
  280TCM     c1 1563   2.059   3.445   0.806
  280TCM    cl1 1564   2.181   3.516   0.916
  280TCM    cl2 1565   1.947   3.342   0.901
  280TCM     h1 1566   2.003   3.524   0.756
  280TCM    cl3 1567   2.144   3.345   0.683
  281TCM     c1 1568   2.841   3.814   1.716
  281TCM    cl1 1569   2.754   3.911   1.839
  281TCM    cl2 1570   2.903   3.664   1.791
  281TCM     h1 1571   2.773   3.789   1.634
  281TCM    cl3 1572   2.978   3.910   1.652
  282TCM     c1 1573   4.781   0.449   3.888
  282TCM    cl1 1574   4.842   0.509   3.730
  282TCM    cl2 1575   4.791   0.580   4.009
  282TCM     h1 1576   4.677   0.417   3.877
  282TCM    cl3 1577   4.881   0.309   3.939
  283TCM     c1 1578   4.527   2.809   4.616
  283TCM    cl1 1579   4.459   2.721   4.757
  283TCM    cl2 1580   4.703   2.833   4.639
  283TCM     h1 1581   4.510   2.751   4.524
  283TCM    cl3 1582   4.447   2.969   4.601
  284TCM     c1 1583   0.930   4.701   2.041
  284TCM    cl1 1584   0.968   4.810   1.903
  284TCM    cl2 1585   1.073   4.601   2.080
  284TCM     h1 1586   0.902   4.761   2.128
  284TCM    cl3 1587   0.794   4.593   1.998
  285TCM     c1 1588   0.125   0.126   4.951
  285TCM    cl1 1589   0.189   0.188   4.794
  285TCM    cl2 1590   0.040   0.259   5.037
  285TCM     h1 1591   0.055   0.044   4.932
  285TCM    cl3 1592   0.260   0.067   5.052
  286TCM     c1 1593   4.644   0.194   3.631
  286TCM    cl1 1594   4.548   0.189   3.783
  286TCM    cl2 1595   4.544   0.138   3.494
  286TCM     h1 1596   4.677   0.297   3.612
  286TCM    cl3 1597   4.787   0.088   3.650
  287TCM     c1 1598   3.423   4.852   4.182
  287TCM    cl1 1599   3.503   4.756   4.053
  287TCM    cl2 1600   3.480   5.022   4.175
  287TCM     h1 1601   3.315   4.849   4.168
  287TCM    cl3 1602   3.465   4.783   4.343
  288TCM     c1 1603   1.461   1.791   1.558
  288TCM    cl1 1604   1.306   1.744   1.637
  288TCM    cl2 1605   1.559   1.884   1.676
  288TCM     h1 1606   1.515   1.701   1.528
  288TCM    cl3 1607   1.426   1.892   1.414
  289TCM     c1 1608   0.246   4.952   1.324
  289TCM    cl1 1609   0.255   5.118   1.390
  289TCM    cl2 1610   0.087   4.879   1.365
  289TCM     h1 1611   0.257   4.955   1.215
  289TCM    cl3 1612   0.377   4.852   1.395
  290TCM     c1 1613   3.303   1.570   2.574
  290TCM    cl1 1614   3.230   1.410   2.538
  290TCM    cl2 1615   3.412   1.616   2.440
  290TCM     h1 1616   3.224   1.644   2.585
  290TCM    cl3 1617   3.397   1.561   2.727
  291TCM     c1 1618   3.662   0.242   0.360
  291TCM    cl1 1619   3.727   0.403   0.313
  291TCM    cl2 1620   3.487   0.257   0.398
  291TCM     h1 1621   3.676   0.172   0.277
  291TCM    cl3 1622   3.749   0.182   0.505
  292TCM     c1 1623   0.566   1.305   1.933
  292TCM    cl1 1624   0.743   1.320   1.909
  292TCM    cl2 1625   0.491   1.466   1.903
  292TCM     h1 1626   0.525   1.231   1.863
  292TCM    cl3 1627   0.534   1.254   2.102
  293TCM     c1 1628   2.932   3.819   1.203
  293TCM    cl1 1629   2.829   3.780   1.061
  293TCM    cl2 1630   2.845   3.771   1.353
  293TCM     h1 1631   3.026   3.765   1.197
  293TCM    cl3 1632   2.963   3.996   1.208
  294TCM     c1 1633   2.475   2.361   3.998
  294TCM    cl1 1634   2.306   2.418   3.974
  294TCM    cl2 1635   2.484   2.258   4.144
  294TCM     h1 1636   2.506   2.303   3.911
  294TCM    cl3 1637   2.584   2.502   4.017
  295TCM     c1 1638   0.436   2.188   0.476
  295TCM    cl1 1639   0.580   2.128   0.388
  295TCM    cl2 1640   0.483   2.324   0.583
  295TCM     h1 1641   0.361   2.223   0.404
  295TCM    cl3 1642   0.368   2.054   0.573
  296TCM     c1 1643   2.588   0.315   1.473
  296TCM    cl1 1644   2.720   0.258   1.580
  296TCM    cl2 1645   2.629   0.478   1.411
  296TCM     h1 1646   2.576   0.246   1.389
  296TCM    cl3 1647   2.435   0.323   1.566
  297TCM     c1 1648   2.490   3.626   0.118
  297TCM    cl1 1649   2.513   3.499  -0.007
  297TCM    cl2 1650   2.371   3.570   0.240
  297TCM     h1 1651   2.585   3.647   0.166
  297TCM    cl3 1652   2.428   3.776   0.040
  298TCM     c1 1653   0.331   3.317   4.804
  298TCM    cl1 1654   0.163   3.294   4.745
  298TCM    cl2 1655   0.346   3.249   4.969
  298TCM     h1 1656   0.401   3.266   4.737
  298TCM    cl3 1657   0.369   3.492   4.808
  299TCM     c1 1658   3.845   1.893   1.583
  299TCM    cl1 1659   3.966   1.770   1.536
  299TCM    cl2 1660   3.859   2.037   1.476
  299TCM     h1 1661   3.744   1.851   1.574
  299TCM    cl3 1662   3.873   1.943   1.753
  300TCM     c1 1663   2.316   2.648   2.494
  300TCM    cl1 1664   2.300   2.477   2.440
  300TCM    cl2 1665   2.273   2.662   2.667
  300TCM     h1 1666   2.419   2.681   2.479
  300TCM    cl3 1667   2.205   2.750   2.396
  301TCM     c1 1668   4.732   2.619   0.602
  301TCM    cl1 1669   4.791   2.788   0.612
  301TCM    cl2 1670   4.558   2.614   0.646
  301TCM     h1 1671   4.745   2.581   0.500
  301TCM    cl3 1672   4.825   2.516   0.716
  302TCM     c1 1673   0.058   4.231   1.602
  302TCM    cl1 1674   0.122   4.076   1.665
  302TCM    cl2 1675   0.068   4.355   1.731
  302TCM     h1 1676   0.116   4.263   1.515
  302TCM    cl3 1677  -0.114   4.208   1.556
  303TCM     c1 1678   3.300   1.559   3.603
  303TCM    cl1 1679   3.194   1.461   3.497
  303TCM    cl2 1680   3.360   1.701   3.512
  303TCM     h1 1681   3.245   1.592   3.691
  303TCM    cl3 1682   3.441   1.459   3.654
  304TCM     c1 1683   0.810   3.738   2.201
  304TCM    cl1 1684   0.656   3.650   2.230
  304TCM    cl2 1685   0.938   3.673   2.309
  304TCM     h1 1686   0.840   3.726   2.097
  304TCM    cl3 1687   0.786   3.913   2.236
  305TCM     c1 1688   3.063   4.053   2.065
  305TCM    cl1 1689   3.065   4.149   1.914
  305TCM    cl2 1690   3.091   3.880   2.024
  305TCM     h1 1691   3.142   4.088   2.132
  305TCM    cl3 1692   2.904   4.071   2.145
  306TCM     c1 1693   1.538   2.941   1.941
  306TCM    cl1 1694   1.480   2.937   1.772
  306TCM    cl2 1695   1.714   2.907   1.944
  306TCM     h1 1696   1.520   3.039   1.984
  306TCM    cl3 1697   1.451   2.817   2.038
  307TCM     c1 1698   4.735   0.029   4.863
  307TCM    cl1 1699   4.860  -0.003   4.738
  307TCM    cl2 1700   4.694   0.203   4.863
  307TCM     h1 1701   4.645  -0.030   4.840
  307TCM    cl3 1702   4.799  -0.016   5.024
  308TCM     c1 1703   4.347   4.903   2.349
  308TCM    cl1 1704   4.333   5.071   2.411
  308TCM    cl2 1705   4.275   4.789   2.468
  308TCM     h1 1706   4.294   4.894   2.254
  308TCM    cl3 1707   4.520   4.863   2.325
  309TCM     c1 1708   1.325   0.159   2.905
  309TCM    cl1 1709   1.217   0.041   2.988
  309TCM    cl2 1710   1.348   0.107   2.735
  309TCM     h1 1711   1.281   0.259   2.909
  309TCM    cl3 1712   1.484   0.160   2.988
  310TCM     c1 1713   3.466   4.762   3.514
  310TCM    cl1 1714   3.579   4.835   3.395
  310TCM    cl2 1715   3.517   4.807   3.680
  310TCM     h1 1716   3.365   4.800   3.495
  310TCM    cl3 1717   3.467   4.584   3.496
  311TCM     c1 1718   3.877   2.221   4.740
  311TCM    cl1 1719   3.914   2.396   4.725
  311TCM    cl2 1720   3.990   2.147   4.858
  311TCM     h1 1721   3.774   2.208   4.773
  311TCM    cl3 1722   3.900   2.143   4.580
  312TCM     c1 1723   4.819   3.928   2.424
  312TCM    cl1 1724   4.784   3.897   2.251
  312TCM    cl2 1725   4.981   4.003   2.439
  312TCM     h1 1726   4.744   3.996   2.465
  312TCM    cl3 1727   4.816   3.773   2.514
  313TCM     c1 1728   4.865   3.017   2.159
  313TCM    cl1 1729   4.868   3.054   1.983
  313TCM    cl2 1730   4.715   2.925   2.196
  313TCM     h1 1731   4.952   2.957   2.186
  313TCM    cl3 1732   4.866   3.170   2.252
  314TCM     c1 1733   1.328   2.126   0.592
  314TCM    cl1 1734   1.422   2.273   0.552
  314TCM    cl2 1735   1.426   2.019   0.698
  314TCM     h1 1736   1.236   2.155   0.645
  314TCM    cl3 1737   1.285   2.039   0.441
  315TCM     c1 1738   1.024   1.756   3.786
  315TCM    cl1 1739   1.072   1.592   3.841
  315TCM    cl2 1740   0.995   1.752   3.608
  315TCM     h1 1741   0.932   1.786   3.837
  315TCM    cl3 1742   1.154   1.873   3.823
  316TCM     c1 1743   4.185   3.568   1.123
  316TCM    cl1 1744   4.327   3.487   1.198
  316TCM    cl2 1745   4.231   3.630   0.961
  316TCM     h1 1746   4.103   3.497   1.114
  316TCM    cl3 1747   4.134   3.705   1.226
  317TCM     c1 1748   0.261   4.812   1.760
  317TCM    cl1 1749   0.206   4.981   1.740
  317TCM    cl2 1750   0.134   4.702   1.695
  317TCM     h1 1751   0.355   4.796   1.707
  317TCM    cl3 1752   0.283   4.779   1.935
  318TCM     c1 1753   1.350   2.263   1.701
  318TCM    cl1 1754   1.264   2.111   1.659
  318TCM    cl2 1755   1.525   2.245   1.668
  318TCM     h1 1756   1.309   2.345   1.642
  318TCM    cl3 1757   1.326   2.298   1.876
  319TCM     c1 1758   0.745   2.083   3.901
  319TCM    cl1 1759   0.815   2.060   3.737
  319TCM    cl2 1760   0.840   1.989   4.020
  319TCM     h1 1761   0.746   2.189   3.927
  319TCM    cl3 1762   0.575   2.023   3.902
  320TCM     c1 1763   0.891   0.723   4.700
  320TCM    cl1 1764   0.936   0.892   4.662
  320TCM    cl2 1765   1.033   0.635   4.765
  320TCM     h1 1766   0.811   0.722   4.775
  320TCM    cl3 1767   0.835   0.641   4.551
  321TCM     c1 1768   3.440   3.009   0.788
  321TCM    cl1 1769   3.285   3.097   0.808
  321TCM    cl2 1770   3.560   3.070   0.906
  321TCM     h1 1771   3.423   2.902   0.804
  321TCM    cl3 1772   3.502   3.035   0.621
  322TCM     c1 1773   3.516   4.800   2.876
  322TCM    cl1 1774   3.451   4.883   3.022
  322TCM    cl2 1775   3.669   4.881   2.826
  322TCM     h1 1776   3.536   4.695   2.899
  322TCM    cl3 1777   3.397   4.811   2.743
  323TCM     c1 1778   4.703   3.215   4.726
  323TCM    cl1 1779   4.783   3.290   4.867
  323TCM    cl2 1780   4.813   3.219   4.584
  323TCM     h1 1781   4.678   3.111   4.749
  323TCM    cl3 1782   4.553   3.306   4.687
  324TCM     c1 1783   4.624   2.534   2.537
  324TCM    cl1 1784   4.641   2.595   2.369
  324TCM    cl2 1785   4.573   2.669   2.643
  324TCM     h1 1786   4.550   2.454   2.539
  324TCM    cl3 1787   4.782   2.471   2.593
  325TCM     c1 1788   2.148   4.702   3.367
  325TCM    cl1 1789   2.046   4.777   3.240
  325TCM    cl2 1790   2.045   4.613   3.484
  325TCM     h1 1791   2.218   4.631   3.320
  325TCM    cl3 1792   2.241   4.828   3.454
  326TCM     c1 1793   3.515   2.231   0.672
  326TCM    cl1 1794   3.444   2.332   0.541
  326TCM    cl2 1795   3.414   2.244   0.820
  326TCM     h1 1796   3.520   2.127   0.639
  326TCM    cl3 1797   3.681   2.290   0.708
  327TCM     c1 1798   2.483   1.808   2.382
  327TCM    cl1 1799   2.500   1.943   2.499
  327TCM    cl2 1800   2.518   1.867   2.216
  327TCM     h1 1801   2.553   1.728   2.408
  327TCM    cl3 1802   2.315   1.745   2.388
  328TCM     c1 1803   2.969   2.400   3.068
  328TCM    cl1 1804   2.976   2.315   3.226
  328TCM    cl2 1805   2.976   2.577   3.095
  328TCM     h1 1806   3.054   2.369   3.006
  328TCM    cl3 1807   2.816   2.358   2.984
  329TCM     c1 1808   0.073   1.835   1.577
  329TCM    cl1 1809   0.045   1.981   1.678
  329TCM    cl2 1810   0.108   1.885   1.409
  329TCM     h1 1811   0.158   1.778   1.617
  329TCM    cl3 1812  -0.074   1.732   1.580
  330TCM     c1 1813   1.744   1.191   3.287
  330TCM    cl1 1814   1.818   1.150   3.128
  330TCM    cl2 1815   1.572   1.139   3.289
  330TCM     h1 1816   1.798   1.139   3.367
  330TCM    cl3 1817   1.753   1.368   3.313
  331TCM     c1 1818   3.421   4.269   2.031
  331TCM    cl1 1819   3.416   4.094   2.071
  331TCM    cl2 1820   3.576   4.340   2.084
  331TCM     h1 1821   3.411   4.282   1.923
  331TCM    cl3 1822   3.286   4.353   2.114
  332TCM     c1 1823   2.116   3.751   0.469
  332TCM    cl1 1824   2.212   3.730   0.619
  332TCM    cl2 1825   2.004   3.890   0.489
  332TCM     h1 1826   2.182   3.769   0.385
  332TCM    cl3 1827   2.021   3.601   0.440
  333TCM     c1 1828   4.568   2.144   2.948
  333TCM    cl1 1829   4.699   2.213   2.846
  333TCM    cl2 1830   4.590   2.198   3.118
  333TCM     h1 1831   4.471   2.179   2.911
  333TCM    cl3 1832   4.575   1.965   2.941
  334TCM     c1 1833   2.361   3.687   1.175
  334TCM    cl1 1834   2.377   3.798   1.035
  334TCM    cl2 1835   2.196   3.700   1.243
  334TCM     h1 1836   2.379   3.584   1.142
  334TCM    cl3 1837   2.482   3.731   1.300
  335TCM     c1 1838   0.965   4.860   4.455
  335TCM    cl1 1839   1.041   5.020   4.426
  335TCM    cl2 1840   1.074   4.731   4.392
  335TCM     h1 1841   0.949   4.845   4.562
  335TCM    cl3 1842   0.807   4.853   4.369
  336TCM     c1 1843   3.520   3.037   3.585
  336TCM    cl1 1844   3.625   3.093   3.451
  336TCM    cl2 1845   3.574   3.114   3.738
  336TCM     h1 1846   3.416   3.066   3.565
  336TCM    cl3 1847   3.532   2.859   3.598
  337TCM     c1 1848   3.776   3.822   1.191
  337TCM    cl1 1849   3.637   3.767   1.289
  337TCM    cl2 1850   3.737   3.978   1.112
  337TCM     h1 1851   3.864   3.834   1.255
  337TCM    cl3 1852   3.811   3.699   1.065
  338TCM     c1 1853   2.595   1.385   3.587
  338TCM    cl1 1854   2.593   1.243   3.477
  338TCM    cl2 1855   2.745   1.385   3.686
  338TCM     h1 1856   2.590   1.477   3.529
  338TCM    cl3 1857   2.453   1.375   3.696
  339TCM     c1 1858   2.028   3.527   4.591
  339TCM    cl1 1859   1.979   3.695   4.630
  339TCM    cl2 1860   2.023   3.504   4.413
  339TCM     h1 1861   2.129   3.508   4.628
  339TCM    cl3 1862   1.914   3.411   4.668
  340TCM     c1 1863   4.372   3.765   2.988
  340TCM    cl1 1864   4.261   3.862   3.090
  340TCM    cl2 1865   4.414   3.857   2.839
  340TCM     h1 1866   4.463   3.743   3.044
  340TCM    cl3 1867   4.292   3.611   2.942
  341TCM     c1 1868   3.256   1.927   4.781
  341TCM    cl1 1869   3.174   2.013   4.646
  341TCM    cl2 1870   3.148   1.799   4.845
  341TCM     h1 1871   3.348   1.881   4.744
  341TCM    cl3 1872   3.295   2.044   4.911
  342TCM     c1 1873   0.600   0.556   3.831
  342TCM    cl1 1874   0.518   0.691   3.917
  342TCM    cl2 1875   0.658   0.614   3.672
  342TCM     h1 1876   0.684   0.520   3.891
  342TCM    cl3 1877   0.484   0.421   3.805
  343TCM     c1 1878   3.492   0.765   1.920
  343TCM    cl1 1879   3.519   0.661   1.775
  343TCM    cl2 1880   3.547   0.932   1.886
  343TCM     h1 1881   3.386   0.765   1.945
  343TCM    cl3 1882   3.586   0.699   2.059
  344TCM     c1 1883   3.056   4.902   2.327
  344TCM    cl1 1884   2.923   4.957   2.435
  344TCM    cl2 1885   2.988   4.858   2.167
  344TCM     h1 1886   3.129   4.983   2.316
  344TCM    cl3 1887   3.136   4.759   2.399
  345TCM     c1 1888   2.862   4.505   2.121
  345TCM    cl1 1889   2.957   4.491   1.969
  345TCM    cl2 1890   2.964   4.455   2.261
  345TCM     h1 1891   2.830   4.608   2.135
  345TCM    cl3 1892   2.718   4.398   2.112
  346TCM     c1 1893   0.760   0.802   1.815
  346TCM    cl1 1894   0.901   0.814   1.705
  346TCM    cl2 1895   0.611   0.777   1.717
  346TCM     h1 1896   0.773   0.718   1.883
  346TCM    cl3 1897   0.745   0.955   1.908
  347TCM     c1 1898   2.403   4.161   3.026
  347TCM    cl1 1899   2.336   4.284   3.138
  347TCM    cl2 1900   2.402   4.000   3.105
  347TCM     h1 1901   2.341   4.157   2.935
  347TCM    cl3 1902   2.571   4.204   2.982
  348TCM     c1 1903   4.284   1.818   4.722
  348TCM    cl1 1904   4.428   1.770   4.626
  348TCM    cl2 1905   4.156   1.878   4.612
  348TCM     h1 1906   4.247   1.731   4.778
  348TCM    cl3 1907   4.330   1.948   4.836
  349TCM     c1 1908   0.511   0.442   4.958
  349TCM    cl1 1909   0.365   0.510   4.879
  349TCM    cl2 1910   0.658   0.516   4.886
  349TCM     h1 1911   0.508   0.463   5.065
  349TCM    cl3 1912   0.517   0.265   4.932
  350TCM     c1 1913   4.107   3.614   0.023
  350TCM    cl1 1914   4.144   3.789   0.042
  350TCM    cl2 1915   4.215   3.544  -0.102
  350TCM     h1 1916   4.122   3.563   0.118
  350TCM    cl3 1917   3.936   3.595  -0.029
  351TCM     c1 1918   2.067   2.048   2.416
  351TCM    cl1 1919   1.938   2.173   2.426
  351TCM    cl2 1920   2.124   2.007   2.581
  351TCM     h1 1921   2.027   1.959   2.367
  351TCM    cl3 1922   2.203   2.114   2.320
  352TCM     c1 1923   2.117   4.100   1.343
  352TCM    cl1 1924   2.287   4.043   1.342
  352TCM    cl2 1925   2.048   4.075   1.506
  352TCM     h1 1926   2.114   4.207   1.318
  352TCM    cl3 1927   2.021   4.008   1.222
  353TCM     c1 1928   4.253   3.490   1.755
  353TCM    cl1 1929   4.226   3.496   1.577
  353TCM    cl2 1930   4.253   3.656   1.822
  353TCM     h1 1931   4.174   3.431   1.802
  353TCM    cl3 1932   4.412   3.413   1.787
  354TCM     c1 1933   2.737   4.427   0.568
  354TCM    cl1 1934   2.818   4.554   0.472
  354TCM    cl2 1935   2.859   4.339   0.666
  354TCM     h1 1936   2.663   4.473   0.634
  354TCM    cl3 1937   2.656   4.310   0.459
  355TCM     c1 1938   2.847   2.261   4.385
  355TCM    cl1 1939   2.857   2.401   4.273
  355TCM    cl2 1940   2.683   2.255   4.458
  355TCM     h1 1941   2.867   2.169   4.330
  355TCM    cl3 1942   2.968   2.281   4.516
  356TCM     c1 1943   1.682   3.215   2.298
  356TCM    cl1 1944   1.521   3.171   2.233
  356TCM    cl2 1945   1.694   3.394   2.308
  356TCM     h1 1946   1.695   3.172   2.397
  356TCM    cl3 1947   1.809   3.152   2.188
  357TCM     c1 1948   0.810   3.997   4.666
  357TCM    cl1 1949   0.893   4.111   4.555
  357TCM    cl2 1950   0.633   4.022   4.654
  357TCM     h1 1951   0.835   3.894   4.637
  357TCM    cl3 1952   0.864   4.026   4.834
  358TCM     c1 1953   0.211   2.286   1.560
  358TCM    cl1 1954   0.390   2.277   1.568
  358TCM    cl2 1955   0.162   2.396   1.427
  358TCM     h1 1956   0.170   2.186   1.541
  358TCM    cl3 1957   0.147   2.347   1.716
  359TCM     c1 1958   4.517   0.809   3.960
  359TCM    cl1 1959   4.578   0.945   4.061
  359TCM    cl2 1960   4.605   0.809   3.803
  359TCM     h1 1961   4.535   0.715   4.011
  359TCM    cl3 1962   4.342   0.830   3.931
  360TCM     c1 1963   3.631   0.860   0.263
  360TCM    cl1 1964   3.579   0.745   0.391
  360TCM    cl2 1965   3.506   0.987   0.243
  360TCM     h1 1966   3.726   0.906   0.292
  360TCM    cl3 1967   3.651   0.771   0.108
  361TCM     c1 1968   1.949   1.560   3.659
  361TCM    cl1 1969   2.118   1.501   3.646
  361TCM    cl2 1970   1.838   1.420   3.671
  361TCM     h1 1971   1.939   1.623   3.749
  361TCM    cl3 1972   1.910   1.657   3.514
  362TCM     c1 1973   0.380   1.907   1.953
  362TCM    cl1 1974   0.259   1.786   1.898
  362TCM    cl2 1975   0.375   1.917   2.132
  362TCM     h1 1976   0.479   1.876   1.921
  362TCM    cl3 1977   0.342   2.068   1.884
  363TCM     c1 1978   1.596   0.400   3.231
  363TCM    cl1 1979   1.650   0.492   3.375
  363TCM    cl2 1980   1.736   0.369   3.123
  363TCM     h1 1981   1.553   0.305   3.263
  363TCM    cl3 1982   1.472   0.495   3.142
  364TCM     c1 1983   2.153   4.153   0.877
  364TCM    cl1 1984   2.009   4.250   0.922
  364TCM    cl2 1985   2.108   3.980   0.862
  364TCM     h1 1986   2.193   4.189   0.782
  364TCM    cl3 1987   2.278   4.171   1.004
  365TCM     c1 1988   3.540   1.670   3.976
  365TCM    cl1 1989   3.575   1.771   3.831
  365TCM    cl2 1990   3.366   1.626   3.977
  365TCM     h1 1991   3.601   1.580   3.973
  365TCM    cl3 1992   3.579   1.764   4.124
  366TCM     c1 1993   2.163   3.540   4.046
  366TCM    cl1 1994   2.213   3.547   3.874
  366TCM    cl2 1995   2.122   3.370   4.088
  366TCM     h1 1996   2.245   3.574   4.110
  366TCM    cl3 1997   2.020   3.646   4.071
  367TCM     c1 1998   3.218   0.545   4.793
  367TCM    cl1 1999   3.102   0.681   4.806
  367TCM    cl2 2000   3.250   0.511   4.619
  367TCM     h1 2001   3.312   0.571   4.843
  367TCM    cl3 2002   3.147   0.399   4.868
  368TCM     c1 2003   3.002   2.677   2.327
  368TCM    cl1 2004   3.045   2.747   2.168
  368TCM    cl2 2005   3.027   2.802   2.454
  368TCM     h1 2006   2.898   2.645   2.327
  368TCM    cl3 2007   3.109   2.537   2.363
  369TCM     c1 2008   4.950   4.131   0.767
  369TCM    cl1 2009   4.775   4.091   0.760
  369TCM    cl2 2010   4.971   4.285   0.857
  369TCM     h1 2011   5.004   4.051   0.818
  369TCM    cl3 2012   5.013   4.150   0.600
  370TCM     c1 2013   1.979   2.724   4.157
  370TCM    cl1 2014   2.134   2.670   4.230
  370TCM    cl2 2015   2.012   2.841   4.025
  370TCM     h1 2016   1.926   2.638   4.117
  370TCM    cl3 2017   1.879   2.802   4.284
  371TCM     c1 2018   2.381   3.921   4.330
  371TCM    cl1 2019   2.264   3.785   4.332
  371TCM    cl2 2020   2.548   3.854   4.335
  371TCM     h1 2021   2.368   3.979   4.238
  371TCM    cl3 2022   2.355   4.026   4.472
  372TCM     c1 2023   4.546   4.978   2.698
  372TCM    cl1 2024   4.576   4.801   2.689
  372TCM    cl2 2025   4.669   5.054   2.805
  372TCM     h1 2026   4.552   5.021   2.598
  372TCM    cl3 2027   4.383   5.007   2.768
  373TCM     c1 2028   1.979   3.597   1.871
  373TCM    cl1 2029   2.097   3.714   1.937
  373TCM    cl2 2030   1.895   3.514   2.007
  373TCM     h1 2031   1.905   3.649   1.810
  373TCM    cl3 2032   2.064   3.475   1.772
  374TCM     c1 2033   3.413   0.480   0.695
  374TCM    cl1 2034   3.316   0.585   0.587
  374TCM    cl2 2035   3.392   0.534   0.864
  374TCM     h1 2036   3.380   0.377   0.684
  374TCM    cl3 2037   3.587   0.494   0.651
  375TCM     c1 2038   0.295   3.692   2.769
  375TCM    cl1 2039   0.355   3.750   2.928
  375TCM    cl2 2040   0.116   3.684   2.774
  375TCM     h1 2041   0.327   3.761   2.690
  375TCM    cl3 2042   0.361   3.529   2.736
  376TCM     c1 2043   2.890   2.633   4.571
  376TCM    cl1 2044   2.911   2.801   4.510
  376TCM    cl2 2045   2.721   2.610   4.625
  376TCM     h1 2046   2.912   2.563   4.490
  376TCM    cl3 2047   3.002   2.605   4.708
  377TCM     c1 2048   2.396   0.041   0.276
  377TCM    cl1 2049   2.527   0.088   0.163
  377TCM    cl2 2050   2.370  -0.136   0.267
  377TCM     h1 2051   2.424   0.069   0.378
  377TCM    cl3 2052   2.245   0.126   0.230
  378TCM     c1 2053   2.884   0.257   2.086
  378TCM    cl1 2054   3.023   0.246   2.200
  378TCM    cl2 2055   2.760   0.136   2.134
  378TCM     h1 2056   2.841   0.357   2.090
  378TCM    cl3 2057   2.941   0.221   1.920
  379TCM     c1 2058   1.663   3.579   4.468
  379TCM    cl1 2059   1.591   3.642   4.620
  379TCM    cl2 2060   1.674   3.711   4.348
  379TCM     h1 2061   1.763   3.540   4.488
  379TCM    cl3 2062   1.559   3.447   4.405
  380TCM     c1 2063   0.745   2.637   0.415
  380TCM    cl1 2064   0.906   2.692   0.358
  380TCM    cl2 2065   0.754   2.604   0.591
  380TCM     h1 2066   0.671   2.714   0.396
  380TCM    cl3 2067   0.701   2.486   0.329
  381TCM     c1 2068   2.804   0.080   3.061
  381TCM    cl1 2069   2.786   0.223   3.168
  381TCM    cl2 2070   2.716  -0.058   3.133
  381TCM     h1 2071   2.763   0.103   2.962
  381TCM    cl3 2072   2.978   0.038   3.045
  382TCM     c1 2073   2.023   2.905   0.797
  382TCM    cl1 2074   1.999   2.982   0.958
  382TCM    cl2 2075   1.966   3.017   0.669
  382TCM     h1 2076   2.129   2.883   0.783
  382TCM    cl3 2077   1.928   2.753   0.789
  383TCM     c1 2078   3.087   0.083   3.870
  383TCM    cl1 2079   3.123   0.250   3.815
  383TCM    cl2 2080   3.240  -0.010   3.880
  383TCM     h1 2081   3.040   0.087   3.968
  383TCM    cl3 2082   2.976   0.004   3.754
  384TCM     c1 2083   2.876   3.338   4.964
  384TCM    cl1 2084   2.930   3.385   4.800
  384TCM    cl2 2085   2.921   3.468   5.080
  384TCM     h1 2086   2.767   3.325   4.965
  384TCM    cl3 2087   2.957   3.186   5.014
  385TCM     c1 2088   0.181   0.439   4.083
  385TCM    cl1 2089   0.063   0.480   4.212
  385TCM    cl2 2090   0.347   0.448   4.152
  385TCM     h1 2091   0.162   0.338   4.047
  385TCM    cl3 2092   0.166   0.555   3.947
  386TCM     c1 2093   2.670   2.402   3.613
  386TCM    cl1 2094   2.705   2.256   3.712
  386TCM    cl2 2095   2.505   2.460   3.650
  386TCM     h1 2096   2.743   2.480   3.637
  386TCM    cl3 2097   2.681   2.360   3.439
  387TCM     c1 2098   0.688   1.142   0.064
  387TCM    cl1 2099   0.772   1.286   0.130
  387TCM    cl2 2100   0.781   1.078  -0.075
  387TCM     h1 2101   0.679   1.065   0.141
  387TCM    cl3 2102   0.524   1.190   0.007
  388TCM     c1 2103   4.572   2.969   1.767
  388TCM    cl1 2104   4.406   3.037   1.753
  388TCM    cl2 2105   4.631   2.922   1.604
  388TCM     h1 2106   4.639   3.044   1.810
  388TCM    cl3 2107   4.569   2.824   1.872
  389TCM     c1 2108   3.071   3.238   0.366
  389TCM    cl1 2109   2.987   3.079   0.371
  389TCM    cl2 2110   3.225   3.227   0.458
  389TCM     h1 2111   3.092   3.265   0.262
  389TCM    cl3 2112   2.968   3.364   0.441
  390TCM     c1 2113   2.709   4.649   1.396
  390TCM    cl1 2114   2.677   4.626   1.221
  390TCM    cl2 2115   2.553   4.680   1.480
  390TCM     h1 2116   2.755   4.559   1.437
  390TCM    cl3 2117   2.819   4.789   1.419
  391TCM     c1 2118   2.767   3.827   4.739
  391TCM    cl1 2119   2.602   3.888   4.704
  391TCM    cl2 2120   2.822   3.722   4.605
  391TCM     h1 2121   2.835   3.912   4.750
  391TCM    cl3 2122   2.762   3.732   4.891
  392TCM     c1 2123   4.100   3.918   2.649
  392TCM    cl1 2124   3.976   3.977   2.533
  392TCM    cl2 2125   4.124   3.742   2.626
  392TCM     h1 2126   4.194   3.971   2.632
  392TCM    cl3 2127   4.042   3.949   2.816
  393TCM     c1 2128   2.509   1.353   2.205
  393TCM    cl1 2129   2.378   1.465   2.153
  393TCM    cl2 2130   2.610   1.437   2.327
  393TCM     h1 2131   2.465   1.263   2.249
  393TCM    cl3 2132   2.609   1.308   2.063
  394TCM     c1 2133   4.980   2.172   0.595
  394TCM    cl1 2134   4.864   2.131   0.726
  394TCM    cl2 2135   5.104   2.285   0.658
  394TCM     h1 2136   5.029   2.080   0.560
  394TCM    cl3 2137   4.893   2.248   0.459
  395TCM     c1 2138   4.167   0.455   3.072
  395TCM    cl1 2139   4.205   0.283   3.107
  395TCM    cl2 2140   3.992   0.484   3.097
  395TCM     h1 2141   4.224   0.519   3.139
  395TCM    cl3 2142   4.210   0.493   2.902
  396TCM     c1 2143   0.044   2.315   0.001
  396TCM    cl1 2144   0.123   2.477  -0.003
  396TCM    cl2 2145   0.031   2.251  -0.165
  396TCM     h1 2146   0.104   2.247   0.062
  396TCM    cl3 2147  -0.120   2.329   0.073
  397TCM     c1 2148   3.423   0.888   0.769
  397TCM    cl1 2149   3.387   0.982   0.918
  397TCM    cl2 2150   3.595   0.837   0.771
  397TCM     h1 2151   3.359   0.800   0.766
  397TCM    cl3 2152   3.393   0.990   0.624
  398TCM     c1 2153   2.695   4.202   4.518
  398TCM    cl1 2154   2.807   4.069   4.477
  398TCM    cl2 2155   2.641   4.283   4.368
  398TCM     h1 2156   2.608   4.163   4.572
  398TCM    cl3 2157   2.780   4.320   4.623
  399TCM     c1 2158   1.426   0.206   0.207
  399TCM    cl1 2159   1.494   0.040   0.206
  399TCM    cl2 2160   1.262   0.203   0.134
  399TCM     h1 2161   1.419   0.242   0.310
  399TCM    cl3 2162   1.533   0.314   0.112
  400TCM     c1 2163   1.463   3.177   4.171
  400TCM    cl1 2164   1.597   3.077   4.236
  400TCM    cl2 2165   1.308   3.123   4.243
  400TCM     h1 2166   1.480   3.282   4.196
  400TCM    cl3 2167   1.455   3.157   3.993
  401TCM     c1 2168   1.460   2.290   2.214
  401TCM    cl1 2169   1.615   2.295   2.305
  401TCM    cl2 2170   1.376   2.447   2.234
  401TCM     h1 2171   1.481   2.272   2.109
  401TCM    cl3 2172   1.358   2.158   2.280
  402TCM     c1 2173   1.280   1.220   0.420
  402TCM    cl1 2174   1.309   1.395   0.446
  402TCM    cl2 2175   1.113   1.180   0.475
  402TCM     h1 2176   1.290   1.196   0.314
  402TCM    cl3 2177   1.397   1.123   0.515
  403TCM     c1 2178   0.415   4.940   2.830
  403TCM    cl1 2179   0.380   5.021   2.673
  403TCM    cl2 2180   0.565   4.844   2.815
  403TCM     h1 2181   0.427   5.015   2.908
  403TCM    cl3 2182   0.280   4.830   2.871
  404TCM     c1 2183   2.863   3.746   0.393
  404TCM    cl1 2184   2.820   3.892   0.489
  404TCM    cl2 2185   2.894   3.796   0.224
  404TCM     h1 2186   2.953   3.699   0.435
  404TCM    cl3 2187   2.728   3.629   0.395
  405TCM     c1 2188   0.124   1.669   0.572
  405TCM    cl1 2189   0.081   1.827   0.646
  405TCM    cl2 2190   0.255   1.693   0.453
  405TCM     h1 2191   0.158   1.600   0.650
  405TCM    cl3 2192  -0.021   1.601   0.490
  406TCM     c1 2193   3.164   4.576   3.820
  406TCM    cl1 2194   3.121   4.655   3.975
  406TCM    cl2 2195   3.332   4.514   3.830
  406TCM     h1 2196   3.096   4.493   3.800
  406TCM    cl3 2197   3.153   4.695   3.686
  407TCM     c1 2198   0.510   3.085   3.377
  407TCM    cl1 2199   0.601   2.932   3.358
  407TCM    cl2 2200   0.509   3.174   3.221
  407TCM     h1 2201   0.407   3.063   3.407
  407TCM    cl3 2202   0.588   3.186   3.503
  408TCM     c1 2203   2.809   0.542   1.784
  408TCM    cl1 2204   2.766   0.686   1.686
  408TCM    cl2 2205   2.662   0.478   1.864
  408TCM     h1 2206   2.853   0.465   1.720
  408TCM    cl3 2207   2.928   0.589   1.910
  409TCM     c1 2208   4.728   4.840   4.155
  409TCM    cl1 2209   4.862   4.825   4.273
  409TCM    cl2 2210   4.731   4.700   4.043
  409TCM     h1 2211   4.633   4.842   4.209
  409TCM    cl3 2212   4.747   4.992   4.062
  410TCM     c1 2213   3.954   0.849   2.160
  410TCM    cl1 2214   3.906   0.879   1.990
  410TCM    cl2 2215   3.990   0.674   2.182
  410TCM     h1 2216   4.043   0.908   2.183
  410TCM    cl3 2217   3.820   0.895   2.269
  411TCM     c1 2218   2.473   4.514   1.825
  411TCM    cl1 2219   2.502   4.392   1.697
  411TCM    cl2 2220   2.333   4.616   1.778
  411TCM     h1 2221   2.451   4.463   1.919
  411TCM    cl3 2222   2.617   4.619   1.844
  412TCM     c1 2223   2.199   2.587   0.416
  412TCM    cl1 2224   2.195   2.741   0.508
  412TCM    cl2 2225   2.059   2.486   0.465
  412TCM     h1 2226   2.193   2.608   0.309
  412TCM    cl3 2227   2.351   2.499   0.451
  413TCM     c1 2228   2.265   4.501   0.437
  413TCM    cl1 2229   2.175   4.417   0.568
  413TCM    cl2 2230   2.329   4.379   0.322
  413TCM     h1 2231   2.197   4.568   0.385
  413TCM    cl3 2232   2.401   4.594   0.507
  414TCM     c1 2233   3.461   1.002   2.265
  414TCM    cl1 2234   3.485   0.914   2.419
  414TCM    cl2 2235   3.427   1.175   2.299
  414TCM     h1 2236   3.550   0.993   2.203
  414TCM    cl3 2237   3.321   0.930   2.178
  415TCM     c1 2238   3.629   3.806   0.698
  415TCM    cl1 2239   3.522   3.790   0.841
  415TCM    cl2 2240   3.769   3.910   0.737
  415TCM     h1 2241   3.664   3.707   0.668
  415TCM    cl3 2242   3.536   3.879   0.563
  416TCM     c1 2243   1.596   3.954   1.836
  416TCM    cl1 2244   1.652   4.079   1.720
  416TCM    cl2 2245   1.738   3.863   1.900
  416TCM     h1 2246   1.543   4.001   1.919
  416TCM    cl3 2247   1.486   3.839   1.752
  417TCM     c1 2248   4.974   2.594   2.884
  417TCM    cl1 2249   5.138   2.591   2.812
  417TCM    cl2 2250   4.890   2.744   2.831
  417TCM     h1 2251   4.917   2.506   2.851
  417TCM    cl3 2252   4.989   2.594   3.063
  418TCM     c1 2253   1.622   1.113   2.056
  418TCM    cl1 2254   1.763   1.060   2.153
  418TCM    cl2 2255   1.573   0.980   1.946
  418TCM     h1 2256   1.539   1.138   2.123
  418TCM    cl3 2257   1.668   1.257   1.960
  419TCM     c1 2258   1.219   4.236   0.052
  419TCM    cl1 2259   1.210   4.184  -0.119
  419TCM    cl2 2260   1.116   4.129   0.153
  419TCM     h1 2261   1.323   4.231   0.087
  419TCM    cl3 2262   1.159   4.405   0.065
  420TCM     c1 2263   3.130   2.693   0.719
  420TCM    cl1 2264   3.222   2.790   0.599
  420TCM    cl2 2265   3.113   2.785   0.871
  420TCM     h1 2266   3.031   2.669   0.679
  420TCM    cl3 2267   3.219   2.541   0.752
  421TCM     c1 2268   0.711   1.784   2.500
  421TCM    cl1 2269   0.556   1.848   2.436
  421TCM    cl2 2270   0.733   1.841   2.669
  421TCM     h1 2271   0.710   1.675   2.498
  421TCM    cl3 2272   0.846   1.847   2.401
  422TCM     c1 2273   2.892   0.467   4.559
  422TCM    cl1 2274   2.866   0.620   4.469
  422TCM    cl2 2275   2.962   0.345   4.447
  422TCM     h1 2276   2.962   0.484   4.642
  422TCM    cl3 2277   2.736   0.407   4.624
  423TCM     c1 2278   0.423   4.261   3.872
  423TCM    cl1 2279   0.519   4.183   3.742
  423TCM    cl2 2280   0.530   4.295   4.013
  423TCM     h1 2281   0.380   4.355   3.835
  423TCM    cl3 2282   0.291   4.151   3.923
  424TCM     c1 2283   4.931   4.037   1.232
  424TCM    cl1 2284   5.022   3.928   1.341
  424TCM    cl2 2285   4.915   3.957   1.072
  424TCM     h1 2286   4.832   4.057   1.273
  424TCM    cl3 2287   5.021   4.191   1.214
  425TCM     c1 2288   2.652   2.230   0.190
  425TCM    cl1 2289   2.534   2.353   0.132
  425TCM    cl2 2290   2.591   2.155   0.340
  425TCM     h1 2291   2.666   2.154   0.113
  425TCM    cl3 2292   2.809   2.311   0.223
  426TCM     c1 2293   4.983   4.597   3.322
  426TCM    cl1 2294   4.945   4.520   3.164
  426TCM    cl2 2295   5.146   4.673   3.313
  426TCM     h1 2296   4.908   4.674   3.345
  426TCM    cl3 2297   4.981   4.471   3.450
  427TCM     c1 2298   3.322   2.323   2.103
  427TCM    cl1 2299   3.289   2.486   2.036
  427TCM    cl2 2300   3.168   2.246   2.154
  427TCM     h1 2301   3.370   2.262   2.026
  427TCM    cl3 2302   3.432   2.339   2.243
  428TCM     c1 2303   4.287   0.840   4.840
  428TCM    cl1 2304   4.129   0.833   4.924
  428TCM    cl2 2305   4.419   0.824   4.960
  428TCM     h1 2306   4.293   0.759   4.767
  428TCM    cl3 2307   4.302   0.999   4.756
  429TCM     c1 2308   1.087   1.882   4.291
  429TCM    cl1 2309   1.180   1.835   4.437
  429TCM    cl2 2310   1.047   1.735   4.196
  429TCM     h1 2311   0.994   1.931   4.321
  429TCM    cl3 2312   1.184   1.995   4.191
  430TCM     c1 2313   0.603   0.062   1.831
  430TCM    cl1 2314   0.548   0.052   1.660
  430TCM    cl2 2315   0.618  -0.104   1.897
  430TCM     h1 2316   0.699   0.113   1.836
  430TCM    cl3 2317   0.482   0.152   1.927
  431TCM     c1 2318   3.680   0.196   0.879
  431TCM    cl1 2319   3.674   0.341   0.983
  431TCM    cl2 2320   3.518   0.166   0.808
  431TCM     h1 2321   3.753   0.211   0.798
  431TCM    cl3 2322   3.727   0.054   0.977
  432TCM     c1 2323   2.975   1.905   3.422
  432TCM    cl1 2324   2.976   2.055   3.521
  432TCM    cl2 2325   2.971   1.762   3.531
  432TCM     h1 2326   2.886   1.904   3.358
  432TCM    cl3 2327   3.122   1.899   3.321
  433TCM     c1 2328   3.850   2.821   3.345
  433TCM    cl1 2329   3.932   2.974   3.298
  433TCM    cl2 2330   3.961   2.684   3.313
  433TCM     h1 2331   3.825   2.824   3.451
  433TCM    cl3 2332   3.701   2.801   3.248
  434TCM     c1 2333   3.132   4.387   1.649
  434TCM    cl1 2334   3.298   4.405   1.713
  434TCM    cl2 2335   3.134   4.268   1.514
  434TCM     h1 2336   3.066   4.350   1.728
  434TCM    cl3 2337   3.071   4.545   1.590
  435TCM     c1 2338   0.354   1.213   3.861
  435TCM    cl1 2339   0.309   1.059   3.941
  435TCM    cl2 2340   0.249   1.241   3.718
  435TCM     h1 2341   0.342   1.296   3.932
  435TCM    cl3 2342   0.524   1.202   3.808
  436TCM     c1 2343   0.600   1.978   1.561
  436TCM    cl1 2344   0.669   1.991   1.726
  436TCM    cl2 2345   0.442   1.894   1.570
  436TCM     h1 2346   0.587   2.078   1.519
  436TCM    cl3 2347   0.712   1.883   1.456
  437TCM     c1 2348   0.118   2.595   0.931
  437TCM    cl1 2349   0.272   2.543   0.857
  437TCM    cl2 2350   0.072   2.757   0.867
  437TCM     h1 2351   0.039   2.523   0.907
  437TCM    cl3 2352   0.138   2.607   1.109
  438TCM     c1 2353   0.821   3.489   4.897
  438TCM    cl1 2354   0.707   3.378   4.813
  438TCM    cl2 2355   0.779   3.659   4.857
  438TCM     h1 2356   0.814   3.474   5.005
  438TCM    cl3 2357   0.988   3.454   4.842
  439TCM     c1 2358   3.586   1.016   1.443
  439TCM    cl1 2359   3.729   1.001   1.551
  439TCM    cl2 2360   3.536   1.188   1.436
  439TCM     h1 2361   3.612   0.981   1.343
  439TCM    cl3 2362   3.451   0.917   1.508
  440TCM     c1 2363   3.577   1.943   4.512
  440TCM    cl1 2364   3.547   1.772   4.557
  440TCM    cl2 2365   3.565   2.045   4.659
  440TCM     h1 2366   3.677   1.952   4.469
  440TCM    cl3 2367   3.453   1.994   4.394
  441TCM     c1 2368   0.586   3.829   4.041
  441TCM    cl1 2369   0.443   3.817   3.933
  441TCM    cl2 2370   0.701   3.951   3.975
  441TCM     h1 2371   0.554   3.860   4.141
  441TCM    cl3 2372   0.667   3.669   4.049
  442TCM     c1 2373   3.440   3.114   0.119
  442TCM    cl1 2374   3.494   3.045  -0.037
  442TCM    cl2 2375   3.359   2.987   0.217
  442TCM     h1 2376   3.527   3.152   0.174
  442TCM    cl3 2377   3.325   3.248   0.090
  443TCM     c1 2378   0.887   2.380   1.348
  443TCM    cl1 2379   0.779   2.257   1.422
  443TCM    cl2 2380   0.891   2.356   1.170
  443TCM     h1 2381   0.849   2.480   1.371
  443TCM    cl3 2382   1.053   2.361   1.414
  444TCM     c1 2383   4.437   4.919   0.190
  444TCM    cl1 2384   4.278   4.913   0.272
  444TCM    cl2 2385   4.545   5.031   0.279
  444TCM     h1 2386   4.481   4.819   0.189
  444TCM    cl3 2387   4.416   4.978   0.022
  445TCM     c1 2388   4.723   1.067   4.911
  445TCM    cl1 2389   4.689   0.976   4.760
  445TCM    cl2 2390   4.584   1.173   4.949
  445TCM     h1 2391   4.740   0.997   4.993
  445TCM    cl3 2392   4.869   1.168   4.887
  446TCM     c1 2393   3.035   0.550   3.089
  446TCM    cl1 2394   2.907   0.540   2.963
  446TCM    cl2 2395   3.159   0.670   3.039
  446TCM     h1 2396   2.991   0.582   3.183
  446TCM    cl3 2397   3.112   0.389   3.109
  447TCM     c1 2398   4.538   1.252   4.580
  447TCM    cl1 2399   4.701   1.328   4.577
  447TCM    cl2 2400   4.529   1.125   4.453
  447TCM     h1 2401   4.521   1.207   4.678
  447TCM    cl3 2402   4.414   1.377   4.549
  448TCM     c1 2403   0.138   2.082   3.597
  448TCM    cl1 2404   0.148   1.997   3.755
  448TCM    cl2 2405   0.076   2.249   3.622
  448TCM     h1 2406   0.238   2.086   3.553
  448TCM    cl3 2407   0.027   1.993   3.488
  449TCM     c1 2408   0.033   4.841   3.719
  449TCM    cl1 2409  -0.106   4.728   3.711
  449TCM    cl2 2410   0.183   4.756   3.670
  449TCM     h1 2411   0.015   4.925   3.651
  449TCM    cl3 2412   0.052   4.902   3.887
  450TCM     c1 2413   3.259   0.586   3.575
  450TCM    cl1 2414   3.163   0.599   3.424
  450TCM    cl2 2415   3.337   0.425   3.583
  450TCM     h1 2416   3.336   0.664   3.576
  450TCM    cl3 2417   3.151   0.609   3.717
  451TCM     c1 2418   3.840   3.595   1.570
  451TCM    cl1 2419   3.939   3.736   1.522
  451TCM    cl2 2420   3.887   3.544   1.736
  451TCM     h1 2421   3.734   3.623   1.568
  451TCM    cl3 2422   3.870   3.462   1.454
  452TCM     c1 2423   0.621   0.099   1.301
  452TCM    cl1 2424   0.758  -0.011   1.339
  452TCM    cl2 2425   0.550   0.051   1.143
  452TCM     h1 2426   0.545   0.092   1.379
  452TCM    cl3 2427   0.680   0.268   1.289
  453TCM     c1 2428   2.417   3.923   3.549
  453TCM    cl1 2429   2.544   3.965   3.669
  453TCM    cl2 2430   2.487   3.821   3.420
  453TCM     h1 2431   2.337   3.868   3.599
  453TCM    cl3 2432   2.351   4.074   3.477
  454TCM     c1 2433   4.505   3.822   1.196
  454TCM    cl1 2434   4.624   3.880   1.318
  454TCM    cl2 2435   4.593   3.756   1.055
  454TCM     h1 2436   4.442   3.744   1.241
  454TCM    cl3 2437   4.401   3.959   1.144
  455TCM     c1 2438   3.397   4.299   4.132
  455TCM    cl1 2439   3.253   4.233   4.048
  455TCM    cl2 2440   3.448   4.185   4.261
  455TCM     h1 2441   3.478   4.312   4.060
  455TCM    cl3 2442   3.356   4.457   4.206
  456TCM     c1 2443   1.637   2.108   4.710
  456TCM    cl1 2444   1.534   2.241   4.772
  456TCM    cl2 2445   1.695   2.152   4.546
  456TCM     h1 2446   1.722   2.093   4.776
  456TCM    cl3 2447   1.541   1.956   4.700
  457TCM     c1 2448   1.643   3.337   1.713
  457TCM    cl1 2449   1.666   3.515   1.712
  457TCM    cl2 2450   1.625   3.281   1.883
  457TCM     h1 2451   1.554   3.312   1.656
  457TCM    cl3 2452   1.786   3.258   1.640
  458TCM     c1 2453   1.932   4.707   1.339
  458TCM    cl1 2454   2.065   4.734   1.457
  458TCM    cl2 2455   1.955   4.815   1.198
  458TCM     h1 2456   1.934   4.603   1.306
  458TCM    cl3 2457   1.775   4.742   1.418
  459TCM     c1 2458   4.044   4.203   3.376
  459TCM    cl1 2459   3.991   4.224   3.205
  459TCM    cl2 2460   4.081   4.364   3.447
  459TCM     h1 2461   3.964   4.156   3.433
  459TCM    cl3 2462   4.191   4.101   3.380
  460TCM     c1 2463   0.367   0.922   3.594
  460TCM    cl1 2464   0.541   0.927   3.552
  460TCM    cl2 2465   0.313   0.753   3.616
  460TCM     h1 2466   0.349   0.979   3.686
  460TCM    cl3 2467   0.272   0.995   3.459
  461TCM     c1 2468   1.808   4.175   0.300
  461TCM    cl1 2469   1.665   4.266   0.239
  461TCM    cl2 2470   1.953   4.280   0.293
  461TCM     h1 2471   1.790   4.144   0.403
  461TCM    cl3 2472   1.833   4.030   0.197
  462TCM     c1 2473   3.344   0.129   0.035
  462TCM    cl1 2474   3.242   0.070   0.170
  462TCM    cl2 2475   3.289   0.057  -0.120
  462TCM     h1 2476   3.335   0.238   0.028
  462TCM    cl3 2477   3.515   0.084   0.064
  463TCM     c1 2478   3.714   0.839   2.992
  463TCM    cl1 2479   3.603   0.760   2.875
  463TCM    cl2 2480   3.879   0.846   2.922
  463TCM     h1 2481   3.678   0.940   3.014
  463TCM    cl3 2482   3.719   0.743   3.144
  464TCM     c1 2483   4.932   4.360   3.807
  464TCM    cl1 2484   4.921   4.207   3.713
  464TCM    cl2 2485   5.098   4.425   3.791
  464TCM     h1 2486   4.860   4.432   3.769
  464TCM    cl3 2487   4.898   4.326   3.980
  465TCM     c1 2488   4.438   1.520   4.980
  465TCM    cl1 2489   4.572   1.541   4.862
  465TCM    cl2 2490   4.287   1.480   4.891
  465TCM     h1 2491   4.463   1.439   5.049
  465TCM    cl3 2492   4.415   1.673   5.071
  466TCM     c1 2493   0.610   0.613   2.735
  466TCM    cl1 2494   0.787   0.588   2.739
  466TCM    cl2 2495   0.537   0.503   2.614
  466TCM     h1 2496   0.568   0.592   2.834
  466TCM    cl3 2497   0.576   0.782   2.690
  467TCM     c1 2498   0.760   1.639   2.087
  467TCM    cl1 2499   0.934   1.630   2.129
  467TCM    cl2 2500   0.713   1.811   2.063
  467TCM     h1 2501   0.742   1.583   1.995
  467TCM    cl3 2502   0.662   1.570   2.220
  468TCM     c1 2503   3.498   2.086   1.422
  468TCM    cl1 2504   3.339   2.165   1.393
  468TCM    cl2 2505   3.546   1.993   1.276
  468TCM     h1 2506   3.573   2.163   1.443
  468TCM    cl3 2507   3.484   1.974   1.562
  469TCM     c1 2508   2.833   0.790   4.119
  469TCM    cl1 2509   2.845   0.763   3.942
  469TCM    cl2 2510   2.660   0.790   4.167
  469TCM     h1 2511   2.886   0.710   4.172
  469TCM    cl3 2512   2.908   0.948   4.160
  470TCM     c1 2513   4.674   2.380   4.607
  470TCM    cl1 2514   4.757   2.484   4.728
  470TCM    cl2 2515   4.796   2.280   4.521
  470TCM     h1 2516   4.603   2.315   4.658
  470TCM    cl3 2517   4.587   2.483   4.489
  471TCM     c1 2518   3.804   0.616   2.602
  471TCM    cl1 2519   3.766   0.526   2.452
  471TCM    cl2 2520   3.925   0.743   2.566
  471TCM     h1 2521   3.713   0.663   2.641
  471TCM    cl3 2522   3.872   0.505   2.725
  472TCM     c1 2523   3.186   1.891   2.937
  472TCM    cl1 2524   3.201   1.885   2.758
  472TCM    cl2 2525   3.113   2.047   2.985
  472TCM     h1 2526   3.123   1.808   2.971
  472TCM    cl3 2527   3.350   1.875   3.008
  473TCM     c1 2528   3.627   1.537   1.566
  473TCM    cl1 2529   3.610   1.646   1.424
  473TCM    cl2 2530   3.631   1.634   1.716
  473TCM     h1 2531   3.543   1.467   1.569
  473TCM    cl3 2532   3.781   1.444   1.551
  474TCM     c1 2533   0.346   3.282   1.404
  474TCM    cl1 2534   0.174   3.273   1.355
  474TCM    cl2 2535   0.413   3.116   1.418
  474TCM     h1 2536   0.403   3.338   1.329
  474TCM    cl3 2537   0.359   3.364   1.564
  475TCM     c1 2538   2.481   3.541   4.540
  475TCM    cl1 2539   2.592   3.439   4.637
  475TCM    cl2 2540   2.371   3.630   4.650
  475TCM     h1 2541   2.539   3.612   4.481
  475TCM    cl3 2542   2.384   3.436   4.431
  476TCM     c1 2543   1.840   1.409   1.681
  476TCM    cl1 2544   1.953   1.519   1.767
  476TCM    cl2 2545   1.919   1.349   1.531
  476TCM     h1 2546   1.816   1.325   1.745
  476TCM    cl3 2547   1.691   1.499   1.638
  477TCM     c1 2548   4.501   2.351   0.183
  477TCM    cl1 2549   4.598   2.432   0.311
  477TCM    cl2 2550   4.550   2.179   0.173
  477TCM     h1 2551   4.395   2.357   0.208
  477TCM    cl3 2552   4.531   2.433   0.026
  478TCM     c1 2553   3.132   4.391   3.360
  478TCM    cl1 2554   2.981   4.323   3.291
  478TCM    cl2 2555   3.274   4.316   3.278
  478TCM     h1 2556   3.134   4.499   3.344
  478TCM    cl3 2557   3.139   4.356   3.535
  479TCM     c1 2558   0.020   3.624   4.868
  479TCM    cl1 2559  -0.091   3.616   5.009
  479TCM    cl2 2560   0.103   3.783   4.867
  479TCM     h1 2561   0.094   3.544   4.875
  479TCM    cl3 2562  -0.074   3.605   4.716
  480TCM     c1 2563   1.245   2.486   3.113
  480TCM    cl1 2564   1.090   2.551   3.174
  480TCM    cl2 2565   1.213   2.367   2.983
  480TCM     h1 2566   1.307   2.568   3.073
  480TCM    cl3 2567   1.332   2.405   3.248
  481TCM     c1 2568   2.462   2.704   0.947
  481TCM    cl1 2569   2.456   2.677   0.770
  481TCM    cl2 2570   2.485   2.546   1.031
  481TCM     h1 2571   2.545   2.770   0.972
  481TCM    cl3 2572   2.307   2.778   1.001
  482TCM     c1 2573   0.059   3.477   3.169
  482TCM    cl1 2574   0.181   3.420   3.050
  482TCM    cl2 2575  -0.085   3.369   3.163
  482TCM     h1 2576   0.102   3.475   3.269
  482TCM    cl3 2577   0.009   3.644   3.128
  483TCM     c1 2578   2.620   4.597   3.170
  483TCM    cl1 2579   2.639   4.443   3.259
  483TCM    cl2 2580   2.455   4.662   3.195
  483TCM     h1 2581   2.694   4.669   3.206
  483TCM    cl3 2582   2.646   4.567   2.995
  484TCM     c1 2583   0.027   2.615   3.772
  484TCM    cl1 2584   0.199   2.567   3.762
  484TCM    cl2 2585   0.012   2.790   3.736
  484TCM     h1 2586  -0.031   2.558   3.699
  484TCM    cl3 2587  -0.035   2.583   3.937
  485TCM     c1 2588   2.579   2.053   3.283
  485TCM    cl1 2589   2.451   1.948   3.214
  485TCM    cl2 2590   2.723   2.050   3.177
  485TCM     h1 2591   2.542   2.155   3.292
  485TCM    cl3 2592   2.624   1.991   3.445
  486TCM     c1 2593   1.900   0.616   3.612
  486TCM    cl1 2594   2.017   0.505   3.533
  486TCM    cl2 2595   1.990   0.753   3.686
  486TCM     h1 2596   1.830   0.654   3.537
  486TCM    cl3 2597   1.810   0.528   3.740
  487TCM     c1 2598   0.999   0.133   0.454
  487TCM    cl1 2599   1.043   0.302   0.413
  487TCM    cl2 2600   0.966   0.042   0.303
  487TCM     h1 2601   1.082   0.085   0.508
  487TCM    cl3 2602   0.853   0.133   0.559
  488TCM     c1 2603   4.265   1.096   3.409
  488TCM    cl1 2604   4.157   1.049   3.545
  488TCM    cl2 2605   4.409   0.989   3.406
  488TCM     h1 2606   4.210   1.088   3.315
  488TCM    cl3 2607   4.319   1.266   3.431
  489TCM     c1 2608   3.143   4.716   3.096
  489TCM    cl1 2609   3.220   4.738   3.257
  489TCM    cl2 2610   2.970   4.674   3.118
  489TCM     h1 2611   3.152   4.808   3.038
  489TCM    cl3 2612   3.225   4.582   3.010
  490TCM     c1 2613   2.166   2.293   2.834
  490TCM    cl1 2614   2.063   2.364   2.706
  490TCM    cl2 2615   2.144   2.386   2.986
  490TCM     h1 2616   2.137   2.189   2.850
  490TCM    cl3 2617   2.338   2.299   2.784
  491TCM     c1 2618   1.463   0.604   4.899
  491TCM    cl1 2619   1.543   0.739   4.986
  491TCM    cl2 2620   1.424   0.654   4.732
  491TCM     h1 2621   1.530   0.518   4.897
  491TCM    cl3 2622   1.312   0.561   4.985
  492TCM     c1 2623   2.226   4.351   4.174
  492TCM    cl1 2624   2.296   4.509   4.221
  492TCM    cl2 2625   2.126   4.285   4.308
  492TCM     h1 2626   2.163   4.364   4.085
  492TCM    cl3 2627   2.359   4.237   4.137
  493TCM     c1 2628   0.854   3.657   4.422
  493TCM    cl1 2629   0.791   3.813   4.359
  493TCM    cl2 2630   0.720   3.566   4.499
  493TCM     h1 2631   0.896   3.598   4.340
  493TCM    cl3 2632   0.982   3.689   4.544
  494TCM     c1 2633   4.904   3.261   1.693
  494TCM    cl1 2634   4.979   3.113   1.624
  494TCM    cl2 2635   4.733   3.271   1.640
  494TCM     h1 2636   4.909   3.257   1.803
  494TCM    cl3 2637   4.992   3.406   1.636
  495TCM     c1 2638   3.274   0.985   3.282
  495TCM    cl1 2639   3.323   1.113   3.397
  495TCM    cl2 2640   3.409   0.948   3.170
  495TCM     h1 2641   3.246   0.895   3.337
  495TCM    cl3 2642   3.133   1.042   3.187
  496TCM     c1 2643   0.108   1.434   1.864
  496TCM    cl1 2644   0.180   1.279   1.917
  496TCM    cl2 2645  -0.069   1.416   1.846
  496TCM     h1 2646   0.130   1.512   1.938
  496TCM    cl3 2647   0.178   1.481   1.705
  497TCM     c1 2648   1.478   4.820   1.083
  497TCM    cl1 2649   1.322   4.742   1.041
  497TCM    cl2 2650   1.608   4.697   1.076
  497TCM     h1 2651   1.499   4.900   1.012
  497TCM    cl3 2652   1.468   4.887   1.249
  498TCM     c1 2653   2.859   2.705   3.403
  498TCM    cl1 2654   2.966   2.598   3.499
  498TCM    cl2 2655   2.946   2.857   3.363
  498TCM     h1 2656   2.829   2.655   3.311
  498TCM    cl3 2657   2.713   2.745   3.500
  499TCM     c1 2658   0.164   3.089   1.005
  499TCM    cl1 2659   0.302   3.204   0.992
  499TCM    cl2 2660   0.014   3.182   1.036
  499TCM     h1 2661   0.154   3.033   0.912
  499TCM    cl3 2662   0.194   2.976   1.140
  500TCM     c1 2663   1.793   0.101   4.973
  500TCM    cl1 2664   1.786  -0.074   4.938
  500TCM    cl2 2665   1.897   0.182   4.851
  500TCM     h1 2666   1.692   0.143   4.969
  500TCM    cl3 2667   1.863   0.126   5.137
  501TCM     c1 2668   0.986   1.646   3.055
  501TCM    cl1 2669   0.942   1.479   3.007
  501TCM    cl2 2670   0.985   1.659   3.234
  501TCM     h1 2671   1.086   1.670   3.017
  501TCM    cl3 2672   0.867   1.761   2.986
  502TCM     c1 2673   2.822   3.638   2.155
  502TCM    cl1 2674   2.842   3.464   2.196
  502TCM    cl2 2675   2.851   3.738   2.301
  502TCM     h1 2676   2.894   3.665   2.077
  502TCM    cl3 2677   2.655   3.665   2.095
  503TCM     c1 2678   1.560   0.487   2.571
  503TCM    cl1 2679   1.482   0.648   2.552
  503TCM    cl2 2680   1.539   0.430   2.739
  503TCM     h1 2681   1.514   0.416   2.502
  503TCM    cl3 2682   1.735   0.504   2.534
  504TCM     c1 2683  -0.000   4.880   2.625
  504TCM    cl1 2684  -0.114   4.907   2.489
  504TCM    cl2 2685  -0.067   4.754   2.734
  504TCM     h1 2686   0.096   4.846   2.586
  504TCM    cl3 2687   0.021   5.033   2.716
  505TCM     c1 2688   2.729   3.783   2.881
  505TCM    cl1 2689   2.741   3.852   3.046
  505TCM    cl2 2690   2.598   3.867   2.791
  505TCM     h1 2691   2.824   3.796   2.829
  505TCM    cl3 2692   2.689   3.608   2.893
  506TCM     c1 2693   0.426   4.899   4.765
  506TCM    cl1 2694   0.263   4.829   4.790
  506TCM    cl2 2695   0.493   4.841   4.610
  506TCM     h1 2696   0.418   5.008   4.763
  506TCM    cl3 2697   0.534   4.850   4.900
  507TCM     c1 2698   1.531   3.867   4.974
  507TCM    cl1 2699   1.420   3.885   4.834
  507TCM    cl2 2700   1.539   3.694   5.021
  507TCM     h1 2701   1.631   3.902   4.947
  507TCM    cl3 2702   1.468   3.964   5.112
  508TCM     c1 2703   0.690   1.835   3.412
  508TCM    cl1 2704   0.661   1.888   3.243
  508TCM    cl2 2705   0.671   1.656   3.421
  508TCM     h1 2706   0.791   1.863   3.443
  508TCM    cl3 2707   0.570   1.912   3.522
  509TCM     c1 2708   4.838   0.520   4.573
  509TCM    cl1 2709   4.926   0.484   4.726
  509TCM    cl2 2710   4.831   0.698   4.548
  509TCM     h1 2711   4.890   0.473   4.489
  509TCM    cl3 2712   4.671   0.455   4.585
  510TCM     c1 2713   4.434   2.122   2.372
  510TCM    cl1 2714   4.277   2.035   2.370
  510TCM    cl2 2715   4.499   2.126   2.539
  510TCM     h1 2716   4.505   2.071   2.306
  510TCM    cl3 2717   4.410   2.291   2.315
  511TCM     c1 2718   3.388   4.689   1.394
  511TCM    cl1 2719   3.374   4.515   1.351
  511TCM    cl2 2720   3.510   4.766   1.287
  511TCM     h1 2721   3.291   4.738   1.381
  511TCM    cl3 2722   3.440   4.704   1.565
  512TCM     c1 2723   4.896   4.984   0.384
  512TCM    cl1 2724   4.897   5.161   0.412
  512TCM    cl2 2725   4.881   4.898   0.541
  512TCM     h1 2726   4.811   4.957   0.320
  512TCM    cl3 2727   5.049   4.937   0.305
  513TCM     c1 2728   3.914   4.932   0.035
  513TCM    cl1 2729   3.926   4.790   0.145
  513TCM    cl2 2730   4.059   4.938  -0.070
  513TCM     h1 2731   3.824   4.923  -0.026
  513TCM    cl3 2732   3.906   5.082   0.133
  514TCM     c1 2733   0.874   0.188   2.151
  514TCM    cl1 2734   0.735   0.301   2.147
  514TCM    cl2 2735   0.956   0.189   1.991
  514TCM     h1 2736   0.945   0.219   2.228
  514TCM    cl3 2737   0.815   0.022   2.185
  515TCM     c1 2738   2.705   4.946   4.177
  515TCM    cl1 2739   2.578   4.821   4.164
  515TCM    cl2 2740   2.851   4.893   4.086
  515TCM     h1 2741   2.668   5.040   4.134
  515TCM    cl3 2742   2.749   4.973   4.349
  516TCM     c1 2743   4.381   3.987   1.595
  516TCM    cl1 2744   4.305   3.849   1.509
  516TCM    cl2 2745   4.274   4.037   1.730
  516TCM     h1 2746   4.478   3.957   1.634
  516TCM    cl3 2747   4.401   4.124   1.481
  517TCM     c1 2748   3.156   3.682   4.797
  517TCM    cl1 2749   3.243   3.559   4.894
  517TCM    cl2 2750   3.267   3.750   4.674
  517TCM     h1 2751   3.070   3.636   4.748
  517TCM    cl3 2752   3.100   3.813   4.906
  518TCM     c1 2753   2.799   0.410   4.050
  518TCM    cl1 2754   2.701   0.424   4.199
  518TCM    cl2 2755   2.793   0.241   3.992
  518TCM     h1 2756   2.760   0.478   3.974
  518TCM    cl3 2757   2.969   0.453   4.088
  519TCM     c1 2758   3.501   3.383   1.677
  519TCM    cl1 2759   3.490   3.479   1.525
  519TCM    cl2 2760   3.531   3.494   1.815
  519TCM     h1 2761   3.407   3.329   1.693
  519TCM    cl3 2762   3.636   3.266   1.664
  520TCM     c1 2763   0.048   3.031   3.128
  520TCM    cl1 2764   0.150   2.932   3.019
  520TCM    cl2 2765   0.152   3.107   3.254
  520TCM     h1 2766  -0.003   3.109   3.071
  520TCM    cl3 2767  -0.073   2.927   3.210
  521TCM     c1 2768   1.603   3.500   3.082
  521TCM    cl1 2769   1.750   3.442   3.167
  521TCM    cl2 2770   1.537   3.644   3.167
  521TCM     h1 2771   1.629   3.527   2.979
  521TCM    cl3 2772   1.479   3.370   3.080
  522TCM     c1 2773   2.787   4.163   1.510
  522TCM    cl1 2774   2.642   4.058   1.513
  522TCM    cl2 2775   2.810   4.239   1.672
  522TCM     h1 2776   2.875   4.104   1.485
  522TCM    cl3 2777   2.765   4.292   1.387
  523TCM     c1 2778   0.252   1.573   2.744
  523TCM    cl1 2779   0.084   1.621   2.706
  523TCM    cl2 2780   0.358   1.717   2.736
  523TCM     h1 2781   0.256   1.530   2.845
  523TCM    cl3 2782   0.307   1.452   2.623
  524TCM     c1 2783   4.633   3.072   2.580
  524TCM    cl1 2784   4.783   2.977   2.557
  524TCM    cl2 2785   4.500   3.003   2.482
  524TCM     h1 2786   4.605   3.070   2.686
  524TCM    cl3 2787   4.662   3.243   2.531
  525TCM     c1 2788   2.587   4.847   2.419
  525TCM    cl1 2789   2.649   4.771   2.269
  525TCM    cl2 2790   2.455   4.746   2.487
  525TCM     h1 2791   2.668   4.855   2.492
  525TCM    cl3 2792   2.523   5.010   2.381
  526TCM     c1 2793   2.857   3.153   2.398
  526TCM    cl1 2794   2.784   3.022   2.299
  526TCM    cl2 2795   3.027   3.177   2.347
  526TCM     h1 2796   2.800   3.245   2.384
  526TCM    cl3 2797   2.854   3.107   2.572
  527TCM     c1 2798   1.759   3.326   3.945
  527TCM    cl1 2799   1.854   3.429   3.833
  527TCM    cl2 2800   1.760   3.396   4.110
  527TCM     h1 2801   1.656   3.319   3.909
  527TCM    cl3 2802   1.831   3.162   3.950
  528TCM     c1 2803   0.095   1.923   0.212
  528TCM    cl1 2804   0.078   1.922   0.034
  528TCM    cl2 2805  -0.066   1.905   0.288
  528TCM     h1 2806   0.160   1.840   0.243
  528TCM    cl3 2807   0.167   2.078   0.264
  529TCM     c1 2808   2.073   2.940   1.893
  529TCM    cl1 2809   2.055   2.870   2.058
  529TCM    cl2 2810   2.244   2.924   1.842
  529TCM     h1 2811   2.009   2.886   1.823
  529TCM    cl3 2812   2.027   3.113   1.895
  530TCM     c1 2813   1.914   0.485   4.603
  530TCM    cl1 2814   1.836   0.349   4.515
  530TCM    cl2 2815   2.079   0.435   4.653
  530TCM     h1 2816   1.920   0.572   4.538
  530TCM    cl3 2817   1.817   0.526   4.748
  531TCM     c1 2818   0.413   4.984   3.879
  531TCM    cl1 2819   0.575   4.957   3.951
  531TCM    cl2 2820   0.432   5.013   3.703
  531TCM     h1 2821   0.350   4.897   3.895
  531TCM    cl3 2822   0.337   5.128   3.956
  532TCM     c1 2823   1.726   4.329   1.366
  532TCM    cl1 2824   1.769   4.392   1.204
  532TCM    cl2 2825   1.854   4.375   1.482
  532TCM     h1 2826   1.630   4.371   1.397
  532TCM    cl3 2827   1.712   4.150   1.358
  533TCM     c1 2828   4.928   0.953   3.932
  533TCM    cl1 2829   4.997   0.884   4.082
  533TCM    cl2 2830   5.003   0.873   3.789
  533TCM     h1 2831   4.820   0.935   3.930
  533TCM    cl3 2832   4.960   1.129   3.925
  534TCM     c1 2833   2.481   3.004   4.913
  534TCM    cl1 2834   2.379   2.950   4.776
  534TCM    cl2 2835   2.378   3.044   5.054
  534TCM     h1 2836   2.550   2.924   4.940
  534TCM    cl3 2837   2.573   3.151   4.867
  535TCM     c1 2838   2.699   4.105   0.993
  535TCM    cl1 2839   2.727   4.282   1.003
  535TCM    cl2 2840   2.608   4.065   0.843
  535TCM     h1 2841   2.795   4.053   0.992
  535TCM    cl3 2842   2.604   4.054   1.136
  536TCM     c1 2843   1.596   0.944   3.667
  536TCM    cl1 2844   1.625   0.862   3.824
  536TCM    cl2 2845   1.596   0.822   3.536
  536TCM     h1 2846   1.499   0.995   3.670
  536TCM    cl3 2847   1.727   1.063   3.636
  537TCM     c1 2848   1.599   1.101   2.537
  537TCM    cl1 2849   1.495   1.147   2.398
  537TCM    cl2 2850   1.699   0.959   2.493
  537TCM     h1 2851   1.664   1.185   2.565
  537TCM    cl3 2852   1.493   1.058   2.675
  538TCM     c1 2853   1.969   3.061   3.619
  538TCM    cl1 2854   1.870   2.949   3.519
  538TCM    cl2 2855   1.975   3.222   3.541
  538TCM     h1 2856   1.924   3.070   3.719
  538TCM    cl3 2857   2.136   2.996   3.635
  539TCM     c1 2858   3.712   4.102   2.862
  539TCM    cl1 2859   3.631   4.174   3.005
  539TCM    cl2 2860   3.794   4.231   2.769
  539TCM     h1 2861   3.786   4.028   2.895
  539TCM    cl3 2862   3.590   4.022   2.758
  540TCM     c1 2863   2.830   4.991   0.344
  540TCM    cl1 2864   2.980   4.893   0.358
  540TCM    cl2 2865   2.861   5.156   0.407
  540TCM     h1 2866   2.800   4.997   0.239
  540TCM    cl3 2867   2.699   4.914   0.440
  541TCM     c1 2868   1.465   3.632   3.946
  541TCM    cl1 2869   1.624   3.708   3.983
  541TCM    cl2 2870   1.410   3.536   4.087
  541TCM     h1 2871   1.392   3.711   3.924
  541TCM    cl3 2872   1.482   3.524   3.805
  542TCM     c1 2873   2.216   2.308   0.760
  542TCM    cl1 2874   2.395   2.300   0.765
  542TCM    cl2 2875   2.162   2.468   0.821
  542TCM     h1 2876   2.181   2.294   0.657
  542TCM    cl3 2877   2.148   2.180   0.865
  543TCM     c1 2878   3.101   0.099   3.389
  543TCM    cl1 2879   3.246   0.052   3.484
  543TCM    cl2 2880   3.028   0.246   3.459
  543TCM     h1 2881   3.130   0.118   3.285
  543TCM    cl3 2882   2.982  -0.036   3.394
  544TCM     c1 2883   2.075   1.164   2.018
  544TCM    cl1 2884   2.024   1.141   1.848
  544TCM    cl2 2885   2.025   1.328   2.073
  544TCM     h1 2886   2.029   1.088   2.082
  544TCM    cl3 2887   2.254   1.151   2.030
  545TCM     c1 2888   2.323   2.645   4.986
  545TCM    cl1 2889   2.417   2.702   5.128
  545TCM    cl2 2890   2.212   2.514   5.038
  545TCM     h1 2891   2.265   2.728   4.944
  545TCM    cl3 2892   2.436   2.583   4.861
  546TCM     c1 2893   3.558   2.229   4.133
  546TCM    cl1 2894   3.513   2.384   4.054
  546TCM    cl2 2895   3.656   2.264   4.279
  546TCM     h1 2896   3.467   2.175   4.162
  546TCM    cl3 2897   3.653   2.128   4.018
  547TCM     c1 2898   0.869   0.395   1.665
  547TCM    cl1 2899   0.865   0.223   1.614
  547TCM    cl2 2900   0.750   0.420   1.796
  547TCM     h1 2901   0.970   0.420   1.701
  547TCM    cl3 2902   0.827   0.500   1.526
  548TCM     c1 2903   0.206   2.728   3.340
  548TCM    cl1 2904   0.270   2.828   3.474
  548TCM    cl2 2905   0.102   2.598   3.407
  548TCM     h1 2906   0.146   2.790   3.273
  548TCM    cl3 2907   0.342   2.656   3.247
  549TCM     c1 2908   4.427   4.645   0.634
  549TCM    cl1 2909   4.413   4.708   0.801
  549TCM    cl2 2910   4.528   4.756   0.536
  549TCM     h1 2911   4.472   4.546   0.636
  549TCM    cl3 2912   4.263   4.636   0.561
  550TCM     c1 2913   0.271   3.909   1.026
  550TCM    cl1 2914   0.206   3.817   0.886
  550TCM    cl2 2915   0.276   4.083   0.983
  550TCM     h1 2916   0.206   3.894   1.113
  550TCM    cl3 2917   0.437   3.852   1.063
  551TCM     c1 2918   2.233   2.137   3.605
  551TCM    cl1 2919   2.312   2.205   3.459
  551TCM    cl2 2920   2.354   2.124   3.738
  551TCM     h1 2921   2.151   2.202   3.637
  551TCM    cl3 2922   2.170   1.973   3.568
  552TCM     c1 2923   0.516   4.104   1.318
  552TCM    cl1 2924   0.343   4.094   1.364
  552TCM    cl2 2925   0.615   4.140   1.463
  552TCM     h1 2926   0.548   4.009   1.275
  552TCM    cl3 2927   0.538   4.236   1.198
  553TCM     c1 2928   1.553   3.795   0.438
  553TCM    cl1 2929   1.492   3.686   0.566
  553TCM    cl2 2930   1.691   3.717   0.353
  553TCM     h1 2931   1.473   3.816   0.366
  553TCM    cl3 2932   1.609   3.950   0.510
  554TCM     c1 2933   3.292   1.947   2.411
  554TCM    cl1 2934   3.371   1.954   2.250
  554TCM    cl2 2935   3.131   1.870   2.396
  554TCM     h1 2936   3.354   1.888   2.478
  554TCM    cl3 2937   3.275   2.112   2.478
  555TCM     c1 2938   1.902   2.593   2.270
  555TCM    cl1 2939   1.861   2.555   2.441
  555TCM    cl2 2940   1.750   2.615   2.176
  555TCM     h1 2941   1.960   2.685   2.266
  555TCM    cl3 2942   1.997   2.458   2.199
  556TCM     c1 2943   3.358   4.906   2.010
  556TCM    cl1 2944   3.242   4.997   1.908
  556TCM    cl2 2945   3.301   4.737   2.029
  556TCM     h1 2946   3.456   4.905   1.962
  556TCM    cl3 2947   3.369   4.986   2.170
  557TCM     c1 2948   1.053   2.348   4.120
  557TCM    cl1 2949   1.093   2.524   4.125
  557TCM    cl2 2950   1.089   2.283   3.957
  557TCM     h1 2951   1.113   2.296   4.195
  557TCM    cl3 2952   0.879   2.326   4.155
  558TCM     c1 2953   4.574   3.799   4.777
  558TCM    cl1 2954   4.572   3.638   4.856
  558TCM    cl2 2955   4.583   3.777   4.599
  558TCM     h1 2956   4.484   3.854   4.803
  558TCM    cl3 2957   4.718   3.891   4.832
  559TCM     c1 2958   0.011   1.588   3.717
  559TCM    cl1 2959   0.110   1.544   3.861
  559TCM    cl2 2960  -0.071   1.442   3.654
  559TCM     h1 2961  -0.063   1.663   3.746
  559TCM    cl3 2962   0.117   1.656   3.590
  560TCM     c1 2963   4.082   2.187   2.712
  560TCM    cl1 2964   4.218   2.102   2.793
  560TCM    cl2 2965   3.980   2.067   2.626
  560TCM     h1 2966   4.022   2.240   2.786
  560TCM    cl3 2967   4.149   2.304   2.594
  561TCM     c1 2968   1.523   2.609   4.829
  561TCM    cl1 2969   1.570   2.782   4.836
  561TCM    cl2 2970   1.349   2.596   4.788
  561TCM     h1 2971   1.583   2.557   4.754
  561TCM    cl3 2972   1.551   2.534   4.990
  562TCM     c1 2973   3.662   1.809   2.787
  562TCM    cl1 2974   3.565   1.882   2.655
  562TCM    cl2 2975   3.720   1.939   2.896
  562TCM     h1 2976   3.600   1.738   2.843
  562TCM    cl3 2977   3.803   1.723   2.716
  563TCM     c1 2978   2.805   4.939   0.842
  563TCM    cl1 2979   2.820   5.107   0.779
  563TCM    cl2 2980   2.873   4.932   1.007
  563TCM     h1 2981   2.700   4.910   0.844
  563TCM    cl3 2982   2.896   4.828   0.734
  564TCM     c1 2983   1.763   3.777   0.912
  564TCM    cl1 2984   1.883   3.715   1.030
  564TCM    cl2 2985   1.819   3.736   0.747
  564TCM     h1 2986   1.666   3.731   0.930
  564TCM    cl3 2987   1.748   3.956   0.928
  565TCM     c1 2988   0.094   2.887   4.718
  565TCM    cl1 2989  -0.028   2.978   4.812
  565TCM    cl2 2990   0.060   2.711   4.728
  565TCM     h1 2991   0.092   2.919   4.614
  565TCM    cl3 2992   0.256   2.919   4.789
  566TCM     c1 2993   2.874   4.716   2.754
  566TCM    cl1 2994   3.036   4.794   2.756
  566TCM    cl2 2995   2.848   4.633   2.597
  566TCM     h1 2996   2.867   4.644   2.836
  566TCM    cl3 2997   2.750   4.844   2.773
  567TCM     c1 2998   4.680   3.697   3.301
  567TCM    cl1 2999   4.659   3.628   3.466
  567TCM    cl2 3000   4.578   3.844   3.284
  567TCM     h1 3001   4.785   3.723   3.285
  567TCM    cl3 3002   4.626   3.576   3.181
  568TCM     c1 3003   1.722   0.761   2.809
  568TCM    cl1 3004   1.804   0.914   2.853
  568TCM    cl2 3005   1.558   0.760   2.882
  568TCM     h1 3006   1.713   0.754   2.701
  568TCM    cl3 3007   1.818   0.623   2.872
  569TCM     c1 3008   3.315   2.406   4.389
  569TCM    cl1 3009   3.203   2.546   4.404
  569TCM    cl2 3010   3.240   2.281   4.285
  569TCM     h1 3011   3.409   2.439   4.345
  569TCM    cl3 3012   3.346   2.337   4.552
  570TCM     c1 3013   2.392   4.040   0.401
  570TCM    cl1 3014   2.262   4.029   0.278
  570TCM    cl2 3015   2.474   3.882   0.412
  570TCM     h1 3016   2.463   4.118   0.373
  570TCM    cl3 3017   2.321   4.081   0.561
  571TCM     c1 3018   3.458   1.650   0.076
  571TCM    cl1 3019   3.603   1.622   0.178
  571TCM    cl2 3020   3.511   1.707  -0.086
  571TCM     h1 3021   3.402   1.557   0.066
  571TCM    cl3 3022   3.355   1.775   0.153
  572TCM     c1 3023   2.466   1.778   3.669
  572TCM    cl1 3024   2.635   1.731   3.705
  572TCM    cl2 3025   2.359   1.732   3.807
  572TCM     h1 3026   2.461   1.886   3.655
  572TCM    cl3 3027   2.411   1.696   3.520
  573TCM     c1 3028   1.238   0.882   2.413
  573TCM    cl1 3029   1.334   0.823   2.273
  573TCM    cl2 3030   1.134   0.750   2.476
  573TCM     h1 3031   1.305   0.917   2.492
  573TCM    cl3 3032   1.134   1.018   2.359
  574TCM     c1 3033   2.666   4.199   4.998
  574TCM    cl1 3034   2.627   4.101   5.143
  574TCM    cl2 3035   2.528   4.195   4.883
  574TCM     h1 3036   2.686   4.302   5.028
  574TCM    cl3 3037   2.812   4.129   4.920
  575TCM     c1 3038   2.282   4.470   1.335
  575TCM    cl1 3039   2.223   4.400   1.489
  575TCM    cl2 3040   2.153   4.459   1.212
  575TCM     h1 3041   2.309   4.575   1.351
  575TCM    cl3 3042   2.426   4.379   1.279
  576TCM     c1 3043   0.966   2.556   4.829
  576TCM    cl1 3044   0.829   2.650   4.762
  576TCM    cl2 3045   0.944   2.383   4.790
  576TCM     h1 3046   1.060   2.592   4.786
  576TCM    cl3 3047   0.970   2.579   5.007
  577TCM     c1 3048   1.460   1.165   1.575
  577TCM    cl1 3049   1.392   1.250   1.717
  577TCM    cl2 3050   1.363   1.018   1.541
  577TCM     h1 3051   1.458   1.231   1.488
  577TCM    cl3 3052   1.630   1.118   1.610
  578TCM     c1 3053   0.396   3.560   3.443
  578TCM    cl1 3054   0.291   3.690   3.379
  578TCM    cl2 3055   0.541   3.545   3.338
  578TCM     h1 3056   0.427   3.584   3.545
  578TCM    cl3 3057   0.305   3.406   3.441
  579TCM     c1 3058   2.408   4.954   1.302
  579TCM    cl1 3059   2.298   5.095   1.290
  579TCM    cl2 3060   2.570   4.999   1.238
  579TCM     h1 3061   2.418   4.925   1.407
  579TCM    cl3 3062   2.342   4.817   1.207
  580TCM     c1 3063   0.686   0.213   3.560
  580TCM    cl1 3064   0.785   0.236   3.708
  580TCM    cl2 3065   0.734   0.059   3.481
  580TCM     h1 3066   0.580   0.209   3.588
  580TCM    cl3 3067   0.713   0.348   3.446
  581TCM     c1 3068   3.330   4.071   1.278
  581TCM    cl1 3069   3.471   4.140   1.365
  581TCM    cl2 3070   3.284   3.914   1.352
  581TCM     h1 3071   3.245   4.141   1.285
  581TCM    cl3 3072   3.371   4.047   1.105
  582TCM     c1 3073   4.579   4.102   3.541
  582TCM    cl1 3074   4.525   4.223   3.661
  582TCM    cl2 3075   4.666   3.969   3.625
  582TCM     h1 3076   4.493   4.061   3.489
  582TCM    cl3 3077   4.690   4.180   3.423
  583TCM     c1 3078   1.083   3.753   0.179
  583TCM    cl1 3079   1.237   3.682   0.238
  583TCM    cl2 3080   0.948   3.638   0.206
  583TCM     h1 3081   1.063   3.846   0.233
  583TCM    cl3 3082   1.098   3.787   0.004
  584TCM     c1 3083   0.439   2.288   4.935
  584TCM    cl1 3084   0.362   2.127   4.924
  584TCM    cl2 3085   0.599   2.282   4.855
  584TCM     h1 3086   0.376   2.363   4.885
  584TCM    cl3 3087   0.459   2.331   5.108
  585TCM     c1 3088   1.144   4.921   2.383
  585TCM    cl1 3089   1.016   4.796   2.398
  585TCM    cl2 3090   1.085   5.075   2.454
  585TCM     h1 3091   1.234   4.888   2.435
  585TCM    cl3 3092   1.180   4.947   2.209
  586TCM     c1 3093   0.905   1.213   4.032
  586TCM    cl1 3094   0.801   1.352   3.989
  586TCM    cl2 3095   1.077   1.265   4.026
  586TCM     h1 3096   0.880   1.179   4.133
  586TCM    cl3 3097   0.878   1.079   3.916
  587TCM     c1 3098   3.868   2.677   3.845
  587TCM    cl1 3099   3.838   2.648   3.671
  587TCM    cl2 3100   3.851   2.522   3.934
  587TCM     h1 3101   3.970   2.716   3.859
  587TCM    cl3 3102   3.749   2.795   3.908
  588TCM     c1 3103   2.204   3.331   4.921
  588TCM    cl1 3104   2.252   3.292   4.752
  588TCM    cl2 3105   2.068   3.224   4.971
  588TCM     h1 3106   2.289   3.315   4.988
  588TCM    cl3 3107   2.152   3.503   4.931
  589TCM     c1 3108   1.109   0.400   0.812
  589TCM    cl1 3109   1.175   0.244   0.753
  589TCM    cl2 3110   1.127   0.525   0.684
  589TCM     h1 3111   1.003   0.388   0.837
  589TCM    cl3 3112   1.199   0.451   0.958
  590TCM     c1 3113   0.423   3.628   0.203
  590TCM    cl1 3114   0.556   3.522   0.144
  590TCM    cl2 3115   0.431   3.638   0.382
  590TCM     h1 3116   0.433   3.728   0.160
  590TCM    cl3 3117   0.265   3.558   0.155
  591TCM     c1 3118   3.160   1.399   3.132
  591TCM    cl1 3119   3.191   1.575   3.149
  591TCM    cl2 3120   3.254   1.337   2.992
  591TCM     h1 3121   3.190   1.347   3.223
  591TCM    cl3 3122   2.985   1.373   3.103
  592TCM     c1 3123   2.769   4.617   0.116
  592TCM    cl1 3124   2.738   4.787   0.069
  592TCM    cl2 3125   2.840   4.529  -0.023
  592TCM     h1 3126   2.839   4.614   0.200
  592TCM    cl3 3127   2.614   4.540   0.162
  593TCM     c1 3128   3.521   3.412   3.198
  593TCM    cl1 3129   3.688   3.349   3.205
  593TCM    cl2 3130   3.526   3.590   3.175
  593TCM     h1 3131   3.468   3.366   3.114
  593TCM    cl3 3132   3.436   3.375   3.351
  594TCM     c1 3133   3.137   3.840   0.791
  594TCM    cl1 3134   3.028   3.981   0.802
  594TCM    cl2 3135   3.054   3.707   0.702
  594TCM     h1 3136   3.229   3.868   0.738
  594TCM    cl3 3137   3.178   3.783   0.956
  595TCM     c1 3138   4.553   4.337   1.012
  595TCM    cl1 3139   4.653   4.459   0.927
  595TCM    cl2 3140   4.659   4.227   1.106
  595TCM     h1 3141   4.484   4.387   1.079
  595TCM    cl3 3142   4.461   4.243   0.889
  596TCM     c1 3143   4.660   2.783   0.061
  596TCM    cl1 3144   4.662   2.795   0.241
  596TCM    cl2 3145   4.812   2.705   0.006
  596TCM     h1 3146   4.575   2.723   0.029
  596TCM    cl3 3147   4.649   2.948  -0.009
  597TCM     c1 3148   3.019   0.991   1.931
  597TCM    cl1 3149   2.967   0.914   2.085
  597TCM    cl2 3150   2.878   1.007   1.822
  597TCM     h1 3151   3.061   1.090   1.952
  597TCM    cl3 3152   3.145   0.889   1.853
  598TCM     c1 3153   3.330   4.349   2.705
  598TCM    cl1 3154   3.190   4.457   2.673
  598TCM    cl2 3155   3.311   4.269   2.863
  598TCM     h1 3156   3.336   4.274   2.626
  598TCM    cl3 3157   3.482   4.446   2.707
  599TCM     c1 3158   3.812   3.382   3.585
  599TCM    cl1 3159   3.742   3.538   3.530
  599TCM    cl2 3160   3.878   3.401   3.751
  599TCM     h1 3161   3.733   3.306   3.586
  599TCM    cl3 3162   3.943   3.331   3.474
  600TCM     c1 3163   4.318   0.291   4.856
  600TCM    cl1 3164   4.382   0.456   4.826
  600TCM    cl2 3165   4.356   0.185   4.716
  600TCM     h1 3166   4.365   0.250   4.946
  600TCM    cl3 3167   4.141   0.299   4.880
  601TCM     c1 3168   3.356   2.940   3.169
  601TCM    cl1 3169   3.284   3.017   3.315
  601TCM    cl2 3170   3.459   3.060   3.084
  601TCM     h1 3171   3.416   2.854   3.199
  601TCM    cl3 3172   3.224   2.886   3.060
  602TCM     c1 3173   0.683   2.672   1.658
  602TCM    cl1 3174   0.861   2.653   1.663
  602TCM    cl2 3175   0.618   2.576   1.521
  602TCM     h1 3176   0.640   2.637   1.752
  602TCM    cl3 3177   0.641   2.845   1.633
  603TCM     c1 3178   0.112   4.041   2.864
  603TCM    cl1 3179  -0.051   4.003   2.799
  603TCM    cl2 3180   0.109   4.203   2.941
  603TCM     h1 3181   0.140   3.965   2.938
  603TCM    cl3 3182   0.232   4.040   2.730
  604TCM     c1 3183   2.193   3.365   1.450
  604TCM    cl1 3184   2.182   3.344   1.272
  604TCM    cl2 3185   2.357   3.424   1.493
  604TCM     h1 3186   2.118   3.438   1.483
  604TCM    cl3 3187   2.162   3.208   1.531
  605TCM     c1 3188   0.166   1.451   2.291
  605TCM    cl1 3189   0.278   1.552   2.194
  605TCM    cl2 3190   0.229   1.283   2.300
  605TCM     h1 3191   0.158   1.492   2.392
  605TCM    cl3 3192   0.004   1.451   2.214
  606TCM     c1 3193   4.093   3.025   3.633
  606TCM    cl1 3194   3.917   3.017   3.663
  606TCM    cl2 3195   4.154   2.859   3.601
  606TCM     h1 3196   4.113   3.088   3.546
  606TCM    cl3 3197   4.175   3.091   3.778
  607TCM     c1 3198   1.619   3.281   3.472
  607TCM    cl1 3199   1.592   3.146   3.357
  607TCM    cl2 3200   1.622   3.216   3.639
  607TCM     h1 3201   1.714   3.330   3.449
  607TCM    cl3 3202   1.485   3.399   3.457
  608TCM     c1 3203   2.415   3.071   2.467
  608TCM    cl1 3204   2.264   3.086   2.564
  608TCM    cl2 3205   2.519   2.943   2.538
  608TCM     h1 3206   2.390   3.045   2.364
  608TCM    cl3 3207   2.503   3.228   2.469
  609TCM     c1 3208   1.954   2.842   0.026
  609TCM    cl1 3209   1.881   2.679   0.039
  609TCM    cl2 3210   2.037   2.857  -0.132
  609TCM     h1 3211   1.876   2.918   0.034
  609TCM    cl3 3212   2.074   2.863   0.158
  610TCM     c1 3213   4.776   0.413   2.697
  610TCM    cl1 3214   4.813   0.305   2.559
  610TCM    cl2 3215   4.805   0.584   2.649
  610TCM     h1 3216   4.672   0.401   2.726
  610TCM    cl3 3217   4.883   0.373   2.835
  611TCM     c1 3218   0.195   2.095   1.081
  611TCM    cl1 3219   0.110   2.248   1.042
  611TCM    cl2 3220   0.320   2.126   1.206
  611TCM     h1 3221   0.123   2.022   1.118
  611TCM    cl3 3222   0.272   2.031   0.932
  612TCM     c1 3223   3.254   3.741   0.242
  612TCM    cl1 3224   3.215   3.567   0.259
  612TCM    cl2 3225   3.428   3.759   0.202
  612TCM     h1 3226   3.193   3.785   0.162
  612TCM    cl3 3227   3.219   3.824   0.397
  613TCM     c1 3228   2.824   3.987   3.437
  613TCM    cl1 3229   2.881   4.080   3.579
  613TCM    cl2 3230   2.966   3.937   3.338
  613TCM     h1 3231   2.771   3.897   3.471
  613TCM    cl3 3232   2.715   4.087   3.337
  614TCM     c1 3233   2.108   4.249   1.822
  614TCM    cl1 3234   2.242   4.272   1.940
  614TCM    cl2 3235   2.015   4.402   1.809
  614TCM     h1 3236   2.150   4.223   1.725
  614TCM    cl3 3237   2.001   4.117   1.880
  615TCM     c1 3238   1.557   1.706   0.326
  615TCM    cl1 3239   1.474   1.726   0.484
  615TCM    cl2 3240   1.734   1.696   0.353
  615TCM     h1 3241   1.522   1.615   0.277
  615TCM    cl3 3242   1.522   1.848   0.222
  616TCM     c1 3243   0.399   2.785   4.038
  616TCM    cl1 3244   0.385   2.860   3.876
  616TCM    cl2 3245   0.459   2.616   4.022
  616TCM     h1 3246   0.469   2.842   4.099
  616TCM    cl3 3247   0.238   2.784   4.118
  617TCM     c1 3248   0.529   1.497   4.395
  617TCM    cl1 3249   0.654   1.609   4.460
  617TCM    cl2 3250   0.439   1.423   4.532
  617TCM     h1 3251   0.459   1.553   4.332
  617TCM    cl3 3252   0.608   1.368   4.300
  618TCM     c1 3253   0.125   2.594   0.366
  618TCM    cl1 3254  -0.048   2.585   0.321
  618TCM    cl2 3255   0.201   2.433   0.343
  618TCM     h1 3256   0.176   2.668   0.303
  618TCM    cl3 3257   0.139   2.642   0.537
  619TCM     c1 3258   2.179   4.123   4.797
  619TCM    cl1 3259   2.205   3.946   4.801
  619TCM    cl2 3260   2.117   4.178   4.956
  619TCM     h1 3261   2.273   4.174   4.775
  619TCM    cl3 3262   2.058   4.163   4.670
  620TCM     c1 3263   3.081   3.203   2.943
  620TCM    cl1 3264   3.177   3.188   2.792
  620TCM    cl2 3265   2.927   3.288   2.908
  620TCM     h1 3266   3.060   3.103   2.983
  620TCM    cl3 3267   3.175   3.296   3.064
  621TCM     c1 3268   2.989   4.143   0.271
  621TCM    cl1 3269   3.073   4.150   0.429
  621TCM    cl2 3270   3.102   4.084   0.144
  621TCM     h1 3271   2.903   4.076   0.278
  621TCM    cl3 3272   2.932   4.307   0.227
  622TCM     c1 3273   3.443   4.295   0.260
  622TCM    cl1 3274   3.368   4.332   0.102
  622TCM    cl2 3275   3.434   4.118   0.290
  622TCM     h1 3276   3.548   4.326   0.260
  622TCM    cl3 3277   3.355   4.382   0.390
  623TCM     c1 3278   2.510   3.586   0.773
  623TCM    cl1 3279   2.645   3.702   0.747
  623TCM    cl2 3280   2.546   3.484   0.916
  623TCM     h1 3281   2.418   3.642   0.790
  623TCM    cl3 3282   2.491   3.481   0.629
  624TCM     c1 3283   4.213   3.728   3.467
  624TCM    cl1 3284   4.289   3.613   3.353
  624TCM    cl2 3285   4.341   3.816   3.557
  624TCM     h1 3286   4.151   3.800   3.412
  624TCM    cl3 3287   4.111   3.637   3.584
  625TCM     c1 3288   0.273   4.643   4.120
  625TCM    cl1 3289   0.099   4.605   4.105
  625TCM    cl2 3290   0.293   4.813   4.172
  625TCM     h1 3291   0.318   4.577   4.195
  625TCM    cl3 3292   0.355   4.620   3.962
  626TCM     c1 3293   4.179   0.224   3.471
  626TCM    cl1 3294   4.167   0.045   3.481
  626TCM    cl2 3295   4.236   0.288   3.628
  626TCM     h1 3296   4.250   0.251   3.392
  626TCM    cl3 3297   4.018   0.294   3.434
  627TCM     c1 3298   2.446   2.528   3.150
  627TCM    cl1 3299   2.601   2.618   3.153
  627TCM    cl2 3300   2.363   2.550   3.307
  627TCM     h1 3301   2.383   2.566   3.069
  627TCM    cl3 3302   2.479   2.354   3.124
  628TCM     c1 3303   0.054   4.370   2.473
  628TCM    cl1 3304   0.085   4.547   2.485
  628TCM    cl2 3305  -0.043   4.320   2.615
  628TCM     h1 3306  -0.000   4.348   2.381
  628TCM    cl3 3307   0.210   4.282   2.473
  629TCM     c1 3308   2.493   0.811   1.910
  629TCM    cl1 3309   2.326   0.797   1.976
  629TCM    cl2 3310   2.611   0.815   2.045
  629TCM     h1 3311   2.514   0.726   1.845
  629TCM    cl3 3312   2.505   0.963   1.815
  630TCM     c1 3313   0.590   2.665   2.763
  630TCM    cl1 3314   0.449   2.754   2.696
  630TCM    cl2 3315   0.554   2.615   2.932
  630TCM     h1 3316   0.610   2.577   2.702
  630TCM    cl3 3317   0.734   2.773   2.763
  631TCM     c1 3318   1.200   4.001   0.667
  631TCM    cl1 3319   1.230   3.959   0.495
  631TCM    cl2 3320   1.340   3.952   0.767
  631TCM     h1 3321   1.185   4.109   0.676
  631TCM    cl3 3322   1.052   3.916   0.724
  632TCM     c1 3323   2.566   3.166   0.353
  632TCM    cl1 3324   2.649   3.272   0.234
  632TCM    cl2 3325   2.397   3.223   0.375
  632TCM     h1 3326   2.566   3.063   0.316
  632TCM    cl3 3327   2.653   3.175   0.510
  633TCM     c1 3328   0.703   0.437   0.363
  633TCM    cl1 3329   0.692   0.297   0.252
  633TCM    cl2 3330   0.611   0.403   0.513
  633TCM     h1 3331   0.808   0.456   0.388
  633TCM    cl3 3332   0.634   0.582   0.283
  634TCM     c1 3333   0.027   2.143   3.122
  634TCM    cl1 3334  -0.029   2.263   3.242
  634TCM    cl2 3335   0.041   2.224   2.962
  634TCM     h1 3336   0.125   2.105   3.151
  634TCM    cl3 3337  -0.089   2.007   3.112
  635TCM     c1 3338   2.709   0.927   3.189
  635TCM    cl1 3339   2.850   0.825   3.233
  635TCM    cl2 3340   2.758   1.100   3.190
  635TCM     h1 3341   2.674   0.900   3.090
  635TCM    cl3 3342   2.579   0.901   3.310
  636TCM     c1 3343   0.268   0.787   2.048
  636TCM    cl1 3344   0.165   0.834   2.188
  636TCM    cl2 3345   0.387   0.917   2.015
  636TCM     h1 3346   0.321   0.694   2.072
  636TCM    cl3 3347   0.164   0.763   1.904
  637TCM     c1 3348   4.119   0.465   4.485
  637TCM    cl1 3349   4.293   0.429   4.460
  637TCM    cl2 3350   4.103   0.584   4.619
  637TCM     h1 3351   4.077   0.507   4.393
  637TCM    cl3 3352   4.032   0.314   4.527
  638TCM     c1 3353   0.123   0.884   4.923
  638TCM    cl1 3354   0.133   0.786   4.773
  638TCM    cl2 3355   0.276   0.867   5.016
  638TCM     h1 3356   0.109   0.990   4.897
  638TCM    cl3 3357  -0.015   0.827   5.022
  639TCM     c1 3358   2.925   0.273   1.187
  639TCM    cl1 3359   2.960   0.431   1.265
  639TCM    cl2 3360   2.766   0.282   1.106
  639TCM     h1 3361   3.003   0.250   1.114
  639TCM    cl3 3362   2.921   0.144   1.312
  640TCM     c1 3363   2.199   1.138   3.556
  640TCM    cl1 3364   2.158   1.121   3.730
  640TCM    cl2 3365   2.054   1.196   3.467
  640TCM     h1 3366   2.280   1.211   3.544
  640TCM    cl3 3367   2.251   0.979   3.491
   5.00000   5.00000   5.00000
