FOO
 3367
    1PMP     C1    1   0.778   4.679   4.855
    1PMP     O2    2   0.785   4.537   4.836
    1PMP     C3    3   0.704   4.478   4.741
    1PMP     C4    4   0.624   4.549   4.648
    1PMP     C5    5   0.543   4.481   4.556
    1PMP     C6    6   0.454   4.553   4.462
    1PMP     C7    7   0.386   4.669   4.503
    1PMP     C8    8   0.294   4.732   4.418
    1PMP     C9    9   0.268   4.682   4.289
    1PMP    C10   10   0.166   4.744   4.202
    1PMP    O11   11   0.113   4.849   4.240
    1PMP    C12   12   0.340   4.568   4.247
    1PMP    C13   13   0.431   4.505   4.333
    1PMP    C14   14   0.543   4.341   4.558
    1PMP    C15   15   0.621   4.268   4.649
    1PMP    C16   16   0.616   4.120   4.650
    1PMP    C17   17   0.495   4.053   4.625
    1PMP    C18   18   0.490   3.913   4.625
    1PMP    C19   19   0.604   3.836   4.648
    1PMP    C20   20   0.592   3.684   4.645
    1PMP    C21   21   0.682   3.615   4.748
    1PMP    N22   22   0.620   3.622   4.515
    1PMP    C23   23   0.725   3.903   4.675
    1PMP    C24   24   0.730   4.043   4.676
    1PMP    C25   25   0.702   4.339   4.739
    1PMP    H26   26   0.674   4.703   4.876
    1PMP    H27   27   0.844   4.699   4.940
    1PMP    H28   28   0.815   4.724   4.762
    1PMP    H29   29   0.625   4.657   4.646
    1PMP    H30   30   0.402   4.709   4.602
    1PMP    H31   31   0.241   4.819   4.455
    1PMP    H32   32   0.324   4.526   4.148
    1PMP    H33   33   0.483   4.417   4.297
    1PMP    H34   34   0.479   4.287   4.488
    1PMP    H35   35   0.404   4.108   4.607
    1PMP    H36   36   0.395   3.865   4.606
    1PMP    H37   37   0.489   3.659   4.673
    1PMP    H38   38   0.785   3.630   4.714
    1PMP    H39   39   0.662   3.665   4.844
    1PMP    H40   40   0.654   3.510   4.749
    1PMP    H41   41   0.675   3.537   4.518
    1PMP    H42   42   0.816   3.848   4.694
    1PMP    H43   43   0.825   4.091   4.694
    1PMP    H44   44   0.763   4.285   4.810
    2PMP    C45   45   0.103   3.192   3.775
    2PMP    O46   46   0.168   3.069   3.812
    2PMP    C47   47   0.280   3.074   3.892
    2PMP    C48   48   0.318   3.185   3.969
    2PMP    C49   49   0.433   3.182   4.051
    2PMP    C50   50   0.468   3.297   4.137
    2PMP    C51   51   0.429   3.428   4.104
    2PMP    C52   52   0.453   3.535   4.190
    2PMP    C53   53   0.518   3.517   4.313
    2PMP    C54   54   0.534   3.630   4.407
    2PMP    O55   55   0.467   3.731   4.391
    2PMP    C56   56   0.561   3.387   4.345
    2PMP    C57   57   0.537   3.280   4.259
    2PMP    C58   58   0.509   3.064   4.052
    2PMP    C59   59   0.473   2.951   3.976
    2PMP    C60   60   0.554   2.827   3.981
    2PMP    C61   61   0.693   2.833   4.000
    2PMP    C62   62   0.769   2.716   4.008
    2PMP    C63   63   0.709   2.590   3.998
    2PMP    C64   64   0.795   2.465   4.011
    2PMP    C65   65   0.793   2.384   3.881
    2PMP    N66   66   0.755   2.378   4.121
    2PMP    C67   67   0.570   2.583   3.978
    2PMP    C68   68   0.494   2.700   3.969
    2PMP    C69   69   0.358   2.959   3.897
    2PMP    H70   70   0.181   3.259   3.737
    2PMP    H71   71   0.032   3.164   3.698
    2PMP    H72   72   0.054   3.230   3.865
    2PMP    H73   73   0.256   3.273   3.969
    2PMP    H74   74   0.379   3.449   4.009
    2PMP    H75   75   0.419   3.635   4.161
    2PMP    H76   76   0.611   3.367   4.439
    2PMP    H77   77   0.570   3.181   4.290
    2PMP    H78   78   0.598   3.058   4.114
    2PMP    H79   79   0.744   2.928   4.008
    2PMP    H80   80   0.876   2.724   4.025
    2PMP    H81   81   0.899   2.496   4.028
    2PMP    H82   82   0.691   2.348   3.868
    2PMP    H83   83   0.823   2.454   3.802
    2PMP    H84   84   0.865   2.303   3.894
    2PMP    H85   85   0.766   2.278   4.104
    2PMP    H86   86   0.521   2.487   3.972
    2PMP    H87   87   0.387   2.691   3.955
    2PMP    H88   88   0.328   2.875   3.835
    3PMP    C89   89   1.258   2.153   4.920
    3PMP    O90   90   1.222   2.014   4.904
    3PMP    C91   91   1.116   1.982   4.822
    3PMP    C92   92   1.052   2.073   4.736
    3PMP    C93   93   0.946   2.033   4.653
    3PMP    C94   94   0.888   2.129   4.555
    3PMP    C95   95   0.888   2.267   4.580
    3PMP    C96   96   0.846   2.358   4.484
    3PMP    C97   97   0.801   2.316   4.358
    3PMP    C98   98   0.771   2.415   4.253
    3PMP    O99   99   0.772   2.534   4.281
    3PMP   C100  100   0.793   2.177   4.335
    3PMP   C101  101   0.836   2.086   4.432
    3PMP   C102  102   0.903   1.900   4.659
    3PMP   C103  103   0.967   1.806   4.742
    3PMP   C104  104   0.925   1.664   4.742
    3PMP   C105  105   0.790   1.629   4.730
    3PMP   C106  106   0.750   1.494   4.729
    3PMP   C107  107   0.845   1.391   4.740
    3PMP   C108  108   0.798   1.247   4.739
    3PMP   C109  109   0.860   1.163   4.851
    3PMP   N110  110   0.825   1.182   4.612
    3PMP   C111  111   0.981   1.427   4.750
    3PMP   C112  112   1.020   1.561   4.752
    3PMP   C113  113   1.073   1.849   4.822
    3PMP   H114  114   1.168   2.206   4.952
    3PMP   H115  115   1.336   2.153   4.997
    3PMP   H116  116   1.297   2.186   4.823
    3PMP   H117  117   1.087   2.175   4.730
    3PMP   H118  118   0.923   2.306   4.675
    3PMP   H119  119   0.852   2.465   4.506
    3PMP   H120  120   0.756   2.138   4.240
    3PMP   H121  121   0.833   1.980   4.407
    3PMP   H122  122   0.821   1.867   4.596
    3PMP   H123  123   0.713   1.705   4.722
    3PMP   H124  124   0.645   1.470   4.719
    3PMP   H125  125   0.690   1.247   4.757
    3PMP   H126  126   0.968   1.161   4.833
    3PMP   H127  127   0.834   1.212   4.944
    3PMP   H128  128   0.816   1.063   4.842
    3PMP   H129  129   0.914   1.133   4.600
    3PMP   H130  130   1.057   1.350   4.756
    3PMP   H131  131   1.125   1.585   4.758
    3PMP   H132  132   1.124   1.779   4.888
    4PMP   C133  133   0.483   0.682   3.815
    4PMP   O134  134   0.613   0.623   3.800
    4PMP   C135  135   0.708   0.651   3.896
    4PMP   C136  136   0.697   0.752   3.994
    4PMP   C137  137   0.799   0.774   4.089
    4PMP   C138  138   0.785   0.877   4.194
    4PMP   C139  139   0.704   0.991   4.177
    4PMP   C140  140   0.687   1.085   4.279
    4PMP   C141  141   0.754   1.071   4.401
    4PMP   C142  142   0.732   1.167   4.511
    4PMP   O143  143   0.628   1.231   4.518
    4PMP   C144  144   0.837   0.959   4.419
    4PMP   C145  145   0.851   0.864   4.318
    4PMP   C146  146   0.913   0.691   4.082
    4PMP   C147  147   0.927   0.590   3.986
    4PMP   C148  148   1.046   0.503   3.986
    4PMP   C149  149   1.172   0.552   4.028
    4PMP   C150  150   1.283   0.467   4.036
    4PMP   C151  151   1.272   0.332   4.003
    4PMP   C152  152   1.392   0.241   4.022
    4PMP   C153  153   1.457   0.209   3.888
    4PMP   N154  154   1.356   0.115   4.086
    4PMP   C155  155   1.149   0.284   3.957
    4PMP   C156  156   1.037   0.368   3.950
    4PMP   C157  157   0.823   0.572   3.894
    4PMP   H158  158   0.496   0.789   3.799
    4PMP   H159  159   0.423   0.635   3.737
    4PMP   H160  160   0.448   0.656   3.915
    4PMP   H161  161   0.608   0.812   3.998
    4PMP   H162  162   0.652   1.007   4.083
    4PMP   H163  163   0.620   1.169   4.262
    4PMP   H164  164   0.889   0.943   4.513
    4PMP   H165  165   0.913   0.777   4.338
    4PMP   H166  166   0.992   0.706   4.154
    4PMP   H167  167   1.184   0.656   4.054
    4PMP   H168  168   1.377   0.508   4.072
    4PMP   H169  169   1.466   0.291   4.085
    4PMP   H170  170   1.382   0.157   3.829
    4PMP   H171  171   1.485   0.306   3.845
    4PMP   H172  172   1.544   0.147   3.911
    4PMP   H173  173   1.353   0.031   4.029
    4PMP   H174  174   1.138   0.179   3.930
    4PMP   H175  175   0.942   0.326   3.919
    4PMP   H176  176   0.831   0.495   3.817
    5CAP   C177  177   0.018   4.723   4.018
    5CAP   O178  178   0.138   4.681   4.084
    5CAP   H179  179  -0.064   4.711   4.090
    5CAP   H180  180   0.008   4.655   3.933
    5CAP   H181  181   0.033   4.826   3.986
    6CAP   C182  182   1.137   0.367   4.405
    6CAP   C183  183   1.155   0.218   4.373
    6CAP   C184  184   1.192   0.143   4.502
    6CAP   C185  185   1.021   0.167   4.314
    6CAP   O186  186   1.263   0.216   4.278
    6CAP   C187  187   1.290   0.105   4.206
    6CAP   O188  188   1.269  -0.010   4.239
    6CAP   H189  189   1.059   0.374   4.482
    6CAP   H190  190   1.234   0.402   4.441
    6CAP   H191  191   1.109   0.416   4.311
    6CAP   H192  192   1.290   0.182   4.532
    6CAP   H193  193   1.195   0.037   4.477
    6CAP   H194  194   1.114   0.166   4.575
    6CAP   H195  195   1.009   0.217   4.218
    6CAP   H196  196   1.031   0.058   4.303
    6CAP   H197  197   0.944   0.194   4.386
    7TCM     c1  198   4.374   0.584   2.452
    7TCM    cl1  199   4.453   0.636   2.299
    7TCM    cl2  200   4.248   0.704   2.498
    7TCM     h1  201   4.327   0.486   2.438
    7TCM    cl3  202   4.498   0.575   2.580
    8TCM     c1  203   1.787   2.629   4.210
    8TCM    cl1  204   1.673   2.497   4.166
    8TCM    cl2  205   1.759   2.675   4.381
    8TCM     h1  206   1.890   2.593   4.197
    8TCM    cl3  207   1.759   2.771   4.104
    9TCM     c1  208   1.632   2.024   0.455
    9TCM    cl1  209   1.576   1.992   0.622
    9TCM    cl2  210   1.660   1.867   0.372
    9TCM     h1  211   1.556   2.081   0.401
    9TCM    cl3  212   1.785   2.117   0.459
   10TCM     c1  213   2.931   0.475   3.560
   10TCM    cl1  214   2.945   0.432   3.386
   10TCM    cl2  215   3.086   0.440   3.643
   10TCM     h1  216   2.907   0.582   3.570
   10TCM    cl3  217   2.801   0.377   3.635
   11TCM     c1  218   2.015   1.456   2.711
   11TCM    cl1  219   1.909   1.600   2.713
   11TCM    cl2  220   2.056   1.411   2.880
   11TCM     h1  221   1.964   1.372   2.662
   11TCM    cl3  222   2.165   1.495   2.621
   12TCM     c1  223   0.100   1.342   4.799
   12TCM    cl1  224  -0.038   1.344   4.684
   12TCM    cl2  225   0.116   1.504   4.874
   12TCM     h1  226   0.081   1.268   4.877
   12TCM    cl3  227   0.250   1.299   4.712
   13TCM     c1  228   2.744   0.653   2.171
   13TCM    cl1  229   2.639   0.790   2.122
   13TCM    cl2  230   2.729   0.522   2.049
   13TCM     h1  231   2.849   0.686   2.177
   13TCM    cl3  232   2.690   0.592   2.331
   14TCM     c1  233   3.530   3.790   4.119
   14TCM    cl1  234   3.533   3.667   3.989
   14TCM    cl2  235   3.469   3.946   4.053
   14TCM     h1  236   3.464   3.757   4.199
   14TCM    cl3  237   3.696   3.813   4.183
   15TCM     c1  238   0.361   3.983   3.317
   15TCM    cl1  239   0.212   3.986   3.416
   15TCM    cl2  240   0.382   3.819   3.247
   15TCM     h1  241   0.353   4.057   3.237
   15TCM    cl3  242   0.501   4.022   3.422
   16TCM     c1  243   3.834   1.070   2.503
   16TCM    cl1  244   3.917   1.179   2.619
   16TCM    cl2  245   3.946   1.029   2.370
   16TCM     h1  246   3.803   0.979   2.555
   16TCM    cl3  247   3.689   1.152   2.436
   17TCM     c1  248   0.049   3.009   4.151
   17TCM    cl1  249  -0.095   3.097   4.092
   17TCM    cl2  250  -0.002   2.868   4.249
   17TCM     h1  251   0.109   2.976   4.066
   17TCM    cl3  252   0.146   3.118   4.255
   18TCM     c1  253   0.651   2.612   1.176
   18TCM    cl1  254   0.490   2.629   1.253
   18TCM    cl2  255   0.632   2.551   1.009
   18TCM     h1  256   0.701   2.709   1.174
   18TCM    cl3  257   0.751   2.496   1.270
   19TCM     c1  258   1.298   1.773   2.156
   19TCM    cl1  259   1.270   1.631   2.262
   19TCM    cl2  260   1.254   1.731   1.987
   19TCM     h1  261   1.236   1.857   2.189
   19TCM    cl3  262   1.471   1.819   2.165
   20TCM     c1  263   4.616   4.314   0.153
   20TCM    cl1  264   4.695   4.391   0.294
   20TCM    cl2  265   4.462   4.237   0.206
   20TCM     h1  266   4.595   4.389   0.076
   20TCM    cl3  267   4.724   4.188   0.085
   21TCM     c1  268   2.556   4.980   3.703
   21TCM    cl1  269   2.492   4.825   3.766
   21TCM    cl2  270   2.591   5.090   3.840
   21TCM     h1  271   2.647   4.962   3.646
   21TCM    cl3  272   2.433   5.057   3.597
   22TCM     c1  273   2.880   1.840   2.650
   22TCM    cl1  274   2.829   1.670   2.677
   22TCM    cl2  275   2.760   1.950   2.725
   22TCM     h1  276   2.978   1.857   2.695
   22TCM    cl3  277   2.888   1.873   2.474
   23TCM     c1  278   0.821   3.042   4.676
   23TCM    cl1  279   0.971   3.054   4.774
   23TCM    cl2  280   0.854   2.949   4.526
   23TCM     h1  281   0.744   2.990   4.734
   23TCM    cl3  282   0.762   3.206   4.633
   24TCM     c1  283   4.514   3.317   1.848
   24TCM    cl1  284   4.539   3.461   1.745
   24TCM    cl2  285   4.339   3.297   1.882
   24TCM     h1  286   4.552   3.228   1.797
   24TCM    cl3  287   4.602   3.338   2.003
   25TCM     c1  288   0.076   3.466   4.264
   25TCM    cl1  289  -0.086   3.435   4.336
   25TCM    cl2  290   0.134   3.628   4.315
   25TCM     h1  291   0.147   3.390   4.299
   25TCM    cl3  292   0.065   3.459   4.085
   26TCM     c1  293   2.243   1.058   3.070
   26TCM    cl1  294   2.300   1.120   2.911
   26TCM    cl2  295   2.296   0.888   3.091
   26TCM     h1  296   2.286   1.119   3.150
   26TCM    cl3  297   2.064   1.067   3.076
   27TCM     c1  298   1.117   2.009   2.423
   27TCM    cl1  299   1.276   1.943   2.472
   27TCM    cl2  300   1.007   1.874   2.378
   27TCM     h1  301   1.073   2.067   2.505
   27TCM    cl3  302   1.139   2.115   2.279
   28TCM     c1  303   3.235   4.515   4.670
   28TCM    cl1  304   3.376   4.505   4.560
   28TCM    cl2  305   3.142   4.362   4.659
   28TCM     h1  306   3.269   4.530   4.772
   28TCM    cl3  307   3.130   4.652   4.620
   29TCM     c1  308   2.875   2.323   1.979
   29TCM    cl1  309   3.013   2.402   1.895
   29TCM    cl2  310   2.739   2.440   1.994
   29TCM     h1  311   2.843   2.235   1.923
   29TCM    cl3  312   2.928   2.273   2.143
   30TCM     c1  313   2.981   2.232   4.636
   30TCM    cl1  314   2.967   2.112   4.769
   30TCM    cl2  315   3.084   2.369   4.688
   30TCM     h1  316   3.025   2.184   4.548
   30TCM    cl3  317   2.817   2.293   4.595
   31TCM     c1  318   0.005   4.987   0.884
   31TCM    cl1  319  -0.061   4.834   0.819
   31TCM    cl2  320  -0.050   5.009   1.054
   31TCM     h1  321   0.114   4.984   0.882
   31TCM    cl3  322  -0.053   5.124   0.784
   32TCM     c1  323   3.029   0.660   0.820
   32TCM    cl1  324   2.867   0.595   0.779
   32TCM    cl2  325   3.011   0.794   0.938
   32TCM     h1  326   3.090   0.580   0.864
   32TCM    cl3  327   3.110   0.722   0.672
   33TCM     c1  328   3.874   3.169   1.510
   33TCM    cl1  329   3.696   3.177   1.490
   33TCM    cl2  330   3.925   3.278   1.643
   33TCM     h1  331   3.903   3.066   1.535
   33TCM    cl3  332   3.954   3.219   1.358
   34TCM     c1  333   1.211   0.909   3.181
   34TCM    cl1  334   1.055   0.978   3.126
   34TCM    cl2  335   1.247   0.970   3.346
   34TCM     h1  336   1.204   0.800   3.183
   34TCM    cl3  337   1.341   0.961   3.069
   35TCM     c1  338   0.866   4.893   3.918
   35TCM    cl1  339   0.818   5.038   4.011
   35TCM    cl2  340   1.040   4.906   3.874
   35TCM     h1  341   0.851   4.803   3.979
   35TCM    cl3  342   0.766   4.881   3.769
   36TCM     c1  343   2.675   3.568   3.050
   36TCM    cl1  344   2.666   3.390   3.069
   36TCM    cl2  345   2.801   3.608   2.930
   36TCM     h1  346   2.578   3.605   3.016
   36TCM    cl3  347   2.717   3.643   3.208
   37TCM     c1  348   0.352   0.913   2.475
   37TCM    cl1  349   0.393   0.895   2.649
   37TCM    cl2  350   0.481   0.840   2.375
   37TCM     h1  351   0.257   0.863   2.454
   37TCM    cl3  352   0.337   1.087   2.435
   38TCM     c1  353   0.015   1.992   1.811
   38TCM    cl1  354   0.151   1.972   1.926
   38TCM    cl2  355   0.039   2.143   1.716
   38TCM     h1  356   0.010   1.906   1.744
   38TCM    cl3  357  -0.139   2.004   1.903
   39TCM     c1  358   1.382   3.352   2.036
   39TCM    cl1  359   1.511   3.280   2.138
   39TCM    cl2  360   1.343   3.239   1.902
   39TCM     h1  361   1.293   3.370   2.097
   39TCM    cl3  362   1.439   3.508   1.967
   40TCM     c1  363   3.492   1.515   1.769
   40TCM    cl1  364   3.353   1.546   1.660
   40TCM    cl2  365   3.441   1.539   1.940
   40TCM     h1  366   3.526   1.412   1.756
   40TCM    cl3  367   3.626   1.628   1.730
   41TCM     c1  368   0.975   2.042   1.883
   41TCM    cl1  369   0.983   2.210   1.946
   41TCM    cl2  370   0.856   2.035   1.749
   41TCM     h1  371   1.073   2.013   1.846
   41TCM    cl3  372   0.924   1.932   2.015
   42TCM     c1  373   2.450   3.629   1.539
   42TCM    cl1  374   2.573   3.619   1.409
   42TCM    cl2  375   2.288   3.597   1.471
   42TCM     h1  376   2.473   3.555   1.617
   42TCM    cl3  377   2.454   3.793   1.612
   43TCM     c1  378   0.837   4.509   0.695
   43TCM    cl1  379   0.689   4.464   0.606
   43TCM    cl2  380   0.964   4.385   0.666
   43TCM     h1  381   0.873   4.606   0.660
   43TCM    cl3  382   0.802   4.519   0.871
   44TCM     c1  383   0.268   0.935   4.294
   44TCM    cl1  384   0.134   1.046   4.251
   44TCM    cl2  385   0.371   1.011   4.420
   44TCM     h1  386   0.226   0.842   4.334
   44TCM    cl3  387   0.366   0.900   4.148
   45TCM     c1  388   1.285   3.759   4.392
   45TCM    cl1  389   1.373   3.902   4.330
   45TCM    cl2  390   1.402   3.643   4.464
   45TCM     h1  391   1.213   3.790   4.468
   45TCM    cl3  392   1.198   3.678   4.257
   46TCM     c1  393   0.066   0.533   4.285
   46TCM    cl1  394   0.014   0.683   4.368
   46TCM    cl2  395   0.224   0.562   4.205
   46TCM     h1  396   0.076   0.452   4.358
   46TCM    cl3  397  -0.056   0.490   4.161
   47TCM     c1  398   0.633   4.236   1.840
   47TCM    cl1  399   0.529   4.383   1.842
   47TCM    cl2  400   0.750   4.248   1.704
   47TCM     h1  401   0.688   4.228   1.934
   47TCM    cl3  402   0.531   4.091   1.817
   48TCM     c1  403   3.503   4.014   4.530
   48TCM    cl1  404   3.560   4.102   4.384
   48TCM    cl2  405   3.637   3.998   4.648
   48TCM     h1  406   3.421   4.070   4.575
   48TCM    cl3  407   3.446   3.851   4.483
   49TCM     c1  408   1.383   1.420   1.297
   49TCM    cl1  409   1.226   1.416   1.384
   49TCM    cl2  410   1.452   1.585   1.305
   49TCM     h1  411   1.452   1.349   1.344
   49TCM    cl3  412   1.358   1.374   1.125
   50TCM     c1  413   3.225   0.580   2.003
   50TCM    cl1  414   3.069   0.507   1.951
   50TCM    cl2  415   3.339   0.448   2.047
   50TCM     h1  416   3.267   0.638   1.921
   50TCM    cl3  417   3.196   0.686   2.144
   51TCM     c1  418   0.210   0.573   1.671
   51TCM    cl1  419   0.204   0.591   1.850
   51TCM    cl2  420   0.379   0.537   1.621
   51TCM     h1  421   0.145   0.491   1.640
   51TCM    cl3  422   0.156   0.725   1.594
   52TCM     c1  423   3.472   2.087   1.096
   52TCM    cl1  424   3.510   1.912   1.081
   52TCM    cl2  425   3.619   2.183   1.057
   52TCM     h1  426   3.392   2.113   1.027
   52TCM    cl3  427   3.421   2.123   1.264
   53TCM     c1  428   4.084   0.042   0.409
   53TCM    cl1  429   4.140  -0.091   0.302
   53TCM    cl2  430   4.095   0.198   0.321
   53TCM     h1  431   3.980   0.024   0.438
   53TCM    cl3  432   4.188   0.048   0.555
   54TCM     c1  433   0.084   1.608   3.142
   54TCM    cl1  434  -0.088   1.625   3.095
   54TCM    cl2  435   0.122   1.435   3.167
   54TCM     h1  436   0.147   1.649   3.063
   54TCM    cl3  437   0.113   1.699   3.294
   55TCM     c1  438   2.040   3.224   2.200
   55TCM    cl1  439   2.156   3.336   2.120
   55TCM    cl2  440   1.875   3.292   2.189
   55TCM     h1  441   2.043   3.127   2.150
   55TCM    cl3  442   2.086   3.204   2.373
   56TCM     c1  443   0.519   0.034   4.311
   56TCM    cl1  444   0.633   0.171   4.290
   56TCM    cl2  445   0.420   0.062   4.458
   56TCM     h1  446   0.454   0.026   4.223
   56TCM    cl3  447   0.614  -0.117   4.331
   57TCM     c1  448   4.645   0.614   4.350
   57TCM    cl1  449   4.670   0.787   4.393
   57TCM    cl2  450   4.470   0.584   4.326
   57TCM     h1  451   4.699   0.592   4.258
   57TCM    cl3  452   4.706   0.510   4.483
   58TCM     c1  453   3.651   4.235   1.394
   58TCM    cl1  454   3.705   4.382   1.482
   58TCM    cl2  455   3.664   4.263   1.217
   58TCM     h1  456   3.713   4.150   1.423
   58TCM    cl3  457   3.479   4.202   1.436
   59TCM     c1  458   4.609   4.611   4.550
   59TCM    cl1  459   4.436   4.652   4.576
   59TCM    cl2  460   4.643   4.449   4.619
   59TCM     h1  461   4.631   4.611   4.443
   59TCM    cl3  462   4.711   4.733   4.633
   60TCM     c1  463   4.025   3.989   1.372
   60TCM    cl1  464   3.927   3.966   1.223
   60TCM    cl2  465   3.965   3.880   1.501
   60TCM     h1  466   4.130   3.967   1.350
   60TCM    cl3  467   4.009   4.159   1.427
   61TCM     c1  468   3.682   3.849   3.074
   61TCM    cl1  469   3.674   3.736   3.213
   61TCM    cl2  470   3.832   3.946   3.085
   61TCM     h1  471   3.682   3.792   2.980
   61TCM    cl3  472   3.539   3.958   3.077
   62TCM     c1  473   0.615   0.796   2.920
   62TCM    cl1  474   0.775   0.783   2.999
   62TCM    cl2  475   0.529   0.939   2.986
   62TCM     h1  476   0.628   0.808   2.812
   62TCM    cl3  477   0.520   0.647   2.953
   63TCM     c1  478   3.036   2.294   2.581
   63TCM    cl1  479   3.087   2.137   2.652
   63TCM    cl2  480   3.038   2.419   2.710
   63TCM     h1  481   3.105   2.322   2.501
   63TCM    cl3  482   2.871   2.279   2.513
   64TCM     c1  483   3.707   2.170   2.277
   64TCM    cl1  484   3.697   2.160   2.098
   64TCM    cl2  485   3.559   2.098   2.347
   64TCM     h1  486   3.795   2.116   2.312
   64TCM    cl3  487   3.718   2.342   2.325
   65TCM     c1  488   0.186   0.543   2.283
   65TCM    cl1  489   0.260   0.564   2.445
   65TCM    cl2  490   0.286   0.431   2.184
   65TCM     h1  491   0.086   0.502   2.294
   65TCM    cl3  492   0.177   0.703   2.202
   66TCM     c1  493   0.489   0.228   2.779
   66TCM    cl1  494   0.469   0.051   2.759
   66TCM    cl2  495   0.405   0.312   2.645
   66TCM     h1  496   0.446   0.260   2.875
   66TCM    cl3  497   0.664   0.270   2.774
   67TCM     c1  498   0.075   3.444   0.975
   67TCM    cl1  499  -0.035   3.463   0.835
   67TCM    cl2  500   0.034   3.564   1.101
   67TCM     h1  501   0.065   3.343   1.016
   67TCM    cl3  502   0.245   3.469   0.922
   68TCM     c1  503   1.514   3.271   0.322
   68TCM    cl1  504   1.476   3.375   0.463
   68TCM    cl2  505   1.667   3.325   0.247
   68TCM     h1  506   1.524   3.167   0.356
   68TCM    cl3  507   1.380   3.281   0.203
   69TCM     c1  508   2.760   4.476   3.837
   69TCM    cl1  509   2.587   4.472   3.882
   69TCM    cl2  510   2.782   4.576   3.690
   69TCM     h1  511   2.819   4.517   3.919
   69TCM    cl3  512   2.815   4.309   3.801
   70TCM     c1  513   4.703   1.406   4.961
   70TCM    cl1  514   4.679   1.232   4.923
   70TCM    cl2  515   4.630   1.444   5.120
   70TCM     h1  516   4.810   1.429   4.963
   70TCM    cl3  517   4.624   1.505   4.834
   71TCM     c1  518   3.076   4.560   4.260
   71TCM    cl1  519   3.184   4.418   4.274
   71TCM    cl2  520   2.932   4.513   4.164
   71TCM     h1  521   3.045   4.592   4.360
   71TCM    cl3  522   3.165   4.693   4.179
   72TCM     c1  523   3.813   3.974   1.837
   72TCM    cl1  524   3.761   4.095   1.715
   72TCM    cl2  525   3.697   3.974   1.973
   72TCM     h1  526   3.817   3.875   1.791
   72TCM    cl3  527   3.976   4.018   1.898
   73TCM     c1  528   1.196   0.171   3.067
   73TCM    cl1  529   1.196   0.282   3.208
   73TCM    cl2  530   1.089   0.236   2.938
   73TCM     h1  531   1.298   0.162   3.028
   73TCM    cl3  532   1.136   0.009   3.116
   74TCM     c1  533   0.785   1.480   2.296
   74TCM    cl1  534   0.741   1.600   2.170
   74TCM    cl2  535   0.664   1.483   2.427
   74TCM     h1  536   0.789   1.380   2.251
   74TCM    cl3  537   0.945   1.522   2.365
   75TCM     c1  538   1.132   0.647   1.984
   75TCM    cl1  539   0.999   0.596   2.093
   75TCM    cl2  540   1.075   0.642   1.814
   75TCM     h1  541   1.163   0.749   2.010
   75TCM    cl3  542   1.271   0.535   2.003
   76TCM     c1  543   3.087   0.988   3.646
   76TCM    cl1  544   2.956   1.038   3.759
   76TCM    cl2  545   3.054   1.053   3.482
   76TCM     h1  546   3.182   1.027   3.682
   76TCM    cl3  547   3.094   0.809   3.638
   77TCM     c1  548   4.690   4.888   0.489
   77TCM    cl1  549   4.833   4.984   0.438
   77TCM    cl2  550   4.622   4.959   0.639
   77TCM     h1  551   4.615   4.891   0.410
   77TCM    cl3  552   4.738   4.718   0.521
   78TCM     c1  553   0.667   4.315   0.099
   78TCM    cl1  554   0.764   4.346   0.247
   78TCM    cl2  555   0.496   4.358   0.130
   78TCM     h1  556   0.706   4.376   0.017
   78TCM    cl3  557   0.676   4.141   0.057
   79TCM     c1  558   2.507   3.280   1.870
   79TCM    cl1  559   2.590   3.426   1.931
   79TCM    cl2  560   2.612   3.137   1.896
   79TCM     h1  561   2.413   3.266   1.924
   79TCM    cl3  562   2.475   3.298   1.694
   80TCM     c1  563   0.510   2.808   0.708
   80TCM    cl1  564   0.688   2.802   0.732
   80TCM    cl2  565   0.471   2.937   0.590
   80TCM     h1  566   0.475   2.712   0.670
   80TCM    cl3  567   0.430   2.843   0.865
   81TCM     c1  568   3.198   3.587   0.771
   81TCM    cl1  569   3.192   3.532   0.942
   81TCM    cl2  570   3.230   3.764   0.767
   81TCM     h1  571   3.277   3.534   0.718
   81TCM    cl3  572   3.040   3.554   0.693
   82TCM     c1  573   3.263   3.010   4.664
   82TCM    cl1  574   3.324   2.875   4.564
   82TCM    cl2  575   3.231   2.951   4.831
   82TCM     h1  576   3.337   3.090   4.667
   82TCM    cl3  577   3.110   3.073   4.594
   83TCM     c1  578   1.101   1.170   1.763
   83TCM    cl1  579   1.272   1.179   1.710
   83TCM    cl2  580   1.071   1.009   1.835
   83TCM     h1  581   1.082   1.248   1.837
   83TCM    cl3  582   0.995   1.194   1.621
   84TCM     c1  583   2.060   2.468   4.466
   84TCM    cl1  584   2.126   2.609   4.377
   84TCM    cl2  585   2.194   2.379   4.546
   84TCM     h1  586   1.988   2.501   4.541
   84TCM    cl3  587   1.978   2.359   4.349
   85TCM     c1  588   2.180   4.049   3.716
   85TCM    cl1  589   2.028   4.006   3.632
   85TCM    cl2  590   2.303   3.921   3.686
   85TCM     h1  591   2.217   4.145   3.678
   85TCM    cl3  592   2.150   4.059   3.892
   86TCM     c1  593   0.754   0.068   4.624
   86TCM    cl1  594   0.837   0.206   4.703
   86TCM    cl2  595   0.644  -0.013   4.740
   86TCM     h1  596   0.696   0.104   4.539
   86TCM    cl3  597   0.877  -0.051   4.567
   87TCM     c1  598   1.095   0.612   2.840
   87TCM    cl1  599   1.095   0.788   2.804
   87TCM    cl2  600   0.939   0.540   2.789
   87TCM     h1  601   1.177   0.564   2.785
   87TCM    cl3  602   1.120   0.589   3.016
   88TCM     c1  603   4.638   3.034   2.885
   88TCM    cl1  604   4.623   2.883   2.789
   88TCM    cl2  605   4.809   3.088   2.885
   88TCM     h1  606   4.575   3.111   2.842
   88TCM    cl3  607   4.587   3.001   3.054
   89TCM     c1  608   3.163   4.565   0.104
   89TCM    cl1  609   3.133   4.698  -0.012
   89TCM    cl2  610   3.330   4.577   0.168
   89TCM     h1  611   3.091   4.570   0.187
   89TCM    cl3  612   3.144   4.409   0.018
   90TCM     c1  613   1.883   0.111   3.266
   90TCM    cl1  614   1.784   0.120   3.117
   90TCM    cl2  615   1.819   0.227   3.387
   90TCM     h1  616   1.879   0.010   3.307
   90TCM    cl3  617   2.053   0.153   3.228
   91TCM     c1  618   0.995   0.727   3.527
   91TCM    cl1  619   1.040   0.577   3.614
   91TCM    cl2  620   0.838   0.787   3.590
   91TCM     h1  621   1.072   0.803   3.542
   91TCM    cl3  622   0.979   0.691   3.352
   92TCM     c1  623   2.208   4.948   2.476
   92TCM    cl1  624   2.043   4.911   2.535
   92TCM    cl2  625   2.279   5.079   2.576
   92TCM     h1  626   2.271   4.859   2.483
   92TCM    cl3  627   2.199   5.002   2.305
   93TCM     c1  628   1.218   1.286   2.157
   93TCM    cl1  629   1.278   1.118   2.173
   93TCM    cl2  630   1.041   1.282   2.130
   93TCM     h1  631   1.240   1.343   2.248
   93TCM    cl3  632   1.297   1.364   2.016
   94TCM     c1  633   1.385   1.408   0.090
   94TCM    cl1  634   1.511   1.533   0.116
   94TCM    cl2  635   1.453   1.246   0.128
   94TCM     h1  636   1.299   1.428   0.155
   94TCM    cl3  637   1.333   1.410  -0.082
   95TCM     c1  638   4.371   2.968   2.053
   95TCM    cl1  639   4.438   3.057   2.194
   95TCM    cl2  640   4.331   2.800   2.101
   95TCM     h1  641   4.281   3.019   2.017
   95TCM    cl3  642   4.493   2.964   1.921
   96TCM     c1  643   3.031   4.655   1.161
   96TCM    cl1  644   2.947   4.793   1.083
   96TCM    cl2  645   2.934   4.506   1.139
   96TCM     h1  646   3.130   4.642   1.116
   96TCM    cl3  647   3.050   4.689   1.337
   97TCM     c1  648   4.464   2.458   2.589
   97TCM    cl1  649   4.510   2.532   2.745
   97TCM    cl2  650   4.356   2.317   2.619
   97TCM     h1  651   4.411   2.531   2.527
   97TCM    cl3  652   4.612   2.403   2.504
   98TCM     c1  653   4.269   0.619   3.330
   98TCM    cl1  654   4.334   0.538   3.475
   98TCM    cl2  655   4.390   0.608   3.198
   98TCM     h1  656   4.175   0.572   3.299
   98TCM    cl3  657   4.241   0.792   3.367
   99TCM     c1  658   4.112   0.878   2.931
   99TCM    cl1  659   3.954   0.960   2.906
   99TCM    cl2  660   4.086   0.718   3.008
   99TCM     h1  661   4.162   0.866   2.835
   99TCM    cl3  662   4.213   0.980   3.039
  100TCM     c1  663   2.114   0.324   2.858
  100TCM    cl1  664   2.016   0.417   2.977
  100TCM    cl2  665   2.100   0.402   2.697
  100TCM     h1  666   2.218   0.324   2.889
  100TCM    cl3  667   2.053   0.155   2.850
  101TCM     c1  668   0.203   4.398   3.264
  101TCM    cl1  669   0.303   4.358   3.408
  101TCM    cl2  670   0.029   4.377   3.304
  101TCM     h1  671   0.221   4.502   3.234
  101TCM    cl3  672   0.247   4.288   3.129
  102TCM     c1  673   0.391   1.898   4.633
  102TCM    cl1  674   0.436   1.805   4.781
  102TCM    cl2  675   0.252   1.819   4.552
  102TCM     h1  676   0.364   2.000   4.661
  102TCM    cl3  677   0.531   1.902   4.521
  103TCM     c1  678   1.157   4.808   4.843
  103TCM    cl1  679   1.287   4.793   4.965
  103TCM    cl2  680   1.232   4.826   4.681
  103TCM     h1  681   1.094   4.719   4.844
  103TCM    cl3  682   1.058   4.953   4.879
  104TCM     c1  683   0.764   2.184   0.890
  104TCM    cl1  684   0.834   2.023   0.851
  104TCM    cl2  685   0.884   2.312   0.852
  104TCM     h1  686   0.673   2.199   0.832
  104TCM    cl3  687   0.727   2.189   1.066
  105TCM     c1  688   4.930   1.852   2.228
  105TCM    cl1  689   5.094   1.904   2.278
  105TCM    cl2  690   4.837   1.801   2.373
  105TCM     h1  691   4.879   1.935   2.179
  105TCM    cl3  692   4.945   1.713   2.115
  106TCM     c1  693   2.849   1.083   2.297
  106TCM    cl1  694   2.684   1.051   2.362
  106TCM    cl2  695   2.836   1.145   2.130
  106TCM     h1  696   2.899   1.157   2.361
  106TCM    cl3  697   2.943   0.930   2.296
  107TCM     c1  698   3.030   0.433   2.471
  107TCM    cl1  699   2.894   0.380   2.576
  107TCM    cl2  700   3.055   0.610   2.490
  107TCM     h1  701   3.121   0.379   2.500
  107TCM    cl3  702   2.991   0.395   2.299
  108TCM     c1  703   2.365   4.474   0.681
  108TCM    cl1  704   2.447   4.498   0.838
  108TCM    cl2  705   2.361   4.629   0.592
  108TCM     h1  706   2.419   4.399   0.622
  108TCM    cl3  707   2.196   4.418   0.709
  109TCM     c1  708   0.541   3.196   3.685
  109TCM    cl1  709   0.476   3.362   3.708
  109TCM    cl2  710   0.703   3.207   3.609
  109TCM     h1  711   0.548   3.146   3.781
  109TCM    cl3  712   0.431   3.104   3.577
  110TCM     c1  713   2.555   0.011   1.678
  110TCM    cl1  714   2.540   0.174   1.751
  110TCM    cl2  715   2.456  -0.106   1.771
  110TCM     h1  716   2.521   0.014   1.575
  110TCM    cl3  717   2.727  -0.040   1.684
  111TCM     c1  718   2.528   4.790   3.271
  111TCM    cl1  719   2.367   4.864   3.298
  111TCM    cl2  720   2.616   4.778   3.427
  111TCM     h1  721   2.516   4.690   3.228
  111TCM    cl3  722   2.623   4.893   3.160
  112TCM     c1  723   3.413   3.490   4.436
  112TCM    cl1  724   3.297   3.554   4.315
  112TCM    cl2  725   3.580   3.511   4.375
  112TCM     h1  726   3.401   3.545   4.530
  112TCM    cl3  727   3.380   3.316   4.463
  113TCM     c1  728   1.540   4.822   4.161
  113TCM    cl1  729   1.613   4.667   4.215
  113TCM    cl2  730   1.455   4.797   4.004
  113TCM     h1  731   1.469   4.857   4.236
  113TCM    cl3  732   1.669   4.944   4.137
  114TCM     c1  733   3.502   3.778   1.467
  114TCM    cl1  734   3.338   3.851   1.461
  114TCM    cl2  735   3.561   3.774   1.636
  114TCM     h1  736   3.498   3.676   1.427
  114TCM    cl3  737   3.615   3.877   1.369
  115TCM     c1  738   0.073   2.498   1.749
  115TCM    cl1  739   0.070   2.637   1.862
  115TCM    cl2  740   0.233   2.492   1.667
  115TCM     h1  741   0.056   2.405   1.804
  115TCM    cl3  742  -0.055   2.519   1.625
  116TCM     c1  743   1.996   0.646   3.405
  116TCM    cl1  744   1.987   0.756   3.264
  116TCM    cl2  745   2.058   0.487   3.352
  116TCM     h1  746   2.064   0.688   3.480
  116TCM    cl3  747   1.833   0.625   3.477
  117TCM     c1  748   1.773   4.659   3.436
  117TCM    cl1  749   1.637   4.606   3.540
  117TCM    cl2  750   1.716   4.786   3.322
  117TCM     h1  751   1.853   4.700   3.498
  117TCM    cl3  752   1.835   4.520   3.340
  118TCM     c1  753   1.344   2.995   2.943
  118TCM    cl1  754   1.424   2.954   3.098
  118TCM    cl2  755   1.456   2.959   2.807
  118TCM     h1  756   1.253   2.935   2.932
  118TCM    cl3  757   1.301   3.169   2.941
  119TCM     c1  758   4.679   2.312   2.076
  119TCM    cl1  759   4.808   2.361   1.960
  119TCM    cl2  760   4.610   2.458   2.154
  119TCM     h1  761   4.600   2.258   2.022
  119TCM    cl3  762   4.749   2.204   2.201
  120TCM     c1  763   2.453   1.251   1.789
  120TCM    cl1  764   2.492   1.130   1.916
  120TCM    cl2  765   2.370   1.391   1.865
  120TCM     h1  766   2.545   1.284   1.740
  120TCM    cl3  767   2.344   1.176   1.667
  121TCM     c1  768   1.509   0.044   3.573
  121TCM    cl1  769   1.398  -0.081   3.638
  121TCM    cl2  770   1.488   0.057   3.395
  121TCM     h1  771   1.487   0.140   3.618
  121TCM    cl3  772   1.678  -0.003   3.612
  122TCM     c1  773   4.352   3.571   2.241
  122TCM    cl1  774   4.507   3.561   2.330
  122TCM    cl2  775   4.275   3.409   2.238
  122TCM     h1  776   4.285   3.642   2.291
  122TCM    cl3  777   4.382   3.627   2.073
  123TCM     c1  778   4.071   0.954   3.768
  123TCM    cl1  779   4.227   0.957   3.680
  123TCM    cl2  780   4.061   0.805   3.869
  123TCM     h1  781   4.063   1.042   3.833
  123TCM    cl3  782   3.936   0.954   3.650
  124TCM     c1  783   3.825   1.782   2.236
  124TCM    cl1  784   3.789   1.827   2.406
  124TCM    cl2  785   3.948   1.894   2.168
  124TCM     h1  786   3.863   1.679   2.233
  124TCM    cl3  787   3.675   1.794   2.139
  125TCM     c1  788   4.832   4.053   3.092
  125TCM    cl1  789   4.898   4.014   3.254
  125TCM    cl2  790   4.966   4.106   2.985
  125TCM     h1  791   4.785   3.964   3.050
  125TCM    cl3  792   4.712   4.185   3.106
  126TCM     c1  793   0.424   1.795   0.150
  126TCM    cl1  794   0.484   1.727   0.304
  126TCM    cl2  795   0.421   1.974   0.163
  126TCM     h1  796   0.490   1.765   0.068
  126TCM    cl3  797   0.258   1.735   0.119
  127TCM     c1  798   3.478   1.615   3.153
  127TCM    cl1  799   3.322   1.598   3.240
  127TCM    cl2  800   3.459   1.554   2.986
  127TCM     h1  801   3.508   1.720   3.151
  127TCM    cl3  802   3.603   1.518   3.238
  128TCM     c1  803   1.519   2.423   2.495
  128TCM    cl1  804   1.485   2.584   2.423
  128TCM    cl2  805   1.367   2.328   2.502
  128TCM     h1  806   1.593   2.370   2.434
  128TCM    cl3  807   1.583   2.445   2.661
  129TCM     c1  808   0.556   2.877   4.916
  129TCM    cl1  809   0.515   3.050   4.890
  129TCM    cl2  810   0.724   2.866   4.977
  129TCM     h1  811   0.487   2.833   4.988
  129TCM    cl3  812   0.542   2.792   4.758
  130TCM     c1  813   0.937   4.411   4.492
  130TCM    cl1  814   1.019   4.285   4.590
  130TCM    cl2  815   0.982   4.389   4.320
  130TCM     h1  816   0.829   4.402   4.503
  130TCM    cl3  817   0.990   4.572   4.549
  131TCM     c1  818   4.750   4.663   4.975
  131TCM    cl1  819   4.833   4.508   4.938
  131TCM    cl2  820   4.784   4.710   5.145
  131TCM     h1  821   4.786   4.741   4.908
  131TCM    cl3  822   4.574   4.638   4.953
  132TCM     c1  823   0.647   1.430   0.057
  132TCM    cl1  824   0.737   1.581   0.091
  132TCM    cl2  825   0.484   1.469  -0.004
  132TCM     h1  826   0.701   1.373  -0.019
  132TCM    cl3  827   0.634   1.333   0.208
  133TCM     c1  828   2.384   0.268   3.199
  133TCM    cl1  829   2.353   0.434   3.137
  133TCM    cl2  830   2.546   0.263   3.275
  133TCM     h1  831   2.308   0.242   3.274
  133TCM    cl3  832   2.378   0.152   3.063
  134TCM     c1  833   0.486   1.370   2.813
  134TCM    cl1  834   0.583   1.353   2.963
  134TCM    cl2  835   0.546   1.256   2.689
  134TCM     h1  836   0.381   1.348   2.836
  134TCM    cl3  837   0.499   1.539   2.752
  135TCM     c1  838   0.189   4.273   4.909
  135TCM    cl1  839   0.298   4.131   4.923
  135TCM    cl2  840   0.137   4.326   5.073
  135TCM     h1  841   0.241   4.355   4.859
  135TCM    cl3  842   0.044   4.227   4.815
  136TCM     c1  843   3.980   1.192   1.993
  136TCM    cl1  844   4.153   1.211   2.036
  136TCM    cl2  845   3.881   1.277   2.116
  136TCM     h1  846   3.962   1.234   1.894
  136TCM    cl3  847   3.936   1.017   1.993
  137TCM     c1  848   1.437   0.521   1.682
  137TCM    cl1  849   1.446   0.348   1.730
  137TCM    cl2  850   1.458   0.535   1.504
  137TCM     h1  851   1.340   0.562   1.711
  137TCM    cl3  852   1.569   0.612   1.763
  138TCM     c1  853   2.308   1.713   2.892
  138TCM    cl1  854   2.424   1.849   2.897
  138TCM    cl2  855   2.201   1.722   3.036
  138TCM     h1  856   2.247   1.719   2.801
  138TCM    cl3  857   2.398   1.558   2.895
  139TCM     c1  858   2.632   3.571   3.561
  139TCM    cl1  859   2.596   3.726   3.643
  139TCM    cl2  860   2.539   3.439   3.639
  139TCM     h1  861   2.604   3.578   3.456
  139TCM    cl3  862   2.808   3.537   3.574
  140TCM     c1  863   0.881   1.297   3.211
  140TCM    cl1  864   0.936   1.412   3.085
  140TCM    cl2  865   0.734   1.362   3.290
  140TCM     h1  866   0.859   1.200   3.166
  140TCM    cl3  867   1.011   1.279   3.334
  141TCM     c1  868   0.715   4.351   1.361
  141TCM    cl1  869   0.672   4.331   1.188
  141TCM    cl2  870   0.602   4.470   1.436
  141TCM     h1  871   0.706   4.255   1.413
  141TCM    cl3  872   0.883   4.411   1.375
  142TCM     c1  873   3.630   4.158   2.347
  142TCM    cl1  874   3.774   4.214   2.257
  142TCM    cl2  875   3.627   3.978   2.348
  142TCM     h1  876   3.633   4.195   2.450
  142TCM    cl3  877   3.482   4.219   2.265
  143TCM     c1  878   0.482   2.476   3.339
  143TCM    cl1  879   0.583   2.337   3.288
  143TCM    cl2  880   0.312   2.422   3.357
  143TCM     h1  881   0.519   2.516   3.434
  143TCM    cl3  882   0.489   2.604   3.213
  144TCM     c1  883   1.752   3.663   1.496
  144TCM    cl1  884   1.794   3.806   1.396
  144TCM    cl2  885   1.721   3.714   1.665
  144TCM     h1  886   1.662   3.615   1.455
  144TCM    cl3  887   1.888   3.547   1.494
  145TCM     c1  888   1.667   1.452   2.390
  145TCM    cl1  889   1.608   1.610   2.451
  145TCM    cl2  890   1.540   1.376   2.289
  145TCM     h1  891   1.758   1.466   2.330
  145TCM    cl3  892   1.705   1.345   2.529
  146TCM     c1  893   4.085   0.055   3.766
  146TCM    cl1  894   4.113  -0.122   3.757
  146TCM    cl2  895   4.209   0.130   3.872
  146TCM     h1  896   4.091   0.098   3.665
  146TCM    cl3  897   3.922   0.086   3.833
  147TCM     c1  898   4.998   4.464   4.532
  147TCM    cl1  899   4.931   4.554   4.391
  147TCM    cl2  900   5.054   4.582   4.655
  147TCM     h1  901   4.920   4.401   4.575
  147TCM    cl3  902   5.135   4.362   4.480
  148TCM     c1  903   0.909   1.550   0.547
  148TCM    cl1  904   0.781   1.671   0.580
  148TCM    cl2  905   0.978   1.581   0.384
  148TCM     h1  906   0.987   1.558   0.622
  148TCM    cl3  907   0.838   1.385   0.550
  149TCM     c1  908   2.931   2.734   4.879
  149TCM    cl1  909   2.861   2.882   4.806
  149TCM    cl2  910   2.832   2.591   4.832
  149TCM     h1  911   3.034   2.720   4.843
  149TCM    cl3  912   2.930   2.751   5.057
  150TCM     c1  913   3.672   1.259   2.976
  150TCM    cl1  914   3.619   1.279   2.805
  150TCM    cl2  915   3.843   1.309   2.990
  150TCM     h1  916   3.610   1.321   3.041
  150TCM    cl3  917   3.654   1.087   3.025
  151TCM     c1  918   3.356   0.357   1.686
  151TCM    cl1  919   3.314   0.525   1.640
  151TCM    cl2  920   3.444   0.277   1.551
  151TCM     h1  921   3.420   0.358   1.775
  151TCM    cl3  922   3.206   0.266   1.720
  152TCM     c1  923   3.651   2.365   1.428
  152TCM    cl1  924   3.676   2.465   1.574
  152TCM    cl2  925   3.810   2.308   1.367
  152TCM     h1  926   3.588   2.279   1.453
  152TCM    cl3  927   3.569   2.463   1.301
  153TCM     c1  928   3.010   4.101   2.344
  153TCM    cl1  929   2.930   4.163   2.493
  153TCM    cl2  930   3.157   4.009   2.390
  153TCM     h1  931   2.942   4.036   2.289
  153TCM    cl3  932   3.058   4.240   2.241
  154TCM     c1  933   4.388   1.068   2.505
  154TCM    cl1  934   4.268   1.039   2.636
  154TCM    cl2  935   4.309   1.046   2.346
  154TCM     h1  936   4.426   1.170   2.513
  154TCM    cl3  937   4.524   0.952   2.522
  155TCM     c1  938   1.231   1.873   4.494
  155TCM    cl1  939   1.341   2.010   4.532
  155TCM    cl2  940   1.328   1.724   4.466
  155TCM     h1  941   1.164   1.856   4.578
  155TCM    cl3  942   1.135   1.910   4.347
  156TCM     c1  943   2.340   4.467   4.186
  156TCM    cl1  944   2.508   4.479   4.247
  156TCM    cl2  945   2.323   4.318   4.087
  156TCM     h1  946   2.270   4.462   4.270
  156TCM    cl3  947   2.302   4.610   4.085
  157TCM     c1  948   2.318   0.008   4.805
  157TCM    cl1  949   2.303   0.187   4.800
  157TCM    cl2  950   2.491  -0.037   4.794
  157TCM     h1  951   2.276  -0.030   4.899
  157TCM    cl3  952   2.229  -0.064   4.666
  158TCM     c1  953   2.044   0.942   2.646
  158TCM    cl1  954   1.975   1.093   2.713
  158TCM    cl2  955   2.094   0.833   2.779
  158TCM     h1  956   1.969   0.891   2.584
  158TCM    cl3  957   2.186   0.984   2.544
  159TCM     c1  958   1.999   2.215   4.826
  159TCM    cl1  959   2.017   2.376   4.902
  159TCM    cl2  960   1.882   2.226   4.690
  159TCM     h1  961   2.096   2.182   4.788
  159TCM    cl3  962   1.938   2.098   4.947
  160TCM     c1  963   2.014   1.562   1.815
  160TCM    cl1  964   2.027   1.452   1.956
  160TCM    cl2  965   2.064   1.475   1.666
  160TCM     h1  966   1.911   1.597   1.804
  160TCM    cl3  967   2.122   1.703   1.842
  161TCM     c1  968   2.633   2.479   0.275
  161TCM    cl1  969   2.776   2.371   0.274
  161TCM    cl2  970   2.625   2.569   0.120
  161TCM     h1  971   2.542   2.420   0.287
  161TCM    cl3  972   2.649   2.596   0.409
  162TCM     c1  973   3.107   1.928   1.924
  162TCM    cl1  974   2.982   1.924   2.052
  162TCM    cl2  975   3.057   2.043   1.795
  162TCM     h1  976   3.202   1.961   1.966
  162TCM    cl3  977   3.126   1.764   1.854
  163TCM     c1  978   4.743   4.217   2.293
  163TCM    cl1  979   4.700   4.373   2.369
  163TCM    cl2  980   4.921   4.201   2.283
  163TCM     h1  981   4.703   4.135   2.353
  163TCM    cl3  982   4.673   4.209   2.128
  164TCM     c1  983   3.312   4.982   4.368
  164TCM    cl1  984   3.385   5.144   4.394
  164TCM    cl2  985   3.147   4.980   4.440
  164TCM     h1  986   3.306   4.961   4.261
  164TCM    cl3  987   3.413   4.858   4.448
  165TCM     c1  988   3.524   3.984   3.649
  165TCM    cl1  989   3.666   3.916   3.735
  165TCM    cl2  990   3.376   3.890   3.692
  165TCM     h1  991   3.510   4.088   3.677
  165TCM    cl3  992   3.551   3.972   3.472
  166TCM     c1  993   1.941   1.146   2.259
  166TCM    cl1  994   1.847   1.040   2.369
  166TCM    cl2  995   2.023   1.273   2.355
  166TCM     h1  996   2.015   1.087   2.205
  166TCM    cl3  997   1.829   1.224   2.143
  167TCM     c1  998   2.887   0.054   4.689
  167TCM    cl1  999   2.860  -0.112   4.752
  167TCM    cl2 1000   2.821   0.173   4.807
  167TCM     h1 1001   2.994   0.071   4.676
  167TCM    cl3 1002   2.801   0.074   4.533
  168TCM     c1 1003   2.462   2.704   1.919
  168TCM    cl1 1004   2.521   2.805   2.055
  168TCM    cl2 1005   2.474   2.798   1.766
  168TCM     h1 1006   2.522   2.614   1.912
  168TCM    cl3 1007   2.290   2.660   1.947
  169TCM     c1 1008   0.812   4.764   1.359
  169TCM    cl1 1009   0.717   4.905   1.417
  169TCM    cl2 1010   0.986   4.807   1.353
  169TCM     h1 1011   0.797   4.680   1.427
  169TCM    cl3 1012   0.756   4.718   1.195
  170TCM     c1 1013   4.116   2.393   4.408
  170TCM    cl1 1014   4.003   2.381   4.547
  170TCM    cl2 1015   4.083   2.260   4.292
  170TCM     h1 1016   4.101   2.489   4.358
  170TCM    cl3 1017   4.286   2.382   4.466
  171TCM     c1 1018   1.981   4.798   4.403
  171TCM    cl1 1019   1.988   4.670   4.278
  171TCM    cl2 1020   1.830   4.781   4.498
  171TCM     h1 1021   2.068   4.791   4.469
  171TCM    cl3 1022   1.982   4.958   4.322
  172TCM     c1 1023   3.164   3.689   0.233
  172TCM    cl1 1024   3.113   3.658   0.064
  172TCM    cl2 1025   3.307   3.588   0.271
  172TCM     h1 1026   3.189   3.795   0.245
  172TCM    cl3 1027   3.029   3.646   0.343
  173TCM     c1 1028   0.080   1.142   0.182
  173TCM    cl1 1029   0.236   1.179   0.101
  173TCM    cl2 1030  -0.032   1.280   0.157
  173TCM     h1 1031   0.037   1.051   0.138
  173TCM    cl3 1032   0.107   1.116   0.357
  174TCM     c1 1033   4.013   1.602   1.807
  174TCM    cl1 1034   4.181   1.635   1.862
  174TCM    cl2 1035   3.906   1.589   1.951
  174TCM     h1 1036   3.979   1.684   1.743
  174TCM    cl3 1037   4.008   1.447   1.717
  175TCM     c1 1038   3.925   1.658   4.815
  175TCM    cl1 1039   3.860   1.500   4.758
  175TCM    cl2 1040   3.792   1.755   4.886
  175TCM     h1 1041   4.002   1.640   4.890
  175TCM    cl3 1042   3.996   1.746   4.676
  176TCM     c1 1043   3.708   3.268   4.639
  176TCM    cl1 1044   3.828   3.262   4.505
  176TCM    cl2 1045   3.791   3.314   4.791
  176TCM     h1 1046   3.631   3.342   4.616
  176TCM    cl3 1047   3.632   3.107   4.658
  177TCM     c1 1048   1.473   0.575   3.560
  177TCM    cl1 1049   1.397   0.567   3.722
  177TCM    cl2 1050   1.350   0.622   3.438
  177TCM     h1 1051   1.554   0.649   3.561
  177TCM    cl3 1052   1.539   0.414   3.518
  178TCM     c1 1053   3.302   0.027   1.190
  178TCM    cl1 1054   3.257   0.013   1.363
  178TCM    cl2 1055   3.164   0.094   1.097
  178TCM     h1 1056   3.389   0.093   1.179
  178TCM    cl3 1057   3.342  -0.136   1.126
  179TCM     c1 1058   1.060   0.192   3.530
  179TCM    cl1 1059   1.214   0.260   3.592
  179TCM    cl2 1060   0.937   0.193   3.660
  179TCM     h1 1061   1.024   0.252   3.446
  179TCM    cl3 1062   1.088   0.023   3.477
  180TCM     c1 1063   3.357   0.277   3.074
  180TCM    cl1 1064   3.418   0.442   3.038
  180TCM    cl2 1065   3.231   0.287   3.201
  180TCM     h1 1066   3.315   0.233   2.983
  180TCM    cl3 1067   3.492   0.174   3.133
  181TCM     c1 1068   2.205   0.669   4.034
  181TCM    cl1 1069   2.229   0.775   3.891
  181TCM    cl2 1070   2.037   0.689   4.095
  181TCM     h1 1071   2.220   0.564   4.005
  181TCM    cl3 1072   2.321   0.714   4.162
  182TCM     c1 1073   3.466   0.469   4.808
  182TCM    cl1 1074   3.634   0.512   4.857
  182TCM    cl2 1075   3.367   0.439   4.954
  182TCM     h1 1076   3.423   0.551   4.750
  182TCM    cl3 1077   3.470   0.320   4.708
  183TCM     c1 1078   1.641   1.977   2.509
  183TCM    cl1 1079   1.578   2.054   2.659
  183TCM    cl2 1080   1.807   1.916   2.539
  183TCM     h1 1081   1.576   1.893   2.481
  183TCM    cl3 1082   1.644   2.098   2.377
  184TCM     c1 1083   4.953   3.937   4.511
  184TCM    cl1 1084   4.894   3.880   4.351
  184TCM    cl2 1085   4.850   4.073   4.566
  184TCM     h1 1086   4.947   3.855   4.583
  184TCM    cl3 1087   5.123   3.992   4.496
  185TCM     c1 1088   0.905   1.064   2.677
  185TCM    cl1 1089   0.905   1.198   2.557
  185TCM    cl2 1090   0.788   0.938   2.623
  185TCM     h1 1091   1.005   1.021   2.682
  185TCM    cl3 1092   0.858   1.124   2.839
  186TCM     c1 1093   4.571   0.915   3.440
  186TCM    cl1 1094   4.624   0.750   3.486
  186TCM    cl2 1095   4.565   0.928   3.261
  186TCM     h1 1096   4.471   0.935   3.481
  186TCM    cl3 1097   4.687   1.035   3.504
  187TCM     c1 1098   0.515   4.642   0.328
  187TCM    cl1 1099   0.550   4.755   0.463
  187TCM    cl2 1100   0.617   4.686   0.186
  187TCM     h1 1101   0.537   4.539   0.359
  187TCM    cl3 1102   0.343   4.656   0.282
  188TCM     c1 1103   0.712   3.425   0.063
  188TCM    cl1 1104   0.756   3.479   0.228
  188TCM    cl2 1105   0.535   3.438   0.041
  188TCM     h1 1106   0.763   3.487  -0.010
  188TCM    cl3 1107   0.762   3.254   0.042
  189TCM     c1 1108   1.406   2.466   4.498
  189TCM    cl1 1109   1.273   2.384   4.587
  189TCM    cl2 1110   1.555   2.367   4.513
  189TCM     h1 1111   1.379   2.476   4.392
  189TCM    cl3 1112   1.435   2.629   4.568
  190TCM     c1 1113   0.908   3.026   0.334
  190TCM    cl1 1114   1.017   2.994   0.473
  190TCM    cl2 1115   0.778   2.903   0.331
  190TCM     h1 1116   0.864   3.126   0.345
  190TCM    cl3 1117   1.003   3.019   0.182
  191TCM     c1 1118   4.084   1.425   2.359
  191TCM    cl1 1119   4.138   1.544   2.236
  191TCM    cl2 1120   3.934   1.485   2.436
  191TCM     h1 1121   4.064   1.328   2.310
  191TCM    cl3 1122   4.212   1.404   2.482
  192TCM     c1 1123   2.174   0.216   4.155
  192TCM    cl1 1124   2.237   0.114   4.021
  192TCM    cl2 1125   2.017   0.287   4.106
  192TCM     h1 1126   2.161   0.155   4.244
  192TCM    cl3 1127   2.290   0.349   4.190
  193TCM     c1 1128   0.580   0.062   2.309
  193TCM    cl1 1129   0.593  -0.117   2.304
  193TCM    cl2 1130   0.687   0.126   2.437
  193TCM     h1 1131   0.610   0.103   2.212
  193TCM    cl3 1132   0.410   0.108   2.344
  194TCM     c1 1133   1.835   4.332   4.215
  194TCM    cl1 1134   1.801   4.212   4.085
  194TCM    cl2 1135   2.004   4.313   4.270
  194TCM     h1 1136   1.820   4.433   4.176
  194TCM    cl3 1137   1.724   4.304   4.353
  195TCM     c1 1138   4.312   4.292   1.027
  195TCM    cl1 1139   4.273   4.268   0.854
  195TCM    cl2 1140   4.489   4.282   1.050
  195TCM     h1 1141   4.276   4.390   1.060
  195TCM    cl3 1142   4.232   4.163   1.124
  196TCM     c1 1143   1.154   2.526   0.300
  196TCM    cl1 1144   1.327   2.572   0.292
  196TCM    cl2 1145   1.131   2.367   0.220
  196TCM     h1 1146   1.123   2.519   0.405
  196TCM    cl3 1147   1.056   2.650   0.216
  197TCM     c1 1148   1.263   0.965   3.872
  197TCM    cl1 1149   1.100   0.940   3.943
  197TCM    cl2 1150   1.265   0.903   3.704
  197TCM     h1 1151   1.287   1.072   3.872
  197TCM    cl3 1152   1.385   0.877   3.970
  198TCM     c1 1153   1.412   1.482   0.656
  198TCM    cl1 1154   1.455   1.464   0.482
  198TCM    cl2 1155   1.236   1.459   0.675
  198TCM     h1 1156   1.466   1.407   0.715
  198TCM    cl3 1157   1.458   1.646   0.713
  199TCM     c1 1158   1.137   4.407   1.002
  199TCM    cl1 1159   1.270   4.427   0.884
  199TCM    cl2 1160   1.114   4.561   1.091
  199TCM     h1 1161   1.045   4.380   0.950
  199TCM    cl3 1162   1.179   4.277   1.119
  200TCM     c1 1163   0.027   2.451   2.423
  200TCM    cl1 1164   0.105   2.290   2.409
  200TCM    cl2 1165  -0.040   2.498   2.263
  200TCM     h1 1166  -0.053   2.447   2.497
  200TCM    cl3 1167   0.149   2.573   2.472
  201TCM     c1 1168   0.758   2.352   0.101
  201TCM    cl1 1169   0.777   2.291  -0.066
  201TCM    cl2 1170   0.618   2.271   0.178
  201TCM     h1 1171   0.849   2.330   0.158
  201TCM    cl3 1172   0.731   2.529   0.098
  202TCM     c1 1173   3.591   4.447   3.265
  202TCM    cl1 1174   3.768   4.477   3.260
  202TCM    cl2 1175   3.561   4.270   3.261
  202TCM     h1 1176   3.549   4.489   3.357
  202TCM    cl3 1177   3.514   4.524   3.123
  203TCM     c1 1178   2.271   0.819   2.182
  203TCM    cl1 1179   2.327   0.989   2.202
  203TCM    cl2 1180   2.091   0.817   2.177
  203TCM     h1 1181   2.311   0.778   2.089
  203TCM    cl3 1182   2.328   0.720   2.320
  204TCM     c1 1183   0.772   4.487   4.039
  204TCM    cl1 1184   0.676   4.625   4.099
  204TCM    cl2 1185   0.807   4.510   3.864
  204TCM     h1 1186   0.866   4.481   4.094
  204TCM    cl3 1187   0.679   4.336   4.063
  205TCM     c1 1188   2.157   4.802   3.593
  205TCM    cl1 1189   2.120   4.810   3.769
  205TCM    cl2 1190   2.057   4.923   3.507
  205TCM     h1 1191   2.263   4.823   3.577
  205TCM    cl3 1192   2.116   4.640   3.530
  206TCM     c1 1193   1.179   4.837   0.852
  206TCM    cl1 1194   1.117   4.724   0.728
  206TCM    cl2 1195   1.044   4.890   0.957
  206TCM     h1 1196   1.256   4.788   0.912
  206TCM    cl3 1197   1.249   4.980   0.769
  207TCM     c1 1198   2.656   3.143   0.711
  207TCM    cl1 1199   2.693   3.010   0.824
  207TCM    cl2 1200   2.808   3.200   0.635
  207TCM     h1 1201   2.587   3.108   0.633
  207TCM    cl3 1202   2.581   3.278   0.802
  208TCM     c1 1203   1.137   3.513   0.460
  208TCM    cl1 1204   1.030   3.653   0.427
  208TCM    cl2 1205   1.066   3.364   0.389
  208TCM     h1 1206   1.236   3.531   0.417
  208TCM    cl3 1207   1.153   3.492   0.638
  209TCM     c1 1208   3.942   2.071   1.854
  209TCM    cl1 1209   4.115   2.028   1.832
  209TCM    cl2 1210   3.841   1.931   1.807
  209TCM     h1 1211   3.924   2.095   1.959
  209TCM    cl3 1212   3.901   2.212   1.751
  210TCM     c1 1213   2.594   2.234   0.644
  210TCM    cl1 1214   2.491   2.261   0.500
  210TCM    cl2 1215   2.634   2.392   0.720
  210TCM     h1 1216   2.540   2.172   0.716
  210TCM    cl3 1217   2.745   2.151   0.594
  211TCM     c1 1218   2.790   3.183   3.845
  211TCM    cl1 1219   2.855   3.341   3.900
  211TCM    cl2 1220   2.826   3.163   3.670
  211TCM     h1 1221   2.838   3.102   3.901
  211TCM    cl3 1222   2.613   3.178   3.872
  212TCM     c1 1223   1.339   2.761   4.042
  212TCM    cl1 1224   1.376   2.710   4.210
  212TCM    cl2 1225   1.169   2.719   4.003
  212TCM     h1 1226   1.353   2.869   4.033
  212TCM    cl3 1227   1.448   2.677   3.927
  213TCM     c1 1228   1.715   2.731   3.037
  213TCM    cl1 1229   1.610   2.597   3.094
  213TCM    cl2 1230   1.732   2.721   2.859
  213TCM     h1 1231   1.670   2.827   3.064
  213TCM    cl3 1232   1.877   2.717   3.113
  214TCM     c1 1233   3.777   4.642   3.669
  214TCM    cl1 1234   3.630   4.564   3.603
  214TCM    cl2 1235   3.730   4.775   3.781
  214TCM     h1 1236   3.837   4.569   3.723
  214TCM    cl3 1237   3.873   4.709   3.533
  215TCM     c1 1238   0.354   3.133   0.306
  215TCM    cl1 1239   0.524   3.189   0.318
  215TCM    cl2 1240   0.347   2.989   0.199
  215TCM     h1 1241   0.317   3.107   0.405
  215TCM    cl3 1242   0.252   3.263   0.236
  216TCM     c1 1243   1.673   2.317   0.075
  216TCM    cl1 1244   1.552   2.270   0.199
  216TCM    cl2 1245   1.708   2.492   0.089
  216TCM     h1 1246   1.765   2.260   0.091
  216TCM    cl3 1247   1.606   2.281  -0.088
  217TCM     c1 1248   0.385   2.066   2.687
  217TCM    cl1 1249   0.274   1.990   2.569
  217TCM    cl2 1250   0.509   2.162   2.599
  217TCM     h1 1251   0.328   2.132   2.753
  217TCM    cl3 1252   0.465   1.938   2.783
  218TCM     c1 1253   3.786   0.145   4.463
  218TCM    cl1 1254   3.765   0.048   4.314
  218TCM    cl2 1255   3.697   0.068   4.598
  218TCM     h1 1256   3.892   0.151   4.488
  218TCM    cl3 1257   3.723   0.311   4.436
  219TCM     c1 1258   1.802   2.591   1.786
  219TCM    cl1 1259   1.877   2.677   1.924
  219TCM    cl2 1260   1.695   2.703   1.697
  219TCM     h1 1261   1.881   2.554   1.719
  219TCM    cl3 1262   1.706   2.452   1.847
  220TCM     c1 1263   3.937   0.518   3.679
  220TCM    cl1 1264   4.091   0.434   3.717
  220TCM    cl2 1265   3.804   0.399   3.668
  220TCM     h1 1266   3.915   0.591   3.758
  220TCM    cl3 1267   3.954   0.603   3.522
  221TCM     c1 1268   0.405   3.789   1.132
  221TCM    cl1 1269   0.541   3.901   1.169
  221TCM    cl2 1270   0.258   3.844   1.218
  221TCM     h1 1271   0.387   3.787   1.025
  221TCM    cl3 1272   0.448   3.624   1.189
  222TCM     c1 1273   0.313   1.380   0.503
  222TCM    cl1 1274   0.185   1.392   0.629
  222TCM    cl2 1275   0.460   1.465   0.559
  222TCM     h1 1276   0.336   1.275   0.484
  222TCM    cl3 1277   0.253   1.457   0.352
  223TCM     c1 1278   3.416   2.446   2.656
  223TCM    cl1 1279   3.595   2.450   2.673
  223TCM    cl2 1280   3.374   2.360   2.504
  223TCM     h1 1281   3.372   2.394   2.741
  223TCM    cl3 1282   3.353   2.614   2.648
  224TCM     c1 1283   0.382   4.708   2.632
  224TCM    cl1 1284   0.453   4.551   2.582
  224TCM    cl2 1285   0.262   4.681   2.763
  224TCM     h1 1286   0.461   4.775   2.668
  224TCM    cl3 1287   0.300   4.783   2.491
  225TCM     c1 1288   0.261   4.475   2.276
  225TCM    cl1 1289   0.127   4.482   2.157
  225TCM    cl2 1290   0.413   4.528   2.197
  225TCM     h1 1291   0.239   4.540   2.360
  225TCM    cl3 1292   0.279   4.306   2.335
  226TCM     c1 1293   0.301   2.442   2.119
  226TCM    cl1 1294   0.190   2.322   2.045
  226TCM    cl2 1295   0.400   2.519   1.990
  226TCM     h1 1296   0.243   2.519   2.170
  226TCM    cl3 1297   0.409   2.360   2.236
  227TCM     c1 1298   0.548   4.065   2.288
  227TCM    cl1 1299   0.519   3.933   2.170
  227TCM    cl2 1300   0.613   4.208   2.202
  227TCM     h1 1301   0.454   4.091   2.338
  227TCM    cl3 1302   0.667   4.010   2.411
  228TCM     c1 1303   2.449   0.422   3.685
  228TCM    cl1 1304   2.367   0.399   3.843
  228TCM    cl2 1305   2.514   0.589   3.677
  228TCM     h1 1306   2.531   0.350   3.676
  228TCM    cl3 1307   2.332   0.398   3.552
  229TCM     c1 1308   1.936   1.723   2.177
  229TCM    cl1 1309   1.784   1.650   2.117
  229TCM    cl2 1310   1.972   1.654   2.339
  229TCM     h1 1311   2.018   1.700   2.108
  229TCM    cl3 1312   1.915   1.900   2.189
  230TCM     c1 1313   1.039   3.146   2.095
  230TCM    cl1 1314   1.156   3.154   2.231
  230TCM    cl2 1315   1.007   3.312   2.034
  230TCM     h1 1316   1.080   3.085   2.014
  230TCM    cl3 1317   0.885   3.074   2.153
  231TCM     c1 1318   4.645   3.740   2.856
  231TCM    cl1 1319   4.779   3.844   2.799
  231TCM    cl2 1320   4.575   3.650   2.718
  231TCM     h1 1321   4.683   3.669   2.931
  231TCM    cl3 1322   4.519   3.844   2.930
  232TCM     c1 1323   4.249   0.885   4.283
  232TCM    cl1 1324   4.360   0.971   4.395
  232TCM    cl2 1325   4.328   0.869   4.123
  232TCM     h1 1326   4.227   0.786   4.323
  232TCM    cl3 1327   4.097   0.979   4.266
  233TCM     c1 1328   0.410   2.931   4.399
  233TCM    cl1 1329   0.555   2.832   4.361
  233TCM    cl2 1330   0.453   3.058   4.519
  233TCM     h1 1331   0.373   2.978   4.308
  233TCM    cl3 1332   0.282   2.829   4.471
  234TCM     c1 1333   0.873   1.914   0.112
  234TCM    cl1 1334   0.805   1.876   0.273
  234TCM    cl2 1335   0.967   2.066   0.127
  234TCM     h1 1336   0.939   1.833   0.080
  234TCM    cl3 1337   0.740   1.935  -0.006
  235TCM     c1 1338   1.668   1.873   1.682
  235TCM    cl1 1339   1.506   1.862   1.757
  235TCM    cl2 1340   1.688   1.740   1.562
  235TCM     h1 1341   1.679   1.969   1.631
  235TCM    cl3 1342   1.794   1.857   1.809
  236TCM     c1 1343   2.540   4.355   3.531
  236TCM    cl1 1344   2.444   4.505   3.549
  236TCM    cl2 1345   2.531   4.299   3.361
  236TCM     h1 1346   2.645   4.375   3.557
  236TCM    cl3 1347   2.475   4.228   3.639
  237TCM     c1 1348   3.205   0.457   1.249
  237TCM    cl1 1349   3.125   0.358   1.375
  237TCM    cl2 1350   3.103   0.454   1.102
  237TCM     h1 1351   3.215   0.560   1.285
  237TCM    cl3 1352   3.367   0.390   1.211
  238TCM     c1 1353   2.431   4.636   4.610
  238TCM    cl1 1354   2.292   4.626   4.498
  238TCM    cl2 1355   2.571   4.712   4.529
  238TCM     h1 1356   2.403   4.695   4.698
  238TCM    cl3 1357   2.474   4.470   4.662
  239TCM     c1 1358   2.718   1.662   3.022
  239TCM    cl1 1359   2.621   1.688   3.171
  239TCM    cl2 1360   2.766   1.490   3.011
  239TCM     h1 1361   2.658   1.690   2.934
  239TCM    cl3 1362   2.865   1.765   3.029
  240TCM     c1 1363   0.782   1.490   4.373
  240TCM    cl1 1364   0.951   1.433   4.386
  240TCM    cl2 1365   0.717   1.443   4.213
  240TCM     h1 1366   0.721   1.446   4.453
  240TCM    cl3 1367   0.779   1.668   4.387
  241TCM     c1 1368   3.015   0.872   2.808
  241TCM    cl1 1369   3.188   0.843   2.769
  241TCM    cl2 1370   2.935   0.950   2.668
  241TCM     h1 1371   2.966   0.777   2.830
  241TCM    cl3 1372   3.004   0.980   2.951
  242TCM     c1 1373   3.588   0.682   1.324
  242TCM    cl1 1374   3.701   0.822   1.331
  242TCM    cl2 1375   3.421   0.738   1.358
  242TCM     h1 1376   3.592   0.636   1.225
  242TCM    cl3 1377   3.636   0.562   1.448
  243TCM     c1 1378   0.776   0.169   0.064
  243TCM    cl1 1379   0.822   0.243   0.221
  243TCM    cl2 1380   0.618   0.237   0.012
  243TCM     h1 1381   0.853   0.191  -0.011
  243TCM    cl3 1382   0.762  -0.008   0.086
  244TCM     c1 1383   0.533   3.780   3.735
  244TCM    cl1 1384   0.553   3.684   3.885
  244TCM    cl2 1385   0.390   3.721   3.644
  244TCM     h1 1386   0.519   3.886   3.760
  244TCM    cl3 1387   0.680   3.762   3.633
  245TCM     c1 1388   4.995   4.197   4.150
  245TCM    cl1 1389   5.069   4.357   4.115
  245TCM    cl2 1390   4.967   4.110   3.995
  245TCM     h1 1391   5.062   4.138   4.213
  245TCM    cl3 1392   4.839   4.223   4.234
  246TCM     c1 1393   3.366   1.659   0.711
  246TCM    cl1 1394   3.471   1.726   0.581
  246TCM    cl2 1395   3.252   1.787   0.767
  246TCM     h1 1396   3.310   1.574   0.672
  246TCM    cl3 1397   3.468   1.606   0.849
  247TCM     c1 1398   3.224   4.306   3.490
  247TCM    cl1 1399   3.205   4.143   3.417
  247TCM    cl2 1400   3.246   4.428   3.360
  247TCM     h1 1401   3.135   4.331   3.549
  247TCM    cl3 1402   3.369   4.307   3.597
  248TCM     c1 1403   1.913   4.724   3.028
  248TCM    cl1 1404   1.973   4.562   2.977
  248TCM    cl2 1405   1.883   4.826   2.884
  248TCM     h1 1406   1.819   4.711   3.083
  248TCM    cl3 1407   2.034   4.801   3.134
  249TCM     c1 1408   2.562   0.237   2.216
  249TCM    cl1 1409   2.577   0.178   2.384
  249TCM    cl2 1410   2.428   0.355   2.206
  249TCM     h1 1411   2.656   0.285   2.185
  249TCM    cl3 1412   2.527   0.099   2.106
  250TCM     c1 1413   3.325   1.951   3.675
  250TCM    cl1 1414   3.444   2.024   3.787
  250TCM    cl2 1415   3.403   1.922   3.516
  250TCM     h1 1416   3.290   1.856   3.716
  250TCM    cl3 1417   3.187   2.063   3.655
  251TCM     c1 1418   3.120   2.452   0.141
  251TCM    cl1 1419   3.222   2.542   0.024
  251TCM    cl2 1420   3.223   2.393   0.276
  251TCM     h1 1421   3.041   2.517   0.181
  251TCM    cl3 1422   3.046   2.312   0.057
  252TCM     c1 1423   1.650   0.102   4.457
  252TCM    cl1 1424   1.581   0.242   4.369
  252TCM    cl2 1425   1.521  -0.018   4.493
  252TCM     h1 1426   1.728   0.055   4.397
  252TCM    cl3 1427   1.721   0.160   4.611
  253TCM     c1 1428   0.847   1.538   1.751
  253TCM    cl1 1429   0.749   1.682   1.795
  253TCM    cl2 1430   0.982   1.521   1.868
  253TCM     h1 1431   0.784   1.449   1.754
  253TCM    cl3 1432   0.914   1.558   1.586
  254TCM     c1 1433   4.936   3.049   0.277
  254TCM    cl1 1434   4.975   2.934   0.145
  254TCM    cl2 1435   5.032   3.008   0.423
  254TCM     h1 1436   4.959   3.151   0.246
  254TCM    cl3 1437   4.761   3.035   0.316
  255TCM     c1 1438   0.513   1.560   3.503
  255TCM    cl1 1439   0.514   1.512   3.676
  255TCM    cl2 1440   0.477   1.735   3.491
  255TCM     h1 1441   0.611   1.540   3.459
  255TCM    cl3 1442   0.387   1.469   3.416
  256TCM     c1 1443   0.773   0.608   4.988
  256TCM    cl1 1444   0.631   0.588   4.880
  256TCM    cl2 1445   0.898   0.487   4.944
  256TCM     h1 1446   0.815   0.709   4.976
  256TCM    cl3 1447   0.724   0.583   5.158
  257TCM     c1 1448   3.604   4.765   4.777
  257TCM    cl1 1449   3.719   4.840   4.891
  257TCM    cl2 1450   3.506   4.643   4.865
  257TCM     h1 1451   3.538   4.841   4.735
  257TCM    cl3 1452   3.695   4.685   4.645
  258TCM     c1 1453   3.151   3.812   3.268
  258TCM    cl1 1454   3.048   3.768   3.407
  258TCM    cl2 1455   3.090   3.731   3.119
  258TCM     h1 1456   3.150   3.921   3.253
  258TCM    cl3 1457   3.319   3.758   3.300
  259TCM     c1 1458   2.775   4.269   2.859
  259TCM    cl1 1459   2.796   4.400   2.739
  259TCM    cl2 1460   2.621   4.294   2.947
  259TCM     h1 1461   2.773   4.172   2.808
  259TCM    cl3 1462   2.912   4.272   2.975
  260TCM     c1 1463   3.247   1.069   2.493
  260TCM    cl1 1464   3.176   1.195   2.386
  260TCM    cl2 1465   3.348   1.151   2.616
  260TCM     h1 1466   3.167   1.013   2.542
  260TCM    cl3 1467   3.348   0.957   2.396
  261TCM     c1 1468   4.407   1.883   4.884
  261TCM    cl1 1469   4.485   1.794   5.019
  261TCM    cl2 1470   4.230   1.889   4.914
  261TCM     h1 1471   4.446   1.984   4.879
  261TCM    cl3 1472   4.438   1.797   4.730
  262TCM     c1 1473   3.106   1.934   0.257
  262TCM    cl1 1474   3.247   2.037   0.215
  262TCM    cl2 1475   2.970   2.038   0.310
  262TCM     h1 1476   3.076   1.875   0.170
  262TCM    cl3 1477   3.153   1.824   0.391
  263TCM     c1 1478   4.604   4.681   0.888
  263TCM    cl1 1479   4.718   4.551   0.935
  263TCM    cl2 1480   4.618   4.819   1.002
  263TCM     h1 1481   4.627   4.715   0.786
  263TCM    cl3 1482   4.436   4.617   0.894
  264TCM     c1 1483   4.610   0.753   2.925
  264TCM    cl1 1484   4.649   0.578   2.935
  264TCM    cl2 1485   4.443   0.773   2.864
  264TCM     h1 1486   4.618   0.798   3.024
  264TCM    cl3 1487   4.724   0.834   2.813
  265TCM     c1 1488   3.487   2.252   0.007
  265TCM    cl1 1489   3.600   2.355  -0.088
  265TCM    cl2 1490   3.576   2.109   0.068
  265TCM     h1 1491   3.447   2.310   0.091
  265TCM    cl3 1492   3.354   2.198  -0.100
  266TCM     c1 1493   1.718   0.118   2.598
  266TCM    cl1 1494   1.689   0.158   2.771
  266TCM    cl2 1495   1.827   0.240   2.525
  266TCM     h1 1496   1.763   0.019   2.590
  266TCM    cl3 1497   1.561   0.121   2.511
  267TCM     c1 1498   1.396   4.509   4.595
  267TCM    cl1 1499   1.567   4.537   4.642
  267TCM    cl2 1500   1.298   4.483   4.742
  267TCM     h1 1501   1.358   4.596   4.541
  267TCM    cl3 1502   1.385   4.363   4.491
  268TCM     c1 1503   0.200   0.222   4.075
  268TCM    cl1 1504   0.161   0.077   3.977
  268TCM    cl2 1505   0.376   0.256   4.062
  268TCM     h1 1506   0.143   0.308   4.038
  268TCM    cl3 1507   0.158   0.192   4.247
  269TCM     c1 1508   4.207   4.693   4.862
  269TCM    cl1 1509   4.055   4.714   4.769
  269TCM    cl2 1510   4.167   4.655   5.033
  269TCM     h1 1511   4.265   4.611   4.819
  269TCM    cl3 1512   4.302   4.844   4.856
  270TCM     c1 1513   0.335   2.303   3.776
  270TCM    cl1 1514   0.436   2.427   3.694
  270TCM    cl2 1515   0.236   2.381   3.903
  270TCM     h1 1516   0.269   2.256   3.702
  270TCM    cl3 1517   0.441   2.179   3.850
  271TCM     c1 1518   3.755   1.164   1.501
  271TCM    cl1 1519   3.845   1.179   1.346
  271TCM    cl2 1520   3.679   1.321   1.541
  271TCM     h1 1521   3.678   1.087   1.492
  271TCM    cl3 1522   3.869   1.119   1.633
  272TCM     c1 1523   1.597   4.599   0.028
  272TCM    cl1 1524   1.632   4.688   0.179
  272TCM    cl2 1525   1.462   4.484   0.058
  272TCM     h1 1526   1.568   4.669  -0.051
  272TCM    cl3 1527   1.742   4.508  -0.024
  273TCM     c1 1528   3.589   0.895   3.482
  273TCM    cl1 1529   3.573   0.835   3.313
  273TCM    cl2 1530   3.636   0.759   3.590
  273TCM     h1 1531   3.666   0.973   3.486
  273TCM    cl3 1532   3.431   0.961   3.536
  274TCM     c1 1533   4.415   3.384   3.028
  274TCM    cl1 1534   4.588   3.394   2.980
  274TCM    cl2 1535   4.338   3.246   2.944
  274TCM     h1 1536   4.408   3.369   3.136
  274TCM    cl3 1537   4.332   3.535   2.982
  275TCM     c1 1538   1.349   0.731   0.076
  275TCM    cl1 1539   1.218   0.668  -0.028
  275TCM    cl2 1540   1.441   0.592   0.145
  275TCM     h1 1541   1.416   0.794   0.017
  275TCM    cl3 1542   1.277   0.828   0.209
  276TCM     c1 1543   1.065   1.739   0.920
  276TCM    cl1 1544   0.965   1.590   0.907
  276TCM    cl2 1545   1.101   1.799   0.754
  276TCM     h1 1546   1.011   1.815   0.976
  276TCM    cl3 1547   1.219   1.700   1.004
  277TCM     c1 1548   3.367   2.769   2.282
  277TCM    cl1 1549   3.364   2.813   2.108
  277TCM    cl2 1550   3.378   2.917   2.382
  277TCM     h1 1551   3.276   2.714   2.307
  277TCM    cl3 1552   3.510   2.664   2.314
  278TCM     c1 1553   3.245   3.313   2.489
  278TCM    cl1 1554   3.352   3.436   2.566
  278TCM    cl2 1555   3.087   3.388   2.449
  278TCM     h1 1556   3.293   3.276   2.398
  278TCM    cl3 1557   3.220   3.177   2.604
  279TCM     c1 1558   1.297   1.057   4.758
  279TCM    cl1 1559   1.219   1.050   4.919
  279TCM    cl2 1560   1.173   1.093   4.633
  279TCM     h1 1561   1.374   1.135   4.758
  279TCM    cl3 1562   1.373   0.898   4.722
  280TCM     c1 1563   3.082   0.040   0.346
  280TCM    cl1 1564   3.218   0.153   0.375
  280TCM    cl2 1565   2.970   0.043   0.486
  280TCM     h1 1566   3.029   0.069   0.255
  280TCM    cl3 1567   3.147  -0.127   0.327
  281TCM     c1 1568   1.984   3.468   0.707
  281TCM    cl1 1569   1.912   3.631   0.726
  281TCM    cl2 1570   1.882   3.369   0.598
  281TCM     h1 1571   2.085   3.476   0.666
  281TCM    cl3 1572   1.992   3.388   0.868
  282TCM     c1 1573   2.896   3.629   1.577
  282TCM    cl1 1574   2.926   3.784   1.492
  282TCM    cl2 1575   2.786   3.656   1.716
  282TCM     h1 1576   2.850   3.558   1.508
  282TCM    cl3 1577   3.052   3.563   1.637
  283TCM     c1 1578   4.540   0.305   3.834
  283TCM    cl1 1579   4.581   0.135   3.791
  283TCM    cl2 1580   4.617   0.415   3.714
  283TCM     h1 1581   4.431   0.318   3.831
  283TCM    cl3 1582   4.601   0.342   3.998
  284TCM     c1 1583   0.054   2.543   4.504
  284TCM    cl1 1584   0.109   2.508   4.671
  284TCM    cl2 1585  -0.098   2.638   4.509
  284TCM     h1 1586   0.131   2.600   4.451
  284TCM    cl3 1587   0.026   2.388   4.417
  285TCM     c1 1588   0.771   4.593   2.129
  285TCM    cl1 1589   0.868   4.742   2.104
  285TCM    cl2 1590   0.771   4.550   2.304
  285TCM     h1 1591   0.668   4.610   2.096
  285TCM    cl3 1592   0.843   4.458   2.035
  286TCM     c1 1593   0.239   0.111   0.149
  286TCM    cl1 1594   0.092   0.009   0.167
  286TCM    cl2 1595   0.247   0.175  -0.018
  286TCM     h1 1596   0.234   0.194   0.220
  286TCM    cl3 1597   0.384   0.010   0.183
  287TCM     c1 1598   4.615   0.320   3.365
  287TCM    cl1 1599   4.525   0.269   3.218
  287TCM    cl2 1600   4.740   0.440   3.319
  287TCM     h1 1601   4.546   0.365   3.436
  287TCM    cl3 1602   4.693   0.177   3.440
  288TCM     c1 1603   3.588   0.106   3.987
  288TCM    cl1 1604   3.499  -0.035   4.052
  288TCM    cl2 1605   3.555   0.250   4.089
  288TCM     h1 1606   3.696   0.085   3.988
  288TCM    cl3 1607   3.535   0.140   3.820
  289TCM     c1 1608   1.230   1.800   1.486
  289TCM    cl1 1609   1.336   1.937   1.436
  289TCM    cl2 1610   1.106   1.771   1.360
  289TCM     h1 1611   1.291   1.710   1.500
  289TCM    cl3 1612   1.150   1.841   1.641
  290TCM     c1 1613   0.402   0.073   1.232
  290TCM    cl1 1614   0.336   0.191   1.350
  290TCM    cl2 1615   0.319   0.095   1.074
  290TCM     h1 1616   0.509   0.089   1.220
  290TCM    cl3 1617   0.373  -0.094   1.291
  291TCM     c1 1618   3.477   1.464   2.396
  291TCM    cl1 1619   3.325   1.521   2.321
  291TCM    cl2 1620   3.526   1.575   2.528
  291TCM     h1 1621   3.462   1.363   2.436
  291TCM    cl3 1622   3.606   1.460   2.271
  292TCM     c1 1623   3.700   0.220   0.156
  292TCM    cl1 1624   3.649   0.177  -0.011
  292TCM    cl2 1625   3.756   0.072   0.240
  292TCM     h1 1626   3.781   0.293   0.152
  292TCM    cl3 1627   3.560   0.289   0.244
  293TCM     c1 1628   0.610   1.233   1.854
  293TCM    cl1 1629   0.618   1.246   1.675
  293TCM    cl2 1630   0.551   1.387   1.924
  293TCM     h1 1631   0.544   1.151   1.882
  293TCM    cl3 1632   0.775   1.201   1.916
  294TCM     c1 1633   2.876   3.617   1.102
  294TCM    cl1 1634   2.792   3.535   0.966
  294TCM    cl2 1635   2.889   3.502   1.239
  294TCM     h1 1636   2.976   3.647   1.070
  294TCM    cl3 1637   2.783   3.761   1.152
  295TCM     c1 1638   2.438   2.469   4.085
  295TCM    cl1 1639   2.465   2.306   4.016
  295TCM    cl2 1640   2.461   2.462   4.263
  295TCM     h1 1641   2.510   2.540   4.042
  295TCM    cl3 1642   2.271   2.523   4.048
  296TCM     c1 1643   0.573   2.035   0.495
  296TCM    cl1 1644   0.725   2.127   0.517
  296TCM    cl2 1645   0.437   2.151   0.481
  296TCM     h1 1646   0.579   1.974   0.404
  296TCM    cl3 1647   0.546   1.930   0.637
  297TCM     c1 1648   2.811   0.181   1.301
  297TCM    cl1 1649   2.887   0.029   1.361
  297TCM    cl2 1650   2.642   0.190   1.362
  297TCM     h1 1651   2.867   0.267   1.337
  297TCM    cl3 1652   2.809   0.180   1.122
  298TCM     c1 1653   2.429   3.628   4.749
  298TCM    cl1 1654   2.296   3.666   4.635
  298TCM    cl2 1655   2.420   3.456   4.796
  298TCM     h1 1656   2.525   3.648   4.701
  298TCM    cl3 1657   2.413   3.731   4.895
  299TCM     c1 1658   0.239   3.402   4.694
  299TCM    cl1 1659   0.413   3.360   4.709
  299TCM    cl2 1660   0.165   3.298   4.569
  299TCM     h1 1661   0.189   3.386   4.790
  299TCM    cl3 1662   0.224   3.574   4.646
  300TCM     c1 1663   3.884   1.881   1.398
  300TCM    cl1 1664   3.888   1.726   1.488
  300TCM    cl2 1665   4.008   1.991   1.467
  300TCM     h1 1666   3.906   1.862   1.293
  300TCM    cl3 1667   3.722   1.955   1.414
  301TCM     c1 1668   2.237   2.859   2.370
  301TCM    cl1 1669   2.159   2.879   2.210
  301TCM    cl2 1670   2.337   2.711   2.370
  301TCM     h1 1671   2.300   2.946   2.391
  301TCM    cl3 1672   2.109   2.847   2.496
  302TCM     c1 1673   4.747   2.664   0.350
  302TCM    cl1 1674   4.879   2.602   0.246
  302TCM    cl2 1675   4.813   2.700   0.513
  302TCM     h1 1676   4.705   2.755   0.306
  302TCM    cl3 1677   4.620   2.538   0.363
  303TCM     c1 1678   0.292   4.228   1.348
  303TCM    cl1 1679   0.137   4.152   1.394
  303TCM    cl2 1680   0.316   4.212   1.170
  303TCM     h1 1681   0.291   4.334   1.375
  303TCM    cl3 1682   0.427   4.145   1.433
  304TCM     c1 1683   3.184   1.435   3.550
  304TCM    cl1 1684   3.307   1.312   3.593
  304TCM    cl2 1685   3.238   1.596   3.610
  304TCM     h1 1686   3.171   1.439   3.442
  304TCM    cl3 1687   3.029   1.392   3.629
  305TCM     c1 1688   0.862   3.811   2.023
  305TCM    cl1 1689   1.011   3.747   1.945
  305TCM    cl2 1690   0.859   3.990   2.007
  305TCM     h1 1691   0.774   3.769   1.974
  305TCM    cl3 1692   0.862   3.766   2.196
  306TCM     c1 1693   2.935   3.999   1.886
  306TCM    cl1 1694   2.807   4.030   1.763
  306TCM    cl2 1695   3.056   3.886   1.818
  306TCM     h1 1696   2.983   4.094   1.912
  306TCM    cl3 1697   2.862   3.926   2.032
  307TCM     c1 1698   1.480   2.822   1.967
  307TCM    cl1 1699   1.590   2.962   1.947
  307TCM    cl2 1700   1.321   2.879   2.029
  307TCM     h1 1701   1.465   2.773   1.870
  307TCM    cl3 1702   1.551   2.704   2.083
  308TCM     c1 1703   4.884   0.046   4.666
  308TCM    cl1 1704   5.024   0.007   4.560
  308TCM    cl2 1705   4.862   0.223   4.674
  308TCM     h1 1706   4.794  -0.000   4.625
  308TCM    cl3 1707   4.914  -0.019   4.830
  309TCM     c1 1708   4.301   4.257   2.217
  309TCM    cl1 1709   4.373   4.419   2.190
  309TCM    cl2 1710   4.129   4.259   2.166
  309TCM     h1 1711   4.356   4.183   2.157
  309TCM    cl3 1712   4.312   4.215   2.391
  310TCM     c1 1713   1.413   4.879   2.859
  310TCM    cl1 1714   1.331   5.015   2.776
  310TCM    cl2 1715   1.492   4.938   3.009
  310TCM     h1 1716   1.340   4.802   2.885
  310TCM    cl3 1717   1.537   4.809   2.750
  311TCM     c1 1718   3.559   4.964   3.431
  311TCM    cl1 1719   3.707   5.036   3.503
  311TCM    cl2 1720   3.459   4.889   3.560
  311TCM     h1 1721   3.501   5.042   3.382
  311TCM    cl3 1722   3.605   4.839   3.311
  312TCM     c1 1723   3.773   2.115   4.654
  312TCM    cl1 1724   3.832   2.046   4.499
  312TCM    cl2 1725   3.898   2.095   4.781
  312TCM     h1 1726   3.751   2.221   4.641
  312TCM    cl3 1727   3.624   2.028   4.703
  313TCM     c1 1728   4.595   3.889   2.454
  313TCM    cl1 1729   4.772   3.871   2.430
  313TCM    cl2 1730   4.519   3.926   2.296
  313TCM     h1 1731   4.554   3.796   2.493
  313TCM    cl3 1732   4.564   4.023   2.569
  314TCM     c1 1733   4.890   2.888   2.050
  314TCM    cl1 1734   5.014   2.847   2.173
  314TCM    cl2 1735   4.804   3.037   2.100
  314TCM     h1 1736   4.938   2.903   1.952
  314TCM    cl3 1737   4.772   2.753   2.038
  315TCM     c1 1738   1.233   2.117   0.593
  315TCM    cl1 1739   1.208   2.157   0.766
  315TCM    cl2 1740   1.332   2.245   0.516
  315TCM     h1 1741   1.285   2.021   0.585
  315TCM    cl3 1742   1.075   2.106   0.510
  316TCM     c1 1743   1.041   1.559   3.600
  316TCM    cl1 1744   1.080   1.458   3.744
  316TCM    cl2 1745   1.087   1.729   3.632
  316TCM     h1 1746   1.095   1.522   3.513
  316TCM    cl3 1747   0.865   1.551   3.569
  317TCM     c1 1748   4.240   3.443   0.951
  317TCM    cl1 1749   4.411   3.487   0.982
  317TCM    cl2 1750   4.142   3.592   0.933
  317TCM     h1 1751   4.234   3.384   0.860
  317TCM    cl3 1752   4.179   3.346   1.089
  318TCM     c1 1753   0.603   4.792   1.752
  318TCM    cl1 1754   0.740   4.676   1.737
  318TCM    cl2 1755   0.549   4.799   1.923
  318TCM     h1 1756   0.636   4.891   1.719
  318TCM    cl3 1757   0.467   4.737   1.648
  319TCM     c1 1758   1.354   2.308   1.611
  319TCM    cl1 1759   1.504   2.213   1.632
  319TCM    cl2 1760   1.361   2.455   1.713
  319TCM     h1 1761   1.343   2.337   1.506
  319TCM    cl3 1762   1.212   2.209   1.659
  320TCM     c1 1763   0.732   2.013   3.636
  320TCM    cl1 1764   0.713   2.185   3.590
  320TCM    cl2 1765   0.853   2.001   3.767
  320TCM     h1 1766   0.636   1.973   3.670
  320TCM    cl3 1767   0.788   1.919   3.493
  321TCM     c1 1768   1.017   0.659   4.654
  321TCM    cl1 1769   0.869   0.587   4.583
  321TCM    cl2 1770   0.970   0.802   4.753
  321TCM     h1 1771   1.067   0.586   4.718
  321TCM    cl3 1772   1.127   0.712   4.523
  322TCM     c1 1773   3.338   2.504   0.829
  322TCM    cl1 1774   3.287   2.347   0.900
  322TCM    cl2 1775   3.219   2.631   0.873
  322TCM     h1 1776   3.437   2.531   0.869
  322TCM    cl3 1777   3.347   2.490   0.651
  323TCM     c1 1778   3.529   4.777   2.735
  323TCM    cl1 1779   3.599   4.864   2.875
  323TCM    cl2 1780   3.416   4.885   2.647
  323TCM     h1 1781   3.609   4.745   2.667
  323TCM    cl3 1782   3.440   4.633   2.794
  324TCM     c1 1783   4.755   3.127   4.907
  324TCM    cl1 1784   4.733   3.173   4.735
  324TCM    cl2 1785   4.595   3.116   4.986
  324TCM     h1 1786   4.806   3.030   4.912
  324TCM    cl3 1787   4.854   3.252   4.990
  325TCM     c1 1788   4.699   2.821   2.403
  325TCM    cl1 1789   4.716   2.993   2.452
  325TCM    cl2 1790   4.528   2.771   2.418
  325TCM     h1 1791   4.732   2.810   2.299
  325TCM    cl3 1792   4.801   2.719   2.510
  326TCM     c1 1793   2.171   4.364   3.231
  326TCM    cl1 1794   2.252   4.243   3.125
  326TCM    cl2 1795   2.264   4.517   3.226
  326TCM     h1 1796   2.070   4.381   3.195
  326TCM    cl3 1797   2.165   4.300   3.399
  327TCM     c1 1798   3.381   2.088   0.558
  327TCM    cl1 1799   3.462   2.082   0.718
  327TCM    cl2 1800   3.476   2.192   0.447
  327TCM     h1 1801   3.374   1.987   0.516
  327TCM    cl3 1802   3.215   2.155   0.577
  328TCM     c1 1803   2.276   1.800   2.462
  328TCM    cl1 1804   2.171   1.876   2.587
  328TCM    cl2 1805   2.437   1.767   2.533
  328TCM     h1 1806   2.231   1.707   2.429
  328TCM    cl3 1807   2.293   1.912   2.323
  329TCM     c1 1808   2.835   3.022   3.235
  329TCM    cl1 1809   2.741   3.149   3.319
  329TCM    cl2 1810   2.749   2.973   3.085
  329TCM     h1 1811   2.934   3.060   3.209
  329TCM    cl3 1812   2.852   2.880   3.343
  330TCM     c1 1813   0.170   1.807   1.338
  330TCM    cl1 1814   0.132   1.846   1.167
  330TCM    cl2 1815   0.179   1.629   1.358
  330TCM     h1 1816   0.266   1.852   1.365
  330TCM    cl3 1817   0.042   1.872   1.446
  331TCM     c1 1818   1.721   1.010   3.282
  331TCM    cl1 1819   1.620   0.865   3.313
  331TCM    cl2 1820   1.831   1.037   3.421
  331TCM     h1 1821   1.780   0.995   3.191
  331TCM    cl3 1822   1.614   1.153   3.262
  332TCM     c1 1823   3.353   4.137   1.932
  332TCM    cl1 1824   3.298   4.004   2.039
  332TCM    cl2 1825   3.221   4.257   1.913
  332TCM     h1 1826   3.441   4.185   1.975
  332TCM    cl3 1827   3.393   4.071   1.770
  333TCM     c1 1828   2.101   3.543   0.255
  333TCM    cl1 1829   2.256   3.548   0.165
  333TCM    cl2 1830   2.122   3.629   0.412
  333TCM     h1 1831   2.022   3.592   0.197
  333TCM    cl3 1832   2.057   3.373   0.288
  334TCM     c1 1833   4.706   2.047   2.656
  334TCM    cl1 1834   4.830   2.119   2.549
  334TCM    cl2 1835   4.559   2.009   2.560
  334TCM     h1 1836   4.745   1.956   2.702
  334TCM    cl3 1837   4.664   2.165   2.785
  335TCM     c1 1838   2.436   3.621   0.877
  335TCM    cl1 1839   2.452   3.676   1.047
  335TCM    cl2 1840   2.542   3.720   0.772
  335TCM     h1 1841   2.464   3.515   0.869
  335TCM    cl3 1842   2.266   3.642   0.825
  336TCM     c1 1843   1.140   4.717   4.171
  336TCM    cl1 1844   1.245   4.655   4.303
  336TCM    cl2 1845   0.979   4.760   4.237
  336TCM     h1 1846   1.186   4.805   4.126
  336TCM    cl3 1847   1.121   4.590   4.046
  337TCM     c1 1848   3.506   3.233   3.372
  337TCM    cl1 1849   3.492   3.154   3.532
  337TCM    cl2 1850   3.457   3.118   3.243
  337TCM     h1 1851   3.442   3.321   3.369
  337TCM    cl3 1852   3.677   3.283   3.345
  338TCM     c1 1853   3.557   3.733   0.935
  338TCM    cl1 1854   3.565   3.592   0.824
  338TCM    cl2 1855   3.721   3.802   0.956
  338TCM     h1 1856   3.490   3.809   0.892
  338TCM    cl3 1857   3.495   3.680   1.094
  339TCM     c1 1858   2.690   1.041   3.416
  339TCM    cl1 1859   2.698   1.195   3.508
  339TCM    cl2 1860   2.530   1.027   3.336
  339TCM     h1 1861   2.768   1.040   3.340
  339TCM    cl3 1862   2.713   0.902   3.527
  340TCM     c1 1863   2.169   3.404   4.319
  340TCM    cl1 1864   2.032   3.301   4.373
  340TCM    cl2 1865   2.312   3.370   4.424
  340TCM     h1 1866   2.194   3.381   4.215
  340TCM    cl3 1867   2.123   3.577   4.333
  341TCM     c1 1868   4.174   3.712   2.692
  341TCM    cl1 1869   4.275   3.762   2.552
  341TCM    cl2 1870   4.019   3.646   2.631
  341TCM     h1 1871   4.227   3.635   2.749
  341TCM    cl3 1872   4.142   3.854   2.797
  342TCM     c1 1873   2.495   0.026   4.348
  342TCM    cl1 1874   2.556   0.109   4.201
  342TCM    cl2 1875   2.355  -0.078   4.305
  342TCM     h1 1876   2.575  -0.035   4.391
  342TCM    cl3 1877   2.443   0.149   4.467
  343TCM     c1 1878   3.362   1.914   4.481
  343TCM    cl1 1879   3.451   1.975   4.338
  343TCM    cl2 1880   3.232   1.803   4.428
  343TCM     h1 1881   3.431   1.862   4.548
  343TCM    cl3 1882   3.288   2.053   4.568
  344TCM     c1 1883   0.597   0.556   3.468
  344TCM    cl1 1884   0.436   0.479   3.485
  344TCM    cl2 1885   0.608   0.634   3.307
  344TCM     h1 1886   0.610   0.632   3.547
  344TCM    cl3 1887   0.727   0.433   3.482
  345TCM     c1 1888   3.207   1.023   1.753
  345TCM    cl1 1889   3.311   1.165   1.718
  345TCM    cl2 1890   3.285   0.920   1.877
  345TCM     h1 1891   3.110   1.057   1.790
  345TCM    cl3 1892   3.184   0.926   1.603
  346TCM     c1 1893   3.035   4.953   2.415
  346TCM    cl1 1894   3.132   5.090   2.477
  346TCM    cl2 1895   3.136   4.854   2.304
  346TCM     h1 1896   3.002   4.891   2.498
  346TCM    cl3 1897   2.892   5.015   2.326
  347TCM     c1 1898   2.618   4.246   2.096
  347TCM    cl1 1899   2.663   4.144   2.237
  347TCM    cl2 1900   2.527   4.146   1.978
  347TCM     h1 1901   2.556   4.329   2.129
  347TCM    cl3 1902   2.767   4.310   2.018
  348TCM     c1 1903   0.767   0.943   2.216
  348TCM    cl1 1904   0.941   0.945   2.172
  348TCM    cl2 1905   0.674   0.882   2.076
  348TCM     h1 1906   0.752   0.878   2.302
  348TCM    cl3 1907   0.713   1.109   2.257
  349TCM     c1 1908   2.434   4.430   2.665
  349TCM    cl1 1909   2.293   4.390   2.769
  349TCM    cl2 1910   2.386   4.558   2.548
  349TCM     h1 1911   2.516   4.467   2.727
  349TCM    cl3 1912   2.486   4.284   2.576
  350TCM     c1 1913   4.264   1.936   4.443
  350TCM    cl1 1914   4.389   2.029   4.354
  350TCM    cl2 1915   4.130   1.892   4.332
  350TCM     h1 1916   4.308   1.846   4.485
  350TCM    cl3 1917   4.199   2.038   4.576
  351TCM     c1 1918   0.506   0.600   4.523
  351TCM    cl1 1919   0.554   0.645   4.356
  351TCM    cl2 1920   0.521   0.422   4.543
  351TCM     h1 1921   0.571   0.651   4.595
  351TCM    cl3 1922   0.335   0.648   4.550
  352TCM     c1 1923   3.603   3.699   4.912
  352TCM    cl1 1924   3.600   3.634   4.745
  352TCM    cl2 1925   3.596   3.564   5.029
  352TCM     h1 1926   3.695   3.757   4.927
  352TCM    cl3 1927   3.461   3.806   4.937
  353TCM     c1 1928   2.054   2.244   2.544
  353TCM    cl1 1929   2.020   2.194   2.375
  353TCM    cl2 1930   1.899   2.270   2.631
  353TCM     h1 1931   2.111   2.165   2.594
  353TCM    cl3 1932   2.149   2.396   2.543
  354TCM     c1 1933   2.129   3.888   1.259
  354TCM    cl1 1934   2.093   3.790   1.113
  354TCM    cl2 1935   2.054   4.050   1.244
  354TCM     h1 1936   2.089   3.837   1.347
  354TCM    cl3 1937   2.307   3.906   1.276
  355TCM     c1 1938   4.257   3.409   1.452
  355TCM    cl1 1939   4.299   3.247   1.518
  355TCM    cl2 1940   4.401   3.480   1.372
  355TCM     h1 1941   4.176   3.398   1.379
  355TCM    cl3 1942   4.203   3.516   1.585
  356TCM     c1 1943   2.501   4.407   0.287
  356TCM    cl1 1944   2.346   4.330   0.336
  356TCM    cl2 1945   2.620   4.392   0.421
  356TCM     h1 1946   2.540   4.356   0.198
  356TCM    cl3 1947   2.471   4.579   0.250
  357TCM     c1 1948   2.833   2.385   4.248
  357TCM    cl1 1949   2.810   2.211   4.210
  357TCM    cl2 1950   2.797   2.484   4.103
  357TCM     h1 1951   2.765   2.413   4.329
  357TCM    cl3 1952   3.003   2.413   4.299
  358TCM     c1 1953   1.688   3.021   2.370
  358TCM    cl1 1954   1.795   2.936   2.254
  358TCM    cl2 1955   1.742   2.983   2.537
  358TCM     h1 1956   1.694   3.129   2.354
  358TCM    cl3 1957   1.519   2.965   2.348
  359TCM     c1 1958   0.776   3.902   4.343
  359TCM    cl1 1959   0.939   3.878   4.416
  359TCM    cl2 1960   0.768   3.812   4.189
  359TCM     h1 1961   0.699   3.865   4.411
  359TCM    cl3 1962   0.750   4.078   4.314
  360TCM     c1 1963   0.325   2.316   1.353
  360TCM    cl1 1964   0.183   2.421   1.320
  360TCM    cl2 1965   0.408   2.282   1.199
  360TCM     h1 1966   0.393   2.367   1.421
  360TCM    cl3 1967   0.269   2.162   1.426
  361TCM     c1 1968   4.574   0.750   3.840
  361TCM    cl1 1969   4.411   0.678   3.823
  361TCM    cl2 1970   4.647   0.698   3.996
  361TCM     h1 1971   4.637   0.716   3.758
  361TCM    cl3 1972   4.561   0.929   3.837
  362TCM     c1 1973   4.085   0.635   0.046
  362TCM    cl1 1974   4.214   0.551  -0.047
  362TCM    cl2 1975   3.980   0.513   0.126
  362TCM     h1 1976   4.131   0.700   0.121
  362TCM    cl3 1977   3.987   0.733  -0.067
  363TCM     c1 1978   2.023   1.388   3.523
  363TCM    cl1 1979   2.070   1.553   3.576
  363TCM    cl2 1980   1.880   1.399   3.416
  363TCM     h1 1981   2.106   1.343   3.469
  363TCM    cl3 1982   1.984   1.287   3.666
  364TCM     c1 1983   0.374   1.708   1.706
  364TCM    cl1 1984   0.202   1.667   1.738
  364TCM    cl2 1985   0.380   1.863   1.617
  364TCM     h1 1986   0.428   1.717   1.800
  364TCM    cl3 1987   0.448   1.579   1.606
  365TCM     c1 1988   1.533   0.468   3.143
  365TCM    cl1 1989   1.500   0.349   3.012
  365TCM    cl2 1990   1.462   0.626   3.099
  365TCM     h1 1991   1.490   0.432   3.237
  365TCM    cl3 1992   1.710   0.488   3.162
  366TCM     c1 1993   2.287   3.996   0.734
  366TCM    cl1 1994   2.395   4.112   0.649
  366TCM    cl2 1995   2.165   3.934   0.617
  366TCM     h1 1996   2.346   3.913   0.773
  366TCM    cl3 1997   2.204   4.079   0.869
  367TCM     c1 1998   3.434   1.745   4.052
  367TCM    cl1 1999   3.269   1.813   4.036
  367TCM    cl2 2000   3.484   1.674   3.894
  367TCM     h1 2001   3.504   1.824   4.080
  367TCM    cl3 2002   3.434   1.616   4.177
  368TCM     c1 2003   2.299   3.579   3.868
  368TCM    cl1 2004   2.304   3.420   3.951
  368TCM    cl2 2005   2.222   3.700   3.977
  368TCM     h1 2006   2.400   3.611   3.844
  368TCM    cl3 2007   2.203   3.566   3.717
  369TCM     c1 2008   3.117   0.399   4.457
  369TCM    cl1 2009   3.119   0.314   4.614
  369TCM    cl2 2010   3.265   0.500   4.442
  369TCM     h1 2011   3.115   0.326   4.375
  369TCM    cl3 2012   2.972   0.505   4.448
  370TCM     c1 2013   2.922   2.622   2.277
  370TCM    cl1 2014   3.037   2.633   2.414
  370TCM    cl2 2015   2.997   2.695   2.131
  370TCM     h1 2016   2.899   2.517   2.257
  370TCM    cl3 2017   2.771   2.711   2.317
  371TCM     c1 2018   4.919   4.065   0.388
  371TCM    cl1 2019   4.997   4.005   0.237
  371TCM    cl2 2020   4.998   4.218   0.440
  371TCM     h1 2021   4.813   4.083   0.369
  371TCM    cl3 2022   4.938   3.942   0.517
  372TCM     c1 2023   2.371   2.891   4.143
  372TCM    cl1 2024   2.366   3.070   4.153
  372TCM    cl2 2025   2.455   2.825   4.287
  372TCM     h1 2026   2.269   2.851   4.139
  372TCM    cl3 2027   2.460   2.841   3.995
  373TCM     c1 2028   2.573   4.071   3.997
  373TCM    cl1 2029   2.659   4.178   4.112
  373TCM    cl2 2030   2.460   3.965   4.087
  373TCM     h1 2031   2.517   4.132   3.925
  373TCM    cl3 2032   2.692   3.969   3.909
  374TCM     c1 2033   4.658   0.262   2.480
  374TCM    cl1 2034   4.718   0.188   2.632
  374TCM    cl2 2035   4.481   0.236   2.467
  374TCM     h1 2036   4.679   0.369   2.481
  374TCM    cl3 2037   4.739   0.187   2.339
  375TCM     c1 2038   2.111   3.535   1.779
  375TCM    cl1 2039   2.095   3.357   1.760
  375TCM    cl2 2040   2.273   3.573   1.846
  375TCM     h1 2041   2.099   3.583   1.682
  375TCM    cl3 2042   1.986   3.597   1.892
  376TCM     c1 2043   3.447   0.605   0.878
  376TCM    cl1 2044   3.358   0.702   1.000
  376TCM    cl2 2045   3.346   0.466   0.827
  376TCM     h1 2046   3.469   0.668   0.791
  376TCM    cl3 2047   3.600   0.545   0.950
  377TCM     c1 2048   0.087   3.633   2.908
  377TCM    cl1 2049   0.113   3.714   2.750
  377TCM    cl2 2050  -0.058   3.527   2.898
  377TCM     h1 2051   0.175   3.573   2.933
  377TCM    cl3 2052   0.060   3.758   3.035
  378TCM     c1 2053   2.838   2.766   4.461
  378TCM    cl1 2054   3.000   2.709   4.515
  378TCM    cl2 2055   2.719   2.634   4.485
  378TCM     h1 2056   2.809   2.853   4.520
  378TCM    cl3 2057   2.846   2.809   4.288
  379TCM     c1 2058   2.083   0.233   0.184
  379TCM    cl1 2059   2.068   0.344   0.045
  379TCM    cl2 2060   2.193   0.098   0.141
  379TCM     h1 2061   2.123   0.287   0.270
  379TCM    cl3 2062   1.921   0.167   0.226
  380TCM     c1 2063   2.995   0.079   1.945
  380TCM    cl1 2064   2.947  -0.090   1.982
  380TCM    cl2 2065   3.131   0.128   2.052
  380TCM     h1 2066   3.026   0.086   1.841
  380TCM    cl3 2067   2.855   0.189   1.974
  381TCM     c1 2068   1.762   3.670   4.289
  381TCM    cl1 2069   1.643   3.711   4.161
  381TCM    cl2 2070   1.727   3.505   4.350
  381TCM     h1 2071   1.863   3.674   4.248
  381TCM    cl3 2072   1.747   3.789   4.423
  382TCM     c1 2073   0.651   2.469   0.481
  382TCM    cl1 2074   0.830   2.481   0.468
  382TCM    cl2 2075   0.576   2.617   0.414
  382TCM     h1 2076   0.616   2.382   0.424
  382TCM    cl3 2077   0.604   2.449   0.653
  383TCM     c1 2078   2.887   0.202   3.051
  383TCM    cl1 2079   3.005   0.262   2.929
  383TCM    cl2 2080   2.946   0.045   3.114
  383TCM     h1 2081   2.878   0.274   3.133
  383TCM    cl3 2082   2.728   0.180   2.971
  384TCM     c1 2083   2.125   3.055   0.575
  384TCM    cl1 2084   2.208   3.071   0.416
  384TCM    cl2 2085   2.230   3.125   0.703
  384TCM     h1 2086   2.030   3.109   0.572
  384TCM    cl3 2087   2.094   2.882   0.609
  385TCM     c1 2088   3.141   0.135   3.890
  385TCM    cl1 2089   2.963   0.140   3.870
  385TCM    cl2 2090   3.203  -0.021   3.828
  385TCM     h1 2091   3.187   0.217   3.834
  385TCM    cl3 2092   3.183   0.149   4.064
  386TCM     c1 2093   0.014   0.472   3.770
  386TCM    cl1 2094   0.179   0.492   3.838
  386TCM    cl2 2095  -0.062   0.326   3.841
  386TCM     h1 2096  -0.046   0.560   3.794
  386TCM    cl3 2097   0.025   0.453   3.592
  387TCM     c1 2098   2.438   2.375   3.644
  387TCM    cl1 2099   2.543   2.498   3.721
  387TCM    cl2 2100   2.497   2.342   3.478
  387TCM     h1 2101   2.441   2.283   3.703
  387TCM    cl3 2102   2.270   2.436   3.637
  388TCM     c1 2103   0.475   1.017   4.765
  388TCM    cl1 2104   0.601   0.903   4.707
  388TCM    cl2 2105   0.526   1.087   4.922
  388TCM     h1 2106   0.461   1.097   4.691
  388TCM    cl3 2107   0.322   0.928   4.790
  389TCM     c1 2108   4.798   3.021   1.623
  389TCM    cl1 2109   4.780   2.855   1.687
  389TCM    cl2 2110   4.862   3.128   1.753
  389TCM     h1 2111   4.868   3.021   1.539
  389TCM    cl3 2112   4.638   3.082   1.571
  390TCM     c1 2113   2.981   3.204   0.311
  390TCM    cl1 2114   2.900   3.330   0.212
  390TCM    cl2 2115   3.119   3.279   0.400
  390TCM     h1 2116   2.910   3.162   0.383
  390TCM    cl3 2117   3.042   3.074   0.204
  391TCM     c1 2118   2.632   4.774   1.281
  391TCM    cl1 2119   2.485   4.859   1.337
  391TCM    cl2 2120   2.593   4.672   1.139
  391TCM     h1 2121   2.709   4.847   1.254
  391TCM    cl3 2122   2.693   4.670   1.414
  392TCM     c1 2123   2.708   3.829   4.480
  392TCM    cl1 2124   2.768   3.870   4.316
  392TCM    cl2 2125   2.720   3.652   4.507
  392TCM     h1 2126   2.767   3.882   4.555
  392TCM    cl3 2127   2.536   3.878   4.494
  393TCM     c1 2128   4.001   3.914   2.274
  393TCM    cl1 2129   4.002   3.981   2.440
  393TCM    cl2 2130   3.931   3.749   2.276
  393TCM     h1 2131   3.942   3.978   2.208
  393TCM    cl3 2132   4.170   3.903   2.213
  394TCM     c1 2133   2.385   1.356   2.240
  394TCM    cl1 2134   2.388   1.301   2.410
  394TCM    cl2 2135   2.553   1.386   2.185
  394TCM     h1 2136   2.339   1.279   2.177
  394TCM    cl3 2137   2.289   1.507   2.227
  395TCM     c1 2138   0.132   2.209   0.279
  395TCM    cl1 2139   0.075   2.083   0.165
  395TCM    cl2 2140  -0.010   2.279   0.364
  395TCM     h1 2141   0.200   2.164   0.353
  395TCM    cl3 2142   0.217   2.338   0.188
  396TCM     c1 2143   4.293   0.420   2.893
  396TCM    cl1 2144   4.203   0.349   3.031
  396TCM    cl2 2145   4.179   0.455   2.759
  396TCM     h1 2146   4.342   0.513   2.925
  396TCM    cl3 2147   4.417   0.304   2.837
  397TCM     c1 2148   4.965   2.026   4.804
  397TCM    cl1 2149   5.083   1.901   4.854
  397TCM    cl2 2150   4.817   1.945   4.742
  397TCM     h1 2151   4.939   2.088   4.890
  397TCM    cl3 2152   5.037   2.128   4.675
  398TCM     c1 2153   3.214   1.087   0.830
  398TCM    cl1 2154   3.095   1.109   0.697
  398TCM    cl2 2155   3.273   1.248   0.883
  398TCM     h1 2156   3.165   1.036   0.914
  398TCM    cl3 2157   3.352   0.989   0.771
  399TCM     c1 2158   2.793   4.245   4.453
  399TCM    cl1 2159   2.826   4.417   4.489
  399TCM    cl2 2160   2.617   4.215   4.468
  399TCM     h1 2161   2.826   4.221   4.351
  399TCM    cl3 2162   2.879   4.141   4.571
  400TCM     c1 2163   1.500   0.180   4.992
  400TCM    cl1 2164   1.657   0.262   4.960
  400TCM    cl2 2165   1.525   0.047   5.109
  400TCM     h1 2166   1.429   0.253   5.033
  400TCM    cl3 2167   1.435   0.113   4.838
  401TCM     c1 2168   1.417   3.416   4.131
  401TCM    cl1 2169   1.353   3.324   4.271
  401TCM    cl2 2170   1.288   3.429   4.006
  401TCM     h1 2171   1.447   3.516   4.163
  401TCM    cl3 2172   1.557   3.328   4.062
  402TCM     c1 2173   1.465   2.212   1.993
  402TCM    cl1 2174   1.433   2.312   2.138
  402TCM    cl2 2175   1.332   2.092   1.973
  402TCM     h1 2176   1.469   2.276   1.905
  402TCM    cl3 2177   1.621   2.126   2.010
  403TCM     c1 2178   1.001   1.256   0.246
  403TCM    cl1 2179   1.028   1.361   0.103
  403TCM    cl2 2180   1.150   1.253   0.346
  403TCM     h1 2181   0.918   1.295   0.305
  403TCM    cl3 2182   0.963   1.089   0.191
  404TCM     c1 2183   0.753   0.257   3.120
  404TCM    cl1 2184   0.818   0.155   3.252
  404TCM    cl2 2185   0.830   0.418   3.124
  404TCM     h1 2186   0.774   0.209   3.024
  404TCM    cl3 2187   0.576   0.275   3.139
  405TCM     c1 2188   2.752   3.621   0.062
  405TCM    cl1 2189   2.716   3.792   0.102
  405TCM    cl2 2190   2.781   3.604  -0.114
  405TCM     h1 2191   2.840   3.588   0.118
  405TCM    cl3 2192   2.612   3.519   0.108
  406TCM     c1 2193   0.125   1.755   0.572
  406TCM    cl1 2194   0.244   1.751   0.706
  406TCM    cl2 2195   0.180   1.873   0.448
  406TCM     h1 2196   0.116   1.656   0.528
  406TCM    cl3 2197  -0.034   1.808   0.636
  407TCM     c1 2198   3.207   4.624   3.816
  407TCM    cl1 2199   3.191   4.648   3.639
  407TCM    cl2 2200   3.380   4.626   3.863
  407TCM     h1 2201   3.154   4.704   3.869
  407TCM    cl3 2202   3.136   4.465   3.860
  408TCM     c1 2203   0.430   3.144   3.227
  408TCM    cl1 2204   0.504   2.981   3.240
  408TCM    cl2 2205   0.341   3.156   3.072
  408TCM     h1 2206   0.361   3.159   3.310
  408TCM    cl3 2207   0.559   3.269   3.234
  409TCM     c1 2208   2.816   0.462   1.685
  409TCM    cl1 2209   2.933   0.586   1.628
  409TCM    cl2 2210   2.868   0.300   1.628
  409TCM     h1 2211   2.812   0.462   1.794
  409TCM    cl3 2212   2.653   0.498   1.618
  410TCM     c1 2213   4.836   0.027   4.246
  410TCM    cl1 2214   4.812   0.027   4.068
  410TCM    cl2 2215   4.732  -0.099   4.321
  410TCM     h1 2216   4.941   0.006   4.269
  410TCM    cl3 2217   4.790   0.188   4.312
  411TCM     c1 2218   3.666   0.812   1.789
  411TCM    cl1 2219   3.572   0.675   1.855
  411TCM    cl2 2220   3.569   0.896   1.664
  411TCM     h1 2221   3.690   0.882   1.869
  411TCM    cl3 2222   3.819   0.752   1.716
  412TCM     c1 2223   2.486   4.737   2.120
  412TCM    cl1 2224   2.495   4.795   2.289
  412TCM    cl2 2225   2.402   4.578   2.116
  412TCM     h1 2226   2.431   4.809   2.059
  412TCM    cl3 2227   2.652   4.716   2.055
  413TCM     c1 2228   2.119   2.581   0.324
  413TCM    cl1 2229   2.016   2.447   0.263
  413TCM    cl2 2230   2.059   2.736   0.257
  413TCM     h1 2231   2.115   2.584   0.433
  413TCM    cl3 2232   2.288   2.554   0.271
  414TCM     c1 2233   2.124   4.562   4.906
  414TCM    cl1 2234   2.261   4.672   4.942
  414TCM    cl2 2235   2.187   4.396   4.878
  414TCM     h1 2236   2.054   4.560   4.991
  414TCM    cl3 2237   2.039   4.620   4.759
  415TCM     c1 2238   3.559   1.148   2.075
  415TCM    cl1 2239   3.611   1.183   1.907
  415TCM    cl2 2240   3.580   0.972   2.109
  415TCM     h1 2241   3.619   1.205   2.146
  415TCM    cl3 2242   3.386   1.193   2.095
  416TCM     c1 2243   3.478   3.968   0.432
  416TCM    cl1 2244   3.540   3.873   0.293
  416TCM    cl2 2245   3.529   3.891   0.586
  416TCM     h1 2246   3.518   4.070   0.427
  416TCM    cl3 2247   3.299   3.973   0.425
  417TCM     c1 2248   1.994   3.954   1.739
  417TCM    cl1 2249   2.090   3.860   1.620
  417TCM    cl2 2250   1.888   4.069   1.652
  417TCM     h1 2251   1.932   3.886   1.799
  417TCM    cl3 2252   2.105   4.043   1.848
  418TCM     c1 2253   4.849   2.610   2.853
  418TCM    cl1 2254   4.801   2.569   3.021
  418TCM    cl2 2255   4.901   2.460   2.768
  418TCM     h1 2256   4.763   2.653   2.800
  418TCM    cl3 2257   4.983   2.728   2.855
  419TCM     c1 2258   1.563   0.941   1.952
  419TCM    cl1 2259   1.563   1.119   1.937
  419TCM    cl2 2260   1.396   0.879   1.931
  419TCM     h1 2261   1.628   0.898   1.875
  419TCM    cl3 2262   1.625   0.895   2.114
  420TCM     c1 2263   1.128   4.236   4.940
  420TCM    cl1 2264   1.050   4.389   4.990
  420TCM    cl2 2265   1.003   4.110   4.918
  420TCM     h1 2266   1.182   4.251   4.846
  420TCM    cl3 2267   1.243   4.183   5.067
  421TCM     c1 2268   3.004   2.627   0.572
  421TCM    cl1 2269   3.007   2.691   0.405
  421TCM    cl2 2270   2.976   2.450   0.568
  421TCM     h1 2271   3.100   2.647   0.620
  421TCM    cl3 2272   2.873   2.706   0.665
  422TCM     c1 2273   0.627   1.933   2.292
  422TCM    cl1 2274   0.725   2.083   2.302
  422TCM    cl2 2275   0.455   1.977   2.261
  422TCM     h1 2276   0.664   1.871   2.210
  422TCM    cl3 2277   0.638   1.843   2.447
  423TCM     c1 2278   2.509   0.578   4.460
  423TCM    cl1 2279   2.599   0.458   4.361
  423TCM    cl2 2280   2.619   0.713   4.501
  423TCM     h1 2281   2.424   0.615   4.404
  423TCM    cl3 2282   2.453   0.499   4.611
  424TCM     c1 2283   0.373   4.231   3.755
  424TCM    cl1 2284   0.345   4.317   3.910
  424TCM    cl2 2285   0.309   4.064   3.767
  424TCM     h1 2286   0.322   4.284   3.674
  424TCM    cl3 2287   0.549   4.226   3.721
  425TCM     c1 2288   0.036   3.988   0.865
  425TCM    cl1 2289  -0.016   4.025   1.032
  425TCM    cl2 2290   0.136   3.839   0.864
  425TCM     h1 2291  -0.051   3.973   0.801
  425TCM    cl3 2292   0.134   4.124   0.801
  426TCM     c1 2293   2.483   2.186   4.955
  426TCM    cl1 2294   2.373   2.219   4.818
  426TCM    cl2 2295   2.408   2.245   5.107
  426TCM     h1 2296   2.501   2.078   4.963
  426TCM    cl3 2297   2.639   2.270   4.928
  427TCM     c1 2298   3.386   2.349   2.110
  427TCM    cl1 2299   3.478   2.457   2.000
  427TCM    cl2 2300   3.322   2.210   2.016
  427TCM     h1 2301   3.452   2.313   2.189
  427TCM    cl3 2302   3.249   2.439   2.182
  428TCM     c1 2303   3.970   1.120   4.678
  428TCM    cl1 2304   4.018   1.159   4.846
  428TCM    cl2 2305   4.035   0.958   4.634
  428TCM     h1 2306   3.861   1.119   4.669
  428TCM    cl3 2307   4.038   1.242   4.566
  429TCM     c1 2308   0.880   1.728   4.047
  429TCM    cl1 2309   0.787   1.665   3.907
  429TCM    cl2 2310   0.806   1.881   4.104
  429TCM     h1 2311   0.879   1.654   4.128
  429TCM    cl3 2312   1.050   1.759   3.998
  430TCM     c1 2313   0.413   0.227   1.818
  430TCM    cl1 2314   0.477   0.120   1.688
  430TCM    cl2 2315   0.474   0.170   1.977
  430TCM     h1 2316   0.447   0.329   1.800
  430TCM    cl3 2317   0.234   0.222   1.817
  431TCM     c1 2318   3.708   0.242   0.724
  431TCM    cl1 2319   3.572   0.171   0.817
  431TCM    cl2 2320   3.646   0.372   0.616
  431TCM     h1 2321   3.781   0.284   0.793
  431TCM    cl3 2322   3.786   0.115   0.624
  432TCM     c1 2323   2.929   1.764   3.386
  432TCM    cl1 2324   3.078   1.855   3.345
  432TCM    cl2 2325   2.903   1.771   3.563
  432TCM     h1 2326   2.844   1.808   3.334
  432TCM    cl3 2327   2.948   1.593   3.335
  433TCM     c1 2328   3.448   2.716   3.454
  433TCM    cl1 2329   3.589   2.809   3.395
  433TCM    cl2 2330   3.400   2.594   3.332
  433TCM     h1 2331   3.474   2.666   3.548
  433TCM    cl3 2332   3.310   2.828   3.483
  434TCM     c1 2333   3.147   4.281   1.536
  434TCM    cl1 2334   3.022   4.374   1.624
  434TCM    cl2 2335   3.150   4.332   1.364
  434TCM     h1 2336   3.245   4.299   1.581
  434TCM    cl3 2337   3.108   4.107   1.543
  435TCM     c1 2338   0.355   1.211   3.826
  435TCM    cl1 2339   0.214   1.188   3.935
  435TCM    cl2 2340   0.299   1.202   3.656
  435TCM     h1 2341   0.401   1.308   3.844
  435TCM    cl3 2342   0.473   1.079   3.857
  436TCM     c1 2343   0.693   1.916   1.300
  436TCM    cl1 2344   0.783   1.827   1.172
  436TCM    cl2 2345   0.710   1.830   1.456
  436TCM     h1 2346   0.734   2.017   1.309
  436TCM    cl3 2347   0.519   1.925   1.255
  437TCM     c1 2348   0.146   2.511   0.959
  437TCM    cl1 2349   0.306   2.500   0.879
  437TCM    cl2 2350   0.016   2.497   0.836
  437TCM     h1 2351   0.135   2.430   1.033
  437TCM    cl3 2352   0.133   2.669   1.042
  438TCM     c1 2353   1.132   3.477   4.735
  438TCM    cl1 2354   0.978   3.418   4.805
  438TCM    cl2 2355   1.107   3.645   4.675
  438TCM     h1 2356   1.210   3.477   4.811
  438TCM    cl3 2357   1.180   3.371   4.598
  439TCM     c1 2358   3.379   1.104   1.201
  439TCM    cl1 2359   3.227   1.010   1.183
  439TCM    cl2 2360   3.509   1.027   1.103
  439TCM     h1 2361   3.363   1.207   1.166
  439TCM    cl3 2362   3.428   1.107   1.373
  440TCM     c1 2363   3.810   1.709   4.379
  440TCM    cl1 2364   3.870   1.541   4.359
  440TCM    cl2 2365   3.667   1.708   4.488
  440TCM     h1 2366   3.889   1.771   4.423
  440TCM    cl3 2367   3.763   1.776   4.220
  441TCM     c1 2368   0.399   3.992   4.194
  441TCM    cl1 2369   0.359   4.154   4.259
  441TCM    cl2 2370   0.509   4.009   4.053
  441TCM     h1 2371   0.447   3.932   4.272
  441TCM    cl3 2372   0.248   3.912   4.140
  442TCM     c1 2373   3.294   3.357   4.962
  442TCM    cl1 2374   3.397   3.327   4.819
  442TCM    cl2 2375   3.347   3.250   5.096
  442TCM     h1 2376   3.303   3.462   4.993
  442TCM    cl3 2377   3.123   3.321   4.920
  443TCM     c1 2378   1.050   2.188   1.239
  443TCM    cl1 2379   0.984   2.112   1.388
  443TCM    cl2 2380   1.091   2.060   1.121
  443TCM     h1 2381   0.975   2.256   1.196
  443TCM    cl3 2382   1.197   2.282   1.281
  444TCM     c1 2383   4.430   0.054   0.114
  444TCM    cl1 2384   4.466   0.090   0.286
  444TCM    cl2 2385   4.581   0.006   0.031
  444TCM     h1 2386   4.357  -0.027   0.108
  444TCM    cl3 2387   4.363   0.201   0.035
  445TCM     c1 2388   4.376   0.960   4.747
  445TCM    cl1 2389   4.377   1.137   4.718
  445TCM    cl2 2390   4.309   0.926   4.910
  445TCM     h1 2391   4.315   0.911   4.671
  445TCM    cl3 2392   4.544   0.897   4.738
  446TCM     c1 2393   3.158   0.668   3.169
  446TCM    cl1 2394   3.068   0.601   3.029
  446TCM    cl2 2395   3.044   0.759   3.274
  446TCM     h1 2396   3.202   0.586   3.226
  446TCM    cl3 2397   3.286   0.779   3.111
  447TCM     c1 2398   4.330   1.416   4.468
  447TCM    cl1 2399   4.504   1.453   4.492
  447TCM    cl2 2400   4.309   1.325   4.315
  447TCM     h1 2401   4.294   1.356   4.552
  447TCM    cl3 2402   4.237   1.570   4.460
  448TCM     c1 2403   0.225   2.004   3.475
  448TCM    cl1 2404   0.136   2.083   3.341
  448TCM    cl2 2405   0.132   2.025   3.628
  448TCM     h1 2406   0.238   1.897   3.454
  448TCM    cl3 2407   0.385   2.082   3.493
  449TCM     c1 2408   4.932   4.915   3.552
  449TCM    cl1 2409   4.874   4.813   3.687
  449TCM    cl2 2410   5.043   4.819   3.448
  449TCM     h1 2411   4.846   4.949   3.492
  449TCM    cl3 2412   5.018   5.057   3.618
  450TCM     c1 2413   3.495   0.451   3.481
  450TCM    cl1 2414   3.363   0.565   3.441
  450TCM    cl2 2415   3.615   0.448   3.348
  450TCM     h1 2416   3.544   0.483   3.573
  450TCM    cl3 2417   3.425   0.287   3.503
  451TCM     c1 2418   3.842   3.595   1.248
  451TCM    cl1 2419   4.018   3.609   1.275
  451TCM    cl2 2420   3.763   3.543   1.400
  451TCM     h1 2421   3.802   3.692   1.217
  451TCM    cl3 2422   3.811   3.474   1.119
  452TCM     c1 2423   0.693   0.022   0.809
  452TCM    cl1 2424   0.662  -0.004   0.984
  452TCM    cl2 2425   0.758  -0.129   0.736
  452TCM     h1 2426   0.600   0.050   0.759
  452TCM    cl3 2427   0.813   0.154   0.790
  453TCM     c1 2428   2.184   3.766   3.387
  453TCM    cl1 2429   2.337   3.671   3.381
  453TCM    cl2 2430   2.061   3.686   3.285
  453TCM     h1 2431   2.149   3.771   3.491
  453TCM    cl3 2432   2.214   3.932   3.326
  454TCM     c1 2433   4.625   3.784   0.926
  454TCM    cl1 2434   4.702   3.754   1.086
  454TCM    cl2 2435   4.749   3.777   0.798
  454TCM     h1 2436   4.549   3.707   0.908
  454TCM    cl3 2437   4.548   3.946   0.925
  455TCM     c1 2438   3.155   4.044   4.209
  455TCM    cl1 2439   3.004   4.124   4.154
  455TCM    cl2 2440   3.140   3.866   4.186
  455TCM     h1 2441   3.240   4.081   4.152
  455TCM    cl3 2442   3.179   4.079   4.384
  456TCM     c1 2443   1.523   1.908   4.843
  456TCM    cl1 2444   1.576   1.925   5.013
  456TCM    cl2 2445   1.431   1.755   4.825
  456TCM     h1 2446   1.459   1.992   4.816
  456TCM    cl3 2447   1.666   1.906   4.735
  457TCM     c1 2448   1.653   3.252   1.715
  457TCM    cl1 2449   1.560   3.369   1.616
  457TCM    cl2 2450   1.740   3.341   1.845
  457TCM     h1 2451   1.585   3.180   1.760
  457TCM    cl3 2452   1.772   3.167   1.611
  458TCM     c1 2453   2.068   4.690   0.925
  458TCM    cl1 2454   2.224   4.743   0.994
  458TCM    cl2 2455   2.047   4.763   0.762
  458TCM     h1 2456   2.066   4.581   0.916
  458TCM    cl3 2457   1.933   4.744   1.031
  459TCM     c1 2458   3.871   4.125   3.404
  459TCM    cl1 2459   4.011   4.206   3.326
  459TCM    cl2 2460   3.813   4.224   3.542
  459TCM     h1 2461   3.790   4.114   3.331
  459TCM    cl3 2462   3.921   3.963   3.462
  460TCM     c1 2463   0.538   0.973   3.341
  460TCM    cl1 2464   0.456   1.130   3.310
  460TCM    cl2 2465   0.507   0.922   3.510
  460TCM     h1 2466   0.499   0.898   3.272
  460TCM    cl3 2467   0.715   0.992   3.316
  461TCM     c1 2468   1.606   4.167   0.155
  461TCM    cl1 2469   1.783   4.196   0.167
  461TCM    cl2 2470   1.528   4.209   0.311
  461TCM     h1 2471   1.564   4.229   0.075
  461TCM    cl3 2472   1.576   3.994   0.117
  462TCM     c1 2473   3.300   0.063   4.935
  462TCM    cl1 2474   3.131   0.094   4.987
  462TCM    cl2 2475   3.298  -0.016   4.774
  462TCM     h1 2476   3.355   0.157   4.930
  462TCM    cl3 2477   3.380  -0.046   5.054
  463TCM     c1 2478   3.545   0.763   2.829
  463TCM    cl1 2479   3.593   0.902   2.725
  463TCM    cl2 2480   3.683   0.714   2.932
  463TCM     h1 2481   3.461   0.792   2.892
  463TCM    cl3 2482   3.497   0.626   2.724
  464TCM     c1 2483   4.975   4.415   3.662
  464TCM    cl1 2484   5.029   4.244   3.650
  464TCM    cl2 2485   5.117   4.521   3.683
  464TCM     h1 2486   4.921   4.442   3.571
  464TCM    cl3 2487   4.866   4.432   3.804
  465TCM     c1 2488   4.293   1.471   4.986
  465TCM    cl1 2489   4.171   1.556   5.086
  465TCM    cl2 2490   4.243   1.478   4.814
  465TCM     h1 2491   4.390   1.520   4.998
  465TCM    cl3 2492   4.304   1.300   5.038
  466TCM     c1 2493   0.721   0.518   2.477
  466TCM    cl1 2494   0.846   0.632   2.419
  466TCM    cl2 2495   0.614   0.473   2.340
  466TCM     h1 2496   0.768   0.428   2.518
  466TCM    cl3 2497   0.623   0.598   2.604
  467TCM     c1 2498   0.484   2.127   1.938
  467TCM    cl1 2499   0.539   1.957   1.920
  467TCM    cl2 2500   0.412   2.184   1.784
  467TCM     h1 2501   0.410   2.133   2.018
  467TCM    cl3 2502   0.625   2.230   1.978
  468TCM     c1 2503   3.501   1.970   1.695
  468TCM    cl1 2504   3.517   2.148   1.690
  468TCM    cl2 2505   3.367   1.918   1.588
  468TCM     h1 2506   3.594   1.923   1.662
  468TCM    cl3 2507   3.466   1.919   1.864
  469TCM     c1 2508   2.729   0.826   3.956
  469TCM    cl1 2509   2.808   0.711   3.843
  469TCM    cl2 2510   2.693   0.742   4.111
  469TCM     h1 2511   2.795   0.911   3.975
  469TCM    cl3 2512   2.576   0.885   3.883
  470TCM     c1 2513   4.629   2.271   4.575
  470TCM    cl1 2514   4.740   2.371   4.673
  470TCM    cl2 2515   4.528   2.171   4.685
  470TCM     h1 2516   4.564   2.336   4.515
  470TCM    cl3 2517   4.723   2.165   4.466
  471TCM     c1 2518   3.807   0.632   2.518
  471TCM    cl1 2519   3.706   0.741   2.416
  471TCM    cl2 2520   3.905   0.730   2.631
  471TCM     h1 2521   3.742   0.565   2.574
  471TCM    cl3 2522   3.916   0.537   2.413
  472TCM     c1 2523   3.193   1.901   3.009
  472TCM    cl1 2524   3.216   1.834   2.843
  472TCM    cl2 2525   3.092   2.048   3.000
  472TCM     h1 2526   3.144   1.826   3.071
  472TCM    cl3 2527   3.353   1.942   3.079
  473TCM     c1 2528   3.594   1.583   1.189
  473TCM    cl1 2529   3.763   1.629   1.154
  473TCM    cl2 2530   3.551   1.631   1.356
  473TCM     h1 2531   3.527   1.633   1.118
  473TCM    cl3 2532   3.575   1.405   1.171
  474TCM     c1 2533   0.383   3.250   1.214
  474TCM    cl1 2534   0.216   3.279   1.274
  474TCM    cl2 2535   0.375   3.148   1.066
  474TCM     h1 2536   0.431   3.345   1.191
  474TCM    cl3 2537   0.478   3.164   1.340
  475TCM     c1 2538   2.618   3.568   4.162
  475TCM    cl1 2539   2.470   3.639   4.233
  475TCM    cl2 2540   2.630   3.614   3.989
  475TCM     h1 2541   2.706   3.606   4.216
  475TCM    cl3 2542   2.611   3.390   4.178
  476TCM     c1 2543   1.524   1.415   1.732
  476TCM    cl1 2544   1.649   1.497   1.831
  476TCM    cl2 2545   1.599   1.352   1.582
  476TCM     h1 2546   1.481   1.332   1.789
  476TCM    cl3 2547   1.394   1.531   1.689
  477TCM     c1 2548   4.738   2.291   0.080
  477TCM    cl1 2549   4.888   2.340  -0.005
  477TCM    cl2 2550   4.708   2.116   0.052
  477TCM     h1 2551   4.748   2.310   0.188
  477TCM    cl3 2552   4.599   2.385   0.016
  478TCM     c1 2553   2.901   4.504   3.264
  478TCM    cl1 2554   2.741   4.526   3.186
  478TCM    cl2 2555   2.886   4.384   3.397
  478TCM     h1 2556   2.974   4.469   3.190
  478TCM    cl3 2557   2.954   4.661   3.332
  479TCM     c1 2558   0.025   3.720   0.015
  479TCM    cl1 2559   0.098   3.557  -0.006
  479TCM    cl2 2560  -0.146   3.702   0.067
  479TCM     h1 2561   0.081   3.775   0.091
  479TCM    cl3 2562   0.031   3.810  -0.140
  480TCM     c1 2563   1.316   2.567   2.857
  480TCM    cl1 2564   1.252   2.648   3.003
  480TCM    cl2 2565   1.265   2.660   2.712
  480TCM     h1 2566   1.426   2.564   2.862
  480TCM    cl3 2567   1.251   2.400   2.848
  481TCM     c1 2568   2.457   2.710   0.691
  481TCM    cl1 2569   2.464   2.855   0.586
  481TCM    cl2 2570   2.339   2.593   0.623
  481TCM     h1 2571   2.556   2.664   0.696
  481TCM    cl3 2572   2.405   2.758   0.856
  482TCM     c1 2573   4.801   3.230   3.333
  482TCM    cl1 2574   4.889   3.305   3.195
  482TCM    cl2 2575   4.624   3.253   3.311
  482TCM     h1 2576   4.824   3.124   3.338
  482TCM    cl3 2577   4.851   3.310   3.486
  483TCM     c1 2578   2.404   4.802   2.892
  483TCM    cl1 2579   2.472   4.646   2.949
  483TCM    cl2 2580   2.244   4.773   2.817
  483TCM     h1 2581   2.394   4.871   2.976
  483TCM    cl3 2582   2.515   4.873   2.770
  484TCM     c1 2583   4.939   2.638   3.936
  484TCM    cl1 2584   5.098   2.719   3.928
  484TCM    cl2 2585   4.809   2.763   3.937
  484TCM     h1 2586   4.926   2.573   3.849
  484TCM    cl3 2587   4.929   2.540   4.086
  485TCM     c1 2588   2.689   2.116   3.260
  485TCM    cl1 2589   2.641   1.993   3.381
  485TCM    cl2 2590   2.653   2.057   3.095
  485TCM     h1 2591   2.634   2.209   3.278
  485TCM    cl3 2592   2.865   2.147   3.275
  486TCM     c1 2593   1.950   0.350   3.696
  486TCM    cl1 2594   2.058   0.209   3.719
  486TCM    cl2 2595   2.027   0.496   3.766
  486TCM     h1 2596   1.934   0.366   3.589
  486TCM    cl3 2597   1.793   0.320   3.777
  487TCM     c1 2598   1.049   4.902   0.412
  487TCM    cl1 2599   0.983   5.050   0.489
  487TCM    cl2 2600   1.106   4.944   0.247
  487TCM     h1 2601   1.132   4.864   0.471
  487TCM    cl3 2602   0.920   4.778   0.400
  488TCM     c1 2603   3.938   1.089   3.270
  488TCM    cl1 2604   3.798   1.173   3.345
  488TCM    cl2 2605   3.914   0.911   3.282
  488TCM     h1 2606   3.947   1.117   3.165
  488TCM    cl3 2607   4.088   1.135   3.358
  489TCM     c1 2608   3.290   4.818   3.095
  489TCM    cl1 2609   3.184   4.677   3.058
  489TCM    cl2 2610   3.247   4.881   3.257
  489TCM     h1 2611   3.395   4.787   3.094
  489TCM    cl3 2612   3.263   4.947   2.973
  490TCM     c1 2613   2.265   2.191   2.895
  490TCM    cl1 2614   2.127   2.077   2.891
  490TCM    cl2 2615   2.202   2.359   2.908
  490TCM     h1 2616   2.328   2.169   2.981
  490TCM    cl3 2617   2.361   2.174   2.745
  491TCM     c1 2618   1.474   0.469   4.673
  491TCM    cl1 2619   1.555   0.568   4.798
  491TCM    cl2 2620   1.465   0.563   4.521
  491TCM     h1 2621   1.530   0.377   4.656
  491TCM    cl3 2622   1.308   0.428   4.728
  492TCM     c1 2623   2.013   4.381   3.837
  492TCM    cl1 2624   1.908   4.355   3.695
  492TCM    cl2 2625   1.955   4.524   3.929
  492TCM     h1 2626   2.010   4.293   3.902
  492TCM    cl3 2627   2.181   4.409   3.782
  493TCM     c1 2628   0.943   3.400   4.253
  493TCM    cl1 2629   0.848   3.462   4.113
  493TCM    cl2 2630   0.899   3.228   4.282
  493TCM     h1 2631   1.049   3.407   4.231
  493TCM    cl3 2632   0.904   3.497   4.399
  494TCM     c1 2633   0.132   2.797   1.416
  494TCM    cl1 2634  -0.039   2.798   1.361
  494TCM    cl2 2635   0.141   2.867   1.581
  494TCM     h1 2636   0.170   2.695   1.417
  494TCM    cl3 2637   0.230   2.897   1.304
  495TCM     c1 2638   3.270   1.157   3.171
  495TCM    cl1 2639   3.416   1.208   3.263
  495TCM    cl2 2640   3.306   1.163   2.996
  495TCM     h1 2641   3.242   1.055   3.200
  495TCM    cl3 2642   3.135   1.269   3.208
  496TCM     c1 2643   0.140   1.314   1.604
  496TCM    cl1 2644   0.263   1.276   1.728
  496TCM    cl2 2645  -0.011   1.369   1.684
  496TCM     h1 2646   0.177   1.392   1.538
  496TCM    cl3 2647   0.105   1.166   1.508
  497TCM     c1 2648   1.548   4.678   1.102
  497TCM    cl1 2649   1.558   4.668   0.923
  497TCM    cl2 2650   1.506   4.516   1.168
  497TCM     h1 2651   1.644   4.710   1.143
  497TCM    cl3 2652   1.420   4.796   1.146
  498TCM     c1 2653   2.521   2.897   3.530
  498TCM    cl1 2654   2.635   2.856   3.662
  498TCM    cl2 2655   2.464   3.066   3.549
  498TCM     h1 2656   2.571   2.885   3.433
  498TCM    cl3 2657   2.379   2.787   3.538
  499TCM     c1 2658   0.068   2.992   0.896
  499TCM    cl1 2659   0.135   3.114   0.783
  499TCM    cl2 2660  -0.066   2.903   0.816
  499TCM     h1 2661   0.147   2.922   0.925
  499TCM    cl3 2662   0.004   3.074   1.042
  500TCM     c1 2663   1.844   4.951   4.950
  500TCM    cl1 2664   1.729   4.868   4.840
  500TCM    cl2 2665   1.956   5.052   4.853
  500TCM     h1 2666   1.789   5.015   5.020
  500TCM    cl3 2667   1.939   4.830   5.042
  501TCM     c1 2668   0.890   1.669   2.690
  501TCM    cl1 2669   0.862   1.501   2.744
  501TCM    cl2 2670   1.066   1.704   2.694
  501TCM     h1 2671   0.852   1.682   2.588
  501TCM    cl3 2672   0.804   1.782   2.800
  502TCM     c1 2673   2.935   3.564   2.051
  502TCM    cl1 2674   2.947   3.398   1.983
  502TCM    cl2 2675   3.100   3.625   2.088
  502TCM     h1 2676   2.887   3.629   1.978
  502TCM    cl3 2677   2.838   3.560   2.201
  503TCM     c1 2678   1.573   0.502   2.673
  503TCM    cl1 2679   1.593   0.552   2.502
  503TCM    cl2 2680   1.448   0.607   2.748
  503TCM     h1 2681   1.541   0.398   2.677
  503TCM    cl3 2682   1.728   0.521   2.761
  504TCM     c1 2683   0.108   0.101   2.562
  504TCM    cl1 2684  -0.006  -0.030   2.518
  504TCM    cl2 2685   0.089   0.140   2.736
  504TCM     h1 2686   0.211   0.067   2.543
  504TCM    cl3 2687   0.074   0.247   2.463
  505TCM     c1 2688   2.462   3.960   3.000
  505TCM    cl1 2689   2.391   4.024   2.848
  505TCM    cl2 2690   2.638   3.937   2.977
  505TCM     h1 2691   2.443   4.030   3.081
  505TCM    cl3 2692   2.387   3.801   3.037
  506TCM     c1 2693   0.288   4.745   4.938
  506TCM    cl1 2694   0.281   4.864   4.804
  506TCM    cl2 2695   0.374   4.597   4.883
  506TCM     h1 2696   0.342   4.788   5.023
  506TCM    cl3 2697   0.122   4.701   4.988
  507TCM     c1 2698   1.439   4.029   4.675
  507TCM    cl1 2699   1.260   4.020   4.660
  507TCM    cl2 2700   1.501   3.873   4.738
  507TCM     h1 2701   1.483   4.049   4.576
  507TCM    cl3 2702   1.482   4.161   4.788
  508TCM     c1 2703   0.567   1.779   3.096
  508TCM    cl1 2704   0.429   1.665   3.087
  508TCM    cl2 2705   0.699   1.706   3.193
  508TCM     h1 2706   0.603   1.800   2.995
  508TCM    cl3 2707   0.513   1.932   3.173
  509TCM     c1 2708   4.491   0.230   4.580
  509TCM    cl1 2709   4.380   0.320   4.689
  509TCM    cl2 2710   4.420   0.223   4.415
  509TCM     h1 2711   4.587   0.281   4.576
  509TCM    cl3 2712   4.514   0.063   4.642
  510TCM     c1 2713   4.196   2.404   2.109
  510TCM    cl1 2714   4.311   2.311   2.008
  510TCM    cl2 2715   4.262   2.423   2.274
  510TCM     h1 2716   4.180   2.503   2.064
  510TCM    cl3 2717   4.040   2.316   2.116
  511TCM     c1 2718   3.386   4.664   1.474
  511TCM    cl1 2719   3.417   4.568   1.326
  511TCM    cl2 2720   3.522   4.778   1.500
  511TCM     h1 2721   3.293   4.720   1.462
  511TCM    cl3 2722   3.372   4.553   1.615
  512TCM     c1 2723   0.272   4.960   0.542
  512TCM    cl1 2724   0.197   5.120   0.511
  512TCM    cl2 2725   0.147   4.832   0.528
  512TCM     h1 2726   0.351   4.942   0.468
  512TCM    cl3 2727   0.341   4.959   0.707
  513TCM     c1 2728   3.967   0.112   4.832
  513TCM    cl1 2729   4.036   0.049   4.985
  513TCM    cl2 2730   4.075   0.072   4.695
  513TCM     h1 2731   3.869   0.067   4.816
  513TCM    cl3 2732   3.950   0.290   4.843
  514TCM     c1 2733   0.922   0.170   1.999
  514TCM    cl1 2734   0.818   0.270   2.105
  514TCM    cl2 2735   1.019   0.276   1.891
  514TCM     h1 2736   0.990   0.110   2.061
  514TCM    cl3 2737   0.819   0.061   1.900
  515TCM     c1 2738   2.788   4.876   4.069
  515TCM    cl1 2739   2.642   4.775   4.089
  515TCM    cl2 2740   2.899   4.797   3.952
  515TCM     h1 2741   2.760   4.975   4.032
  515TCM    cl3 2742   2.869   4.892   4.228
  516TCM     c1 2743   4.438   3.840   1.323
  516TCM    cl1 2744   4.325   3.805   1.188
  516TCM    cl2 2745   4.346   3.842   1.477
  516TCM     h1 2746   4.515   3.763   1.328
  516TCM    cl3 2747   4.514   4.000   1.298
  517TCM     c1 2748   3.073   3.637   4.655
  517TCM    cl1 2749   3.238   3.638   4.724
  517TCM    cl2 2750   3.041   3.477   4.581
  517TCM     h1 2751   3.000   3.656   4.734
  517TCM    cl3 2752   3.061   3.765   4.530
  518TCM     c1 2753   2.845   0.415   4.116
  518TCM    cl1 2754   2.876   0.262   4.205
  518TCM    cl2 2755   2.718   0.388   3.992
  518TCM     h1 2756   2.810   0.491   4.187
  518TCM    cl3 2757   2.997   0.469   4.038
  519TCM     c1 2758   3.341   3.388   1.376
  519TCM    cl1 2759   3.243   3.527   1.318
  519TCM    cl2 2760   3.415   3.431   1.534
  519TCM     h1 2761   3.277   3.300   1.389
  519TCM    cl3 2762   3.470   3.353   1.257
  520TCM     c1 2763   0.066   2.940   3.185
  520TCM    cl1 2764   0.176   2.799   3.172
  520TCM    cl2 2765   0.111   3.038   3.328
  520TCM     h1 2766   0.073   3.001   3.094
  520TCM    cl3 2767  -0.102   2.882   3.205
  521TCM     c1 2768   1.765   3.301   2.705
  521TCM    cl1 2769   1.839   3.410   2.827
  521TCM    cl2 2770   1.800   3.363   2.540
  521TCM     h1 2771   1.807   3.201   2.715
  521TCM    cl3 2772   1.587   3.295   2.729
  522TCM     c1 2773   2.773   4.118   1.407
  522TCM    cl1 2774   2.881   4.108   1.264
  522TCM    cl2 2775   2.633   4.011   1.381
  522TCM     h1 2776   2.828   4.086   1.496
  522TCM    cl3 2777   2.717   4.287   1.428
  523TCM     c1 2778   0.153   1.672   2.681
  523TCM    cl1 2779   0.009   1.776   2.705
  523TCM    cl2 2780   0.156   1.611   2.512
  523TCM     h1 2781   0.244   1.729   2.701
  523TCM    cl3 2782   0.144   1.532   2.794
  524TCM     c1 2783   4.448   3.267   2.547
  524TCM    cl1 2784   4.607   3.297   2.623
  524TCM    cl2 2785   4.331   3.390   2.606
  524TCM     h1 2786   4.456   3.273   2.438
  524TCM    cl3 2787   4.390   3.103   2.594
  525TCM     c1 2788   2.806   4.619   2.381
  525TCM    cl1 2789   2.968   4.552   2.415
  525TCM    cl2 2790   2.747   4.707   2.526
  525TCM     h1 2791   2.810   4.687   2.295
  525TCM    cl3 2792   2.694   4.484   2.346
  526TCM     c1 2793   2.999   3.117   2.219
  526TCM    cl1 2794   2.907   3.039   2.086
  526TCM    cl2 2795   3.170   3.137   2.169
  526TCM     h1 2796   2.956   3.215   2.240
  526TCM    cl3 2797   2.991   3.014   2.365
  527TCM     c1 2798   1.910   3.306   3.960
  527TCM    cl1 2799   1.929   3.324   3.783
  527TCM    cl2 2800   1.938   3.465   4.039
  527TCM     h1 2801   1.809   3.271   3.983
  527TCM    cl3 2802   2.030   3.187   4.021
  528TCM     c1 2803   4.910   1.765   0.217
  528TCM    cl1 2804   4.844   1.732   0.053
  528TCM    cl2 2805   4.926   1.610   0.307
  528TCM     h1 2806   5.008   1.812   0.208
  528TCM    cl3 2807   4.798   1.874   0.306
  529TCM     c1 2808   2.089   2.950   1.861
  529TCM    cl1 2809   2.235   3.049   1.892
  529TCM    cl2 2810   2.077   2.912   1.686
  529TCM     h1 2811   2.095   2.856   1.918
  529TCM    cl3 2812   1.943   3.040   1.912
  530TCM     c1 2813   2.096   0.403   4.585
  530TCM    cl1 2814   2.117   0.528   4.459
  530TCM    cl2 2815   2.077   0.243   4.507
  530TCM     h1 2816   2.183   0.402   4.651
  530TCM    cl3 2817   1.949   0.439   4.682
  531TCM     c1 2818   0.510   0.151   3.714
  531TCM    cl1 2819   0.608   0.280   3.792
  531TCM    cl2 2820   0.580   0.109   3.555
  531TCM     h1 2821   0.509   0.063   3.778
  531TCM    cl3 2822   0.342   0.210   3.690
  532TCM     c1 2823   1.895   4.374   1.279
  532TCM    cl1 2824   1.921   4.540   1.341
  532TCM    cl2 2825   1.846   4.382   1.107
  532TCM     h1 2826   1.988   4.316   1.289
  532TCM    cl3 2827   1.765   4.295   1.374
  533TCM     c1 2828   0.050   0.886   3.813
  533TCM    cl1 2829   0.059   0.807   3.974
  533TCM    cl2 2830  -0.095   0.826   3.728
  533TCM     h1 2831   0.043   0.995   3.826
  533TCM    cl3 2832   0.195   0.845   3.716
  534TCM     c1 2833   2.287   3.087   4.925
  534TCM    cl1 2834   2.187   2.948   4.979
  534TCM    cl2 2835   2.303   3.205   5.059
  534TCM     h1 2836   2.386   3.051   4.895
  534TCM    cl3 2837   2.206   3.165   4.785
  535TCM     c1 2838   2.694   4.161   0.958
  535TCM    cl1 2839   2.654   4.302   1.061
  535TCM    cl2 2840   2.707   4.216   0.788
  535TCM     h1 2841   2.789   4.117   0.990
  535TCM    cl3 2842   2.564   4.038   0.973
  536TCM     c1 2843   1.752   0.853   3.805
  536TCM    cl1 2844   1.722   0.683   3.855
  536TCM    cl2 2845   1.629   0.901   3.684
  536TCM     h1 2846   1.745   0.918   3.892
  536TCM    cl3 2847   1.916   0.866   3.733
  537TCM     c1 2848   1.415   1.136   2.590
  537TCM    cl1 2849   1.490   1.047   2.455
  537TCM    cl2 2850   1.349   1.018   2.708
  537TCM     h1 2851   1.490   1.199   2.640
  537TCM    cl3 2852   1.281   1.238   2.528
  538TCM     c1 2853   2.202   2.917   3.142
  538TCM    cl1 2854   2.214   2.824   2.989
  538TCM    cl2 2855   2.111   3.069   3.113
  538TCM     h1 2856   2.151   2.857   3.217
  538TCM    cl3 2857   2.368   2.958   3.200
  539TCM     c1 2858   3.785   4.151   2.787
  539TCM    cl1 2859   3.673   4.251   2.886
  539TCM    cl2 2860   3.837   4.246   2.643
  539TCM     h1 2861   3.873   4.125   2.847
  539TCM    cl3 2862   3.702   4.002   2.732
  540TCM     c1 2863   2.705   0.008   0.103
  540TCM    cl1 2864   2.839  -0.111   0.122
  540TCM    cl2 2865   2.748   0.159   0.190
  540TCM     h1 2866   2.691   0.030  -0.003
  540TCM    cl3 2867   2.554  -0.060   0.170
  541TCM     c1 2868   1.774   3.733   3.754
  541TCM    cl1 2869   1.878   3.789   3.889
  541TCM    cl2 2870   1.668   3.600   3.812
  541TCM     h1 2871   1.712   3.816   3.719
  541TCM    cl3 2872   1.876   3.673   3.619
  542TCM     c1 2873   2.085   2.249   0.645
  542TCM    cl1 2874   2.225   2.257   0.758
  542TCM    cl2 2875   2.143   2.194   0.484
  542TCM     h1 2876   2.011   2.178   0.684
  542TCM    cl3 2877   2.010   2.411   0.631
  543TCM     c1 2878   2.951   4.995   3.467
  543TCM    cl1 2879   3.088   5.106   3.500
  543TCM    cl2 2880   2.803   5.090   3.436
  543TCM     h1 2881   2.975   4.932   3.381
  543TCM    cl3 2882   2.923   4.891   3.611
  544TCM     c1 2883   2.003   1.045   1.802
  544TCM    cl1 2884   1.881   1.171   1.760
  544TCM    cl2 2885   1.917   0.896   1.853
  544TCM     h1 2886   2.065   1.024   1.715
  544TCM    cl3 2887   2.106   1.104   1.936
  545TCM     c1 2888   2.453   2.643   4.803
  545TCM    cl1 2889   2.513   2.800   4.864
  545TCM    cl2 2890   2.392   2.665   4.636
  545TCM     h1 2891   2.535   2.569   4.803
  545TCM    cl3 2892   2.320   2.584   4.907
  546TCM     c1 2893   3.389   2.403   3.782
  546TCM    cl1 2894   3.508   2.379   3.914
  546TCM    cl2 2895   3.464   2.361   3.624
  546TCM     h1 2896   3.302   2.338   3.799
  546TCM    cl3 2897   3.337   2.574   3.779
  547TCM     c1 2898   0.709   0.552   1.857
  547TCM    cl1 2899   0.713   0.409   1.749
  547TCM    cl2 2900   0.564   0.543   1.963
  547TCM     h1 2901   0.799   0.554   1.919
  547TCM    cl3 2902   0.701   0.701   1.758
  548TCM     c1 2903   0.100   2.699   3.523
  548TCM    cl1 2904  -0.013   2.821   3.590
  548TCM    cl2 2905   0.070   2.541   3.603
  548TCM     h1 2906   0.084   2.689   3.415
  548TCM    cl3 2907   0.269   2.750   3.554
  549TCM     c1 2908   4.404   4.609   0.410
  549TCM    cl1 2909   4.363   4.712   0.551
  549TCM    cl2 2910   4.445   4.715   0.270
  549TCM     h1 2911   4.490   4.547   0.434
  549TCM    cl3 2912   4.264   4.506   0.368
  550TCM     c1 2913   0.386   4.170   0.476
  550TCM    cl1 2914   0.328   4.104   0.320
  550TCM    cl2 2915   0.352   4.346   0.483
  550TCM     h1 2916   0.336   4.120   0.559
  550TCM    cl3 2917   0.563   4.143   0.487
  551TCM     c1 2918   2.246   1.950   3.373
  551TCM    cl1 2919   2.302   2.045   3.231
  551TCM    cl2 2920   2.287   2.038   3.523
  551TCM     h1 2921   2.138   1.937   3.367
  551TCM    cl3 2922   2.326   1.790   3.373
  552TCM     c1 2923   0.549   4.148   0.896
  552TCM    cl1 2924   0.473   4.002   0.823
  552TCM    cl2 2925   0.466   4.295   0.835
  552TCM     h1 2926   0.539   4.143   1.005
  552TCM    cl3 2927   0.722   4.153   0.852
  553TCM     c1 2928   1.527   3.654   0.030
  553TCM    cl1 2929   1.457   3.635   0.194
  553TCM    cl2 2930   1.459   3.529  -0.079
  553TCM     h1 2931   1.503   3.753  -0.008
  553TCM    cl3 2932   1.705   3.636   0.039
  554TCM     c1 2933   3.218   1.903   2.329
  554TCM    cl1 2934   3.328   1.857   2.195
  554TCM    cl2 2935   3.186   2.079   2.320
  554TCM     h1 2936   3.124   1.847   2.321
  554TCM    cl3 2937   3.297   1.865   2.486
  555TCM     c1 2938   1.866   2.568   2.268
  555TCM    cl1 2939   1.852   2.592   2.445
  555TCM    cl2 2940   1.770   2.424   2.220
  555TCM     h1 2941   1.827   2.656   2.216
  555TCM    cl3 2942   2.037   2.541   2.223
  556TCM     c1 2943   3.352   4.864   1.813
  556TCM    cl1 2944   3.210   4.892   1.707
  556TCM    cl2 2945   3.297   4.783   1.964
  556TCM     h1 2946   3.424   4.799   1.762
  556TCM    cl3 2947   3.430   5.020   1.853
  557TCM     c1 2948   1.144   2.263   4.249
  557TCM    cl1 2949   1.319   2.226   4.238
  557TCM    cl2 2950   1.060   2.196   4.106
  557TCM     h1 2951   1.102   2.219   4.341
  557TCM    cl3 2952   1.123   2.441   4.253
  558TCM     c1 2953   4.708   3.547   4.695
  558TCM    cl1 2954   4.623   3.509   4.849
  558TCM    cl2 2955   4.880   3.500   4.709
  558TCM     h1 2956   4.661   3.492   4.613
  558TCM    cl3 2957   4.698   3.723   4.663
  559TCM     c1 2958   0.212   1.696   3.840
  559TCM    cl1 2959   0.258   1.549   3.931
  559TCM    cl2 2960   0.164   1.651   3.673
  559TCM     h1 2961   0.128   1.745   3.890
  559TCM    cl3 2962   0.352   1.809   3.834
  560TCM     c1 2963   4.204   2.030   2.435
  560TCM    cl1 2964   4.055   2.130   2.437
  560TCM    cl2 2965   4.285   2.047   2.276
  560TCM     h1 2966   4.272   2.064   2.514
  560TCM    cl3 2967   4.161   1.858   2.463
  561TCM     c1 2968   1.420   2.763   4.913
  561TCM    cl1 2969   1.564   2.816   5.007
  561TCM    cl2 2970   1.274   2.842   4.981
  561TCM     h1 2971   1.432   2.791   4.808
  561TCM    cl3 2972   1.402   2.585   4.926
  562TCM     c1 2973   3.581   1.979   2.692
  562TCM    cl1 2974   3.451   2.091   2.744
  562TCM    cl2 2975   3.603   1.851   2.816
  562TCM     h1 2976   3.554   1.933   2.597
  562TCM    cl3 2977   3.734   2.071   2.673
  563TCM     c1 2978   2.840   4.702   0.569
  563TCM    cl1 2979   2.700   4.767   0.477
  563TCM    cl2 2980   2.940   4.600   0.460
  563TCM     h1 2981   2.900   4.784   0.608
  563TCM    cl3 2982   2.780   4.601   0.706
  564TCM     c1 2983   1.836   3.822   0.421
  564TCM    cl1 2984   1.908   3.869   0.263
  564TCM    cl2 2985   1.751   3.666   0.403
  564TCM     h1 2986   1.916   3.812   0.496
  564TCM    cl3 2987   1.720   3.948   0.474
  565TCM     c1 2988   0.176   2.979   4.777
  565TCM    cl1 2989   0.165   3.117   4.891
  565TCM    cl2 2990   0.022   2.966   4.686
  565TCM     h1 2991   0.258   2.995   4.708
  565TCM    cl3 2992   0.203   2.828   4.869
  566TCM     c1 2993   2.959   4.833   2.824
  566TCM    cl1 2994   2.880   4.966   2.733
  566TCM    cl2 2995   3.067   4.742   2.713
  566TCM     h1 2996   3.018   4.875   2.905
  566TCM    cl3 2997   2.835   4.723   2.892
  567TCM     c1 2998   4.623   3.707   3.326
  567TCM    cl1 2999   4.487   3.591   3.317
  567TCM    cl2 3000   4.561   3.873   3.298
  567TCM     h1 3001   4.670   3.701   3.425
  567TCM    cl3 3002   4.744   3.667   3.200
  568TCM     c1 3003   1.654   0.899   2.868
  568TCM    cl1 3004   1.693   0.871   2.695
  568TCM    cl2 3005   1.658   1.075   2.901
  568TCM     h1 3006   1.554   0.860   2.890
  568TCM    cl3 3007   1.775   0.817   2.972
  569TCM     c1 3008   3.198   2.733   4.186
  569TCM    cl1 3009   3.363   2.664   4.174
  569TCM    cl2 3010   3.104   2.690   4.040
  569TCM     h1 3011   3.148   2.693   4.275
  569TCM    cl3 3012   3.209   2.912   4.200
  570TCM     c1 3013   2.402   3.953   0.326
  570TCM    cl1 3014   2.310   3.931   0.174
  570TCM    cl2 3015   2.552   4.044   0.292
  570TCM     h1 3016   2.341   4.008   0.397
  570TCM    cl3 3017   2.445   3.792   0.394
  571TCM     c1 3018   3.389   1.825   4.912
  571TCM    cl1 3019   3.441   1.712   4.782
  571TCM    cl2 3020   3.424   1.752   5.072
  571TCM     h1 3021   3.443   1.920   4.902
  571TCM    cl3 3022   3.213   1.854   4.897
  572TCM     c1 3023   2.365   1.439   3.258
  572TCM    cl1 3024   2.386   1.412   3.434
  572TCM    cl2 3025   2.196   1.398   3.212
  572TCM     h1 3026   2.384   1.544   3.234
  572TCM    cl3 3027   2.478   1.334   3.168
  573TCM     c1 3028   1.262   0.766   2.444
  573TCM    cl1 3029   1.318   0.762   2.274
  573TCM    cl2 3030   1.203   0.603   2.490
  573TCM     h1 3031   1.345   0.796   2.509
  573TCM    cl3 3032   1.129   0.885   2.459
  574TCM     c1 3033   2.503   4.138   4.808
  574TCM    cl1 3034   2.497   4.222   4.967
  574TCM    cl2 3035   2.344   4.062   4.775
  574TCM     h1 3036   2.525   4.211   4.730
  574TCM    cl3 3037   2.631   4.013   4.812
  575TCM     c1 3038   2.338   4.413   1.192
  575TCM    cl1 3039   2.295   4.538   1.314
  575TCM    cl2 3040   2.200   4.387   1.082
  575TCM     h1 3041   2.426   4.446   1.135
  575TCM    cl3 3042   2.376   4.259   1.276
  576TCM     c1 3043   0.997   2.637   4.823
  576TCM    cl1 3044   0.835   2.605   4.755
  576TCM    cl2 3045   1.101   2.707   4.694
  576TCM     h1 3046   0.990   2.707   4.907
  576TCM    cl3 3047   1.069   2.482   4.878
  577TCM     c1 3048   1.445   0.914   1.481
  577TCM    cl1 3049   1.398   1.059   1.386
  577TCM    cl2 3050   1.303   0.854   1.572
  577TCM     h1 3051   1.480   0.836   1.413
  577TCM    cl3 3052   1.576   0.958   1.595
  578TCM     c1 3053   0.221   3.521   3.369
  578TCM    cl1 3054   0.072   3.617   3.394
  578TCM    cl2 3055   0.240   3.482   3.195
  578TCM     h1 3056   0.308   3.578   3.404
  578TCM    cl3 3057   0.208   3.367   3.461
  579TCM     c1 3058   2.562   4.909   0.853
  579TCM    cl1 3059   2.510   5.000   0.999
  579TCM    cl2 3060   2.733   4.948   0.816
  579TCM     h1 3061   2.551   4.801   0.871
  579TCM    cl3 3062   2.459   4.956   0.714
  580TCM     c1 3063   0.180   0.238   3.324
  580TCM    cl1 3064   0.296   0.100   3.323
  580TCM    cl2 3065   0.017   0.177   3.279
  580TCM     h1 3066   0.177   0.282   3.424
  580TCM    cl3 3067   0.230   0.361   3.205
  581TCM     c1 3068   3.209   4.024   1.136
  581TCM    cl1 3069   3.386   4.026   1.108
  581TCM    cl2 3070   3.151   3.854   1.137
  581TCM     h1 3071   3.186   4.071   1.232
  581TCM    cl3 3072   3.127   4.114   1.003
  582TCM     c1 3073   4.660   4.082   3.596
  582TCM    cl1 3074   4.646   4.139   3.765
  582TCM    cl2 3075   4.783   3.951   3.587
  582TCM     h1 3076   4.563   4.043   3.562
  582TCM    cl3 3077   4.709   4.219   3.491
  583TCM     c1 3078   1.082   3.739   0.068
  583TCM    cl1 3079   1.121   3.565   0.090
  583TCM    cl2 3080   0.928   3.754  -0.023
  583TCM     h1 3081   1.072   3.787   0.166
  583TCM    cl3 3082   1.215   3.817  -0.025
  584TCM     c1 3083   0.396   2.303   4.768
  584TCM    cl1 3084   0.331   2.179   4.880
  584TCM    cl2 3085   0.537   2.234   4.681
  584TCM     h1 3086   0.319   2.331   4.696
  584TCM    cl3 3087   0.446   2.447   4.862
  585TCM     c1 3088   1.122   0.188   2.409
  585TCM    cl1 3089   1.020   0.273   2.530
  585TCM    cl2 3090   1.160   0.300   2.274
  585TCM     h1 3091   1.214   0.154   2.456
  585TCM    cl3 3092   1.032   0.047   2.343
  586TCM     c1 3093   0.810   1.123   3.726
  586TCM    cl1 3094   0.824   1.208   3.884
  586TCM    cl2 3095   0.972   1.112   3.650
  586TCM     h1 3096   0.770   1.023   3.742
  586TCM    cl3 3097   0.702   1.216   3.618
  587TCM     c1 3098   3.710   2.765   3.811
  587TCM    cl1 3099   3.715   2.627   3.698
  587TCM    cl2 3100   3.689   2.705   3.979
  587TCM     h1 3101   3.804   2.821   3.805
  587TCM    cl3 3102   3.574   2.874   3.769
  588TCM     c1 3103   2.034   3.533   4.828
  588TCM    cl1 3104   1.934   3.548   4.680
  588TCM    cl2 3105   1.962   3.409   4.936
  588TCM     h1 3106   2.135   3.502   4.801
  588TCM    cl3 3107   2.039   3.691   4.913
  589TCM     c1 3108   1.159   0.307   0.235
  589TCM    cl1 3109   1.160   0.271   0.059
  589TCM    cl2 3110   1.105   0.476   0.262
  589TCM     h1 3111   1.090   0.238   0.286
  589TCM    cl3 3112   1.324   0.284   0.302
  590TCM     c1 3113   0.432   3.833   0.105
  590TCM    cl1 3114   0.604   3.797   0.141
  590TCM    cl2 3115   0.328   3.751   0.227
  590TCM     h1 3116   0.416   3.941   0.109
  590TCM    cl3 3117   0.391   3.771  -0.058
  591TCM     c1 3118   3.156   1.418   2.779
  591TCM    cl1 3119   3.171   1.537   2.645
  591TCM    cl2 3120   3.029   1.299   2.739
  591TCM     h1 3121   3.252   1.367   2.793
  591TCM    cl3 3122   3.112   1.504   2.931
  592TCM     c1 3123   2.789   4.575   4.949
  592TCM    cl1 3124   2.802   4.427   4.847
  592TCM    cl2 3125   2.807   4.530   5.121
  592TCM     h1 3126   2.867   4.645   4.920
  592TCM    cl3 3127   2.628   4.651   4.924
  593TCM     c1 3128   3.439   3.467   2.982
  593TCM    cl1 3129   3.612   3.430   3.011
  593TCM    cl2 3130   3.423   3.637   2.927
  593TCM     h1 3131   3.399   3.400   2.906
  593TCM    cl3 3132   3.348   3.446   3.135
  594TCM     c1 3133   2.909   3.907   0.654
  594TCM    cl1 3134   3.005   4.058   0.639
  594TCM    cl2 3135   2.751   3.929   0.573
  594TCM     h1 3136   2.963   3.824   0.607
  594TCM    cl3 3137   2.883   3.872   0.828
  595TCM     c1 3138   4.602   4.218   0.689
  595TCM    cl1 3139   4.567   4.387   0.638
  595TCM    cl2 3140   4.771   4.207   0.750
  595TCM     h1 3141   4.533   4.189   0.769
  595TCM    cl3 3142   4.582   4.108   0.549
  596TCM     c1 3143   4.696   2.696   4.866
  596TCM    cl1 3144   4.623   2.755   5.020
  596TCM    cl2 3145   4.873   2.688   4.885
  596TCM     h1 3146   4.656   2.597   4.842
  596TCM    cl3 3147   4.655   2.811   4.734
  597TCM     c1 3148   2.782   0.941   1.843
  597TCM    cl1 3149   2.669   0.831   1.758
  597TCM    cl2 3150   2.836   1.070   1.730
  597TCM     h1 3151   2.732   0.986   1.929
  597TCM    cl3 3152   2.925   0.847   1.900
  598TCM     c1 3153   3.248   4.343   2.575
  598TCM    cl1 3154   3.318   4.485   2.489
  598TCM    cl2 3155   3.167   4.397   2.725
  598TCM     h1 3156   3.176   4.294   2.510
  598TCM    cl3 3157   3.380   4.229   2.617
  599TCM     c1 3158   3.680   3.568   3.631
  599TCM    cl1 3159   3.824   3.584   3.525
  599TCM    cl2 3160   3.686   3.410   3.716
  599TCM     h1 3161   3.679   3.649   3.704
  599TCM    cl3 3162   3.532   3.575   3.531
  600TCM     c1 3163   4.074   0.525   4.613
  600TCM    cl1 3164   4.204   0.640   4.566
  600TCM    cl2 3165   4.080   0.382   4.505
  600TCM     h1 3166   4.089   0.494   4.716
  600TCM    cl3 3167   3.914   0.604   4.595
  601TCM     c1 3168   3.064   3.330   3.432
  601TCM    cl1 3169   3.199   3.427   3.498
  601TCM    cl2 3170   3.123   3.165   3.393
  601TCM     h1 3171   2.984   3.323   3.507
  601TCM    cl3 3172   3.001   3.408   3.283
  602TCM     c1 3173   0.690   2.336   1.622
  602TCM    cl1 3174   0.863   2.380   1.608
  602TCM    cl2 3175   0.646   2.219   1.493
  602TCM     h1 3176   0.672   2.291   1.720
  602TCM    cl3 3177   0.589   2.483   1.605
  603TCM     c1 3178   0.235   4.086   2.744
  603TCM    cl1 3179   0.270   4.262   2.751
  603TCM    cl2 3180   0.312   4.005   2.885
  603TCM     h1 3181   0.127   4.070   2.747
  603TCM    cl3 3182   0.302   4.018   2.592
  604TCM     c1 3183   2.392   3.363   1.204
  604TCM    cl1 3184   2.565   3.322   1.181
  604TCM    cl2 3185   2.324   3.260   1.335
  604TCM     h1 3186   2.382   3.468   1.232
  604TCM    cl3 3187   2.303   3.332   1.051
  605TCM     c1 3188   0.261   1.531   2.161
  605TCM    cl1 3189   0.356   1.661   2.083
  605TCM    cl2 3190   0.370   1.422   2.251
  605TCM     h1 3191   0.188   1.575   2.230
  605TCM    cl3 3192   0.174   1.436   2.036
  606TCM     c1 3193   3.863   3.116   3.616
  606TCM    cl1 3194   3.878   3.099   3.794
  606TCM    cl2 3195   3.891   2.956   3.540
  606TCM     h1 3196   3.763   3.152   3.591
  606TCM    cl3 3197   3.986   3.233   3.556
  607TCM     c1 3198   1.761   3.168   3.124
  607TCM    cl1 3199   1.772   3.074   2.972
  607TCM    cl2 3200   1.747   3.054   3.262
  607TCM     h1 3201   1.850   3.230   3.136
  607TCM    cl3 3202   1.616   3.274   3.119
  608TCM     c1 3203   2.592   3.090   2.271
  608TCM    cl1 3204   2.578   3.008   2.430
  608TCM    cl2 3205   2.680   3.245   2.291
  608TCM     h1 3206   2.646   3.026   2.201
  608TCM    cl3 3207   2.428   3.124   2.208
  609TCM     c1 3208   1.850   2.734   4.778
  609TCM    cl1 3209   1.765   2.582   4.737
  609TCM    cl2 3210   1.763   2.872   4.702
  609TCM     h1 3211   1.852   2.747   4.887
  609TCM    cl3 3212   2.018   2.727   4.715
  610TCM     c1 3213   4.841   0.670   2.509
  610TCM    cl1 3214   4.881   0.543   2.630
  610TCM    cl2 3215   4.823   0.591   2.348
  610TCM     h1 3216   4.747   0.719   2.537
  610TCM    cl3 3217   4.973   0.790   2.502
  611TCM     c1 3218   0.218   2.092   0.851
  611TCM    cl1 3219   0.145   2.147   0.697
  611TCM    cl2 3220   0.125   2.160   0.989
  611TCM     h1 3221   0.216   1.983   0.856
  611TCM    cl3 3222   0.388   2.150   0.861
  612TCM     c1 3223   3.103   4.044   4.878
  612TCM    cl1 3224   2.972   3.922   4.866
  612TCM    cl2 3225   3.219   4.017   4.744
  612TCM     h1 3226   3.060   4.145   4.871
  612TCM    cl3 3227   3.189   4.025   5.034
  613TCM     c1 3228   2.751   3.961   3.392
  613TCM    cl1 3229   2.775   4.056   3.543
  613TCM    cl2 3230   2.840   4.040   3.258
  613TCM     h1 3231   2.789   3.860   3.407
  613TCM    cl3 3232   2.576   3.954   3.352
  614TCM     c1 3233   2.324   4.319   1.622
  614TCM    cl1 3234   2.396   4.155   1.633
  614TCM    cl2 3235   2.328   4.397   1.783
  614TCM     h1 3236   2.382   4.379   1.551
  614TCM    cl3 3237   2.154   4.306   1.564
  615TCM     c1 3238   1.320   1.820   0.263
  615TCM    cl1 3239   1.281   1.779   0.433
  615TCM    cl2 3240   1.308   1.997   0.243
  615TCM     h1 3241   1.422   1.787   0.239
  615TCM    cl3 3242   1.203   1.738   0.154
  616TCM     c1 3243   0.434   2.499   4.289
  616TCM    cl1 3244   0.289   2.582   4.223
  616TCM    cl2 3245   0.434   2.329   4.233
  616TCM     h1 3246   0.525   2.550   4.255
  616TCM    cl3 3247   0.427   2.501   4.469
  617TCM     c1 3248   0.352   1.521   4.361
  617TCM    cl1 3249   0.452   1.522   4.510
  617TCM    cl2 3250   0.365   1.362   4.280
  617TCM     h1 3251   0.248   1.540   4.388
  617TCM    cl3 3252   0.411   1.650   4.251
  618TCM     c1 3253   0.165   2.609   0.480
  618TCM    cl1 3254   0.178   2.731   0.610
  618TCM    cl2 3255   0.262   2.465   0.524
  618TCM     h1 3256   0.060   2.579   0.467
  618TCM    cl3 3257   0.227   2.678   0.326
  619TCM     c1 3258   2.191   3.951   4.379
  619TCM    cl1 3259   2.085   3.940   4.523
  619TCM    cl2 3260   2.281   4.107   4.384
  619TCM     h1 3261   2.262   3.868   4.379
  619TCM    cl3 3262   2.090   3.944   4.231
  620TCM     c1 3263   3.010   3.309   2.933
  620TCM    cl1 3264   2.900   3.232   2.814
  620TCM    cl2 3265   3.112   3.431   2.850
  620TCM     h1 3266   2.951   3.359   3.010
  620TCM    cl3 3267   3.114   3.184   3.008
  621TCM     c1 3268   2.897   4.150   0.280
  621TCM    cl1 3269   2.958   3.982   0.291
  621TCM    cl2 3270   2.844   4.180   0.111
  621TCM     h1 3271   2.812   4.163   0.348
  621TCM    cl3 3272   3.028   4.264   0.323
  622TCM     c1 3273   3.555   4.251   0.023
  622TCM    cl1 3274   3.450   4.265  -0.122
  622TCM    cl2 3275   3.663   4.109   0.005
  622TCM     h1 3276   3.615   4.342   0.034
  622TCM    cl3 3277   3.453   4.229   0.170
  623TCM     c1 3278   2.497   3.424   0.427
  623TCM    cl1 3279   2.647   3.502   0.486
  623TCM    cl2 3280   2.372   3.429   0.556
  623TCM     h1 3281   2.460   3.477   0.339
  623TCM    cl3 3282   2.531   3.254   0.385
  624TCM     c1 3283   3.973   3.547   3.172
  624TCM    cl1 3284   3.948   3.580   2.997
  624TCM    cl2 3285   4.075   3.677   3.242
  624TCM     h1 3286   3.877   3.544   3.223
  624TCM    cl3 3287   4.057   3.389   3.192
  625TCM     c1 3288   0.359   4.752   3.844
  625TCM    cl1 3289   0.309   4.852   3.705
  625TCM    cl2 3290   0.437   4.857   3.968
  625TCM     h1 3291   0.271   4.703   3.887
  625TCM    cl3 3292   0.475   4.628   3.788
  626TCM     c1 3293   4.186   0.153   3.370
  626TCM    cl1 3294   4.307   0.175   3.501
  626TCM    cl2 3295   4.068   0.287   3.375
  626TCM     h1 3296   4.237   0.152   3.273
  626TCM    cl3 3297   4.100  -0.002   3.395
  627TCM     c1 3298   2.438   2.565   3.150
  627TCM    cl1 3299   2.563   2.653   3.244
  627TCM    cl2 3300   2.286   2.558   3.245
  627TCM     h1 3301   2.419   2.618   3.055
  627TCM    cl3 3302   2.495   2.398   3.115
  628TCM     c1 3303   4.906   4.399   2.667
  628TCM    cl1 3304   4.951   4.440   2.836
  628TCM    cl2 3305   4.899   4.221   2.648
  628TCM     h1 3306   4.808   4.442   2.645
  628TCM    cl3 3307   5.028   4.467   2.554
  629TCM     c1 3308   2.352   0.660   1.760
  629TCM    cl1 3309   2.217   0.570   1.684
  629TCM    cl2 3310   2.402   0.577   1.910
  629TCM     h1 3311   2.436   0.665   1.690
  629TCM    cl3 3312   2.298   0.826   1.800
  630TCM     c1 3313   0.304   2.412   2.955
  630TCM    cl1 3314   0.276   2.415   2.777
  630TCM    cl2 3315   0.374   2.253   3.000
  630TCM     h1 3316   0.373   2.492   2.982
  630TCM    cl3 3317   0.148   2.434   3.041
  631TCM     c1 3318   1.350   3.916   0.495
  631TCM    cl1 3319   1.278   3.914   0.330
  631TCM    cl2 3320   1.404   3.750   0.537
  631TCM     h1 3321   1.435   3.984   0.497
  631TCM    cl3 3322   1.225   3.969   0.612
  632TCM     c1 3323   2.644   2.922   0.196
  632TCM    cl1 3324   2.662   3.067   0.092
  632TCM    cl2 3325   2.469   2.892   0.225
  632TCM     h1 3326   2.688   2.836   0.146
  632TCM    cl3 3327   2.727   2.950   0.353
  633TCM     c1 3328   0.573   0.281   0.482
  633TCM    cl1 3329   0.605   0.105   0.466
  633TCM    cl2 3330   0.499   0.311   0.642
  633TCM     h1 3331   0.667   0.336   0.474
  633TCM    cl3 3332   0.461   0.333   0.352
  634TCM     c1 3333   0.054   2.062   2.993
  634TCM    cl1 3334  -0.107   1.994   3.031
  634TCM    cl2 3335   0.052   2.130   2.827
  634TCM     h1 3336   0.078   2.141   3.065
  634TCM    cl3 3337   0.177   1.932   3.001
  635TCM     c1 3338   2.628   0.664   3.146
  635TCM    cl1 3339   2.707   0.533   3.053
  635TCM    cl2 3340   2.720   0.816   3.121
  635TCM     h1 3341   2.525   0.677   3.112
  635TCM    cl3 3342   2.628   0.622   3.321
  636TCM     c1 3343   0.292   0.934   1.940
  636TCM    cl1 3344   0.349   1.059   2.056
  636TCM    cl2 3345   0.400   0.931   1.797
  636TCM     h1 3346   0.292   0.836   1.987
  636TCM    cl3 3347   0.125   0.975   1.887
  637TCM     c1 3348   4.095   0.442   4.156
  637TCM    cl1 3349   4.044   0.604   4.214
  637TCM    cl2 3350   4.241   0.458   4.053
  637TCM     h1 3351   4.118   0.378   4.241
  637TCM    cl3 3352   3.961   0.369   4.061
  638TCM     c1 3353   4.907   0.943   4.706
  638TCM    cl1 3354   4.895   0.765   4.710
  638TCM    cl2 3355   5.029   0.992   4.584
  638TCM     h1 3356   4.810   0.987   4.680
  638TCM    cl3 3357   4.958   1.003   4.868
  639TCM     c1 3358   2.837   0.722   1.273
  639TCM    cl1 3359   3.010   0.748   1.312
  639TCM    cl2 3360   2.735   0.808   1.393
  639TCM     h1 3361   2.815   0.760   1.173
  639TCM    cl3 3362   2.800   0.546   1.279
  640TCM     c1 3363   2.231   0.995   3.573
  640TCM    cl1 3364   2.361   1.086   3.657
  640TCM    cl2 3365   2.289   0.831   3.530
  640TCM     h1 3366   2.144   0.988   3.638
  640TCM    cl3 3367   2.186   1.082   3.422
   5.00000   5.00000   5.00000
