FOO
 3367
    1PMP     C1    1   0.095   1.705   2.640
    1PMP     O2    2  -0.037   1.650   2.657
    1PMP     C3    3  -0.143   1.738   2.665
    1PMP     C4    4  -0.133   1.877   2.646
    1PMP     C5    5  -0.245   1.960   2.657
    1PMP     C6    6  -0.233   2.106   2.643
    1PMP     C7    7  -0.133   2.176   2.712
    1PMP     C8    8  -0.127   2.316   2.705
    1PMP     C9    9  -0.219   2.389   2.629
    1PMP    C10   10  -0.214   2.537   2.625
    1PMP    O11   11  -0.112   2.591   2.667
    1PMP    C12   12  -0.317   2.318   2.557
    1PMP    C13   13  -0.324   2.178   2.565
    1PMP    C14   14  -0.369   1.902   2.688
    1PMP    C15   15  -0.382   1.765   2.712
    1PMP    C16   16  -0.511   1.710   2.758
    1PMP    C17   17  -0.594   1.786   2.842
    1PMP    C18   18  -0.717   1.738   2.886
    1PMP    C19   19  -0.764   1.612   2.847
    1PMP    C20   20  -0.902   1.569   2.896
    1PMP    C21   21  -0.917   1.417   2.910
    1PMP    N22   22  -1.008   1.617   2.808
    1PMP    C23   23  -0.681   1.534   2.765
    1PMP    C24   24  -0.556   1.581   2.722
    1PMP    C25   25  -0.268   1.684   2.698
    1PMP    H26   26   0.111   1.774   2.723
    1PMP    H27   27   0.162   1.619   2.646
    1PMP    H28   28   0.097   1.753   2.542
    1PMP    H29   29  -0.038   1.923   2.621
    1PMP    H30   30  -0.062   2.122   2.774
    1PMP    H31   31  -0.050   2.367   2.762
    1PMP    H32   32  -0.388   2.371   2.495
    1PMP    H33   33  -0.400   2.126   2.508
    1PMP    H34   34  -0.456   1.967   2.696
    1PMP    H35   35  -0.563   1.884   2.876
    1PMP    H36   36  -0.776   1.801   2.952
    1PMP    H37   37  -0.917   1.611   2.996
    1PMP    H38   38  -0.912   1.374   2.810
    1PMP    H39   39  -0.835   1.384   2.975
    1PMP    H40   40  -1.015   1.402   2.957
    1PMP    H41   41  -1.049   1.553   2.741
    1PMP    H42   42  -0.712   1.435   2.733
    1PMP    H43   43  -0.494   1.518   2.660
    1PMP    H44   44  -0.274   1.577   2.718
    2PMP    C45   45  -1.678   2.313   2.501
    2PMP    O46   46  -1.772   2.205   2.515
    2PMP    C47   47  -1.721   2.078   2.506
    2PMP    C48   48  -1.598   2.039   2.560
    2PMP    C49   49  -1.551   1.907   2.549
    2PMP    C50   50  -1.423   1.863   2.610
    2PMP    C51   51  -1.316   1.953   2.628
    2PMP    C52   52  -1.199   1.913   2.692
    2PMP    C53   53  -1.183   1.781   2.739
    2PMP    C54   54  -1.064   1.744   2.816
    2PMP    O55   55  -1.015   1.827   2.891
    2PMP    C56   56  -1.287   1.690   2.717
    2PMP    C57   57  -1.405   1.731   2.654
    2PMP    C58   58  -1.632   1.815   2.481
    2PMP    C59   59  -1.756   1.850   2.427
    2PMP    C60   60  -1.839   1.748   2.361
    2PMP    C61   61  -1.779   1.647   2.285
    2PMP    C62   62  -1.855   1.543   2.231
    2PMP    C63   63  -1.994   1.539   2.249
    2PMP    C64   64  -2.071   1.422   2.190
    2PMP    C65   65  -2.212   1.458   2.143
    2PMP    N66   66  -2.077   1.314   2.289
    2PMP    C67   67  -2.055   1.642   2.323
    2PMP    C68   68  -1.978   1.745   2.378
    2PMP    C69   69  -1.800   1.983   2.441
    2PMP    H70   70  -1.614   2.287   2.416
    2PMP    H71   71  -1.739   2.401   2.481
    2PMP    H72   72  -1.624   2.320   2.596
    2PMP    H73   73  -1.539   2.112   2.615
    2PMP    H74   74  -1.324   2.055   2.592
    2PMP    H75   75  -1.120   1.985   2.708
    2PMP    H76   76  -1.280   1.587   2.753
    2PMP    H77   77  -1.485   1.658   2.644
    2PMP    H78   78  -1.598   1.713   2.470
    2PMP    H79   79  -1.672   1.647   2.268
    2PMP    H80   80  -1.804   1.464   2.177
    2PMP    H81   81  -2.017   1.387   2.102
    2PMP    H82   82  -2.270   1.482   2.232
    2PMP    H83   83  -2.200   1.542   2.075
    2PMP    H84   84  -2.249   1.368   2.092
    2PMP    H85   85  -2.155   1.313   2.354
    2PMP    H86   86  -2.162   1.643   2.340
    2PMP    H87   87  -2.028   1.822   2.436
    2PMP    H88   88  -1.896   2.014   2.401
    3PMP    C89   89  -1.781   0.497   2.806
    3PMP    O90   90  -1.913   0.446   2.779
    3PMP    C91   91  -2.008   0.533   2.730
    3PMP    C92   92  -1.980   0.655   2.667
    3PMP    C93   93  -2.083   0.739   2.619
    3PMP    C94   94  -2.053   0.863   2.545
    3PMP    C95   95  -1.939   0.875   2.465
    3PMP    C96   96  -1.915   0.989   2.388
    3PMP    C97   97  -2.005   1.097   2.389
    3PMP    C98   98  -1.982   1.214   2.301
    3PMP    O99   99  -1.882   1.219   2.231
    3PMP   C100  100  -2.118   1.087   2.472
    3PMP   C101  101  -2.142   0.973   2.548
    3PMP   C102  102  -2.215   0.697   2.640
    3PMP   C103  103  -2.246   0.575   2.700
    3PMP   C104  104  -2.385   0.534   2.718
    3PMP   C105  105  -2.476   0.619   2.781
    3PMP   C106  106  -2.608   0.579   2.803
    3PMP   C107  107  -2.654   0.453   2.761
    3PMP   C108  108  -2.798   0.413   2.795
    3PMP   C109  109  -2.814   0.263   2.817
    3PMP   N110  110  -2.895   0.456   2.694
    3PMP   C111  111  -2.563   0.369   2.695
    3PMP   C112  112  -2.430   0.408   2.674
    3PMP   C113  113  -2.141   0.493   2.743
    3PMP   H114  114  -1.794   0.589   2.865
    3PMP   H115  115  -1.732   0.418   2.864
    3PMP   H116  116  -1.734   0.513   2.709
    3PMP   H117  117  -1.877   0.687   2.654
    3PMP   H118  118  -1.868   0.792   2.457
    3PMP   H119  119  -1.827   0.992   2.324
    3PMP   H120  120  -2.191   1.167   2.477
    3PMP   H121  121  -2.230   0.969   2.611
    3PMP   H122  122  -2.298   0.758   2.605
    3PMP   H123  123  -2.444   0.717   2.816
    3PMP   H124  124  -2.674   0.647   2.856
    3PMP   H125  125  -2.823   0.462   2.890
    3PMP   H126  126  -2.801   0.215   2.719
    3PMP   H127  127  -2.737   0.234   2.889
    3PMP   H128  128  -2.915   0.249   2.856
    3PMP   H129  129  -2.934   0.386   2.632
    3PMP   H130  130  -2.593   0.270   2.661
    3PMP   H131  131  -2.362   0.340   2.625
    3PMP   H132  132  -2.162   0.398   2.791
    4PMP   C133  133  -3.502   1.145   2.306
    4PMP   O134  134  -3.587   1.041   2.255
    4PMP   C135  135  -3.556   0.911   2.284
    4PMP   C136  136  -3.440   0.867   2.350
    4PMP   C137  137  -3.417   0.732   2.379
    4PMP   C138  138  -3.294   0.689   2.452
    4PMP   C139  139  -3.178   0.768   2.451
    4PMP   C140  140  -3.065   0.732   2.525
    4PMP   C141  141  -3.063   0.614   2.601
    4PMP   C142  142  -2.947   0.584   2.685
    4PMP   O143  143  -2.901   0.673   2.755
    4PMP   C144  144  -3.177   0.533   2.599
    4PMP   C145  145  -3.291   0.570   2.527
    4PMP   C146  146  -3.516   0.639   2.340
    4PMP   C147  147  -3.634   0.680   2.275
    4PMP   C148  148  -3.741   0.584   2.244
    4PMP   C149  149  -3.712   0.453   2.202
    4PMP   C150  150  -3.815   0.361   2.180
    4PMP   C151  151  -3.950   0.397   2.198
    4PMP   C152  152  -4.059   0.295   2.180
    4PMP   C153  153  -4.165   0.339   2.078
    4PMP   N154  154  -4.122   0.270   2.309
    4PMP   C155  155  -3.978   0.528   2.239
    4PMP   C156  156  -3.876   0.620   2.261
    4PMP   C157  157  -3.651   0.816   2.247
    4PMP   H158  158  -3.405   1.132   2.257
    4PMP   H159  159  -3.551   1.238   2.277
    4PMP   H160  160  -3.498   1.133   2.414
    4PMP   H161  161  -3.367   0.941   2.382
    4PMP   H162  162  -3.173   0.859   2.393
    4PMP   H163  163  -2.978   0.797   2.525
    4PMP   H164  164  -3.179   0.442   2.659
    4PMP   H165  165  -3.378   0.506   2.534
    4PMP   H166  166  -3.503   0.534   2.361
    4PMP   H167  167  -3.610   0.421   2.187
    4PMP   H168  168  -3.791   0.260   2.149
    4PMP   H169  169  -4.015   0.202   2.142
    4PMP   H170  170  -4.214   0.427   2.120
    4PMP   H171  171  -4.110   0.360   1.986
    4PMP   H172  172  -4.233   0.254   2.069
    4PMP   H173  173  -4.172   0.347   2.352
    4PMP   H174  174  -4.081   0.560   2.256
    4PMP   H175  175  -3.902   0.720   2.294
    4PMP   H176  176  -3.740   0.851   2.196
    5CAP   C177  177  -0.314   2.746   2.575
    5CAP   O178  178  -0.323   2.603   2.574
    5CAP   H179  179  -0.306   2.777   2.680
    5CAP   H180  180  -0.407   2.781   2.529
    5CAP   H181  181  -0.226   2.773   2.515
    6CAP   C182  182  -3.810  -0.074   2.371
    6CAP   C183  183  -3.909   0.007   2.457
    6CAP   C184  184  -4.010  -0.091   2.521
    6CAP   C185  185  -3.827   0.083   2.564
    6CAP   O186  186  -3.971   0.097   2.363
    6CAP   C187  187  -4.066   0.187   2.402
    6CAP   O188  188  -4.108   0.203   2.515
    6CAP   H189  189  -3.759  -0.143   2.438
    6CAP   H190  190  -3.871  -0.125   2.296
    6CAP   H191  191  -3.742  -0.001   2.325
    6CAP   H192  192  -4.068  -0.132   2.438
    6CAP   H193  193  -4.071  -0.033   2.590
    6CAP   H194  194  -3.950  -0.167   2.572
    6CAP   H195  195  -3.766   0.155   2.509
    6CAP   H196  196  -3.898   0.131   2.631
    6CAP   H197  197  -3.767   0.008   2.616
    7TCM     c1  198   4.290   0.344   2.916
    7TCM    cl1  199   4.336   0.504   2.849
    7TCM    cl2  200   4.437   0.250   2.953
    7TCM     h1  201   4.231   0.358   3.007
    7TCM    cl3  202   4.193   0.257   2.793
    8TCM     c1  203   1.680   2.311   4.097
    8TCM    cl1  204   1.743   2.213   3.960
    8TCM    cl2  205   1.587   2.205   4.208
    8TCM     h1  206   1.763   2.357   4.151
    8TCM    cl3  207   1.571   2.438   4.033
    9TCM     c1  208   1.627   2.300   0.574
    9TCM    cl1  209   1.501   2.331   0.451
    9TCM    cl2  210   1.605   2.136   0.642
    9TCM     h1  211   1.726   2.308   0.528
    9TCM    cl3  212   1.614   2.422   0.706
   10TCM     c1  213   2.747   0.594   3.605
   10TCM    cl1  214   2.918   0.563   3.651
   10TCM    cl2  215   2.732   0.587   3.427
   10TCM     h1  216   2.683   0.518   3.651
   10TCM    cl3  217   2.700   0.757   3.662
   11TCM     c1  218   2.127   1.708   2.814
   11TCM    cl1  219   2.202   1.545   2.827
   11TCM    cl2  220   2.057   1.728   2.650
   11TCM     h1  221   2.049   1.718   2.889
   11TCM    cl3  222   2.253   1.833   2.842
   12TCM     c1  223   4.990   1.407   0.196
   12TCM    cl1  224   4.841   1.507   0.193
   12TCM    cl2  225   5.129   1.510   0.146
   12TCM     h1  226   5.007   1.369   0.297
   12TCM    cl3  227   4.974   1.270   0.081
   13TCM     c1  228   2.493   0.898   2.259
   13TCM    cl1  229   2.420   0.782   2.143
   13TCM    cl2  230   2.641   0.824   2.328
   13TCM     h1  231   2.519   0.990   2.206
   13TCM    cl3  232   2.377   0.934   2.391
   14TCM     c1  233   3.583   4.071   4.558
   14TCM    cl1  234   3.715   4.000   4.657
   14TCM    cl2  235   3.540   4.232   4.624
   14TCM     h1  236   3.617   4.082   4.455
   14TCM    cl3  237   3.440   3.963   4.562
   15TCM     c1  238   0.366   4.003   3.218
   15TCM    cl1  239   0.209   3.956   3.290
   15TCM    cl2  240   0.469   3.857   3.200
   15TCM     h1  241   0.349   4.048   3.119
   15TCM    cl3  242   0.448   4.121   3.325
   16TCM     c1  243   3.806   1.311   2.448
   16TCM    cl1  244   3.863   1.348   2.614
   16TCM    cl2  245   3.910   1.183   2.376
   16TCM     h1  246   3.703   1.276   2.452
   16TCM    cl3  247   3.816   1.459   2.348
   17TCM     c1  248   4.823   2.846   4.152
   17TCM    cl1  249   4.836   2.846   4.331
   17TCM    cl2  250   4.981   2.890   4.080
   17TCM     h1  251   4.793   2.747   4.117
   17TCM    cl3  252   4.700   2.967   4.103
   18TCM     c1  253   0.398   2.694   1.192
   18TCM    cl1  254   0.377   2.679   1.014
   18TCM    cl2  255   0.335   2.547   1.272
   18TCM     h1  256   0.505   2.706   1.215
   18TCM    cl3  257   0.309   2.838   1.251
   19TCM     c1  258   1.284   1.768   1.964
   19TCM    cl1  259   1.264   1.888   2.097
   19TCM    cl2  260   1.387   1.838   1.835
   19TCM     h1  261   1.331   1.678   2.004
   19TCM    cl3  262   1.124   1.728   1.895
   20TCM     c1  263   4.343   4.290   0.361
   20TCM    cl1  264   4.329   4.426   0.244
   20TCM    cl2  265   4.179   4.246   0.420
   20TCM     h1  266   4.389   4.204   0.312
   20TCM    cl3  267   4.442   4.342   0.500
   21TCM     c1  268   2.436   0.267   3.693
   21TCM    cl1  269   2.557   0.261   3.561
   21TCM    cl2  270   2.439   0.430   3.766
   21TCM     h1  271   2.336   0.245   3.654
   21TCM    cl3  272   2.479   0.145   3.818
   22TCM     c1  273   2.696   1.746   2.783
   22TCM    cl1  274   2.642   1.909   2.836
   22TCM    cl2  275   2.732   1.750   2.608
   22TCM     h1  276   2.786   1.717   2.839
   22TCM    cl3  277   2.565   1.628   2.814
   23TCM     c1  278   0.636   3.033   4.655
   23TCM    cl1  279   0.635   2.937   4.504
   23TCM    cl2  280   0.715   3.191   4.625
   23TCM     h1  281   0.533   3.050   4.689
   23TCM    cl3  282   0.727   2.945   4.782
   24TCM     c1  283   4.194   3.181   2.104
   24TCM    cl1  284   4.211   3.350   2.163
   24TCM    cl2  285   4.337   3.085   2.155
   24TCM     h1  286   4.103   3.137   2.147
   24TCM    cl3  287   4.182   3.181   1.925
   25TCM     c1  288   0.135   3.724   4.484
   25TCM    cl1  289  -0.003   3.771   4.381
   25TCM    cl2  290   0.201   3.870   4.565
   25TCM     h1  291   0.102   3.653   4.560
   25TCM    cl3  292   0.264   3.651   4.383
   26TCM     c1  293   2.116   1.117   3.239
   26TCM    cl1  294   2.187   0.964   3.302
   26TCM    cl2  295   2.248   1.223   3.179
   26TCM     h1  296   2.047   1.095   3.158
   26TCM    cl3  297   2.030   1.203   3.371
   27TCM     c1  298   1.173   1.806   2.436
   27TCM    cl1  299   1.230   1.637   2.417
   27TCM    cl2  300   1.174   1.851   2.610
   27TCM     h1  301   1.239   1.873   2.381
   27TCM    cl3  302   1.006   1.821   2.373
   28TCM     c1  303   2.939   4.692   4.731
   28TCM    cl1  304   2.936   4.515   4.700
   28TCM    cl2  305   2.802   4.769   4.645
   28TCM     h1  306   2.930   4.711   4.838
   28TCM    cl3  307   3.093   4.759   4.669
   29TCM     c1  308   2.673   2.775   2.297
   29TCM    cl1  309   2.819   2.690   2.237
   29TCM    cl2  310   2.705   2.845   2.459
   29TCM     h1  311   2.648   2.855   2.227
   29TCM    cl3  312   2.537   2.659   2.308
   30TCM     c1  313   3.083   2.160   4.862
   30TCM    cl1  314   2.966   2.025   4.877
   30TCM    cl2  315   3.193   2.157   5.004
   30TCM     h1  316   3.142   2.148   4.770
   30TCM    cl3  317   2.995   2.315   4.857
   31TCM     c1  318   4.899   4.896   1.066
   31TCM    cl1  319   4.942   5.048   0.981
   31TCM    cl2  320   4.901   4.926   1.243
   31TCM     h1  321   4.799   4.864   1.034
   31TCM    cl3  322   5.018   4.768   1.026
   32TCM     c1  323   2.978   0.653   0.803
   32TCM    cl1  324   3.048   0.546   0.930
   32TCM    cl2  325   3.029   0.597   0.641
   32TCM     h1  326   2.869   0.650   0.809
   32TCM    cl3  327   3.035   0.821   0.830
   33TCM     c1  328   3.651   3.305   1.881
   33TCM    cl1  329   3.548   3.171   1.942
   33TCM    cl2  330   3.690   3.276   1.708
   33TCM     h1  331   3.598   3.400   1.890
   33TCM    cl3  332   3.803   3.311   1.976
   34TCM     c1  333   1.013   0.880   3.392
   34TCM    cl1  334   1.040   0.930   3.562
   34TCM    cl2  335   0.953   1.020   3.297
   34TCM     h1  336   1.108   0.845   3.349
   34TCM    cl3  337   0.893   0.747   3.387
   35TCM     c1  338   0.579   0.230   3.876
   35TCM    cl1  339   0.586   0.122   4.019
   35TCM    cl2  340   0.601   0.133   3.726
   35TCM     h1  341   0.482   0.280   3.873
   35TCM    cl3  342   0.710   0.352   3.887
   36TCM     c1  343   2.687   3.640   3.309
   36TCM    cl1  344   2.731   3.467   3.328
   36TCM    cl2  345   2.637   3.707   3.468
   36TCM     h1  346   2.773   3.696   3.272
   36TCM    cl3  347   2.551   3.654   3.192
   37TCM     c1  348   0.352   0.787   2.371
   37TCM    cl1  349   0.196   0.758   2.453
   37TCM    cl2  350   0.344   0.719   2.205
   37TCM     h1  351   0.372   0.895   2.366
   37TCM    cl3  352   0.484   0.706   2.462
   38TCM     c1  353   4.700   2.022   1.888
   38TCM    cl1  354   4.809   1.894   1.951
   38TCM    cl2  355   4.613   1.960   1.743
   38TCM     h1  356   4.627   2.049   1.965
   38TCM    cl3  357   4.797   2.166   1.843
   39TCM     c1  358   1.301   3.541   2.027
   39TCM    cl1  359   1.225   3.626   1.888
   39TCM    cl2  360   1.370   3.384   1.971
   39TCM     h1  361   1.381   3.603   2.069
   39TCM    cl3  362   1.176   3.509   2.152
   40TCM     c1  363   3.659   1.460   2.014
   40TCM    cl1  364   3.498   1.505   2.079
   40TCM    cl2  365   3.738   1.605   1.946
   40TCM     h1  366   3.721   1.418   2.094
   40TCM    cl3  367   3.638   1.338   1.884
   41TCM     c1  368   0.622   2.121   1.809
   41TCM    cl1  369   0.691   2.264   1.894
   41TCM    cl2  370   0.539   2.016   1.928
   41TCM     h1  371   0.551   2.155   1.733
   41TCM    cl3  372   0.755   2.029   1.732
   42TCM     c1  373   2.039   3.613   1.543
   42TCM    cl1  374   2.076   3.442   1.584
   42TCM    cl2  375   2.040   3.632   1.364
   42TCM     h1  376   1.941   3.640   1.582
   42TCM    cl3  377   2.164   3.720   1.614
   43TCM     c1  378   0.929   4.435   1.075
   43TCM    cl1  379   0.959   4.294   1.182
   43TCM    cl2  380   0.782   4.522   1.130
   43TCM     h1  381   1.015   4.502   1.078
   43TCM    cl3  382   0.905   4.376   0.907
   44TCM     c1  383   0.083   0.969   4.439
   44TCM    cl1  384   0.259   0.937   4.444
   44TCM    cl2  385   0.028   1.029   4.599
   44TCM     h1  386   0.062   1.045   4.362
   44TCM    cl3  387  -0.003   0.817   4.400
   45TCM     c1  388   1.034   3.918   4.447
   45TCM    cl1  389   1.155   4.042   4.493
   45TCM    cl2  390   1.102   3.812   4.319
   45TCM     h1  391   1.008   3.858   4.534
   45TCM    cl3  392   0.886   3.999   4.385
   46TCM     c1  393   0.251   0.604   4.625
   46TCM    cl1  394   0.206   0.439   4.678
   46TCM    cl2  395   0.430   0.617   4.616
   46TCM     h1  396   0.208   0.624   4.526
   46TCM    cl3  397   0.189   0.724   4.743
   47TCM     c1  398   1.084   4.357   1.898
   47TCM    cl1  399   0.908   4.342   1.931
   47TCM    cl2  400   1.175   4.345   2.053
   47TCM     h1  401   1.116   4.278   1.831
   47TCM    cl3  402   1.116   4.517   1.823
   48TCM     c1  403   3.578   3.993   4.996
   48TCM    cl1  404   3.545   3.923   5.158
   48TCM    cl2  405   3.677   4.142   5.014
   48TCM     h1  406   3.633   3.921   4.936
   48TCM    cl3  407   3.424   4.035   4.915
   49TCM     c1  408   1.368   1.606   1.536
   49TCM    cl1  409   1.314   1.560   1.371
   49TCM    cl2  410   1.530   1.683   1.527
   49TCM     h1  411   1.296   1.675   1.581
   49TCM    cl3  412   1.379   1.458   1.637
   50TCM     c1  413   3.287   0.523   2.032
   50TCM    cl1  414   3.163   0.648   2.001
   50TCM    cl2  415   3.209   0.375   2.098
   50TCM     h1  416   3.339   0.499   1.939
   50TCM    cl3  417   3.404   0.586   2.153
   51TCM     c1  418   0.018   0.389   1.757
   51TCM    cl1  419   0.034   0.567   1.749
   51TCM    cl2  420  -0.005   0.322   1.592
   51TCM     h1  421   0.109   0.346   1.801
   51TCM    cl3  422  -0.123   0.347   1.859
   52TCM     c1  423   3.324   2.650   0.985
   52TCM    cl1  424   3.151   2.602   0.973
   52TCM    cl2  425   3.428   2.508   0.951
   52TCM     h1  426   3.345   2.729   0.913
   52TCM    cl3  427   3.357   2.709   1.151
   53TCM     c1  428   3.951   0.043   0.580
   53TCM    cl1  429   4.103   0.011   0.489
   53TCM    cl2  430   3.985   0.034   0.756
   53TCM     h1  431   3.914   0.142   0.555
   53TCM    cl3  432   3.829  -0.081   0.536
   54TCM     c1  433   4.806   1.828   3.091
   54TCM    cl1  434   4.773   1.981   3.004
   54TCM    cl2  435   4.940   1.740   3.011
   54TCM     h1  436   4.833   1.850   3.195
   54TCM    cl3  437   4.659   1.725   3.089
   55TCM     c1  438   1.996   3.291   2.235
   55TCM    cl1  439   1.879   3.250   2.364
   55TCM    cl2  440   2.150   3.204   2.265
   55TCM     h1  441   1.955   3.262   2.138
   55TCM    cl3  442   2.026   3.468   2.237
   56TCM     c1  443   0.592   0.109   4.428
   56TCM    cl1  444   0.449   0.013   4.377
   56TCM    cl2  445   0.670   0.031   4.569
   56TCM     h1  446   0.663   0.116   4.345
   56TCM    cl3  447   0.538   0.274   4.475
   57TCM     c1  448   4.361   0.304   4.278
   57TCM    cl1  449   4.534   0.260   4.286
   57TCM    cl2  450   4.328   0.441   4.390
   57TCM     h1  451   4.335   0.334   4.176
   57TCM    cl3  452   4.261   0.162   4.325
   58TCM     c1  453   3.544   4.660   1.229
   58TCM    cl1  454   3.650   4.803   1.250
   58TCM    cl2  455   3.481   4.609   1.389
   58TCM     h1  456   3.461   4.685   1.163
   58TCM    cl3  457   3.639   4.525   1.159
   59TCM     c1  458   4.398   4.349   4.768
   59TCM    cl1  459   4.286   4.300   4.899
   59TCM    cl2  460   4.429   4.526   4.780
   59TCM     h1  461   4.493   4.295   4.778
   59TCM    cl3  462   4.324   4.312   4.609
   60TCM     c1  463   3.736   4.321   1.467
   60TCM    cl1  464   3.818   4.224   1.340
   60TCM    cl2  465   3.824   4.303   1.623
   60TCM     h1  466   3.735   4.426   1.438
   60TCM    cl3  467   3.568   4.263   1.488
   61TCM     c1  468   3.529   3.928   3.195
   61TCM    cl1  469   3.448   3.873   3.345
   61TCM    cl2  470   3.703   3.887   3.202
   61TCM     h1  471   3.484   3.879   3.109
   61TCM    cl3  472   3.511   4.106   3.180
   62TCM     c1  473   0.104   0.703   3.299
   62TCM    cl1  474   0.177   0.572   3.397
   62TCM    cl2  475   0.174   0.699   3.134
   62TCM     h1  476  -0.004   0.689   3.293
   62TCM    cl3  477   0.141   0.861   3.376
   63TCM     c1  478   3.098   2.326   2.783
   63TCM    cl1  479   2.944   2.358   2.870
   63TCM    cl2  480   3.179   2.183   2.855
   63TCM     h1  481   3.077   2.307   2.677
   63TCM    cl3  482   3.206   2.469   2.800
   64TCM     c1  483   3.710   2.378   2.315
   64TCM    cl1  484   3.667   2.321   2.479
   64TCM    cl2  485   3.809   2.527   2.327
   64TCM     h1  486   3.767   2.301   2.262
   64TCM    cl3  487   3.559   2.414   2.224
   65TCM     c1  488   4.907   0.609   2.301
   65TCM    cl1  489   4.905   0.482   2.429
   65TCM    cl2  490   4.742   0.631   2.235
   65TCM     h1  491   4.944   0.703   2.343
   65TCM    cl3  492   5.015   0.556   2.168
   66TCM     c1  493   0.539   0.225   2.738
   66TCM    cl1  494   0.622   0.073   2.693
   66TCM    cl2  495   0.362   0.198   2.739
   66TCM     h1  496   0.572   0.256   2.838
   66TCM    cl3  497   0.578   0.354   2.620
   67TCM     c1  498   5.000   3.519   0.942
   67TCM    cl1  499   5.163   3.448   0.913
   67TCM    cl2  500   4.900   3.501   0.794
   67TCM     h1  501   4.952   3.468   1.025
   67TCM    cl3  502   5.018   3.693   0.981
   68TCM     c1  503   1.233   3.400   0.368
   68TCM    cl1  504   1.070   3.464   0.328
   68TCM    cl2  505   1.252   3.392   0.546
   68TCM     h1  506   1.245   3.300   0.326
   68TCM    cl3  507   1.357   3.510   0.301
   69TCM     c1  508   4.868   0.149   2.157
   69TCM    cl1  509   4.791   0.084   2.305
   69TCM    cl2  510   4.873   0.021   2.031
   69TCM     h1  511   4.810   0.234   2.120
   69TCM    cl3  512   5.035   0.202   2.194
   70TCM     c1  513   2.806   4.546   3.856
   70TCM    cl1  514   2.843   4.722   3.859
   70TCM    cl2  515   2.896   4.466   3.989
   70TCM     h1  516   2.698   4.531   3.869
   70TCM    cl3  517   2.858   4.478   3.698
   71TCM     c1  518   4.845   1.832   0.003
   71TCM    cl1  519   4.850   1.743  -0.153
   71TCM    cl2  520   4.786   2.000  -0.026
   71TCM     h1  521   4.777   1.781   0.072
   71TCM    cl3  522   5.010   1.839   0.074
   72TCM     c1  523   2.963   4.728   4.315
   72TCM    cl1  524   2.802   4.653   4.289
   72TCM    cl2  525   3.008   4.824   4.170
   72TCM     h1  526   2.960   4.794   4.402
   72TCM    cl3  527   3.084   4.599   4.341
   73TCM     c1  528   3.616   3.990   1.907
   73TCM    cl1  529   3.519   4.126   1.842
   73TCM    cl2  530   3.585   3.972   2.083
   73TCM     h1  531   3.588   3.897   1.855
   73TCM    cl3  532   3.791   4.022   1.880
   74TCM     c1  533   0.726   0.431   3.344
   74TCM    cl1  534   0.638   0.518   3.213
   74TCM    cl2  535   0.750   0.260   3.297
   74TCM     h1  536   0.824   0.478   3.359
   74TCM    cl3  537   0.631   0.440   3.495
   75TCM     c1  538   0.613   1.477   2.423
   75TCM    cl1  539   0.685   1.585   2.299
   75TCM    cl2  540   0.745   1.396   2.514
   75TCM     h1  541   0.552   1.536   2.492
   75TCM    cl3  542   0.510   1.354   2.343
   76TCM     c1  543   0.907   0.843   1.920
   76TCM    cl1  544   0.994   0.907   2.064
   76TCM    cl2  545   0.868   0.670   1.944
   76TCM     h1  546   0.815   0.899   1.906
   76TCM    cl3  547   1.012   0.862   1.775
   77TCM     c1  548   2.740   1.247   3.586
   77TCM    cl1  549   2.686   1.117   3.698
   77TCM    cl2  550   2.598   1.311   3.496
   77TCM     h1  551   2.786   1.327   3.644
   77TCM    cl3  552   2.858   1.179   3.470
   78TCM     c1  553   4.432   4.892   0.802
   78TCM    cl1  554   4.580   4.987   0.839
   78TCM    cl2  555   4.306   4.929   0.924
   78TCM     h1  556   4.395   4.918   0.702
   78TCM    cl3  557   4.472   4.717   0.808
   79TCM     c1  558   0.060   4.412   0.175
   79TCM    cl1  559   0.229   4.366   0.136
   79TCM    cl2  560   0.054   4.486   0.338
   79TCM     h1  561   0.024   4.484   0.101
   79TCM    cl3  562  -0.043   4.266   0.172
   80TCM     c1  563   2.338   3.444   1.961
   80TCM    cl1  564   2.398   3.503   1.803
   80TCM    cl2  565   2.459   3.333   2.033
   80TCM     h1  566   2.321   3.529   2.028
   80TCM    cl3  567   2.183   3.357   1.935
   81TCM     c1  568   0.393   3.135   0.869
   81TCM    cl1  569   0.470   3.265   0.772
   81TCM    cl2  570   0.454   3.142   1.038
   81TCM     h1  571   0.284   3.148   0.868
   81TCM    cl3  572   0.435   2.975   0.798
   82TCM     c1  573   2.973   3.629   0.637
   82TCM    cl1  574   2.979   3.697   0.471
   82TCM    cl2  575   3.039   3.749   0.753
   82TCM     h1  576   2.869   3.606   0.663
   82TCM    cl3  577   3.071   3.480   0.644
   83TCM     c1  578   2.945   3.287   4.705
   83TCM    cl1  579   3.021   3.125   4.696
   83TCM    cl2  580   3.040   3.392   4.816
   83TCM     h1  581   2.944   3.333   4.605
   83TCM    cl3  582   2.777   3.270   4.765
   84TCM     c1  583   0.975   1.239   1.731
   84TCM    cl1  584   0.894   1.288   1.579
   84TCM    cl2  585   0.853   1.186   1.850
   84TCM     h1  586   1.044   1.157   1.711
   84TCM    cl3  587   1.065   1.378   1.799
   85TCM     c1  588   1.769   2.528   4.487
   85TCM    cl1  589   1.700   2.474   4.644
   85TCM    cl2  590   1.635   2.569   4.375
   85TCM     h1  591   1.832   2.615   4.502
   85TCM    cl3  592   1.867   2.395   4.416
   86TCM     c1  593   2.100   4.076   3.761
   86TCM    cl1  594   1.999   3.936   3.811
   86TCM    cl2  595   2.262   4.062   3.838
   86TCM     h1  596   2.111   4.077   3.653
   86TCM    cl3  597   2.021   4.228   3.816
   87TCM     c1  598   0.458   0.099   4.856
   87TCM    cl1  599   0.405   0.064   5.024
   87TCM    cl2  600   0.510   0.270   4.845
   87TCM     h1  601   0.541   0.034   4.829
   87TCM    cl3  602   0.320   0.072   4.745
   88TCM     c1  603   0.839   0.602   2.770
   88TCM    cl1  604   0.698   0.712   2.759
   88TCM    cl2  605   0.883   0.546   2.605
   88TCM     h1  606   0.924   0.655   2.814
   88TCM    cl3  607   0.797   0.462   2.875
   89TCM     c1  608   4.429   3.144   3.000
   89TCM    cl1  609   4.540   3.065   2.883
   89TCM    cl2  610   4.316   3.022   3.067
   89TCM     h1  611   4.487   3.189   3.081
   89TCM    cl3  612   4.336   3.272   2.916
   90TCM     c1  613   3.005   4.671   0.134
   90TCM    cl1  614   3.156   4.686   0.038
   90TCM    cl2  615   3.046   4.649   0.307
   90TCM     h1  616   2.945   4.761   0.121
   90TCM    cl3  617   2.913   4.529   0.075
   91TCM     c1  618   1.860   0.060   3.418
   91TCM    cl1  619   2.023  -0.006   3.452
   91TCM    cl2  620   1.873   0.232   3.369
   91TCM     h1  621   1.814   0.003   3.337
   91TCM    cl3  622   1.758   0.047   3.565
   92TCM     c1  623   0.784   0.794   3.858
   92TCM    cl1  624   0.648   0.898   3.912
   92TCM    cl2  625   0.731   0.697   3.716
   92TCM     h1  626   0.870   0.856   3.830
   92TCM    cl3  627   0.828   0.682   3.991
   93TCM     c1  628   1.882   0.458   2.233
   93TCM    cl1  629   1.877   0.310   2.335
   93TCM    cl2  630   1.725   0.478   2.148
   93TCM     h1  631   1.902   0.545   2.295
   93TCM    cl3  632   2.011   0.441   2.109
   94TCM     c1  633   1.012   1.302   2.173
   94TCM    cl1  634   1.118   1.256   2.310
   94TCM    cl2  635   1.005   1.481   2.159
   94TCM     h1  636   1.051   1.260   2.080
   94TCM    cl3  637   0.847   1.238   2.202
   95TCM     c1  638   1.287   1.719   4.892
   95TCM    cl1  639   1.182   1.844   4.819
   95TCM    cl2  640   1.188   1.578   4.941
   95TCM     h1  641   1.363   1.688   4.820
   95TCM    cl3  642   1.369   1.787   5.037
   96TCM     c1  643   4.176   2.742   2.124
   96TCM    cl1  644   4.044   2.842   2.192
   96TCM    cl2  645   4.214   2.798   1.958
   96TCM     h1  646   4.265   2.751   2.186
   96TCM    cl3  647   4.124   2.570   2.119
   97TCM     c1  648   2.801   0.075   1.209
   97TCM    cl1  649   2.763   0.055   1.383
   97TCM    cl2  650   2.882  -0.074   1.150
   97TCM     h1  651   2.709   0.091   1.152
   97TCM    cl3  652   2.910   0.216   1.186
   98TCM     c1  653   4.266   2.677   2.957
   98TCM    cl1  654   4.343   2.581   3.087
   98TCM    cl2  655   4.141   2.577   2.876
   98TCM     h1  656   4.218   2.766   3.001
   98TCM    cl3  657   4.390   2.727   2.838
   99TCM     c1  658   4.002   0.659   3.513
   99TCM    cl1  659   4.155   0.667   3.421
   99TCM    cl2  660   3.905   0.520   3.453
   99TCM     h1  661   4.023   0.646   3.620
   99TCM    cl3  662   3.909   0.811   3.487
  100TCM     c1  663   4.059   0.981   2.990
  100TCM    cl1  664   4.139   0.849   2.898
  100TCM    cl2  665   3.971   0.911   3.130
  100TCM     h1  666   4.135   1.052   3.026
  100TCM    cl3  667   3.942   1.066   2.884
  101TCM     c1  668   1.779   0.495   3.074
  101TCM    cl1  669   1.742   0.596   2.931
  101TCM    cl2  670   1.934   0.409   3.046
  101TCM     h1  671   1.788   0.558   3.162
  101TCM    cl3  672   1.648   0.375   3.097
  102TCM     c1  673   0.129   4.441   3.384
  102TCM    cl1  674  -0.031   4.467   3.306
  102TCM    cl2  675   0.259   4.472   3.265
  102TCM     h1  676   0.140   4.510   3.469
  102TCM    cl3  677   0.140   4.272   3.442
  103TCM     c1  678   4.985   2.092   4.661
  103TCM    cl1  679   5.109   2.011   4.762
  103TCM    cl2  680   5.060   2.144   4.507
  103TCM     h1  681   4.903   2.022   4.641
  103TCM    cl3  682   4.923   2.236   4.748
  104TCM     c1  683   0.896   0.028   0.035
  104TCM    cl1  684   0.759   0.008   0.150
  104TCM    cl2  685   0.832   0.093  -0.119
  104TCM     h1  686   0.969   0.098   0.078
  104TCM    cl3  687   0.974  -0.130   0.005
  105TCM     c1  688   0.632   2.189   1.087
  105TCM    cl1  689   0.616   2.272   0.929
  105TCM    cl2  690   0.629   2.011   1.061
  105TCM     h1  691   0.726   2.218   1.134
  105TCM    cl3  692   0.496   2.235   1.194
  106TCM     c1  693   4.642   1.605   2.341
  106TCM    cl1  694   4.815   1.557   2.330
  106TCM    cl2  695   4.544   1.460   2.382
  106TCM     h1  696   4.631   1.681   2.419
  106TCM    cl3  697   4.588   1.671   2.183
  107TCM     c1  698   2.533   1.395   2.454
  107TCM    cl1  699   2.549   1.263   2.333
  107TCM    cl2  700   2.684   1.405   2.550
  107TCM     h1  701   2.516   1.490   2.402
  107TCM    cl3  702   2.395   1.360   2.562
  108TCM     c1  703   2.867   0.472   2.377
  108TCM    cl1  704   2.696   0.469   2.324
  108TCM    cl2  705   2.957   0.596   2.284
  108TCM     h1  706   2.872   0.497   2.483
  108TCM    cl3  707   2.940   0.311   2.352
  109TCM     c1  708   2.229   4.490   0.973
  109TCM    cl1  709   2.145   4.386   1.092
  109TCM    cl2  710   2.170   4.452   0.807
  109TCM     h1  711   2.208   4.595   0.995
  109TCM    cl3  712   2.405   4.461   0.981
  110TCM     c1  713   0.036   3.640   3.963
  110TCM    cl1  714   0.026   3.533   4.107
  110TCM    cl2  715   0.196   3.619   3.884
  110TCM     h1  716  -0.043   3.615   3.893
  110TCM    cl3  717   0.018   3.811   4.015
  111TCM     c1  718   2.511   0.006   1.642
  111TCM    cl1  719   2.414   0.071   1.778
  111TCM    cl2  720   2.406  -0.013   1.498
  111TCM     h1  721   2.593   0.074   1.620
  111TCM    cl3  722   2.578  -0.155   1.688
  112TCM     c1  723   2.541   4.882   3.502
  112TCM    cl1  724   2.553   4.787   3.351
  112TCM    cl2  725   2.571   4.774   3.643
  112TCM     h1  726   2.615   4.962   3.502
  112TCM    cl3  727   2.376   4.951   3.515
  113TCM     c1  728   3.554   3.536   4.723
  113TCM    cl1  729   3.681   3.440   4.806
  113TCM    cl2  730   3.600   3.556   4.550
  113TCM     h1  731   3.458   3.485   4.730
  113TCM    cl3  732   3.542   3.698   4.799
  114TCM     c1  733   1.584   0.004   4.473
  114TCM    cl1  734   1.646   0.172   4.465
  114TCM    cl2  735   1.715  -0.108   4.423
  114TCM     h1  736   1.553  -0.019   4.575
  114TCM    cl3  737   1.444  -0.014   4.362
  115TCM     c1  738   3.222   3.745   1.741
  115TCM    cl1  739   3.085   3.712   1.852
  115TCM    cl2  740   3.376   3.737   1.834
  115TCM     h1  741   3.224   3.670   1.662
  115TCM    cl3  742   3.203   3.908   1.670
  116TCM     c1  743   4.972   2.568   1.867
  116TCM    cl1  744   4.826   2.523   1.962
  116TCM    cl2  745   5.090   2.654   1.972
  116TCM     h1  746   5.018   2.478   1.827
  116TCM    cl3  747   4.923   2.675   1.732
  117TCM     c1  748   1.710   0.738   3.378
  117TCM    cl1  749   1.609   0.590   3.377
  117TCM    cl2  750   1.672   0.835   3.233
  117TCM     h1  751   1.689   0.796   3.468
  117TCM    cl3  752   1.884   0.692   3.375
  118TCM     c1  753   1.587   4.715   3.464
  118TCM    cl1  754   1.761   4.712   3.422
  118TCM    cl2  755   1.566   4.670   3.637
  118TCM     h1  756   1.546   4.815   3.447
  118TCM    cl3  757   1.501   4.596   3.360
  119TCM     c1  758   1.387   3.093   3.705
  119TCM    cl1  759   1.560   3.109   3.751
  119TCM    cl2  760   1.336   3.239   3.615
  119TCM     h1  761   1.374   3.005   3.643
  119TCM    cl3  762   1.286   3.078   3.853
  120TCM     c1  763   4.874   2.092   2.246
  120TCM    cl1  764   4.760   2.226   2.209
  120TCM    cl2  765   4.782   1.951   2.306
  120TCM     h1  766   4.929   2.065   2.155
  120TCM    cl3  767   4.991   2.147   2.371
  121TCM     c1  768   2.119   1.263   1.743
  121TCM    cl1  769   2.178   1.106   1.681
  121TCM    cl2  770   2.095   1.376   1.605
  121TCM     h1  771   2.024   1.249   1.795
  121TCM    cl3  772   2.239   1.333   1.856
  122TCM     c1  773   1.195   4.937   3.565
  122TCM    cl1  774   1.201   4.769   3.501
  122TCM    cl2  775   1.115   5.043   3.445
  122TCM     h1  776   1.140   4.939   3.659
  122TCM    cl3  777   1.363   4.994   3.593
  123TCM     c1  778   4.215   3.605   2.522
  123TCM    cl1  779   4.330   3.505   2.617
  123TCM    cl2  780   4.067   3.510   2.489
  123TCM     h1  781   4.190   3.695   2.579
  123TCM    cl3  782   4.292   3.654   2.367
  124TCM     c1  783   4.240   1.086   3.771
  124TCM    cl1  784   4.132   0.943   3.756
  124TCM    cl2  785   4.354   1.059   3.907
  124TCM     h1  786   4.296   1.100   3.678
  124TCM    cl3  787   4.141   1.232   3.804
  125TCM     c1  788   3.670   1.944   2.194
  125TCM    cl1  789   3.645   1.779   2.261
  125TCM    cl2  790   3.806   2.023   2.281
  125TCM     h1  791   3.693   1.937   2.088
  125TCM    cl3  792   3.521   2.042   2.217
  126TCM     c1  793   4.864   4.064   3.330
  126TCM    cl1  794   4.753   4.167   3.233
  126TCM    cl2  795   4.845   3.892   3.280
  126TCM     h1  796   4.967   4.095   3.313
  126TCM    cl3  797   4.825   4.079   3.504
  127TCM     c1  798   0.371   1.776   0.217
  127TCM    cl1  799   0.379   1.932   0.128
  127TCM    cl2  800   0.438   1.799   0.381
  127TCM     h1  801   0.267   1.744   0.223
  127TCM    cl3  802   0.468   1.652   0.132
  128TCM     c1  803   3.355   1.630   3.257
  128TCM    cl1  804   3.358   1.484   3.361
  128TCM    cl2  805   3.473   1.610   3.122
  128TCM     h1  806   3.255   1.645   3.216
  128TCM    cl3  807   3.400   1.773   3.356
  129TCM     c1  808   1.026   2.267   2.702
  129TCM    cl1  809   1.176   2.195   2.769
  129TCM    cl2  810   0.988   2.189   2.545
  129TCM     h1  811   0.943   2.251   2.771
  129TCM    cl3  812   1.050   2.443   2.675
  130TCM     c1  813   0.312   2.820   4.872
  130TCM    cl1  814   0.373   2.983   4.913
  130TCM    cl2  815   0.388   2.770   4.718
  130TCM     h1  816   0.339   2.750   4.951
  130TCM    cl3  817   0.134   2.826   4.853
  131TCM     c1  818   0.583   4.667   4.737
  131TCM    cl1  819   0.533   4.509   4.806
  131TCM    cl2  820   0.635   4.775   4.869
  131TCM     h1  821   0.665   4.652   4.666
  131TCM    cl3  822   0.443   4.741   4.653
  132TCM     c1  823   4.644   4.506   0.071
  132TCM    cl1  824   4.773   4.560  -0.040
  132TCM    cl2  825   4.689   4.545   0.240
  132TCM     h1  826   4.550   4.556   0.046
  132TCM    cl3  827   4.622   4.328   0.055
  133TCM     c1  828   0.699   1.164   0.493
  133TCM    cl1  829   0.717   1.265   0.640
  133TCM    cl2  830   0.632   1.264   0.360
  133TCM     h1  831   0.796   1.124   0.463
  133TCM    cl3  832   0.585   1.029   0.527
  134TCM     c1  833   2.287   0.420   3.209
  134TCM    cl1  834   2.233   0.587   3.172
  134TCM    cl2  835   2.212   0.365   3.362
  134TCM     h1  836   2.258   0.353   3.128
  134TCM    cl3  837   2.466   0.416   3.228
  135TCM     c1  838   0.270   1.483   3.103
  135TCM    cl1  839   0.417   1.573   3.153
  135TCM    cl2  840   0.299   1.307   3.120
  135TCM     h1  841   0.186   1.512   3.167
  135TCM    cl3  842   0.232   1.521   2.932
  136TCM     c1  843   0.202   4.371   4.771
  136TCM    cl1  844   0.213   4.430   4.601
  136TCM    cl2  845   0.279   4.209   4.784
  136TCM     h1  846   0.252   4.441   4.838
  136TCM    cl3  847   0.029   4.357   4.816
  137TCM     c1  848   4.172   1.330   2.066
  137TCM    cl1  849   3.995   1.348   2.042
  137TCM    cl2  850   4.212   1.347   2.240
  137TCM     h1  851   4.204   1.232   2.030
  137TCM    cl3  852   4.258   1.458   1.973
  138TCM     c1  853   1.625   0.497   1.797
  138TCM    cl1  854   1.788   0.431   1.761
  138TCM    cl2  855   1.520   0.364   1.857
  138TCM     h1  856   1.632   0.575   1.873
  138TCM    cl3  857   1.553   0.564   1.647
  139TCM     c1  858   4.816   0.293   3.209
  139TCM    cl1  859   4.838   0.449   3.296
  139TCM    cl2  860   4.794   0.325   3.034
  139TCM     h1  861   4.904   0.230   3.224
  139TCM    cl3  862   4.671   0.209   3.274
  140TCM     c1  863   2.089   1.568   3.328
  140TCM    cl1  864   2.162   1.649   3.185
  140TCM    cl2  865   1.982   1.685   3.413
  140TCM     h1  866   2.031   1.482   3.296
  140TCM    cl3  867   2.220   1.515   3.439
  141TCM     c1  868   2.471   3.328   3.567
  141TCM    cl1  869   2.550   3.425   3.696
  141TCM    cl2  870   2.366   3.434   3.468
  141TCM     h1  871   2.547   3.282   3.504
  141TCM    cl3  872   2.371   3.200   3.643
  142TCM     c1  873   0.634   1.362   3.374
  142TCM    cl1  874   0.648   1.232   3.252
  142TCM    cl2  875   0.775   1.358   3.484
  142TCM     h1  876   0.629   1.459   3.324
  142TCM    cl3  877   0.483   1.336   3.469
  143TCM     c1  878   0.627   4.591   1.660
  143TCM    cl1  879   0.765   4.661   1.751
  143TCM    cl2  880   0.536   4.722   1.577
  143TCM     h1  881   0.664   4.520   1.586
  143TCM    cl3  882   0.517   4.507   1.774
  144TCM     c1  883   3.439   4.218   2.444
  144TCM    cl1  884   3.363   4.251   2.284
  144TCM    cl2  885   3.497   4.048   2.448
  144TCM     h1  886   3.524   4.286   2.458
  144TCM    cl3  887   3.319   4.242   2.575
  145TCM     c1  888   0.344   2.316   3.424
  145TCM    cl1  889   0.222   2.248   3.536
  145TCM    cl2  890   0.306   2.265   3.256
  145TCM     h1  891   0.344   2.425   3.431
  145TCM    cl3  892   0.506   2.252   3.469
  146TCM     c1  893   1.627   3.786   1.461
  146TCM    cl1  894   1.740   3.825   1.595
  146TCM    cl2  895   1.686   3.640   1.375
  146TCM     h1  896   1.527   3.767   1.502
  146TCM    cl3  897   1.619   3.924   1.347
  147TCM     c1  898   1.593   1.533   2.339
  147TCM    cl1  899   1.675   1.609   2.480
  147TCM    cl2  900   1.705   1.419   2.260
  147TCM     h1  901   1.504   1.480   2.374
  147TCM    cl3  902   1.544   1.660   2.222
  148TCM     c1  903   3.569   0.114   3.784
  148TCM    cl1  904   3.588   0.290   3.814
  148TCM    cl2  905   3.401   0.065   3.824
  148TCM     h1  906   3.591   0.093   3.679
  148TCM    cl3  907   3.684   0.024   3.889
  149TCM     c1  908   4.821   4.451   4.525
  149TCM    cl1  909   4.769   4.442   4.354
  149TCM    cl2  910   4.719   4.341   4.624
  149TCM     h1  911   4.925   4.421   4.533
  149TCM    cl3  912   4.802   4.619   4.584
  150TCM     c1  913   0.767   1.753   0.539
  150TCM    cl1  914   0.739   1.728   0.714
  150TCM    cl2  915   0.728   1.602   0.452
  150TCM     h1  916   0.704   1.835   0.502
  150TCM    cl3  917   0.940   1.794   0.512
  151TCM     c1  918   2.629   2.936   4.962
  151TCM    cl1  919   2.808   2.951   4.951
  151TCM    cl2  920   2.588   2.784   5.048
  151TCM     h1  921   2.588   3.021   5.016
  151TCM    cl3  922   2.561   2.930   4.796
  152TCM     c1  923   3.576   1.268   3.160
  152TCM    cl1  924   3.684   1.285   3.017
  152TCM    cl2  925   3.641   1.144   3.271
  152TCM     h1  926   3.569   1.364   3.212
  152TCM    cl3  927   3.413   1.216   3.105
  153TCM     c1  928   3.256   0.052   1.551
  153TCM    cl1  929   3.398   0.148   1.499
  153TCM    cl2  930   3.304  -0.119   1.575
  153TCM     h1  931   3.217   0.092   1.645
  153TCM    cl3  932   3.129   0.059   1.425
  154TCM     c1  933   3.593   2.467   1.328
  154TCM    cl1  934   3.621   2.428   1.500
  154TCM    cl2  935   3.627   2.322   1.228
  154TCM     h1  936   3.489   2.497   1.313
  154TCM    cl3  937   3.702   2.600   1.278
  155TCM     c1  938   2.769   4.165   2.560
  155TCM    cl1  939   2.719   4.319   2.483
  155TCM    cl2  940   2.946   4.169   2.593
  155TCM     h1  941   2.715   4.152   2.654
  155TCM    cl3  942   2.731   4.027   2.451
  156TCM     c1  943   4.358   1.191   2.541
  156TCM    cl1  944   4.405   1.063   2.425
  156TCM    cl2  945   4.484   1.203   2.669
  156TCM     h1  946   4.350   1.287   2.489
  156TCM    cl3  947   4.200   1.150   2.617
  157TCM     c1  948   0.873   2.083   4.606
  157TCM    cl1  949   0.853   1.951   4.725
  157TCM    cl2  950   1.021   2.176   4.648
  157TCM     h1  951   0.883   2.042   4.506
  157TCM    cl3  952   0.730   2.191   4.613
  158TCM     c1  953   2.440   4.713   4.193
  158TCM    cl1  954   2.302   4.811   4.133
  158TCM    cl2  955   2.515   4.627   4.055
  158TCM     h1  956   2.514   4.778   4.241
  158TCM    cl3  957   2.379   4.593   4.313
  159TCM     c1  958   2.200   0.075   4.909
  159TCM    cl1  959   2.103  -0.012   5.032
  159TCM    cl2  960   2.368   0.012   4.911
  159TCM     h1  961   2.156   0.060   4.810
  159TCM    cl3  962   2.201   0.251   4.947
  160TCM     c1  963   1.968   0.943   2.864
  160TCM    cl1  964   1.973   0.862   3.024
  160TCM    cl2  965   2.024   1.112   2.881
  160TCM     h1  966   2.033   0.890   2.794
  160TCM    cl3  967   1.799   0.943   2.803
  161TCM     c1  968   1.735   2.408   4.996
  161TCM    cl1  969   1.646   2.254   4.973
  161TCM    cl2  970   1.903   2.388   4.938
  161TCM     h1  971   1.685   2.487   4.940
  161TCM    cl3  972   1.736   2.450   5.171
  162TCM     c1  973   2.054   1.730   1.537
  162TCM    cl1  974   1.894   1.665   1.488
  162TCM    cl2  975   2.067   1.727   1.716
  162TCM     h1  976   2.133   1.668   1.494
  162TCM    cl3  977   2.069   1.899   1.478
  163TCM     c1  978   2.473   2.562   0.511
  163TCM    cl1  979   2.479   2.672   0.653
  163TCM    cl2  980   2.413   2.654   0.369
  163TCM     h1  981   2.573   2.523   0.490
  163TCM    cl3  982   2.361   2.427   0.546
  164TCM     c1  983   3.093   1.905   2.039
  164TCM    cl1  984   2.946   1.967   2.122
  164TCM    cl2  985   3.139   2.021   1.910
  164TCM     h1  986   3.174   1.894   2.110
  164TCM    cl3  987   3.056   1.746   1.963
  165TCM     c1  988   4.515   4.649   2.574
  165TCM    cl1  989   4.345   4.592   2.558
  165TCM    cl2  990   4.542   4.713   2.740
  165TCM     h1  991   4.583   4.566   2.556
  165TCM    cl3  992   4.546   4.779   2.454
  166TCM     c1  993   3.024   0.254   4.534
  166TCM    cl1  994   2.872   0.337   4.490
  166TCM    cl2  995   3.004   0.076   4.516
  166TCM     h1  996   3.105   0.289   4.471
  166TCM    cl3  997   3.060   0.291   4.706
  167TCM     c1  998   3.799   3.903   3.704
  167TCM    cl1  999   3.812   3.822   3.544
  167TCM    cl2 1000   3.639   3.982   3.717
  167TCM     h1 1001   3.810   3.829   3.783
  167TCM    cl3 1002   3.928   4.028   3.719
  168TCM     c1 1003   1.954   1.236   2.483
  168TCM    cl1 1004   1.795   1.159   2.510
  168TCM    cl2 1005   2.084   1.118   2.519
  168TCM     h1 1006   1.961   1.269   2.379
  168TCM    cl3 1007   1.972   1.379   2.590
  169TCM     c1 1008   2.695   0.236   4.848
  169TCM    cl1 1009   2.672   0.180   5.018
  169TCM    cl2 1010   2.566   0.352   4.806
  169TCM     h1 1011   2.793   0.284   4.839
  169TCM    cl3 1012   2.686   0.095   4.737
  170TCM     c1 1013   2.384   2.902   2.012
  170TCM    cl1 1014   2.534   2.819   1.958
  170TCM    cl2 1015   2.329   3.016   1.885
  170TCM     h1 1016   2.306   2.828   2.031
  170TCM    cl3 1017   2.419   2.993   2.162
  171TCM     c1 1018   1.011   4.988   1.561
  171TCM    cl1 1019   1.120   4.876   1.649
  171TCM    cl2 1020   0.873   4.896   1.494
  171TCM     h1 1021   0.974   5.065   1.629
  171TCM    cl3 1022   1.102   5.066   1.427
  172TCM     c1 1023   4.146   2.120   4.155
  172TCM    cl1 1024   4.115   2.265   4.054
  172TCM    cl2 1025   4.257   2.163   4.289
  172TCM     h1 1026   4.052   2.082   4.196
  172TCM    cl3 1027   4.223   1.993   4.054
  173TCM     c1 1028   1.810   4.880   4.857
  173TCM    cl1 1029   1.746   4.954   5.008
  173TCM    cl2 1030   1.864   5.010   4.746
  173TCM     h1 1031   1.894   4.814   4.881
  173TCM    cl3 1032   1.679   4.785   4.778
  174TCM     c1 1033   3.199   3.591   0.174
  174TCM    cl1 1034   3.034   3.631   0.117
  174TCM    cl2 1035   3.304   3.555   0.034
  174TCM     h1 1036   3.240   3.676   0.230
  174TCM    cl3 1037   3.191   3.448   0.282
  175TCM     c1 1038   4.447   0.942   0.391
  175TCM    cl1 1039   4.479   1.113   0.345
  175TCM    cl2 1040   4.280   0.897   0.343
  175TCM     h1 1041   4.519   0.877   0.339
  175TCM    cl3 1042   4.467   0.923   0.568
  176TCM     c1 1043   4.061   1.772   2.001
  176TCM    cl1 1044   4.231   1.827   2.011
  176TCM    cl2 1045   3.955   1.910   1.958
  176TCM     h1 1046   4.052   1.693   1.925
  176TCM    cl3 1047   4.011   1.707   2.161
  177TCM     c1 1048   4.059   1.530   4.760
  177TCM    cl1 1049   4.021   1.488   4.590
  177TCM    cl2 1050   4.136   1.692   4.765
  177TCM     h1 1051   3.966   1.531   4.819
  177TCM    cl3 1052   4.171   1.408   4.828
  178TCM     c1 1053   4.031   3.332   4.684
  178TCM    cl1 1054   4.091   3.399   4.839
  178TCM    cl2 1055   4.113   3.175   4.651
  178TCM     h1 1056   3.923   3.316   4.690
  178TCM    cl3 1057   4.067   3.447   4.551
  179TCM     c1 1058   1.041   0.431   3.733
  179TCM    cl1 1059   1.073   0.606   3.712
  179TCM    cl2 1060   1.191   0.348   3.787
  179TCM     h1 1061   0.963   0.416   3.807
  179TCM    cl3 1062   0.988   0.361   3.576
  180TCM     c1 1063   3.217   0.031   1.050
  180TCM    cl1 1064   3.225  -0.108   0.937
  180TCM    cl2 1065   3.198   0.182   0.955
  180TCM     h1 1066   3.132   0.019   1.117
  180TCM    cl3 1067   3.368   0.040   1.145
  181TCM     c1 1068   1.004   0.269   4.123
  181TCM    cl1 1069   0.860   0.281   4.230
  181TCM    cl2 1070   0.979   0.136   4.005
  181TCM     h1 1071   1.017   0.363   4.070
  181TCM    cl3 1072   1.150   0.235   4.222
  182TCM     c1 1073   2.000   0.836   4.032
  182TCM    cl1 1074   2.059   0.680   3.968
  182TCM    cl2 1075   2.104   0.969   3.972
  182TCM     h1 1076   1.896   0.852   4.000
  182TCM    cl3 1077   2.008   0.832   4.212
  183TCM     c1 1078   3.167   0.555   0.238
  183TCM    cl1 1079   3.274   0.614   0.369
  183TCM    cl2 1080   3.268   0.492   0.103
  183TCM     h1 1081   3.103   0.476   0.276
  183TCM    cl3 1082   3.066   0.691   0.178
  184TCM     c1 1083   1.469   2.139   2.397
  184TCM    cl1 1084   1.517   2.233   2.542
  184TCM    cl2 1085   1.291   2.151   2.374
  184TCM     h1 1086   1.520   2.178   2.309
  184TCM    cl3 1087   1.513   1.967   2.421
  185TCM     c1 1088   4.594   3.771   4.511
  185TCM    cl1 1089   4.615   3.681   4.665
  185TCM    cl2 1090   4.648   3.668   4.374
  185TCM     h1 1091   4.488   3.796   4.498
  185TCM    cl3 1092   4.691   3.921   4.516
  186TCM     c1 1093   0.834   1.035   2.506
  186TCM    cl1 1094   0.654   1.031   2.495
  186TCM    cl2 1095   0.903   0.892   2.424
  186TCM     h1 1096   0.871   1.126   2.459
  186TCM    cl3 1097   0.883   1.034   2.679
  187TCM     c1 1098   4.471   0.844   3.345
  187TCM    cl1 1099   4.357   0.907   3.221
  187TCM    cl2 1100   4.422   0.901   3.508
  187TCM     h1 1101   4.470   0.735   3.343
  187TCM    cl3 1102   4.637   0.903   3.309
  188TCM     c1 1103   4.894   4.788   0.474
  188TCM    cl1 1104   5.065   4.831   0.443
  188TCM    cl2 1105   4.789   4.882   0.362
  188TCM     h1 1106   4.879   4.681   0.457
  188TCM    cl3 1107   4.850   4.828   0.643
  189TCM     c1 1108   0.696   3.222   0.041
  189TCM    cl1 1109   0.676   3.065   0.126
  189TCM    cl2 1110   0.783   3.336   0.150
  189TCM     h1 1111   0.754   3.207  -0.050
  189TCM    cl3 1112   0.536   3.291  -0.001
  190TCM     c1 1113   1.214   2.395   4.457
  190TCM    cl1 1114   1.293   2.428   4.300
  190TCM    cl2 1115   1.076   2.507   4.482
  190TCM     h1 1116   1.178   2.291   4.457
  190TCM    cl3 1117   1.333   2.416   4.590
  191TCM     c1 1118   0.760   3.142   0.594
  191TCM    cl1 1119   0.671   3.010   0.512
  191TCM    cl2 1120   0.911   3.177   0.504
  191TCM     h1 1121   0.698   3.232   0.597
  191TCM    cl3 1122   0.801   3.091   0.761
  192TCM     c1 1123   4.184   1.753   2.528
  192TCM    cl1 1124   4.341   1.775   2.443
  192TCM    cl2 1125   4.120   1.590   2.490
  192TCM     h1 1126   4.199   1.763   2.636
  192TCM    cl3 1127   4.069   1.877   2.471
  193TCM     c1 1128   2.066   0.305   4.058
  193TCM    cl1 1129   2.061   0.135   4.114
  193TCM    cl2 1130   2.107   0.310   3.883
  193TCM     h1 1131   1.969   0.352   4.074
  193TCM    cl3 1132   2.191   0.395   4.151
  194TCM     c1 1133   0.373   0.301   2.305
  194TCM    cl1 1134   0.520   0.394   2.261
  194TCM    cl2 1135   0.275   0.393   2.424
  194TCM     h1 1136   0.313   0.283   2.215
  194TCM    cl3 1137   0.422   0.143   2.375
  195TCM     c1 1138   1.864   4.628   4.230
  195TCM    cl1 1139   1.838   4.478   4.133
  195TCM    cl2 1140   1.925   4.759   4.124
  195TCM     h1 1141   1.769   4.658   4.275
  195TCM    cl3 1142   1.983   4.595   4.359
  196TCM     c1 1143   4.011   4.499   1.172
  196TCM    cl1 1144   3.968   4.576   1.328
  196TCM    cl2 1145   4.135   4.372   1.199
  196TCM     h1 1146   3.922   4.454   1.128
  196TCM    cl3 1147   4.077   4.623   1.060
  197TCM     c1 1148   0.891   2.351   0.363
  197TCM    cl1 1149   0.923   2.174   0.359
  197TCM    cl2 1150   0.800   2.390   0.513
  197TCM     h1 1151   0.986   2.406   0.363
  197TCM    cl3 1152   0.794   2.398   0.220
  198TCM     c1 1153   1.189   0.783   4.100
  198TCM    cl1 1154   1.360   0.822   4.138
  198TCM    cl2 1155   1.174   0.606   4.070
  198TCM     h1 1156   1.125   0.811   4.184
  198TCM    cl3 1157   1.138   0.872   3.953
  199TCM     c1 1158   1.285   1.536   0.758
  199TCM    cl1 1159   1.346   1.443   0.617
  199TCM    cl2 1160   1.110   1.569   0.736
  199TCM     h1 1161   1.300   1.478   0.849
  199TCM    cl3 1162   1.375   1.691   0.769
  200TCM     c1 1163   1.136   4.638   1.369
  200TCM    cl1 1164   1.004   4.551   1.455
  200TCM    cl2 1165   1.066   4.739   1.239
  200TCM     h1 1166   1.190   4.701   1.439
  200TCM    cl3 1167   1.248   4.519   1.296
  201TCM     c1 1168   0.055   2.618   2.382
  201TCM    cl1 1169   0.077   2.787   2.329
  201TCM    cl2 1170   0.196   2.519   2.333
  201TCM     h1 1171   0.045   2.615   2.490
  201TCM    cl3 1172  -0.093   2.550   2.305
  202TCM     c1 1173   0.541   2.245   4.946
  202TCM    cl1 1174   0.682   2.141   4.985
  202TCM    cl2 1175   0.461   2.296   5.098
  202TCM     h1 1176   0.575   2.333   4.890
  202TCM    cl3 1177   0.426   2.151   4.845
  203TCM     c1 1178   3.561   4.676   3.264
  203TCM    cl1 1179   3.415   4.716   3.168
  203TCM    cl2 1180   3.685   4.803   3.240
  203TCM     h1 1181   3.536   4.670   3.370
  203TCM    cl3 1182   3.626   4.517   3.209
  204TCM     c1 1183   2.075   0.969   2.184
  204TCM    cl1 1184   2.168   1.020   2.039
  204TCM    cl2 1185   2.041   0.793   2.174
  204TCM     h1 1186   2.133   0.990   2.274
  204TCM    cl3 1187   1.920   1.059   2.189
  205TCM     c1 1188   0.682   4.548   4.344
  205TCM    cl1 1189   0.681   4.727   4.355
  205TCM    cl2 1190   0.523   4.484   4.399
  205TCM     h1 1191   0.700   4.517   4.241
  205TCM    cl3 1192   0.812   4.483   4.450
  206TCM     c1 1193   2.112   4.771   3.819
  206TCM    cl1 1194   1.954   4.733   3.745
  206TCM    cl2 1195   2.146   4.947   3.802
  206TCM     h1 1196   2.111   4.744   3.925
  206TCM    cl3 1197   2.241   4.678   3.735
  207TCM     c1 1198   1.053   0.008   0.979
  207TCM    cl1 1199   0.992   0.153   1.066
  207TCM    cl2 1200   1.140   0.059   0.831
  207TCM     h1 1201   1.121  -0.047   1.045
  207TCM    cl3 1202   0.914  -0.097   0.933
  208TCM     c1 1203   2.147   3.148   0.812
  208TCM    cl1 1204   2.301   3.201   0.887
  208TCM    cl2 1205   2.012   3.171   0.929
  208TCM     h1 1206   2.127   3.206   0.722
  208TCM    cl3 1207   2.160   2.974   0.770
  209TCM     c1 1208   0.893   3.595   0.696
  209TCM    cl1 1209   0.962   3.449   0.772
  209TCM    cl2 1210   0.763   3.547   0.582
  209TCM     h1 1211   0.852   3.661   0.773
  209TCM    cl3 1212   1.021   3.683   0.606
  210TCM     c1 1213   3.635   2.286   1.854
  210TCM    cl1 1214   3.475   2.209   1.881
  210TCM    cl2 1215   3.753   2.222   1.973
  210TCM     h1 1216   3.670   2.263   1.752
  210TCM    cl3 1217   3.621   2.464   1.873
  211TCM     c1 1218   2.429   2.383   0.894
  211TCM    cl1 1219   2.453   2.424   1.067
  211TCM    cl2 1220   2.280   2.283   0.878
  211TCM     h1 1221   2.418   2.474   0.836
  211TCM    cl3 1222   2.570   2.289   0.835
  212TCM     c1 1223   2.555   3.413   4.073
  212TCM    cl1 1224   2.641   3.261   4.034
  212TCM    cl2 1225   2.651   3.508   4.192
  212TCM     h1 1226   2.541   3.472   3.982
  212TCM    cl3 1227   2.394   3.374   4.144
  213TCM     c1 1228   1.325   2.742   3.992
  213TCM    cl1 1229   1.245   2.583   3.966
  213TCM    cl2 1230   1.466   2.758   3.881
  213TCM     h1 1231   1.254   2.822   3.973
  213TCM    cl3 1232   1.383   2.754   4.162
  214TCM     c1 1233   1.296   2.774   3.471
  214TCM    cl1 1234   1.250   2.919   3.377
  214TCM    cl2 1235   1.201   2.770   3.623
  214TCM     h1 1236   1.276   2.684   3.412
  214TCM    cl3 1237   1.471   2.783   3.510
  215TCM     c1 1238   3.730   4.674   3.675
  215TCM    cl1 1239   3.560   4.685   3.730
  215TCM    cl2 1240   3.776   4.828   3.597
  215TCM     h1 1241   3.795   4.655   3.761
  215TCM    cl3 1242   3.744   4.540   3.556
  216TCM     c1 1243   0.363   2.912   0.389
  216TCM    cl1 1244   0.321   2.817   0.242
  216TCM    cl2 1245   0.265   3.032   0.480
  216TCM     h1 1246   0.286   2.846   0.431
  216TCM    cl3 1247   0.346   3.044   0.269
  217TCM     c1 1248   1.214   2.136   0.042
  217TCM    cl1 1249   1.304   2.179  -0.108
  217TCM    cl2 1250   1.040   2.170   0.016
  217TCM     h1 1251   1.228   2.030   0.064
  217TCM    cl3 1252   1.275   2.235   0.178
  218TCM     c1 1253   0.373   1.940   2.972
  218TCM    cl1 1254   0.200   1.985   2.989
  218TCM    cl2 1255   0.471   2.089   2.956
  218TCM     h1 1256   0.405   1.884   3.061
  218TCM    cl3 1257   0.395   1.838   2.827
  219TCM     c1 1258   3.440   0.182   4.677
  219TCM    cl1 1259   3.419   0.296   4.814
  219TCM    cl2 1260   3.397   0.265   4.524
  219TCM     h1 1261   3.544   0.148   4.673
  219TCM    cl3 1262   3.330   0.042   4.701
  220TCM     c1 1263   1.420   2.571   1.842
  220TCM    cl1 1264   1.585   2.620   1.894
  220TCM    cl2 1265   1.316   2.549   1.986
  220TCM     h1 1266   1.378   2.649   1.778
  220TCM    cl3 1267   1.429   2.417   1.750
  221TCM     c1 1268   3.908   0.396   3.990
  221TCM    cl1 1269   4.073   0.390   4.062
  221TCM    cl2 1270   3.913   0.498   3.842
  221TCM     h1 1271   3.876   0.295   3.964
  221TCM    cl3 1272   3.795   0.468   4.108
  222TCM     c1 1273   0.079   3.963   1.410
  222TCM    cl1 1274   0.110   3.808   1.326
  222TCM    cl2 1275   0.219   4.003   1.515
  222TCM     h1 1276   0.065   4.043   1.336
  222TCM    cl3 1277  -0.069   3.949   1.510
  223TCM     c1 1278   0.412   1.474   0.602
  223TCM    cl1 1279   0.363   1.625   0.686
  223TCM    cl2 1280   0.327   1.462   0.445
  223TCM     h1 1281   0.520   1.475   0.586
  223TCM    cl3 1282   0.368   1.333   0.704
  224TCM     c1 1283   3.591   2.581   2.731
  224TCM    cl1 1284   3.763   2.614   2.691
  224TCM    cl2 1285   3.487   2.622   2.590
  224TCM     h1 1286   3.579   2.476   2.756
  224TCM    cl3 1287   3.542   2.683   2.870
  225TCM     c1 1288   0.465   4.732   2.455
  225TCM    cl1 1289   0.392   4.688   2.297
  225TCM    cl2 1290   0.351   4.835   2.548
  225TCM     h1 1291   0.487   4.642   2.512
  225TCM    cl3 1292   0.616   4.823   2.425
  226TCM     c1 1293   4.972   4.698   2.159
  226TCM    cl1 1294   5.080   4.556   2.146
  226TCM    cl2 1295   5.036   4.809   2.285
  226TCM     h1 1296   4.967   4.750   2.063
  226TCM    cl3 1297   4.808   4.645   2.207
  227TCM     c1 1298   0.569   2.475   2.164
  227TCM    cl1 1299   0.479   2.585   2.055
  227TCM    cl2 1300   0.472   2.326   2.193
  227TCM     h1 1301   0.664   2.448   2.119
  227TCM    cl3 1302   0.598   2.557   2.321
  228TCM     c1 1303   0.208   4.065   2.706
  228TCM    cl1 1304   0.322   4.037   2.842
  228TCM    cl2 1305   0.169   3.908   2.628
  228TCM     h1 1306   0.116   4.111   2.744
  228TCM    cl3 1307   0.284   4.174   2.586
  229TCM     c1 1308   2.265   0.734   3.592
  229TCM    cl1 1309   2.340   0.786   3.747
  229TCM    cl2 1310   2.143   0.606   3.626
  229TCM     h1 1311   2.216   0.819   3.544
  229TCM    cl3 1312   2.391   0.667   3.484
  230TCM     c1 1313   1.572   2.129   1.966
  230TCM    cl1 1314   1.629   1.993   2.069
  230TCM    cl2 1315   1.703   2.251   1.951
  230TCM     h1 1316   1.545   2.092   1.867
  230TCM    cl3 1317   1.429   2.205   2.043
  231TCM     c1 1318   1.050   3.077   2.121
  231TCM    cl1 1319   1.175   3.133   2.237
  231TCM    cl2 1320   1.065   2.900   2.097
  231TCM     h1 1321   0.951   3.101   2.161
  231TCM    cl3 1322   1.074   3.161   1.964
  232TCM     c1 1323   4.512   3.661   3.024
  232TCM    cl1 1324   4.465   3.809   2.935
  232TCM    cl2 1325   4.576   3.540   2.909
  232TCM     h1 1326   4.589   3.686   3.098
  232TCM    cl3 1327   4.368   3.593   3.108
  233TCM     c1 1328   4.150   0.759   4.244
  233TCM    cl1 1329   4.296   0.863   4.229
  233TCM    cl2 1330   4.063   0.757   4.088
  233TCM     h1 1331   4.180   0.657   4.271
  233TCM    cl3 1332   4.043   0.826   4.372
  234TCM     c1 1333   0.173   3.043   4.453
  234TCM    cl1 1334   0.158   2.865   4.475
  234TCM    cl2 1335   0.229   3.078   4.286
  234TCM     h1 1336   0.075   3.089   4.469
  234TCM    cl3 1337   0.291   3.108   4.570
  235TCM     c1 1338   0.871   1.851   0.085
  235TCM    cl1 1339   0.747   1.879   0.211
  235TCM    cl2 1340   0.833   1.699  -0.003
  235TCM     h1 1341   0.871   1.935   0.014
  235TCM    cl3 1342   1.031   1.837   0.163
  236TCM     c1 1343   1.713   2.013   1.585
  236TCM    cl1 1344   1.745   1.909   1.728
  236TCM    cl2 1345   1.820   2.157   1.592
  236TCM     h1 1346   1.733   1.957   1.493
  236TCM    cl3 1347   1.542   2.067   1.587
  237TCM     c1 1348   2.423   4.407   3.583
  237TCM    cl1 1349   2.357   4.247   3.538
  237TCM    cl2 1350   2.559   4.448   3.473
  237TCM     h1 1351   2.345   4.483   3.574
  237TCM    cl3 1352   2.482   4.400   3.752
  238TCM     c1 1353   3.025   0.402   1.626
  238TCM    cl1 1354   3.117   0.425   1.474
  238TCM    cl2 1355   2.968   0.561   1.687
  238TCM     h1 1356   2.939   0.337   1.608
  238TCM    cl3 1357   3.131   0.327   1.749
  239TCM     c1 1358   2.216   4.781   4.569
  239TCM    cl1 1359   2.388   4.832   4.581
  239TCM    cl2 1360   2.123   4.902   4.475
  239TCM     h1 1361   2.211   4.683   4.519
  239TCM    cl3 1362   2.146   4.769   4.733
  240TCM     c1 1363   2.531   1.676   3.227
  240TCM    cl1 1364   2.678   1.749   3.156
  240TCM    cl2 1365   2.546   1.677   3.406
  240TCM     h1 1366   2.444   1.735   3.198
  240TCM    cl3 1367   2.512   1.507   3.170
  241TCM     c1 1368   0.507   1.764   4.647
  241TCM    cl1 1369   0.650   1.678   4.581
  241TCM    cl2 1370   0.476   1.912   4.550
  241TCM     h1 1371   0.419   1.698   4.642
  241TCM    cl3 1372   0.537   1.810   4.817
  242TCM     c1 1373   3.089   1.098   2.779
  242TCM    cl1 1374   3.190   1.238   2.824
  242TCM    cl2 1375   2.926   1.124   2.848
  242TCM     h1 1376   3.082   1.090   2.670
  242TCM    cl3 1377   3.163   0.949   2.845
  243TCM     c1 1378   3.323   0.612   1.224
  243TCM    cl1 1379   3.455   0.637   1.343
  243TCM    cl2 1380   3.331   0.444   1.162
  243TCM     h1 1381   3.227   0.630   1.272
  243TCM    cl3 1382   3.344   0.726   1.087
  244TCM     c1 1383   0.180   0.482   0.498
  244TCM    cl1 1384   0.009   0.480   0.444
  244TCM    cl2 1385   0.185   0.479   0.678
  244TCM     h1 1386   0.232   0.395   0.458
  244TCM    cl3 1387   0.259   0.632   0.440
  245TCM     c1 1388   0.329   3.923   3.639
  245TCM    cl1 1389   0.401   3.935   3.802
  245TCM    cl2 1390   0.150   3.919   3.652
  245TCM     h1 1391   0.359   4.009   3.579
  245TCM    cl3 1392   0.386   3.772   3.560
  246TCM     c1 1393   0.028   4.128   4.317
  246TCM    cl1 1394  -0.005   4.144   4.493
  246TCM    cl2 1395   0.105   4.280   4.259
  246TCM     h1 1396   0.095   4.044   4.300
  246TCM    cl3 1397  -0.126   4.102   4.229
  247TCM     c1 1398   3.292   1.693   0.753
  247TCM    cl1 1399   3.399   1.702   0.610
  247TCM    cl2 1400   3.383   1.741   0.900
  247TCM     h1 1401   3.207   1.760   0.739
  247TCM    cl3 1402   3.233   1.524   0.773
  248TCM     c1 1403   3.315   4.319   3.435
  248TCM    cl1 1404   3.360   4.486   3.485
  248TCM    cl2 1405   3.140   4.293   3.462
  248TCM     h1 1406   3.339   4.305   3.330
  248TCM    cl3 1407   3.408   4.201   3.534
  249TCM     c1 1408   1.819   4.853   3.020
  249TCM    cl1 1409   1.665   4.767   3.057
  249TCM    cl2 1410   1.947   4.793   3.131
  249TCM     h1 1411   1.848   4.834   2.917
  249TCM    cl3 1412   1.795   5.029   3.046
  250TCM     c1 1413   2.335   0.426   2.357
  250TCM    cl1 1414   2.234   0.287   2.409
  250TCM    cl2 1415   2.247   0.578   2.390
  250TCM     h1 1416   2.429   0.425   2.412
  250TCM    cl3 1417   2.367   0.413   2.181
  251TCM     c1 1418   3.207   2.086   3.839
  251TCM    cl1 1419   3.375   2.031   3.874
  251TCM    cl2 1420   3.130   2.135   3.993
  251TCM     h1 1421   3.210   2.171   3.770
  251TCM    cl3 1422   3.115   1.951   3.766
  252TCM     c1 1423   2.862   2.493   0.142
  252TCM    cl1 1424   2.942   2.645   0.092
  252TCM    cl2 1425   2.732   2.528   0.260
  252TCM     h1 1426   2.819   2.443   0.054
  252TCM    cl3 1427   2.983   2.387   0.221
  253TCM     c1 1428   1.145   0.317   4.658
  253TCM    cl1 1429   1.153   0.227   4.813
  253TCM    cl2 1430   0.993   0.274   4.572
  253TCM     h1 1431   1.146   0.424   4.678
  253TCM    cl3 1432   1.286   0.272   4.557
  254TCM     c1 1433   0.830   1.700   1.591
  254TCM    cl1 1434   0.715   1.628   1.473
  254TCM    cl2 1435   0.996   1.642   1.556
  254TCM     h1 1436   0.828   1.809   1.582
  254TCM    cl3 1437   0.783   1.652   1.757
  255TCM     c1 1438   4.900   3.116   0.276
  255TCM    cl1 1439   4.996   3.264   0.307
  255TCM    cl2 1440   4.845   3.048   0.432
  255TCM     h1 1441   4.813   3.141   0.214
  255TCM    cl3 1442   5.002   2.995   0.191
  256TCM     c1 1443   0.553   1.591   3.713
  256TCM    cl1 1444   0.376   1.602   3.740
  256TCM    cl2 1445   0.640   1.655   3.856
  256TCM     h1 1446   0.579   1.486   3.698
  256TCM    cl3 1447   0.598   1.685   3.566
  257TCM     c1 1448   0.711   0.649   0.186
  257TCM    cl1 1449   0.877   0.703   0.226
  257TCM    cl2 1450   0.596   0.716   0.306
  257TCM     h1 1451   0.684   0.685   0.086
  257TCM    cl3 1452   0.705   0.469   0.188
  258TCM     c1 1453   3.439   4.709   4.613
  258TCM    cl1 1454   3.599   4.784   4.580
  258TCM    cl2 1455   3.435   4.649   4.782
  258TCM     h1 1456   3.360   4.782   4.598
  258TCM    cl3 1457   3.414   4.571   4.500
  259TCM     c1 1458   3.077   3.882   3.387
  259TCM    cl1 1459   3.048   3.710   3.345
  259TCM    cl2 1460   2.938   3.944   3.483
  259TCM     h1 1461   3.169   3.891   3.445
  259TCM    cl3 1462   3.092   3.979   3.236
  260TCM     c1 1463   2.733   4.358   2.933
  260TCM    cl1 1464   2.872   4.245   2.943
  260TCM    cl2 1465   2.593   4.274   2.860
  260TCM     h1 1466   2.707   4.394   3.033
  260TCM    cl3 1467   2.777   4.497   2.828
  261TCM     c1 1468   3.386   1.360   2.560
  261TCM    cl1 1469   3.469   1.439   2.423
  261TCM    cl2 1470   3.502   1.349   2.697
  261TCM     h1 1471   3.299   1.419   2.590
  261TCM    cl3 1472   3.335   1.195   2.512
  262TCM     c1 1473   4.438   1.944   4.713
  262TCM    cl1 1474   4.441   1.934   4.892
  262TCM    cl2 1475   4.603   1.978   4.653
  262TCM     h1 1476   4.403   1.849   4.672
  262TCM    cl3 1477   4.326   2.075   4.662
  263TCM     c1 1478   2.837   2.248   0.533
  263TCM    cl1 1479   2.676   2.215   0.460
  263TCM    cl2 1480   2.873   2.123   0.657
  263TCM     h1 1481   2.913   2.246   0.456
  263TCM    cl3 1482   2.833   2.410   0.610
  264TCM     c1 1483   4.422   4.682   1.171
  264TCM    cl1 1484   4.333   4.700   1.325
  264TCM    cl2 1485   4.484   4.514   1.157
  264TCM     h1 1486   4.355   4.703   1.087
  264TCM    cl3 1487   4.560   4.796   1.168
  265TCM     c1 1488   4.649   0.655   2.985
  265TCM    cl1 1489   4.552   0.586   3.120
  265TCM    cl2 1490   4.809   0.709   3.047
  265TCM     h1 1491   4.663   0.579   2.908
  265TCM    cl3 1492   4.563   0.796   2.917
  266TCM     c1 1493   3.112   1.991   0.336
  266TCM    cl1 1494   3.174   2.142   0.411
  266TCM    cl2 1495   2.949   2.021   0.267
  266TCM     h1 1496   3.180   1.959   0.257
  266TCM    cl3 1497   3.101   1.863   0.462
  267TCM     c1 1498   1.659   0.142   2.716
  267TCM    cl1 1499   1.610  -0.030   2.738
  267TCM    cl2 1500   1.585   0.205   2.565
  267TCM     h1 1501   1.624   0.201   2.802
  267TCM    cl3 1502   1.837   0.153   2.704
  268TCM     c1 1503   1.043   4.514   4.877
  268TCM    cl1 1504   1.182   4.496   4.764
  268TCM    cl2 1505   1.087   4.447   5.037
  268TCM     h1 1506   1.019   4.620   4.887
  268TCM    cl3 1507   0.902   4.426   4.811
  269TCM     c1 1508   4.985   0.177   4.566
  269TCM    cl1 1509   4.857   0.265   4.476
  269TCM    cl2 1510   5.117   0.135   4.452
  269TCM     h1 1511   5.024   0.242   4.645
  269TCM    cl3 1512   4.918   0.028   4.640
  270TCM     c1 1513   4.221   4.749   0.122
  270TCM    cl1 1514   4.388   4.767   0.059
  270TCM    cl2 1515   4.124   4.650   0.007
  270TCM     h1 1516   4.224   4.700   0.219
  270TCM    cl3 1517   4.146   4.911   0.138
  271TCM     c1 1518   0.389   2.542   3.861
  271TCM    cl1 1519   0.539   2.519   3.956
  271TCM    cl2 1520   0.279   2.402   3.888
  271TCM     h1 1521   0.339   2.634   3.891
  271TCM    cl3 1522   0.431   2.550   3.686
  272TCM     c1 1523   3.791   1.409   1.581
  272TCM    cl1 1524   3.938   1.440   1.679
  272TCM    cl2 1525   3.839   1.360   1.415
  272TCM     h1 1526   3.732   1.329   1.626
  272TCM    cl3 1527   3.693   1.559   1.573
  273TCM     c1 1528   1.372   4.672   0.093
  273TCM    cl1 1529   1.341   4.775  -0.051
  273TCM    cl2 1530   1.254   4.714   0.222
  273TCM     h1 1531   1.360   4.567   0.065
  273TCM    cl3 1532   1.538   4.701   0.152
  274TCM     c1 1533   3.023   0.908   3.757
  274TCM    cl1 1534   3.063   1.083   3.753
  274TCM    cl2 1535   2.964   0.864   3.921
  274TCM     h1 1536   2.946   0.886   3.683
  274TCM    cl3 1537   3.171   0.813   3.719
  275TCM     c1 1538   4.203   3.337   3.354
  275TCM    cl1 1539   4.135   3.218   3.470
  275TCM    cl2 1540   4.108   3.333   3.202
  275TCM     h1 1541   4.199   3.438   3.398
  275TCM    cl3 1542   4.374   3.295   3.319
  276TCM     c1 1543   1.112   0.861   0.460
  276TCM    cl1 1544   0.955   0.905   0.535
  276TCM    cl2 1545   1.203   0.754   0.572
  276TCM     h1 1546   1.094   0.808   0.366
  276TCM    cl3 1547   1.207   1.010   0.429
  277TCM     c1 1548   0.946   1.987   0.868
  277TCM    cl1 1549   0.861   2.074   0.737
  277TCM    cl2 1550   0.971   2.097   1.007
  277TCM     h1 1551   0.887   1.900   0.900
  277TCM    cl3 1552   1.106   1.932   0.809
  278TCM     c1 1553   3.443   2.925   2.196
  278TCM    cl1 1554   3.514   2.771   2.254
  278TCM    cl2 1555   3.369   3.013   2.333
  278TCM     h1 1556   3.522   2.986   2.151
  278TCM    cl3 1557   3.317   2.891   2.072
  279TCM     c1 1558   2.919   3.686   2.459
  279TCM    cl1 1559   3.006   3.529   2.459
  279TCM    cl2 1560   2.958   3.776   2.609
  279TCM     h1 1561   2.950   3.745   2.372
  279TCM    cl3 1562   2.742   3.656   2.451
  280TCM     c1 1563   1.063   1.094   0.112
  280TCM    cl1 1564   1.126   0.932   0.066
  280TCM    cl2 1565   0.910   1.073   0.204
  280TCM     h1 1566   1.136   1.145   0.175
  280TCM    cl3 1567   1.032   1.191  -0.036
  281TCM     c1 1568   3.065   0.203   0.615
  281TCM    cl1 1569   2.930   0.253   0.722
  281TCM    cl2 1570   3.041   0.273   0.452
  281TCM     h1 1571   3.160   0.238   0.656
  281TCM    cl3 1572   3.067   0.024   0.603
  282TCM     c1 1573   1.652   3.406   0.667
  282TCM    cl1 1574   1.555   3.320   0.791
  282TCM    cl2 1575   1.619   3.334   0.506
  282TCM     h1 1576   1.624   3.512   0.666
  282TCM    cl3 1577   1.826   3.389   0.707
  283TCM     c1 1578   2.661   3.723   1.695
  283TCM    cl1 1579   2.784   3.802   1.592
  283TCM    cl2 1580   2.563   3.848   1.779
  283TCM     h1 1581   2.595   3.661   1.633
  283TCM    cl3 1582   2.742   3.619   1.817
  284TCM     c1 1583   4.539   0.213   3.857
  284TCM    cl1 1584   4.586   0.378   3.805
  284TCM    cl2 1585   4.533   0.106   3.712
  284TCM     h1 1586   4.612   0.174   3.928
  284TCM    cl3 1587   4.377   0.218   3.932
  285TCM     c1 1588   4.497   3.032   4.491
  285TCM    cl1 1589   4.479   2.873   4.409
  285TCM    cl2 1590   4.500   3.162   4.368
  285TCM     h1 1591   4.414   3.047   4.559
  285TCM    cl3 1592   4.652   3.035   4.582
  286TCM     c1 1593   0.840   4.596   2.253
  286TCM    cl1 1594   0.717   4.602   2.123
  286TCM    cl2 1595   1.003   4.627   2.184
  286TCM     h1 1596   0.818   4.673   2.328
  286TCM    cl3 1597   0.837   4.435   2.331
  287TCM     c1 1598   4.968   0.151   0.137
  287TCM    cl1 1599   5.044   0.174  -0.024
  287TCM    cl2 1600   4.858   0.288   0.171
  287TCM     h1 1601   4.911   0.057   0.137
  287TCM    cl3 1602   5.095   0.144   0.263
  288TCM     c1 1603   4.388   0.343   3.455
  288TCM    cl1 1604   4.477   0.496   3.485
  288TCM    cl2 1605   4.315   0.348   3.291
  288TCM     h1 1606   4.456   0.258   3.463
  288TCM    cl3 1607   4.256   0.325   3.576
  289TCM     c1 1608   3.331   0.040   4.199
  289TCM    cl1 1609   3.212   0.173   4.215
  289TCM    cl2 1610   3.314  -0.073   4.338
  289TCM     h1 1611   3.313  -0.014   4.105
  289TCM    cl3 1612   3.497   0.108   4.198
  290TCM     c1 1613   1.106   1.962   1.331
  290TCM    cl1 1614   1.093   1.823   1.218
  290TCM    cl2 1615   1.213   1.918   1.468
  290TCM     h1 1616   1.147   2.049   1.279
  290TCM    cl3 1617   0.943   2.001   1.395
  291TCM     c1 1618   0.213   0.148   1.243
  291TCM    cl1 1619   0.216   0.258   1.102
  291TCM    cl2 1620   0.315   0.215   1.374
  291TCM     h1 1621   0.110   0.137   1.279
  291TCM    cl3 1622   0.277  -0.013   1.194
  292TCM     c1 1623   3.100   1.627   2.780
  292TCM    cl1 1624   3.276   1.602   2.800
  292TCM    cl2 1625   3.038   1.518   2.652
  292TCM     h1 1626   3.050   1.605   2.874
  292TCM    cl3 1627   3.069   1.798   2.735
  293TCM     c1 1628   3.544   0.315   0.309
  293TCM    cl1 1629   3.693   0.250   0.388
  293TCM    cl2 1630   3.401   0.278   0.411
  293TCM     h1 1631   3.554   0.423   0.296
  293TCM    cl3 1632   3.523   0.235   0.150
  294TCM     c1 1633   0.485   1.439   1.851
  294TCM    cl1 1634   0.544   1.356   1.704
  294TCM    cl2 1635   0.602   1.415   1.985
  294TCM     h1 1636   0.474   1.546   1.831
  294TCM    cl3 1637   0.326   1.370   1.898
  295TCM     c1 1638   2.672   3.762   1.002
  295TCM    cl1 1639   2.736   3.623   0.908
  295TCM    cl2 1640   2.543   3.843   0.908
  295TCM     h1 1641   2.631   3.726   1.097
  295TCM    cl3 1642   2.805   3.878   1.034
  296TCM     c1 1643   2.240   2.289   4.144
  296TCM    cl1 1644   2.068   2.299   4.092
  296TCM    cl2 1645   2.260   2.383   4.296
  296TCM     h1 1646   2.267   2.184   4.161
  296TCM    cl3 1647   2.345   2.358   4.016
  297TCM     c1 1648   0.525   2.164   0.593
  297TCM    cl1 1649   0.378   2.264   0.617
  297TCM    cl2 1650   0.552   2.139   0.417
  297TCM     h1 1651   0.611   2.215   0.636
  297TCM    cl3 1652   0.503   2.004   0.672
  298TCM     c1 1653   2.293   0.380   1.464
  298TCM    cl1 1654   2.392   0.320   1.327
  298TCM    cl2 1655   2.396   0.393   1.610
  298TCM     h1 1656   2.252   0.478   1.439
  298TCM    cl3 1657   2.158   0.266   1.496
  299TCM     c1 1658   2.509   3.428   0.165
  299TCM    cl1 1659   2.433   3.386   0.322
  299TCM    cl2 1660   2.403   3.543   0.077
  299TCM     h1 1661   2.607   3.474   0.184
  299TCM    cl3 1662   2.530   3.280   0.066
  300TCM     c1 1663   4.890   3.375   4.420
  300TCM    cl1 1664   4.873   3.222   4.328
  300TCM    cl2 1665   5.057   3.385   4.486
  300TCM     h1 1666   4.871   3.460   4.354
  300TCM    cl3 1667   4.774   3.376   4.557
  301TCM     c1 1668   3.493   1.806   1.769
  301TCM    cl1 1669   3.363   1.861   1.658
  301TCM    cl2 1670   3.438   1.825   1.939
  301TCM     h1 1671   3.516   1.701   1.749
  301TCM    cl3 1672   3.639   1.906   1.743
  302TCM     c1 1673   2.183   2.874   2.423
  302TCM    cl1 1674   2.163   2.763   2.283
  302TCM    cl2 1675   2.280   2.794   2.550
  302TCM     h1 1676   2.234   2.965   2.390
  302TCM    cl3 1677   2.021   2.917   2.488
  303TCM     c1 1678   4.658   2.587   0.490
  303TCM    cl1 1679   4.595   2.754   0.464
  303TCM    cl2 1680   4.585   2.476   0.370
  303TCM     h1 1681   4.767   2.587   0.479
  303TCM    cl3 1682   4.613   2.533   0.655
  304TCM     c1 1683   0.215   4.465   1.412
  304TCM    cl1 1684   0.383   4.403   1.400
  304TCM    cl2 1685   0.186   4.528   1.577
  304TCM     h1 1686   0.201   4.546   1.339
  304TCM    cl3 1687   0.099   4.332   1.376
  305TCM     c1 1688   3.004   1.631   3.612
  305TCM    cl1 1689   2.825   1.622   3.632
  305TCM    cl2 1690   3.042   1.727   3.465
  305TCM     h1 1691   3.048   1.678   3.700
  305TCM    cl3 1692   3.068   1.464   3.594
  306TCM     c1 1693   1.102   3.917   2.095
  306TCM    cl1 1694   1.017   4.034   2.202
  306TCM    cl2 1695   1.263   3.879   2.165
  306TCM     h1 1696   1.043   3.826   2.087
  306TCM    cl3 1697   1.122   3.991   1.933
  307TCM     c1 1698   2.807   3.998   2.025
  307TCM    cl1 1699   2.848   4.139   2.128
  307TCM    cl2 1700   2.862   3.848   2.106
  307TCM     h1 1701   2.699   3.994   2.009
  307TCM    cl3 1702   2.889   4.015   1.866
  308TCM     c1 1703   1.424   3.005   1.985
  308TCM    cl1 1704   1.579   3.071   1.923
  308TCM    cl2 1705   1.458   2.887   2.116
  308TCM     h1 1706   1.362   3.087   2.024
  308TCM    cl3 1707   1.337   2.923   1.851
  309TCM     c1 1708   4.538   0.131   0.099
  309TCM    cl1 1709   4.395   0.154  -0.007
  309TCM    cl2 1710   4.650   0.012   0.024
  309TCM     h1 1711   4.589   0.227   0.112
  309TCM    cl3 1712   4.483   0.070   0.259
  310TCM     c1 1713   4.108   4.946   2.618
  310TCM    cl1 1714   3.950   4.860   2.631
  310TCM    cl2 1715   4.181   4.913   2.458
  310TCM     h1 1716   4.091   5.054   2.629
  310TCM    cl3 1717   4.218   4.890   2.748
  311TCM     c1 1718   1.370   0.046   3.182
  311TCM    cl1 1719   1.320  -0.124   3.155
  311TCM    cl2 1720   1.395   0.126   3.023
  311TCM     h1 1721   1.292   0.098   3.238
  311TCM    cl3 1722   1.523   0.049   3.275
  312TCM     c1 1723   3.283   4.968   3.396
  312TCM    cl1 1724   3.433   4.926   3.484
  312TCM    cl2 1725   3.325   5.077   3.259
  312TCM     h1 1726   3.234   4.878   3.358
  312TCM    cl3 1727   3.171   5.054   3.506
  313TCM     c1 1728   3.494   2.200   4.480
  313TCM    cl1 1729   3.512   2.372   4.433
  313TCM    cl2 1730   3.382   2.119   4.365
  313TCM     h1 1731   3.591   2.151   4.478
  313TCM    cl3 1732   3.425   2.191   4.646
  314TCM     c1 1733   4.868   4.313   2.379
  314TCM    cl1 1734   4.880   4.251   2.211
  314TCM    cl2 1735   4.927   4.188   2.493
  314TCM     h1 1736   4.929   4.403   2.389
  314TCM    cl3 1737   4.696   4.351   2.416
  315TCM     c1 1738   4.655   2.912   2.151
  315TCM    cl1 1739   4.809   2.880   2.064
  315TCM    cl2 1740   4.690   2.991   2.308
  315TCM     h1 1741   4.593   2.978   2.090
  315TCM    cl3 1742   4.569   2.758   2.180
  316TCM     c1 1743   1.127   2.317   0.697
  316TCM    cl1 1744   1.018   2.399   0.814
  316TCM    cl2 1745   1.274   2.260   0.782
  316TCM     h1 1746   1.075   2.232   0.652
  316TCM    cl3 1747   1.173   2.432   0.567
  317TCM     c1 1748   1.035   1.797   3.691
  317TCM    cl1 1749   0.896   1.910   3.675
  317TCM    cl2 1750   0.974   1.630   3.712
  317TCM     h1 1751   1.097   1.802   3.601
  317TCM    cl3 1752   1.134   1.844   3.833
  318TCM     c1 1753   3.875   3.720   1.149
  318TCM    cl1 1754   3.984   3.665   1.280
  318TCM    cl2 1755   3.803   3.878   1.193
  318TCM     h1 1756   3.931   3.730   1.056
  318TCM    cl3 1757   3.744   3.599   1.126
  319TCM     c1 1758   0.235   4.920   1.700
  319TCM    cl1 1759   0.237   5.091   1.756
  319TCM    cl2 1760   0.163   4.912   1.536
  319TCM     h1 1761   0.337   4.881   1.697
  319TCM    cl3 1762   0.136   4.821   1.812
  320TCM     c1 1763   1.071   2.223   1.676
  320TCM    cl1 1764   1.165   2.271   1.530
  320TCM    cl2 1765   1.019   2.372   1.761
  320TCM     h1 1766   0.984   2.165   1.646
  320TCM    cl3 1767   1.174   2.124   1.784
  321TCM     c1 1768   0.549   2.161   3.839
  321TCM    cl1 1769   0.710   2.232   3.803
  321TCM    cl2 1770   0.528   2.148   4.016
  321TCM     h1 1771   0.471   2.225   3.797
  321TCM    cl3 1772   0.538   1.998   3.766
  322TCM     c1 1773   0.800   0.609   4.736
  322TCM    cl1 1774   0.941   0.628   4.627
  322TCM    cl2 1775   0.790   0.751   4.846
  322TCM     h1 1776   0.708   0.602   4.677
  322TCM    cl3 1777   0.819   0.460   4.835
  323TCM     c1 1778   3.099   3.129   0.680
  323TCM    cl1 1779   3.160   2.985   0.769
  323TCM    cl2 1780   2.924   3.108   0.645
  323TCM     h1 1781   3.113   3.218   0.742
  323TCM    cl3 1782   3.189   3.147   0.526
  324TCM     c1 1783   3.547   4.855   2.819
  324TCM    cl1 1784   3.525   4.982   2.943
  324TCM    cl2 1785   3.388   4.777   2.785
  324TCM     h1 1786   3.586   4.899   2.727
  324TCM    cl3 1787   3.661   4.730   2.879
  325TCM     c1 1788   4.506   3.309   4.808
  325TCM    cl1 1789   4.425   3.368   4.659
  325TCM    cl2 1790   4.439   3.149   4.853
  325TCM     h1 1791   4.613   3.300   4.790
  325TCM    cl3 1792   4.477   3.426   4.941
  326TCM     c1 1793   4.306   2.618   2.502
  326TCM    cl1 1794   4.318   2.790   2.450
  326TCM    cl2 1795   4.384   2.513   2.380
  326TCM     h1 1796   4.355   2.605   2.599
  326TCM    cl3 1797   4.133   2.574   2.516
  327TCM     c1 1798   2.088   4.507   3.350
  327TCM    cl1 1799   2.165   4.371   3.262
  327TCM    cl2 1800   2.204   4.644   3.360
  327TCM     h1 1801   1.998   4.539   3.297
  327TCM    cl3 1802   2.046   4.453   3.515
  328TCM     c1 1803   3.208   2.224   0.853
  328TCM    cl1 1804   3.063   2.231   0.958
  328TCM    cl2 1805   3.188   2.338   0.716
  328TCM     h1 1806   3.296   2.252   0.911
  328TCM    cl3 1807   3.228   2.057   0.790
  329TCM     c1 1808   2.412   1.901   2.435
  329TCM    cl1 1809   2.553   1.894   2.325
  329TCM    cl2 1810   2.443   2.022   2.564
  329TCM     h1 1811   2.323   1.930   2.379
  329TCM    cl3 1812   2.386   1.739   2.508
  330TCM     c1 1813   2.706   2.886   3.349
  330TCM    cl1 1814   2.707   2.847   3.173
  330TCM    cl2 1815   2.584   3.014   3.381
  330TCM     h1 1816   2.681   2.796   3.405
  330TCM    cl3 1817   2.868   2.945   3.398
  331TCM     c1 1818   4.856   1.955   1.464
  331TCM    cl1 1819   4.969   1.928   1.601
  331TCM    cl2 1820   4.943   1.927   1.309
  331TCM     h1 1821   4.772   1.885   1.472
  331TCM    cl3 1822   4.795   2.123   1.468
  332TCM     c1 1823   1.653   1.301   3.175
  332TCM    cl1 1824   1.758   1.441   3.215
  332TCM    cl2 1825   1.548   1.262   3.315
  332TCM     h1 1826   1.591   1.326   3.089
  332TCM    cl3 1827   1.757   1.160   3.137
  333TCM     c1 1828   3.237   3.915   2.212
  333TCM    cl1 1829   3.121   3.976   2.335
  333TCM    cl2 1830   3.207   3.997   2.055
  333TCM     h1 1831   3.339   3.936   2.245
  333TCM    cl3 1832   3.215   3.738   2.194
  334TCM     c1 1833   1.939   3.559   0.319
  334TCM    cl1 1834   2.102   3.606   0.260
  334TCM    cl2 1835   1.901   3.653   0.467
  334TCM     h1 1836   1.864   3.579   0.242
  334TCM    cl3 1837   1.940   3.384   0.357
  335TCM     c1 1838   4.518   2.253   2.875
  335TCM    cl1 1839   4.631   2.351   2.973
  335TCM    cl2 1840   4.418   2.360   2.772
  335TCM     h1 1841   4.576   2.185   2.812
  335TCM    cl3 1842   4.413   2.158   2.984
  336TCM     c1 1843   2.353   3.887   1.316
  336TCM    cl1 1844   2.319   4.063   1.306
  336TCM    cl2 1845   2.530   3.860   1.325
  336TCM     h1 1846   2.305   3.846   1.405
  336TCM    cl3 1847   2.289   3.807   1.169
  337TCM     c1 1848   1.018   4.920   4.593
  337TCM    cl1 1849   0.999   4.938   4.415
  337TCM    cl2 1850   1.192   4.906   4.634
  337TCM     h1 1851   0.976   5.008   4.643
  337TCM    cl3 1852   0.932   4.773   4.648
  338TCM     c1 1853   3.428   3.010   3.371
  338TCM    cl1 1854   3.515   3.022   3.214
  338TCM    cl2 1855   3.271   2.927   3.346
  338TCM     h1 1856   3.489   2.954   3.442
  338TCM    cl3 1857   3.398   3.176   3.434
  339TCM     c1 1858   3.326   3.807   0.968
  339TCM    cl1 1859   3.400   3.727   0.825
  339TCM    cl2 1860   3.282   3.975   0.926
  339TCM     h1 1861   3.236   3.752   0.998
  339TCM    cl3 1862   3.444   3.808   1.103
  340TCM     c1 1863   2.308   1.249   3.713
  340TCM    cl1 1864   2.138   1.302   3.736
  340TCM    cl2 1865   2.312   1.111   3.599
  340TCM     h1 1866   2.367   1.331   3.673
  340TCM    cl3 1867   2.376   1.198   3.871
  341TCM     c1 1868   1.857   3.926   4.553
  341TCM    cl1 1869   1.937   4.041   4.441
  341TCM    cl2 1870   1.864   3.991   4.720
  341TCM     h1 1871   1.753   3.912   4.523
  341TCM    cl3 1872   1.942   3.768   4.547
  342TCM     c1 1873   4.039   3.580   2.944
  342TCM    cl1 1874   4.013   3.432   2.847
  342TCM    cl2 1875   3.882   3.640   3.006
  342TCM     h1 1876   4.105   3.557   3.029
  342TCM    cl3 1877   4.114   3.707   2.843
  343TCM     c1 1878   2.362   0.244   4.434
  343TCM    cl1 1879   2.309   0.185   4.595
  343TCM    cl2 1880   2.361   0.109   4.316
  343TCM     h1 1881   2.295   0.323   4.400
  343TCM    cl3 1882   2.529   0.308   4.448
  344TCM     c1 1883   3.222   1.803   4.737
  344TCM    cl1 1884   3.265   1.642   4.672
  344TCM    cl2 1885   3.187   1.915   4.602
  344TCM     h1 1886   3.134   1.794   4.802
  344TCM    cl3 1887   3.360   1.868   4.832
  345TCM     c1 1888   0.355   0.580   3.731
  345TCM    cl1 1889   0.200   0.671   3.740
  345TCM    cl2 1890   0.322   0.408   3.694
  345TCM     h1 1891   0.419   0.623   3.654
  345TCM    cl3 1892   0.438   0.589   3.890
  346TCM     c1 1893   3.223   0.809   1.673
  346TCM    cl1 1894   3.328   0.664   1.686
  346TCM    cl2 1895   3.163   0.823   1.504
  346TCM     h1 1896   3.139   0.800   1.742
  346TCM    cl3 1897   3.318   0.955   1.715
  347TCM     c1 1898   2.514   4.382   1.974
  347TCM    cl1 1899   2.596   4.529   1.911
  347TCM    cl2 1900   2.540   4.369   2.151
  347TCM     h1 1901   2.407   4.388   1.953
  347TCM    cl3 1902   2.582   4.237   1.893
  348TCM     c1 1903   0.559   1.055   2.051
  348TCM    cl1 1904   0.545   1.009   1.878
  348TCM    cl2 1905   0.640   0.923   2.141
  348TCM     h1 1906   0.617   1.147   2.060
  348TCM    cl3 1907   0.395   1.080   2.119
  349TCM     c1 1908   2.351   4.515   2.943
  349TCM    cl1 1909   2.414   4.596   2.797
  349TCM    cl2 1910   2.180   4.564   2.968
  349TCM     h1 1911   2.356   4.407   2.930
  349TCM    cl3 1912   2.449   4.563   3.085
  350TCM     c1 1913   4.015   1.822   4.409
  350TCM    cl1 1914   3.966   1.804   4.238
  350TCM    cl2 1915   3.958   1.981   4.470
  350TCM     h1 1916   3.970   1.742   4.469
  350TCM    cl3 1917   4.194   1.813   4.422
  351TCM     c1 1918   0.291   0.463   0.045
  351TCM    cl1 1919   0.351   0.382   0.194
  351TCM    cl2 1920   0.408   0.589  -0.004
  351TCM     h1 1921   0.280   0.389  -0.035
  351TCM    cl3 1922   0.131   0.538   0.078
  352TCM     c1 1923   3.961   3.755   4.925
  352TCM    cl1 1924   3.925   3.721   4.753
  352TCM    cl2 1925   3.825   3.700   5.028
  352TCM     h1 1926   4.053   3.703   4.955
  352TCM    cl3 1927   3.983   3.932   4.947
  353TCM     c1 1928   1.900   2.191   2.487
  353TCM    cl1 1929   1.828   2.171   2.324
  353TCM    cl2 1930   1.947   2.363   2.510
  353TCM     h1 1931   1.827   2.163   2.563
  353TCM    cl3 1932   2.046   2.087   2.501
  354TCM     c1 1933   1.978   4.050   1.201
  354TCM    cl1 1934   1.940   3.902   1.107
  354TCM    cl2 1935   1.979   4.010   1.377
  354TCM     h1 1936   2.076   4.088   1.172
  354TCM    cl3 1937   1.854   4.175   1.170
  355TCM     c1 1938   3.925   3.660   1.818
  355TCM    cl1 1939   3.747   3.657   1.841
  355TCM    cl2 1940   3.975   3.525   1.712
  355TCM     h1 1941   3.954   3.755   1.772
  355TCM    cl3 1942   4.005   3.644   1.978
  356TCM     c1 1943   2.277   4.412   0.461
  356TCM    cl1 1944   2.116   4.382   0.387
  356TCM    cl2 1945   2.313   4.587   0.456
  356TCM     h1 1946   2.277   4.377   0.564
  356TCM    cl3 1947   2.401   4.323   0.367
  357TCM     c1 1948   2.767   2.260   4.535
  357TCM    cl1 1949   2.877   2.120   4.515
  357TCM    cl2 1950   2.672   2.241   4.686
  357TCM     h1 1951   2.825   2.353   4.539
  357TCM    cl3 1952   2.654   2.268   4.395
  358TCM     c1 1953   1.535   3.367   2.370
  358TCM    cl1 1954   1.536   3.231   2.254
  358TCM    cl2 1955   1.371   3.382   2.443
  358TCM     h1 1956   1.608   3.348   2.449
  358TCM    cl3 1957   1.576   3.519   2.284
  359TCM     c1 1958   0.561   4.088   4.524
  359TCM    cl1 1959   0.638   4.217   4.623
  359TCM    cl2 1960   0.404   4.147   4.459
  359TCM     h1 1961   0.626   4.061   4.442
  359TCM    cl3 1962   0.533   3.945   4.629
  360TCM     c1 1963   0.156   2.227   1.499
  360TCM    cl1 1964   0.103   2.284   1.338
  360TCM    cl2 1965   0.063   2.313   1.625
  360TCM     h1 1966   0.138   2.120   1.508
  360TCM    cl3 1967   0.332   2.259   1.520
  361TCM     c1 1968   4.368   0.689   3.904
  361TCM    cl1 1969   4.521   0.734   3.823
  361TCM    cl2 1970   4.402   0.579   4.042
  361TCM     h1 1971   4.319   0.779   3.942
  361TCM    cl3 1972   4.260   0.607   3.787
  362TCM     c1 1973   3.536   0.765   0.027
  362TCM    cl1 1974   3.374   0.842   0.039
  362TCM    cl2 1975   3.534   0.640  -0.101
  362TCM     h1 1976   3.610   0.841   0.003
  362TCM    cl3 1977   3.577   0.689   0.184
  363TCM     c1 1978   1.656   1.484   3.645
  363TCM    cl1 1979   1.550   1.346   3.689
  363TCM    cl2 1980   1.578   1.582   3.517
  363TCM     h1 1981   1.673   1.546   3.733
  363TCM    cl3 1982   1.813   1.421   3.585
  364TCM     c1 1983   0.170   1.656   2.089
  364TCM    cl1 1984   0.123   1.686   1.918
  364TCM    cl2 1985   0.083   1.771   2.196
  364TCM     h1 1986   0.144   1.554   2.116
  364TCM    cl3 1987   0.347   1.680   2.106
  365TCM     c1 1988   1.289   0.436   3.314
  365TCM    cl1 1989   1.154   0.354   3.227
  365TCM    cl2 1990   1.349   0.330   3.444
  365TCM     h1 1991   1.370   0.458   3.244
  365TCM    cl3 1992   1.228   0.589   3.384
  366TCM     c1 1993   2.323   4.080   0.758
  366TCM    cl1 1994   2.263   4.087   0.927
  366TCM    cl2 1995   2.452   4.203   0.734
  366TCM     h1 1996   2.363   3.981   0.737
  366TCM    cl3 1997   2.187   4.115   0.647
  367TCM     c1 1998   3.248   1.831   4.190
  367TCM    cl1 1999   3.233   1.732   4.042
  367TCM    cl2 2000   3.337   1.737   4.315
  367TCM     h1 2001   3.303   1.923   4.168
  367TCM    cl3 2002   3.085   1.872   4.252
  368TCM     c1 2003   2.267   3.686   3.839
  368TCM    cl1 2004   2.294   3.734   3.669
  368TCM    cl2 2005   2.417   3.714   3.934
  368TCM     h1 2006   2.185   3.745   3.881
  368TCM    cl3 2007   2.224   3.512   3.846
  369TCM     c1 2008   2.930   0.672   4.805
  369TCM    cl1 2009   3.104   0.642   4.773
  369TCM    cl2 2010   2.866   0.544   4.913
  369TCM     h1 2011   2.918   0.769   4.852
  369TCM    cl3 2012   2.838   0.668   4.650
  370TCM     c1 2013   3.120   2.680   2.494
  370TCM    cl1 2014   3.071   2.852   2.498
  370TCM    cl2 2015   3.171   2.636   2.328
  370TCM     h1 2016   3.203   2.663   2.563
  370TCM    cl3 2017   2.980   2.577   2.542
  371TCM     c1 2018   4.682   4.431   0.772
  371TCM    cl1 2019   4.750   4.480   0.614
  371TCM    cl2 2020   4.758   4.527   0.903
  371TCM     h1 2021   4.574   4.448   0.772
  371TCM    cl3 2022   4.713   4.256   0.800
  372TCM     c1 2023   2.023   2.732   4.156
  372TCM    cl1 2024   2.046   2.716   4.334
  372TCM    cl2 2025   1.891   2.624   4.104
  372TCM     h1 2026   1.998   2.836   4.132
  372TCM    cl3 2027   2.175   2.687   4.072
  373TCM     c1 2028   2.697   3.865   4.327
  373TCM    cl1 2029   2.612   3.972   4.210
  373TCM    cl2 2030   2.651   3.910   4.494
  373TCM     h1 2031   2.669   3.761   4.308
  373TCM    cl3 2032   2.874   3.883   4.307
  374TCM     c1 2033   4.525   0.307   2.586
  374TCM    cl1 2034   4.502   0.130   2.600
  374TCM    cl2 2035   4.552   0.351   2.414
  374TCM     h1 2036   4.436   0.358   2.623
  374TCM    cl3 2037   4.668   0.358   2.683
  375TCM     c1 2038   1.769   3.577   1.980
  375TCM    cl1 2039   1.915   3.622   1.886
  375TCM    cl2 2040   1.757   3.398   1.990
  375TCM     h1 2041   1.776   3.619   2.081
  375TCM    cl3 2042   1.624   3.642   1.897
  376TCM     c1 2043   3.463   0.577   0.735
  376TCM    cl1 2044   3.576   0.555   0.597
  376TCM    cl2 2045   3.353   0.436   0.745
  376TCM     h1 2046   3.520   0.586   0.827
  376TCM    cl3 2047   3.368   0.727   0.709
  377TCM     c1 2048   0.009   3.745   2.924
  377TCM    cl1 2049  -0.059   3.912   2.925
  377TCM    cl2 2050  -0.098   3.637   3.019
  377TCM     h1 2051   0.015   3.710   2.821
  377TCM    cl3 2052   0.172   3.746   2.998
  378TCM     c1 2053   2.884   2.698   4.664
  378TCM    cl1 2054   3.054   2.677   4.719
  378TCM    cl2 2055   2.775   2.603   4.770
  378TCM     h1 2056   2.857   2.804   4.669
  378TCM    cl3 2057   2.868   2.639   4.495
  379TCM     c1 2058   2.302   0.044   0.336
  379TCM    cl1 2059   2.331   0.038   0.513
  379TCM    cl2 2060   2.358  -0.110   0.263
  379TCM     h1 2061   2.195   0.057   0.317
  379TCM    cl3 2062   2.395   0.179   0.264
  380TCM     c1 2063   2.690   4.998   2.175
  380TCM    cl1 2064   2.829   5.076   2.092
  380TCM    cl2 2065   2.590   4.912   2.053
  380TCM     h1 2066   2.726   4.928   2.250
  380TCM    cl3 2067   2.590   5.125   2.254
  381TCM     c1 2068   1.460   3.761   4.426
  381TCM    cl1 2069   1.506   3.933   4.407
  381TCM    cl2 2070   1.363   3.742   4.576
  381TCM     h1 2071   1.401   3.728   4.339
  381TCM    cl3 2072   1.609   3.662   4.439
  382TCM     c1 2073   0.689   2.696   0.795
  382TCM    cl1 2074   0.732   2.618   0.951
  382TCM    cl2 2075   0.567   2.596   0.709
  382TCM     h1 2076   0.648   2.795   0.814
  382TCM    cl3 2077   0.836   2.711   0.693
  383TCM     c1 2078   2.831   0.262   3.264
  383TCM    cl1 2079   2.932   0.301   3.407
  383TCM    cl2 2080   2.757   0.101   3.286
  383TCM     h1 2081   2.753   0.338   3.251
  383TCM    cl3 2082   2.938   0.260   3.120
  384TCM     c1 2083   1.746   3.007   0.691
  384TCM    cl1 2084   1.588   2.960   0.620
  384TCM    cl2 2085   1.865   3.033   0.560
  384TCM     h1 2086   1.735   3.099   0.749
  384TCM    cl3 2087   1.804   2.876   0.799
  385TCM     c1 2088   2.936   0.156   3.758
  385TCM    cl1 2089   2.840   0.040   3.660
  385TCM    cl2 2090   3.032   0.065   3.880
  385TCM     h1 2091   3.004   0.212   3.693
  385TCM    cl3 2092   2.825   0.269   3.841
  386TCM     c1 2093   0.158   0.355   4.169
  386TCM    cl1 2094   0.106   0.403   4.004
  386TCM    cl2 2095   0.096   0.473   4.290
  386TCM     h1 2096   0.119   0.255   4.192
  386TCM    cl3 2097   0.337   0.352   4.175
  387TCM     c1 2098   2.229   2.555   3.740
  387TCM    cl1 2099   2.068   2.484   3.772
  387TCM    cl2 2100   2.209   2.719   3.669
  387TCM     h1 2101   2.285   2.563   3.834
  387TCM    cl3 2102   2.319   2.451   3.625
  388TCM     c1 2103   0.594   1.321   0.003
  388TCM    cl1 2104   0.658   1.160  -0.045
  388TCM    cl2 2105   0.423   1.302   0.054
  388TCM     h1 2106   0.653   1.361   0.085
  388TCM    cl3 2107   0.602   1.432  -0.137
  389TCM     c1 2108   4.517   2.861   1.716
  389TCM    cl1 2109   4.543   3.005   1.819
  389TCM    cl2 2110   4.546   2.712   1.812
  389TCM     h1 2111   4.414   2.861   1.679
  389TCM    cl3 2112   4.630   2.865   1.577
  390TCM     c1 2113   2.868   3.225   0.297
  390TCM    cl1 2114   2.746   3.094   0.302
  390TCM    cl2 2115   2.805   3.369   0.385
  390TCM     h1 2116   2.961   3.191   0.343
  390TCM    cl3 2117   2.898   3.270   0.126
  391TCM     c1 2118   2.485   4.749   1.187
  391TCM    cl1 2119   2.314   4.724   1.236
  391TCM    cl2 2120   2.593   4.722   1.328
  391TCM     h1 2121   2.511   4.680   1.107
  391TCM    cl3 2122   2.502   4.918   1.129
  392TCM     c1 2123   2.333   3.912   4.741
  392TCM    cl1 2124   2.463   4.030   4.776
  392TCM    cl2 2125   2.402   3.747   4.734
  392TCM     h1 2126   2.257   3.917   4.819
  392TCM    cl3 2127   2.258   3.951   4.583
  393TCM     c1 2128   3.785   3.822   2.551
  393TCM    cl1 2129   3.768   3.683   2.663
  393TCM    cl2 2130   3.733   3.773   2.386
  393TCM     h1 2131   3.723   3.905   2.586
  393TCM    cl3 2132   3.957   3.874   2.545
  394TCM     c1 2133   2.200   1.500   2.291
  394TCM    cl1 2134   2.042   1.579   2.262
  394TCM    cl2 2135   2.327   1.582   2.194
  394TCM     h1 2136   2.225   1.506   2.397
  394TCM    cl3 2137   2.191   1.328   2.240
  395TCM     c1 2138   4.941   2.293   0.638
  395TCM    cl1 2139   4.949   2.362   0.472
  395TCM    cl2 2140   4.786   2.206   0.658
  395TCM     h1 2141   5.025   2.224   0.653
  395TCM    cl3 2142   4.950   2.427   0.757
  396TCM     c1 2143   3.858   0.573   3.085
  396TCM    cl1 2144   4.032   0.531   3.098
  396TCM    cl2 2145   3.759   0.426   3.113
  396TCM     h1 2146   3.833   0.648   3.161
  396TCM    cl3 2147   3.824   0.638   2.922
  397TCM     c1 2148   4.995   2.378   0.072
  397TCM    cl1 2149   5.066   2.518   0.159
  397TCM    cl2 2150   4.825   2.355   0.124
  397TCM     h1 2151   4.997   2.398  -0.036
  397TCM    cl3 2152   5.089   2.230   0.107
  398TCM     c1 2153   3.332   1.170   0.944
  398TCM    cl1 2154   3.218   1.079   1.049
  398TCM    cl2 2155   3.351   1.084   0.788
  398TCM     h1 2156   3.293   1.270   0.926
  398TCM    cl3 2157   3.491   1.181   1.026
  399TCM     c1 2158   2.631   4.295   4.516
  399TCM    cl1 2159   2.747   4.279   4.380
  399TCM    cl2 2160   2.471   4.228   4.467
  399TCM     h1 2161   2.668   4.241   4.603
  399TCM    cl3 2162   2.611   4.468   4.556
  400TCM     c1 2163   1.420   0.080   0.185
  400TCM    cl1 2164   1.434   0.020   0.354
  400TCM    cl2 2165   1.477   0.250   0.178
  400TCM     h1 2166   1.480   0.018   0.118
  400TCM    cl3 2167   1.248   0.075   0.135
  401TCM     c1 2168   1.406   3.363   4.052
  401TCM    cl1 2169   1.381   3.484   4.182
  401TCM    cl2 2170   1.509   3.230   4.113
  401TCM     h1 2171   1.310   3.323   4.020
  401TCM    cl3 2172   1.486   3.443   3.912
  402TCM     c1 2173   0.956   2.135   2.180
  402TCM    cl1 2174   1.059   2.262   2.107
  402TCM    cl2 2175   0.917   2.011   2.057
  402TCM     h1 2176   1.009   2.088   2.263
  402TCM    cl3 2177   0.805   2.210   2.240
  403TCM     c1 2178   1.069   1.446   0.338
  403TCM    cl1 2179   0.940   1.445   0.213
  403TCM    cl2 2180   1.224   1.395   0.264
  403TCM     h1 2181   1.079   1.547   0.380
  403TCM    cl3 2182   1.025   1.330   0.467
  404TCM     c1 2183   0.335   0.310   3.197
  404TCM    cl1 2184   0.167   0.304   3.135
  404TCM    cl2 2185   0.440   0.205   3.096
  404TCM     h1 2186   0.372   0.413   3.194
  404TCM    cl3 2187   0.339   0.249   3.366
  405TCM     c1 2188   2.673   3.745   4.981
  405TCM    cl1 2189   2.695   3.758   5.159
  405TCM    cl2 2190   2.730   3.585   4.926
  405TCM     h1 2191   2.567   3.757   4.957
  405TCM    cl3 2192   2.768   3.873   4.899
  406TCM     c1 2193   0.144   1.895   0.546
  406TCM    cl1 2194   0.171   2.039   0.442
  406TCM    cl2 2195   0.078   1.761   0.446
  406TCM     h1 2196   0.239   1.865   0.591
  406TCM    cl3 2197   0.027   1.936   0.675
  407TCM     c1 2198   3.194   4.661   3.875
  407TCM    cl1 2199   3.243   4.492   3.839
  407TCM    cl2 2200   3.186   4.754   3.722
  407TCM     h1 2201   3.096   4.661   3.923
  407TCM    cl3 2202   3.313   4.736   3.986
  408TCM     c1 2203   0.067   3.163   3.128
  408TCM    cl1 2204   0.106   3.338   3.138
  408TCM    cl2 2205   0.007   3.106   3.287
  408TCM     h1 2206  -0.010   3.147   3.052
  408TCM    cl3 2207   0.215   3.071   3.084
  409TCM     c1 2208   2.689   0.370   1.939
  409TCM    cl1 2209   2.851   0.422   1.994
  409TCM    cl2 2210   2.707   0.279   1.786
  409TCM     h1 2211   2.643   0.306   2.015
  409TCM    cl3 2212   2.587   0.514   1.910
  410TCM     c1 2213   4.808   4.962   4.153
  410TCM    cl1 2214   4.761   4.932   4.323
  410TCM    cl2 2215   4.856   5.134   4.134
  410TCM     h1 2216   4.892   4.898   4.126
  410TCM    cl3 2217   4.669   4.928   4.045
  411TCM     c1 2218   3.652   0.978   1.867
  411TCM    cl1 2219   3.692   1.021   1.697
  411TCM    cl2 2220   3.790   1.025   1.973
  411TCM     h1 2221   3.562   1.032   1.898
  411TCM    cl3 2222   3.625   0.801   1.880
  412TCM     c1 2223   2.279   4.749   1.916
  412TCM    cl1 2224   2.218   4.748   1.748
  412TCM    cl2 2225   2.233   4.595   1.997
  412TCM     h1 2226   2.388   4.759   1.916
  412TCM    cl3 2227   2.207   4.886   2.007
  413TCM     c1 2228   1.956   2.605   0.617
  413TCM    cl1 2229   1.990   2.429   0.618
  413TCM    cl2 2230   1.825   2.639   0.498
  413TCM     h1 2231   1.924   2.637   0.716
  413TCM    cl3 2232   2.104   2.695   0.570
  414TCM     c1 2233   2.017   4.548   0.082
  414TCM    cl1 2234   2.189   4.594   0.060
  414TCM    cl2 2235   1.936   4.539  -0.078
  414TCM     h1 2236   2.010   4.451   0.132
  414TCM    cl3 2237   1.936   4.673   0.182
  415TCM     c1 2238   3.491   0.996   2.252
  415TCM    cl1 2239   3.561   1.157   2.218
  415TCM    cl2 2240   3.623   0.876   2.268
  415TCM     h1 2241   3.434   1.000   2.345
  415TCM    cl3 2242   3.383   0.947   2.117
  416TCM     c1 2243   3.304   4.006   0.494
  416TCM    cl1 2244   3.437   4.060   0.602
  416TCM    cl2 2245   3.146   4.045   0.570
  416TCM     h1 2246   3.312   4.058   0.398
  416TCM    cl3 2247   3.316   3.829   0.469
  417TCM     c1 2248   1.504   4.047   1.796
  417TCM    cl1 2249   1.407   3.923   1.710
  417TCM    cl2 2250   1.546   3.987   1.960
  417TCM     h1 2251   1.595   4.067   1.740
  417TCM    cl3 2252   1.408   4.198   1.810
  418TCM     c1 2253   4.912   2.751   2.949
  418TCM    cl1 2254   5.010   2.728   3.097
  418TCM    cl2 2255   4.904   2.926   2.909
  418TCM     h1 2256   4.959   2.697   2.866
  418TCM    cl3 2257   4.746   2.689   2.977
  419TCM     c1 2258   1.384   1.254   1.934
  419TCM    cl1 2259   1.264   1.126   1.975
  419TCM    cl2 2260   1.550   1.194   1.966
  419TCM     h1 2261   1.374   1.280   1.829
  419TCM    cl3 2262   1.352   1.398   2.036
  420TCM     c1 2263   0.829   4.078   4.914
  420TCM    cl1 2264   0.943   4.089   5.052
  420TCM    cl2 2265   0.697   3.963   4.955
  420TCM     h1 2266   0.787   4.176   4.893
  420TCM    cl3 2267   0.917   4.016   4.770
  421TCM     c1 2268   2.971   2.729   0.453
  421TCM    cl1 2269   2.811   2.776   0.519
  421TCM    cl2 2270   3.081   2.683   0.587
  421TCM     h1 2271   2.958   2.644   0.385
  421TCM    cl3 2272   3.040   2.867   0.362
  422TCM     c1 2273   0.444   1.949   2.393
  422TCM    cl1 2274   0.317   2.017   2.286
  422TCM    cl2 2275   0.596   1.929   2.300
  422TCM     h1 2276   0.461   2.016   2.477
  422TCM    cl3 2277   0.390   1.789   2.455
  423TCM     c1 2278   2.454   0.656   4.544
  423TCM    cl1 2279   2.504   0.816   4.481
  423TCM    cl2 2280   2.305   0.602   4.460
  423TCM     h1 2281   2.535   0.584   4.527
  423TCM    cl3 2282   2.421   0.670   4.720
  424TCM     c1 2283   0.236   4.375   3.925
  424TCM    cl1 2284   0.375   4.370   4.038
  424TCM    cl2 2285   0.275   4.276   3.780
  424TCM     h1 2286   0.147   4.335   3.974
  424TCM    cl3 2287   0.207   4.544   3.873
  425TCM     c1 2288   4.724   3.945   1.115
  425TCM    cl1 2289   4.744   3.799   1.219
  425TCM    cl2 2290   4.677   3.893   0.950
  425TCM     h1 2291   4.645   4.008   1.157
  425TCM    cl3 2292   4.878   4.036   1.108
  426TCM     c1 2293   2.510   2.270   0.050
  426TCM    cl1 2294   2.529   2.428  -0.032
  426TCM    cl2 2295   2.424   2.294   0.206
  426TCM     h1 2296   2.451   2.203  -0.014
  426TCM    cl3 2297   2.671   2.198   0.080
  427TCM     c1 2298   3.173   2.356   2.023
  427TCM    cl1 2299   3.273   2.505   2.010
  427TCM    cl2 2300   3.001   2.402   2.042
  427TCM     h1 2301   3.185   2.297   1.933
  427TCM    cl3 2302   3.225   2.260   2.165
  428TCM     c1 2303   3.895   1.019   4.891
  428TCM    cl1 2304   3.798   0.918   4.778
  428TCM    cl2 2305   3.843   0.985   5.059
  428TCM     h1 2306   4.001   0.995   4.879
  428TCM    cl3 2307   3.868   1.193   4.854
  429TCM     c1 2308   0.810   1.828   4.137
  429TCM    cl1 2309   0.774   1.888   4.302
  429TCM    cl2 2310   0.954   1.721   4.141
  429TCM     h1 2311   0.724   1.773   4.099
  429TCM    cl3 2312   0.843   1.968   4.030
  430TCM     c1 2313   0.435   0.460   1.866
  430TCM    cl1 2314   0.497   0.628   1.884
  430TCM    cl2 2315   0.379   0.435   1.698
  430TCM     h1 2316   0.516   0.389   1.889
  430TCM    cl3 2317   0.298   0.433   1.978
  431TCM     c1 2318   3.548   0.119   0.825
  431TCM    cl1 2319   3.440   0.066   0.692
  431TCM    cl2 2320   3.670   0.234   0.760
  431TCM     h1 2321   3.489   0.169   0.903
  431TCM    cl3 2322   3.631  -0.024   0.894
  432TCM     c1 2323   2.793   2.172   3.467
  432TCM    cl1 2324   2.844   2.191   3.638
  432TCM    cl2 2325   2.770   1.998   3.432
  432TCM     h1 2326   2.699   2.226   3.451
  432TCM    cl3 2327   2.920   2.239   3.359
  433TCM     c1 2328   3.854   2.920   3.091
  433TCM    cl1 2329   3.781   2.769   3.155
  433TCM    cl2 2330   3.938   2.884   2.937
  433TCM     h1 2331   3.776   2.995   3.074
  433TCM    cl3 2332   3.973   2.984   3.210
  434TCM     c1 2333   3.028   4.421   1.707
  434TCM    cl1 2334   2.940   4.388   1.859
  434TCM    cl2 2335   3.096   4.268   1.642
  434TCM     h1 2336   2.959   4.464   1.634
  434TCM    cl3 2337   3.161   4.538   1.737
  435TCM     c1 2338   0.192   0.917   4.018
  435TCM    cl1 2339   0.211   0.763   4.107
  435TCM    cl2 2340   0.328   1.027   4.058
  435TCM     h1 2341   0.190   0.898   3.910
  435TCM    cl3 2342   0.038   0.995   4.069
  436TCM     c1 2343   0.426   1.876   1.449
  436TCM    cl1 2344   0.365   1.903   1.616
  436TCM    cl2 2345   0.579   1.968   1.428
  436TCM     h1 2346   0.445   1.769   1.433
  436TCM    cl3 2347   0.305   1.935   1.330
  437TCM     c1 2348   4.906   2.641   1.201
  437TCM    cl1 2349   4.808   2.786   1.161
  437TCM    cl2 2350   4.992   2.668   1.356
  437TCM     h1 2351   4.841   2.554   1.210
  437TCM    cl3 2352   5.025   2.613   1.069
  438TCM     c1 2353   0.849   3.644   4.757
  438TCM    cl1 2354   1.024   3.668   4.728
  438TCM    cl2 2355   0.822   3.476   4.813
  438TCM     h1 2356   0.815   3.714   4.834
  438TCM    cl3 2357   0.760   3.672   4.604
  439TCM     c1 2358   3.400   1.193   1.395
  439TCM    cl1 2359   3.221   1.189   1.408
  439TCM    cl2 2360   3.462   1.025   1.375
  439TCM     h1 2361   3.429   1.252   1.308
  439TCM    cl3 2362   3.468   1.266   1.544
  440TCM     c1 2363   3.611   1.690   4.550
  440TCM    cl1 2364   3.689   1.647   4.706
  440TCM    cl2 2365   3.706   1.621   4.415
  440TCM     h1 2366   3.509   1.651   4.548
  440TCM    cl3 2367   3.607   1.869   4.534
  441TCM     c1 2368   0.499   3.917   4.147
  441TCM    cl1 2369   0.324   3.946   4.171
  441TCM    cl2 2370   0.564   3.820   4.283
  441TCM     h1 2371   0.515   3.863   4.053
  441TCM    cl3 2372   0.585   4.075   4.142
  442TCM     c1 2373   3.378   3.178   4.652
  442TCM    cl1 2374   3.306   3.306   4.549
  442TCM    cl2 2375   3.370   3.229   4.824
  442TCM     h1 2376   3.323   3.085   4.638
  442TCM    cl3 2377   3.550   3.155   4.605
  443TCM     c1 2378   0.825   2.431   1.392
  443TCM    cl1 2379   0.696   2.530   1.317
  443TCM    cl2 2380   0.928   2.361   1.263
  443TCM     h1 2381   0.886   2.494   1.458
  443TCM    cl3 2382   0.751   2.298   1.486
  444TCM     c1 2383   4.143   0.004   4.781
  444TCM    cl1 2384   3.979  -0.068   4.779
  444TCM    cl2 2385   4.145   0.150   4.677
  444TCM     h1 2386   4.170   0.032   4.883
  444TCM    cl3 2387   4.261  -0.116   4.719
  445TCM     c1 2388   4.402   0.952   4.940
  445TCM    cl1 2389   4.239   0.880   4.965
  445TCM    cl2 2390   4.520   0.872   5.049
  445TCM     h1 2391   4.433   0.936   4.836
  445TCM    cl3 2392   4.396   1.128   4.975
  446TCM     c1 2393   2.851   0.682   3.105
  446TCM    cl1 2394   2.735   0.553   3.062
  446TCM    cl2 2395   2.856   0.804   2.973
  446TCM     h1 2396   2.819   0.731   3.197
  446TCM    cl3 2397   3.014   0.610   3.125
  447TCM     c1 2398   4.313   1.014   4.558
  447TCM    cl1 2399   4.169   1.074   4.647
  447TCM    cl2 2400   4.337   0.840   4.596
  447TCM     h1 2401   4.297   1.026   4.451
  447TCM    cl3 2402   4.457   1.107   4.609
  448TCM     c1 2403   4.625   2.040   3.477
  448TCM    cl1 2404   4.746   1.910   3.501
  448TCM    cl2 2405   4.587   2.055   3.303
  448TCM     h1 2406   4.534   2.016   3.533
  448TCM    cl3 2407   4.692   2.196   3.536
  449TCM     c1 2408   4.811   4.740   3.567
  449TCM    cl1 2409   4.989   4.715   3.575
  449TCM    cl2 2410   4.778   4.910   3.520
  449TCM     h1 2411   4.768   4.673   3.493
  449TCM    cl3 2412   4.738   4.707   3.728
  450TCM     c1 2413   3.290   0.405   3.463
  450TCM    cl1 2414   3.464   0.368   3.444
  450TCM    cl2 2415   3.258   0.574   3.413
  450TCM     h1 2416   3.231   0.336   3.401
  450TCM    cl3 2417   3.243   0.383   3.635
  451TCM     c1 2418   3.569   3.735   1.443
  451TCM    cl1 2419   3.401   3.673   1.444
  451TCM    cl2 2420   3.681   3.605   1.494
  451TCM     h1 2421   3.595   3.768   1.342
  451TCM    cl3 2422   3.584   3.874   1.556
  452TCM     c1 2423   0.632   0.141   1.045
  452TCM    cl1 2424   0.589   0.293   1.130
  452TCM    cl2 2425   0.504   0.100   0.926
  452TCM     h1 2426   0.727   0.153   0.994
  452TCM    cl3 2427   0.646   0.008   1.166
  453TCM     c1 2428   2.218   3.931   3.287
  453TCM    cl1 2429   2.094   4.013   3.388
  453TCM    cl2 2430   2.169   3.761   3.257
  453TCM     h1 2431   2.229   3.984   3.192
  453TCM    cl3 2432   2.375   3.933   3.374
  454TCM     c1 2433   4.268   3.887   1.257
  454TCM    cl1 2434   4.407   3.976   1.330
  454TCM    cl2 2435   4.329   3.781   1.126
  454TCM     h1 2436   4.219   3.827   1.333
  454TCM    cl3 2437   4.151   4.004   1.187
  455TCM     c1 2438   3.054   4.204   4.575
  455TCM    cl1 2439   2.924   4.106   4.650
  455TCM    cl2 2440   3.128   4.111   4.440
  455TCM     h1 2441   3.013   4.297   4.537
  455TCM    cl3 2442   3.180   4.239   4.698
  456TCM     c1 2443   1.523   2.087   4.634
  456TCM    cl1 2444   1.679   2.111   4.548
  456TCM    cl2 2445   1.537   1.942   4.739
  456TCM     h1 2446   1.502   2.175   4.696
  456TCM    cl3 2447   1.391   2.064   4.516
  457TCM     c1 2448   1.514   3.367   1.570
  457TCM    cl1 2449   1.431   3.522   1.608
  457TCM    cl2 2450   1.421   3.231   1.641
  457TCM     h1 2451   1.520   3.354   1.462
  457TCM    cl3 2452   1.680   3.370   1.639
  458TCM     c1 2453   1.598   0.229   1.494
  458TCM    cl1 2454   1.424   0.269   1.471
  458TCM    cl2 2455   1.671   0.185   1.337
  458TCM     h1 2456   1.650   0.316   1.535
  458TCM    cl3 2457   1.612   0.091   1.608
  459TCM     c1 2458   3.889   4.283   3.334
  459TCM    cl1 2459   3.921   4.197   3.180
  459TCM    cl2 2460   4.040   4.295   3.430
  459TCM     h1 2461   3.851   4.384   3.312
  459TCM    cl3 2462   3.766   4.192   3.427
  460TCM     c1 2463   0.498   0.961   3.507
  460TCM    cl1 2464   0.497   0.792   3.446
  460TCM    cl2 2465   0.666   1.008   3.547
  460TCM     h1 2466   0.458   1.028   3.431
  460TCM    cl3 2467   0.397   0.971   3.655
  461TCM     c1 2468   1.587   4.297   0.088
  461TCM    cl1 2469   1.741   4.334   0.172
  461TCM    cl2 2470   1.577   4.394  -0.063
  461TCM     h1 2471   1.583   4.191   0.063
  461TCM    cl3 2472   1.449   4.340   0.194
  462TCM     c1 2473   3.120   0.122   0.009
  462TCM    cl1 2474   3.017   0.253   0.076
  462TCM    cl2 2475   3.014   0.002  -0.074
  462TCM     h1 2476   3.191   0.165  -0.063
  462TCM    cl3 2477   3.209   0.043   0.142
  463TCM     c1 2478   3.494   0.853   3.134
  463TCM    cl1 2479   3.370   0.736   3.078
  463TCM    cl2 2480   3.588   0.912   2.993
  463TCM     h1 2481   3.446   0.937   3.183
  463TCM    cl3 2482   3.605   0.771   3.249
  464TCM     c1 2483   4.847   4.292   3.839
  464TCM    cl1 2484   4.907   4.379   3.694
  464TCM    cl2 2485   4.860   4.400   3.981
  464TCM     h1 2486   4.743   4.262   3.824
  464TCM    cl3 2487   4.948   4.146   3.867
  465TCM     c1 2488   4.522   1.485   4.879
  465TCM    cl1 2489   4.502   1.578   4.726
  465TCM    cl2 2490   4.529   1.600   5.017
  465TCM     h1 2491   4.438   1.417   4.892
  465TCM    cl3 2492   4.674   1.391   4.872
  466TCM     c1 2493   0.323   0.588   2.777
  466TCM    cl1 2494   0.311   0.767   2.793
  466TCM    cl2 2495   0.158   0.517   2.777
  466TCM     h1 2496   0.374   0.563   2.684
  466TCM    cl3 2497   0.416   0.523   2.916
  467TCM     c1 2498   0.225   2.198   1.983
  467TCM    cl1 2499   0.089   2.289   2.057
  467TCM    cl2 2500   0.314   2.307   1.872
  467TCM     h1 2501   0.292   2.162   2.061
  467TCM    cl3 2502   0.160   2.059   1.891
  468TCM     c1 2503   3.261   2.179   1.307
  468TCM    cl1 2504   3.337   2.074   1.183
  468TCM    cl2 2505   3.256   2.348   1.247
  468TCM     h1 2506   3.159   2.144   1.327
  468TCM    cl3 2507   3.357   2.173   1.459
  469TCM     c1 2508   2.433   0.910   4.081
  469TCM    cl1 2509   2.611   0.931   4.073
  469TCM    cl2 2510   2.367   1.016   4.210
  469TCM     h1 2511   2.389   0.937   3.985
  469TCM    cl3 2512   2.393   0.739   4.120
  470TCM     c1 2513   4.752   2.663   4.676
  470TCM    cl1 2514   4.580   2.699   4.715
  470TCM    cl2 2515   4.758   2.544   4.542
  470TCM     h1 2516   4.803   2.755   4.646
  470TCM    cl3 2517   4.832   2.594   4.821
  471TCM     c1 2518   3.717   0.879   2.664
  471TCM    cl1 2519   3.604   0.743   2.632
  471TCM    cl2 2520   3.640   1.032   2.611
  471TCM     h1 2521   3.740   0.884   2.771
  471TCM    cl3 2522   3.870   0.855   2.573
  472TCM     c1 2523   3.006   1.926   3.157
  472TCM    cl1 2524   3.046   1.762   3.098
  472TCM    cl2 2525   2.920   2.015   3.028
  472TCM     h1 2526   2.942   1.918   3.245
  472TCM    cl3 2527   3.157   2.011   3.200
  473TCM     c1 2528   3.393   1.571   1.223
  473TCM    cl1 2529   3.555   1.495   1.214
  473TCM    cl2 2530   3.349   1.595   1.396
  473TCM     h1 2531   3.395   1.668   1.172
  473TCM    cl3 2532   3.272   1.463   1.146
  474TCM     c1 2533   0.114   3.426   1.356
  474TCM    cl1 2534  -0.054   3.462   1.304
  474TCM    cl2 2535   0.185   3.302   1.247
  474TCM     h1 2536   0.174   3.517   1.351
  474TCM    cl3 2537   0.113   3.365   1.525
  475TCM     c1 2538   2.202   3.776   4.275
  475TCM    cl1 2539   2.124   3.648   4.177
  475TCM    cl2 2540   2.213   3.926   4.178
  475TCM     h1 2541   2.143   3.794   4.365
  475TCM    cl3 2542   2.366   3.721   4.321
  476TCM     c1 2543   1.778   1.507   1.810
  476TCM    cl1 2544   1.627   1.572   1.882
  476TCM    cl2 2545   1.737   1.376   1.694
  476TCM     h1 2546   1.831   1.587   1.757
  476TCM    cl3 2547   1.882   1.441   1.940
  477TCM     c1 2548   4.501   2.346   4.985
  477TCM    cl1 2549   4.492   2.522   5.019
  477TCM    cl2 2550   4.570   2.319   4.822
  477TCM     h1 2551   4.564   2.297   5.060
  477TCM    cl3 2552   4.335   2.277   4.992
  478TCM     c1 2553   2.933   4.591   3.334
  478TCM    cl1 2554   3.098   4.591   3.265
  478TCM    cl2 2555   2.814   4.596   3.199
  478TCM     h1 2556   2.917   4.500   3.393
  478TCM    cl3 2557   2.912   4.735   3.439
  479TCM     c1 2558   4.967   3.973   4.828
  479TCM    cl1 2559   4.928   3.804   4.781
  479TCM    cl2 2560   5.075   3.970   4.972
  479TCM     h1 2561   5.019   4.023   4.746
  479TCM    cl3 2562   4.816   4.061   4.868
  480TCM     c1 2563   1.056   2.546   3.073
  480TCM    cl1 2564   1.223   2.523   3.011
  480TCM    cl2 2565   1.062   2.573   3.251
  480TCM     h1 2566   1.010   2.632   3.025
  480TCM    cl3 2567   0.959   2.399   3.038
  481TCM     c1 2568   2.258   2.734   1.051
  481TCM    cl1 2569   2.136   2.850   1.113
  481TCM    cl2 2570   2.404   2.822   0.996
  481TCM     h1 2571   2.285   2.664   1.130
  481TCM    cl3 2572   2.188   2.643   0.913
  482TCM     c1 2573   4.777   3.400   3.317
  482TCM    cl1 2574   4.724   3.308   3.461
  482TCM    cl2 2575   4.700   3.562   3.318
  482TCM     h1 2576   4.886   3.412   3.318
  482TCM    cl3 2577   4.727   3.313   3.168
  483TCM     c1 2578   2.256   4.982   3.131
  483TCM    cl1 2579   2.408   5.063   3.179
  483TCM    cl2 2580   2.274   4.912   2.967
  483TCM     h1 2581   2.232   4.903   3.203
  483TCM    cl3 2582   2.125   5.104   3.129
  484TCM     c1 2583   4.905   2.451   3.764
  484TCM    cl1 2584   4.908   2.537   3.922
  484TCM    cl2 2585   4.949   2.278   3.790
  484TCM     h1 2586   4.805   2.457   3.721
  484TCM    cl3 2587   5.024   2.528   3.653
  485TCM     c1 2588   2.337   2.057   3.392
  485TCM    cl1 2589   2.442   2.122   3.522
  485TCM    cl2 2590   2.258   1.907   3.451
  485TCM     h1 2591   2.261   2.131   3.365
  485TCM    cl3 2592   2.437   2.018   3.249
  486TCM     c1 2593   1.812   0.514   3.770
  486TCM    cl1 2594   1.728   0.407   3.653
  486TCM    cl2 2595   1.755   0.476   3.936
  486TCM     h1 2596   1.920   0.498   3.764
  486TCM    cl3 2597   1.776   0.686   3.733
  487TCM     c1 2598   0.760   0.117   0.580
  487TCM    cl1 2599   0.809   0.212   0.724
  487TCM    cl2 2600   0.686  -0.038   0.633
  487TCM     h1 2601   0.688   0.174   0.521
  487TCM    cl3 2602   0.905   0.081   0.480
  488TCM     c1 2603   3.973   1.169   3.380
  488TCM    cl1 2604   3.988   1.272   3.233
  488TCM    cl2 2605   3.903   1.265   3.514
  488TCM     h1 2606   3.907   1.084   3.358
  488TCM    cl3 2607   4.135   1.109   3.426
  489TCM     c1 2608   3.103   4.889   2.979
  489TCM    cl1 2609   3.149   5.048   2.911
  489TCM    cl2 2610   2.986   4.809   2.869
  489TCM     h1 2611   3.192   4.826   2.990
  489TCM    cl3 2612   3.026   4.914   3.139
  490TCM     c1 2613   2.596   2.276   2.933
  490TCM    cl1 2614   2.579   2.454   2.910
  490TCM    cl2 2615   2.435   2.199   2.916
  490TCM     h1 2616   2.665   2.236   2.858
  490TCM    cl3 2617   2.661   2.245   3.097
  491TCM     c1 2618   1.187   0.481   0.089
  491TCM    cl1 2619   1.224   0.593   0.224
  491TCM    cl2 2620   1.143   0.576  -0.056
  491TCM     h1 2621   1.275   0.420   0.068
  491TCM    cl3 2622   1.049   0.375   0.134
  492TCM     c1 2623   2.224   4.303   4.115
  492TCM    cl1 2624   2.185   4.462   4.042
  492TCM    cl2 2625   2.166   4.297   4.285
  492TCM     h1 2626   2.176   4.224   4.058
  492TCM    cl3 2627   2.402   4.278   4.111
  493TCM     c1 2628   0.401   3.603   4.747
  493TCM    cl1 2629   0.230   3.586   4.801
  493TCM    cl2 2630   0.453   3.449   4.671
  493TCM     h1 2631   0.409   3.684   4.675
  493TCM    cl3 2632   0.504   3.640   4.889
  494TCM     c1 2633   4.997   2.976   1.547
  494TCM    cl1 2634   5.176   2.982   1.559
  494TCM    cl2 2635   4.945   3.055   1.394
  494TCM     h1 2636   4.964   2.872   1.547
  494TCM    cl3 2637   4.925   3.062   1.687
  495TCM     c1 2638   3.116   0.910   3.292
  495TCM    cl1 2639   3.057   1.041   3.185
  495TCM    cl2 2640   2.982   0.856   3.400
  495TCM     h1 2641   3.150   0.826   3.232
  495TCM    cl3 2642   3.253   0.971   3.391
  496TCM     c1 2643   1.441   4.933   1.191
  496TCM    cl1 2644   1.383   4.809   1.074
  496TCM    cl2 2645   1.407   4.878   1.358
  496TCM     h1 2646   1.549   4.948   1.178
  496TCM    cl3 2647   1.355   5.087   1.159
  497TCM     c1 2648   2.532   2.875   3.740
  497TCM    cl1 2649   2.589   2.727   3.657
  497TCM    cl2 2650   2.665   2.995   3.746
  497TCM     h1 2651   2.447   2.917   3.686
  497TCM    cl3 2652   2.482   2.832   3.907
  498TCM     c1 2653   4.952   3.061   0.937
  498TCM    cl1 2654   5.004   3.130   0.779
  498TCM    cl2 2655   4.888   3.192   1.041
  498TCM     h1 2656   4.875   2.985   0.921
  498TCM    cl3 2657   5.094   2.985   1.016
  499TCM     c1 2658   1.584   0.299   4.802
  499TCM    cl1 2659   1.466   0.426   4.847
  499TCM    cl2 2660   1.508   0.137   4.818
  499TCM     h1 2661   1.616   0.314   4.698
  499TCM    cl3 2662   1.727   0.309   4.910
  500TCM     c1 2663   0.791   1.923   2.662
  500TCM    cl1 2664   0.670   2.055   2.648
  500TCM    cl2 2665   0.711   1.765   2.639
  500TCM     h1 2666   0.868   1.936   2.585
  500TCM    cl3 2667   0.867   1.931   2.824
  501TCM     c1 2668   2.496   3.817   2.243
  501TCM    cl1 2669   2.346   3.771   2.330
  501TCM    cl2 2670   2.467   3.970   2.153
  501TCM     h1 2671   2.577   3.832   2.315
  501TCM    cl3 2672   2.539   3.687   2.127
  502TCM     c1 2673   1.280   0.384   2.738
  502TCM    cl1 2674   1.250   0.458   2.578
  502TCM    cl2 2675   1.160   0.443   2.858
  502TCM     h1 2676   1.272   0.275   2.730
  502TCM    cl3 2677   1.444   0.429   2.794
  503TCM     c1 2678   4.952   0.106   2.665
  503TCM    cl1 2679   4.829  -0.025   2.657
  503TCM    cl2 2680   5.079   0.075   2.542
  503TCM     h1 2681   4.904   0.203   2.644
  503TCM    cl3 2682   5.024   0.109   2.829
  504TCM     c1 2683   2.551   3.832   2.858
  504TCM    cl1 2684   2.698   3.930   2.827
  504TCM    cl2 2685   2.476   3.788   2.701
  504TCM     h1 2686   2.579   3.741   2.911
  504TCM    cl3 2687   2.435   3.927   2.957
  505TCM     c1 2688   0.143   4.804   4.949
  505TCM    cl1 2689   0.011   4.797   5.071
  505TCM    cl2 2690   0.087   4.730   4.796
  505TCM     h1 2691   0.172   4.908   4.932
  505TCM    cl3 2692   0.283   4.711   5.010
  506TCM     c1 2693   1.330   4.009   4.832
  506TCM    cl1 2694   1.249   3.872   4.915
  506TCM    cl2 2695   1.508   3.995   4.852
  506TCM     h1 2696   1.305   4.008   4.725
  506TCM    cl3 2697   1.275   4.163   4.905
  507TCM     c1 2698   0.254   1.917   3.386
  507TCM    cl1 2699   0.160   1.790   3.301
  507TCM    cl2 2700   0.425   1.911   3.332
  507TCM     h1 2701   0.212   2.015   3.364
  507TCM    cl3 2702   0.246   1.888   3.563
  508TCM     c1 2703   4.594   0.339   4.690
  508TCM    cl1 2704   4.474   0.458   4.749
  508TCM    cl2 2705   4.513   0.184   4.649
  508TCM     h1 2706   4.643   0.378   4.600
  508TCM    cl3 2707   4.716   0.310   4.818
  509TCM     c1 2708   4.290   2.081   2.266
  509TCM    cl1 2709   4.330   2.148   2.427
  509TCM    cl2 2710   4.438   2.080   2.165
  509TCM     h1 2711   4.253   1.978   2.277
  509TCM    cl3 2712   4.164   2.181   2.188
  510TCM     c1 2713   3.110   4.638   1.394
  510TCM    cl1 2714   2.969   4.722   1.468
  510TCM    cl2 2715   3.166   4.729   1.251
  510TCM     h1 2716   3.191   4.631   1.467
  510TCM    cl3 2717   3.060   4.473   1.344
  511TCM     c1 2718   0.203   0.107   0.714
  511TCM    cl1 2719   0.042   0.144   0.643
  511TCM    cl2 2720   0.330   0.142   0.592
  511TCM     h1 2721   0.219   0.169   0.803
  511TCM    cl3 2722   0.212  -0.067   0.759
  512TCM     c1 2723   3.662   4.862   0.034
  512TCM    cl1 2724   3.508   4.819   0.116
  512TCM    cl2 2725   3.772   4.942   0.150
  512TCM     h1 2726   3.709   4.772  -0.006
  512TCM    cl3 2727   3.627   4.975  -0.101
  513TCM     c1 2728   0.464   4.972   2.062
  513TCM    cl1 2729   0.288   4.973   2.095
  513TCM    cl2 2730   0.511   5.131   1.995
  513TCM     h1 2731   0.519   4.952   2.154
  513TCM    cl3 2732   0.501   4.844   1.941
  514TCM     c1 2733   2.691   0.071   4.204
  514TCM    cl1 2734   2.690  -0.020   4.359
  514TCM    cl2 2735   2.672  -0.043   4.067
  514TCM     h1 2736   2.609   0.143   4.203
  514TCM    cl3 2737   2.847   0.158   4.187
  515TCM     c1 2738   4.058   4.034   1.633
  515TCM    cl1 2739   4.148   4.145   1.524
  515TCM    cl2 2740   4.173   3.928   1.720
  515TCM     h1 2741   4.000   4.093   1.705
  515TCM    cl3 2742   3.947   3.932   1.536
  516TCM     c1 2743   3.101   3.777   4.646
  516TCM    cl1 2744   3.226   3.657   4.602
  516TCM    cl2 2745   3.126   3.828   4.816
  516TCM     h1 2746   3.108   3.864   4.580
  516TCM    cl3 2747   2.939   3.701   4.629
  517TCM     c1 2748   2.705   0.490   4.118
  517TCM    cl1 2749   2.698   0.587   4.268
  517TCM    cl2 2750   2.713   0.598   3.975
  517TCM     h1 2751   2.793   0.426   4.120
  517TCM    cl3 2752   2.557   0.389   4.106
  518TCM     c1 2753   3.238   3.332   1.839
  518TCM    cl1 2754   3.064   3.356   1.802
  518TCM    cl2 2755   3.281   3.421   1.989
  518TCM     h1 2756   3.258   3.225   1.853
  518TCM    cl3 2757   3.337   3.394   1.703
  519TCM     c1 2758   1.514   3.355   2.875
  519TCM    cl1 2759   1.598   3.436   2.739
  519TCM    cl2 2760   1.593   3.198   2.909
  519TCM     h1 2761   1.519   3.418   2.964
  519TCM    cl3 2762   1.342   3.327   2.831
  520TCM     c1 2763   2.725   4.208   1.563
  520TCM    cl1 2764   2.821   4.142   1.427
  520TCM    cl2 2765   2.561   4.137   1.557
  520TCM     h1 2766   2.772   4.183   1.658
  520TCM    cl3 2767   2.714   4.387   1.547
  521TCM     c1 2768   4.959   1.342   2.745
  521TCM    cl1 2769   5.062   1.196   2.762
  521TCM    cl2 2770   4.880   1.379   2.901
  521TCM     h1 2771   5.021   1.427   2.714
  521TCM    cl3 2772   4.833   1.311   2.620
  522TCM     c1 2773   4.219   3.148   2.596
  522TCM    cl1 2774   4.109   3.131   2.455
  522TCM    cl2 2775   4.390   3.143   2.539
  522TCM     h1 2776   4.200   3.243   2.646
  522TCM    cl3 2777   4.190   3.012   2.710
  523TCM     c1 2778   2.577   4.767   2.510
  523TCM    cl1 2779   2.511   4.711   2.352
  523TCM    cl2 2780   2.489   4.916   2.560
  523TCM     h1 2781   2.563   4.689   2.585
  523TCM    cl3 2782   2.751   4.804   2.492
  524TCM     c1 2783   2.915   3.218   2.213
  524TCM    cl1 2784   3.065   3.165   2.130
  524TCM    cl2 2785   2.785   3.099   2.180
  524TCM     h1 2786   2.933   3.224   2.321
  524TCM    cl3 2787   2.864   3.379   2.151
  525TCM     c1 2788   1.884   3.448   4.013
  525TCM    cl1 2789   1.783   3.475   4.158
  525TCM    cl2 2790   1.866   3.588   3.901
  525TCM     h1 2791   1.989   3.439   4.043
  525TCM    cl3 2792   1.833   3.298   3.930
  526TCM     c1 2793   4.667   1.995   0.361
  526TCM    cl1 2794   4.560   2.099   0.260
  526TCM    cl2 2795   4.838   2.040   0.331
  526TCM     h1 2796   4.643   2.010   0.466
  526TCM    cl3 2797   4.643   1.823   0.316
  527TCM     c1 2798   1.895   2.926   1.964
  527TCM    cl1 2799   2.025   2.804   1.943
  527TCM    cl2 2800   1.954   3.085   1.906
  527TCM     h1 2801   1.807   2.896   1.906
  527TCM    cl3 2802   1.852   2.939   2.138
  528TCM     c1 2803   1.929   0.490   4.456
  528TCM    cl1 2804   1.860   0.502   4.290
  528TCM    cl2 2805   2.005   0.329   4.475
  528TCM     h1 2806   2.003   0.568   4.471
  528TCM    cl3 2807   1.797   0.507   4.576
  529TCM     c1 2808   0.197   4.932   3.930
  529TCM    cl1 2809   0.194   5.008   4.092
  529TCM    cl2 2810   0.245   5.055   3.809
  529TCM     h1 2811   0.269   4.849   3.930
  529TCM    cl3 2812   0.034   4.870   3.891
  530TCM     c1 2813   1.608   4.283   1.418
  530TCM    cl1 2814   1.616   4.462   1.411
  530TCM    cl2 2815   1.440   4.232   1.453
  530TCM     h1 2816   1.639   4.241   1.322
  530TCM    cl3 2817   1.717   4.224   1.548
  531TCM     c1 2818   4.829   0.655   4.102
  531TCM    cl1 2819   4.875   0.689   3.932
  531TCM    cl2 2820   4.758   0.490   4.112
  531TCM     h1 2821   4.917   0.660   4.166
  531TCM    cl3 2822   4.707   0.775   4.157
  532TCM     c1 2823   2.099   3.105   0.089
  532TCM    cl1 2824   2.186   3.009  -0.035
  532TCM    cl2 2825   1.924   3.109   0.048
  532TCM     h1 2826   2.112   3.060   0.188
  532TCM    cl3 2827   2.163   3.272   0.091
  533TCM     c1 2828   2.743   4.247   1.076
  533TCM    cl1 2829   2.768   4.282   0.902
  533TCM    cl2 2830   2.587   4.161   1.098
  533TCM     h1 2831   2.824   4.184   1.112
  533TCM    cl3 2832   2.738   4.401   1.169
  534TCM     c1 2833   1.380   0.819   3.683
  534TCM    cl1 2834   1.406   0.876   3.515
  534TCM    cl2 2835   1.480   0.917   3.795
  534TCM     h1 2836   1.274   0.830   3.709
  534TCM    cl3 2837   1.426   0.646   3.696
  535TCM     c1 2838   1.560   1.226   2.757
  535TCM    cl1 2839   1.455   1.169   2.890
  535TCM    cl2 2840   1.690   1.331   2.823
  535TCM     h1 2841   1.605   1.140   2.706
  535TCM    cl3 2842   1.464   1.322   2.639
  536TCM     c1 2843   1.896   3.461   3.522
  536TCM    cl1 2844   1.959   3.626   3.549
  536TCM    cl2 2845   1.732   3.446   3.594
  536TCM     h1 2846   1.891   3.441   3.415
  536TCM    cl3 2847   2.006   3.341   3.599
  537TCM     c1 2848   3.695   4.095   2.854
  537TCM    cl1 2849   3.841   3.993   2.878
  537TCM    cl2 2850   3.551   3.989   2.832
  537TCM     h1 2851   3.680   4.159   2.941
  537TCM    cl3 2852   3.715   4.195   2.707
  538TCM     c1 2853   2.715   4.976   0.344
  538TCM    cl1 2854   2.881   4.981   0.277
  538TCM    cl2 2855   2.697   5.106   0.466
  538TCM     h1 2856   2.643   4.991   0.264
  538TCM    cl3 2857   2.688   4.817   0.423
  539TCM     c1 2858   1.711   3.880   4.038
  539TCM    cl1 2859   1.819   3.841   4.175
  539TCM    cl2 2860   1.687   4.057   4.031
  539TCM     h1 2861   1.756   3.845   3.944
  539TCM    cl3 2862   1.553   3.798   4.061
  540TCM     c1 2863   1.997   2.322   1.098
  540TCM    cl1 2864   1.903   2.417   0.979
  540TCM    cl2 2865   1.886   2.228   1.203
  540TCM     h1 2866   2.064   2.253   1.046
  540TCM    cl3 2867   2.094   2.434   1.200
  541TCM     c1 2868   1.864   0.866   1.865
  541TCM    cl1 2869   1.853   1.044   1.844
  541TCM    cl2 2870   1.849   0.787   1.704
  541TCM     h1 2871   1.960   0.840   1.909
  541TCM    cl3 2872   1.731   0.811   1.972
  542TCM     c1 2873   2.077   2.626   0.149
  542TCM    cl1 2874   2.058   2.783   0.235
  542TCM    cl2 2875   2.099   2.493   0.267
  542TCM     h1 2876   1.988   2.607   0.089
  542TCM    cl3 2877   2.221   2.635   0.042
  543TCM     c1 2878   3.393   2.457   3.946
  543TCM    cl1 2879   3.426   2.384   3.786
  543TCM    cl2 2880   3.435   2.339   4.075
  543TCM     h1 2881   3.453   2.548   3.959
  543TCM    cl3 2882   3.219   2.498   3.958
  544TCM     c1 2883   0.658   0.261   1.562
  544TCM    cl1 2884   0.733   0.332   1.709
  544TCM    cl2 2885   0.584   0.103   1.604
  544TCM     h1 2886   0.580   0.328   1.524
  544TCM    cl3 2887   0.784   0.239   1.437
  545TCM     c1 2888   4.186   4.612   0.545
  545TCM    cl1 2889   4.125   4.690   0.695
  545TCM    cl2 2890   4.326   4.704   0.482
  545TCM     h1 2891   4.216   4.509   0.568
  545TCM    cl3 2892   4.056   4.611   0.422
  546TCM     c1 2893   0.133   4.377   0.769
  546TCM    cl1 2894   0.073   4.348   0.936
  546TCM    cl2 2895   0.097   4.546   0.721
  546TCM     h1 2896   0.241   4.361   0.766
  546TCM    cl3 2897   0.052   4.264   0.656
  547TCM     c1 2898   2.018   2.122   3.707
  547TCM    cl1 2899   2.039   2.193   3.543
  547TCM    cl2 2900   2.178   2.110   3.787
  547TCM     h1 2901   1.952   2.185   3.766
  547TCM    cl3 2902   1.947   1.958   3.692
  548TCM     c1 2903   0.254   3.981   0.989
  548TCM    cl1 2904   0.320   4.064   0.843
  548TCM    cl2 2905   0.262   4.093   1.128
  548TCM     h1 2906   0.151   3.951   0.970
  548TCM    cl3 2907   0.354   3.836   1.024
  549TCM     c1 2908   1.244   3.993   0.248
  549TCM    cl1 2909   1.177   3.840   0.313
  549TCM    cl2 2910   1.422   3.977   0.231
  549TCM     h1 2911   1.200   4.015   0.150
  549TCM    cl3 2912   1.207   4.128   0.360
  550TCM     c1 2913   2.796   2.178   2.491
  550TCM    cl1 2914   2.883   2.084   2.616
  550TCM    cl2 2915   2.914   2.258   2.382
  550TCM     h1 2916   2.732   2.112   2.433
  550TCM    cl3 2917   2.696   2.303   2.572
  551TCM     c1 2918   1.691   2.606   2.243
  551TCM    cl1 2919   1.847   2.553   2.172
  551TCM    cl2 2920   1.720   2.678   2.405
  551TCM     h1 2921   1.646   2.681   2.177
  551TCM    cl3 2922   1.581   2.465   2.258
  552TCM     c1 2923   3.011   4.876   1.800
  552TCM    cl1 2924   2.916   5.004   1.717
  552TCM    cl2 2925   2.900   4.773   1.897
  552TCM     h1 2926   3.062   4.814   1.726
  552TCM    cl3 2927   3.132   4.953   1.907
  553TCM     c1 2928   0.818   2.327   4.184
  553TCM    cl1 2929   0.931   2.228   4.282
  553TCM    cl2 2930   0.903   2.473   4.124
  553TCM     h1 2931   0.782   2.268   4.099
  553TCM    cl3 2932   0.679   2.376   4.286
  554TCM     c1 2933   4.300   3.928   4.769
  554TCM    cl1 2934   4.300   3.760   4.833
  554TCM    cl2 2935   4.260   3.925   4.595
  554TCM     h1 2936   4.226   3.988   4.823
  554TCM    cl3 2937   4.463   3.999   4.792
  555TCM     c1 2938   4.487   2.184   3.884
  555TCM    cl1 2939   4.607   2.051   3.873
  555TCM    cl2 2940   4.372   2.171   3.746
  555TCM     h1 2941   4.432   2.175   3.978
  555TCM    cl3 2942   4.571   2.342   3.877
  556TCM     c1 2943   4.045   2.260   2.686
  556TCM    cl1 2944   3.896   2.276   2.785
  556TCM    cl2 2945   3.998   2.234   2.515
  556TCM     h1 2946   4.104   2.351   2.694
  556TCM    cl3 2947   4.141   2.120   2.743
  557TCM     c1 2948   1.199   2.524   4.949
  557TCM    cl1 2949   1.377   2.530   4.971
  557TCM    cl2 2950   1.151   2.650   4.830
  557TCM     h1 2951   1.170   2.426   4.912
  557TCM    cl3 2952   1.118   2.556   5.106
  558TCM     c1 2953   3.559   1.983   2.951
  558TCM    cl1 2954   3.396   1.911   2.932
  558TCM    cl2 2955   3.605   1.981   3.124
  558TCM     h1 2956   3.632   1.925   2.894
  558TCM    cl3 2957   3.556   2.153   2.893
  559TCM     c1 2958   2.668   4.779   0.788
  559TCM    cl1 2959   2.714   4.949   0.823
  559TCM    cl2 2960   2.489   4.767   0.778
  559TCM     h1 2961   2.713   4.748   0.693
  559TCM    cl3 2962   2.727   4.674   0.920
  560TCM     c1 2963   1.381   3.752   0.601
  560TCM    cl1 2964   1.387   3.658   0.754
  560TCM    cl2 2965   1.541   3.745   0.521
  560TCM     h1 2966   1.305   3.710   0.535
  560TCM    cl3 2967   1.340   3.923   0.638
  561TCM     c1 2968  -0.000   3.280   4.853
  561TCM    cl1 2969  -0.149   3.302   4.950
  561TCM    cl2 2970  -0.022   3.141   4.742
  561TCM     h1 2971   0.019   3.371   4.795
  561TCM    cl3 2972   0.139   3.248   4.961
  562TCM     c1 2973   2.730   0.067   2.897
  562TCM    cl1 2974   2.624   0.203   2.947
  562TCM    cl2 2975   2.785   0.094   2.729
  562TCM     h1 2976   2.817   0.062   2.964
  562TCM    cl3 2977   2.639  -0.087   2.908
  563TCM     c1 2978   4.454   3.805   3.495
  563TCM    cl1 2979   4.383   3.641   3.486
  563TCM    cl2 2980   4.490   3.864   3.330
  563TCM     h1 2981   4.384   3.873   3.544
  563TCM    cl3 2982   4.606   3.798   3.591
  564TCM     c1 2983   1.281   0.800   3.043
  564TCM    cl1 2984   1.397   0.666   3.062
  564TCM    cl2 2985   1.316   0.928   3.164
  564TCM     h1 2986   1.290   0.842   2.943
  564TCM    cl3 2987   1.114   0.739   3.068
  565TCM     c1 2988   3.156   2.407   4.345
  565TCM    cl1 2989   3.207   2.578   4.327
  565TCM    cl2 2990   3.001   2.381   4.259
  565TCM     h1 2991   3.233   2.342   4.303
  565TCM    cl3 2992   3.134   2.370   4.519
  566TCM     c1 2993   2.277   3.998   0.225
  566TCM    cl1 2994   2.344   3.892   0.096
  566TCM    cl2 2995   2.249   3.902   0.373
  566TCM     h1 2996   2.348   4.079   0.246
  566TCM    cl3 2997   2.122   4.069   0.169
  567TCM     c1 2998   3.272   1.642   0.154
  567TCM    cl1 2999   3.383   1.767   0.219
  567TCM    cl2 3000   3.355   1.549   0.025
  567TCM     h1 3001   3.242   1.574   0.234
  567TCM    cl3 3002   3.126   1.723   0.085
  568TCM     c1 3003   2.380   1.709   3.727
  568TCM    cl1 3004   2.445   1.849   3.819
  568TCM    cl2 3005   2.209   1.680   3.773
  568TCM     h1 3006   2.386   1.729   3.620
  568TCM    cl3 3007   2.477   1.563   3.766
  569TCM     c1 3008   1.301   0.840   2.612
  569TCM    cl1 3009   1.449   0.818   2.711
  569TCM    cl2 3010   1.276   1.014   2.579
  569TCM     h1 3011   1.311   0.785   2.518
  569TCM    cl3 3012   1.159   0.778   2.703
  570TCM     c1 3013   2.600   4.278   0.041
  570TCM    cl1 3014   2.624   4.114   0.111
  570TCM    cl2 3015   2.425   4.302   0.013
  570TCM     h1 3016   2.638   4.353   0.111
  570TCM    cl3 3017   2.689   4.290  -0.114
  571TCM     c1 3018   2.290   4.466   1.485
  571TCM    cl1 3019   2.354   4.427   1.648
  571TCM    cl2 3020   2.130   4.388   1.463
  571TCM     h1 3021   2.280   4.574   1.474
  571TCM    cl3 3022   2.403   4.404   1.360
  572TCM     c1 3023   0.771   2.587   4.804
  572TCM    cl1 3024   0.631   2.604   4.915
  572TCM    cl2 3025   0.714   2.576   4.634
  572TCM     h1 3026   0.837   2.674   4.815
  572TCM    cl3 3027   0.860   2.438   4.847
  573TCM     c1 3028   1.418   0.948   1.631
  573TCM    cl1 3029   1.573   1.036   1.620
  573TCM    cl2 3030   1.283   1.065   1.617
  573TCM     h1 3031   1.412   0.875   1.550
  573TCM    cl3 3032   1.408   0.863   1.789
  574TCM     c1 3033   0.080   3.565   3.534
  574TCM    cl1 3034  -0.072   3.618   3.614
  574TCM    cl2 3035   0.082   3.624   3.365
  574TCM     h1 3036   0.166   3.605   3.589
  574TCM    cl3 3037   0.087   3.386   3.535
  575TCM     c1 3038   4.988   0.277   3.667
  575TCM    cl1 3039   4.912   0.439   3.649
  575TCM    cl2 3040   5.004   0.200   3.506
  575TCM     h1 3041   5.087   0.288   3.712
  575TCM    cl3 3042   4.886   0.175   3.773
  576TCM     c1 3043   3.895   0.061   3.040
  576TCM    cl1 3044   4.021   0.168   3.111
  576TCM    cl2 3045   3.962  -0.104   3.024
  576TCM     h1 3046   3.807   0.060   3.105
  576TCM    cl3 3047   3.851   0.124   2.878
  577TCM     c1 3048   3.143   4.030   1.323
  577TCM    cl1 3049   3.321   4.044   1.344
  577TCM    cl2 3050   3.101   3.861   1.281
  577TCM     h1 3051   3.093   4.059   1.416
  577TCM    cl3 3052   3.091   4.139   1.190
  578TCM     c1 3053   4.444   4.291   3.504
  578TCM    cl1 3054   4.586   4.400   3.491
  578TCM    cl2 3055   4.480   4.158   3.618
  578TCM     h1 3056   4.358   4.348   3.541
  578TCM    cl3 3057   4.404   4.223   3.343
  579TCM     c1 3058   0.811   3.715   0.259
  579TCM    cl1 3059   0.905   3.711   0.106
  579TCM    cl2 3060   0.642   3.666   0.227
  579TCM     h1 3061   0.856   3.646   0.331
  579TCM    cl3 3062   0.813   3.881   0.327
  580TCM     c1 3063   0.239   2.412   4.695
  580TCM    cl1 3064   0.264   2.470   4.862
  580TCM    cl2 3065   0.393   2.420   4.604
  580TCM     h1 3066   0.203   2.308   4.697
  580TCM    cl3 3067   0.117   2.516   4.615
  581TCM     c1 3068   0.895   4.910   1.991
  581TCM    cl1 3069   1.069   4.947   2.012
  581TCM    cl2 3070   0.828   5.012   1.860
  581TCM     h1 3071   0.882   4.804   1.966
  581TCM    cl3 3072   0.808   4.947   2.144
  582TCM     c1 3073   0.832   1.295   3.838
  582TCM    cl1 3074   0.861   1.375   3.996
  582TCM    cl2 3075   0.657   1.260   3.821
  582TCM     h1 3076   0.864   1.361   3.758
  582TCM    cl3 3077   0.924   1.141   3.831
  583TCM     c1 3078   3.791   2.565   3.956
  583TCM    cl1 3079   3.687   2.670   3.854
  583TCM    cl2 3080   3.783   2.396   3.894
  583TCM     h1 3081   3.894   2.601   3.952
  583TCM    cl3 3082   3.732   2.568   4.125
  584TCM     c1 3083   2.070   3.565   4.907
  584TCM    cl1 3084   2.115   3.510   4.742
  584TCM    cl2 3085   1.909   3.498   4.950
  584TCM     h1 3086   2.145   3.530   4.978
  584TCM    cl3 3087   2.062   3.744   4.911
  585TCM     c1 3088   1.121   0.351   0.590
  585TCM    cl1 3089   0.999   0.438   0.491
  585TCM    cl2 3090   1.136   0.432   0.750
  585TCM     h1 3091   1.090   0.248   0.604
  585TCM    cl3 3092   1.279   0.355   0.504
  586TCM     c1 3093   0.382   3.462   0.389
  586TCM    cl1 3094   0.306   3.453   0.227
  586TCM    cl2 3095   0.516   3.343   0.400
  586TCM     h1 3096   0.422   3.563   0.404
  586TCM    cl3 3097   0.260   3.427   0.516
  587TCM     c1 3098   2.926   1.386   3.124
  587TCM    cl1 3099   3.102   1.412   3.111
  587TCM    cl2 3100   2.845   1.456   2.980
  587TCM     h1 3101   2.904   1.279   3.130
  587TCM    cl3 3102   2.866   1.468   3.271
  588TCM     c1 3103   2.543   4.717   0.019
  588TCM    cl1 3104   2.560   4.607   0.160
  588TCM    cl2 3105   2.533   4.620  -0.131
  588TCM     h1 3106   2.452   4.777   0.030
  588TCM    cl3 3107   2.687   4.823   0.010
  589TCM     c1 3108   3.355   3.566   3.058
  589TCM    cl1 3109   3.522   3.592   2.998
  589TCM    cl2 3110   3.263   3.718   3.039
  589TCM     h1 3111   3.307   3.486   3.001
  589TCM    cl3 3112   3.361   3.521   3.232
  590TCM     c1 3113   2.692   3.903   0.513
  590TCM    cl1 3114   2.572   4.019   0.449
  590TCM    cl2 3115   2.610   3.750   0.559
  590TCM     h1 3116   2.767   3.882   0.436
  590TCM    cl3 3117   2.772   3.975   0.657
  591TCM     c1 3118   4.308   4.208   0.916
  591TCM    cl1 3119   4.308   4.377   0.856
  591TCM    cl2 3120   4.444   4.183   1.030
  591TCM     h1 3121   4.213   4.188   0.968
  591TCM    cl3 3122   4.325   4.096   0.778
  592TCM     c1 3123   4.654   2.854   0.052
  592TCM    cl1 3124   4.582   2.974   0.163
  592TCM    cl2 3125   4.759   2.741   0.144
  592TCM     h1 3126   4.574   2.797   0.003
  592TCM    cl3 3127   4.751   2.940  -0.071
  593TCM     c1 3128   2.891   0.926   2.071
  593TCM    cl1 3129   2.775   1.061   2.094
  593TCM    cl2 3130   3.032   0.984   1.976
  593TCM     h1 3131   2.925   0.889   2.169
  593TCM    cl3 3132   2.810   0.793   1.982
  594TCM     c1 3133   3.258   4.347   2.922
  594TCM    cl1 3134   3.173   4.502   2.893
  594TCM    cl2 3135   3.214   4.286   3.085
  594TCM     h1 3136   3.227   4.274   2.846
  594TCM    cl3 3137   3.435   4.372   2.913
  595TCM     c1 3138   3.691   3.348   3.284
  595TCM    cl1 3139   3.742   3.516   3.319
  595TCM    cl2 3140   3.768   3.237   3.402
  595TCM     h1 3141   3.582   3.340   3.293
  595TCM    cl3 3142   3.742   3.302   3.118
  596TCM     c1 3143   3.836   0.277   4.979
  596TCM    cl1 3144   4.003   0.226   5.019
  596TCM    cl2 3145   3.815   0.285   4.801
  596TCM     h1 3146   3.765   0.206   5.021
  596TCM    cl3 3147   3.806   0.440   5.050
  597TCM     c1 3148   3.057   3.186   3.200
  597TCM    cl1 3149   3.059   3.306   3.333
  597TCM    cl2 3150   3.196   3.218   3.090
  597TCM     h1 3151   3.066   3.086   3.241
  597TCM    cl3 3152   2.904   3.201   3.108
  598TCM     c1 3153   0.438   2.663   1.677
  598TCM    cl1 3154   0.507   2.777   1.556
  598TCM    cl2 3155   0.544   2.518   1.686
  598TCM     h1 3156   0.434   2.711   1.775
  598TCM    cl3 3157   0.273   2.614   1.627
  599TCM     c1 3158   0.084   4.363   2.959
  599TCM    cl1 3159   0.247   4.394   2.891
  599TCM    cl2 3160   0.091   4.217   3.063
  599TCM     h1 3161   0.052   4.449   3.018
  599TCM    cl3 3162  -0.032   4.334   2.825
  600TCM     c1 3163   2.334   3.458   1.234
  600TCM    cl1 3164   2.463   3.474   1.110
  600TCM    cl2 3165   2.397   3.518   1.392
  600TCM     h1 3166   2.248   3.518   1.204
  600TCM    cl3 3167   2.286   3.286   1.250
  601TCM     c1 3168   0.092   1.259   2.361
  601TCM    cl1 3169   0.093   1.275   2.183
  601TCM    cl2 3170   0.149   1.414   2.433
  601TCM     h1 3171  -0.009   1.237   2.395
  601TCM    cl3 3172   0.202   1.126   2.413
  602TCM     c1 3173   3.916   2.919   3.578
  602TCM    cl1 3174   3.755   2.881   3.509
  602TCM    cl2 3175   3.986   2.771   3.650
  602TCM     h1 3176   3.982   2.956   3.499
  602TCM    cl3 3177   3.897   3.044   3.705
  603TCM     c1 3178   1.539   3.296   3.329
  603TCM    cl1 3179   1.649   3.402   3.235
  603TCM    cl2 3180   1.625   3.145   3.374
  603TCM     h1 3181   1.508   3.349   3.420
  603TCM    cl3 3182   1.395   3.256   3.230
  604TCM     c1 3183   2.539   3.259   2.403
  604TCM    cl1 3184   2.445   3.137   2.494
  604TCM    cl2 3185   2.694   3.290   2.488
  604TCM     h1 3186   2.559   3.223   2.302
  604TCM    cl3 3187   2.445   3.412   2.394
  605TCM     c1 3188   1.913   2.821   4.782
  605TCM    cl1 3189   1.821   2.765   4.926
  605TCM    cl2 3190   1.799   2.856   4.648
  605TCM     h1 3191   1.970   2.911   4.807
  605TCM    cl3 3192   2.026   2.691   4.731
  606TCM     c1 3193   4.778   0.897   2.610
  606TCM    cl1 3194   4.666   0.763   2.569
  606TCM    cl2 3195   4.842   0.970   2.459
  606TCM     h1 3196   4.725   0.973   2.668
  606TCM    cl3 3197   4.915   0.832   2.706
  607TCM     c1 3198   0.187   2.160   1.020
  607TCM    cl1 3199   0.010   2.141   0.995
  607TCM    cl2 3200   0.241   2.315   0.948
  607TCM     h1 3201   0.210   2.159   1.126
  607TCM    cl3 3202   0.273   2.024   0.940
  608TCM     c1 3203   3.017   3.995   0.119
  608TCM    cl1 3204   3.189   3.968   0.157
  608TCM    cl2 3205   2.997   4.142   0.018
  608TCM     h1 3206   2.978   3.908   0.065
  608TCM    cl3 3207   2.928   4.015   0.273
  609TCM     c1 3208   2.664   4.130   3.286
  609TCM    cl1 3209   2.802   4.244   3.298
  609TCM    cl2 3210   2.714   3.986   3.192
  609TCM     h1 3211   2.633   4.099   3.386
  609TCM    cl3 3212   2.527   4.210   3.202
  610TCM     c1 3213   2.087   4.163   1.757
  610TCM    cl1 3214   2.160   4.235   1.904
  610TCM    cl2 3215   1.957   4.048   1.804
  610TCM     h1 3216   2.044   4.242   1.695
  610TCM    cl3 3217   2.213   4.076   1.665
  611TCM     c1 3218   1.361   1.910   0.462
  611TCM    cl1 3219   1.231   2.032   0.479
  611TCM    cl2 3220   1.478   1.965   0.338
  611TCM     h1 3221   1.412   1.898   0.557
  611TCM    cl3 3222   1.290   1.753   0.411
  612TCM     c1 3223   0.229   2.567   4.285
  612TCM    cl1 3224   0.293   2.691   4.172
  612TCM    cl2 3225   0.305   2.408   4.250
  612TCM     h1 3226   0.251   2.596   4.388
  612TCM    cl3 3227   0.051   2.553   4.263
  613TCM     c1 3228   0.178   1.420   4.796
  613TCM    cl1 3229   0.222   1.593   4.805
  613TCM    cl2 3230   0.294   1.334   4.689
  613TCM     h1 3231   0.181   1.376   4.896
  613TCM    cl3 3232   0.013   1.403   4.728
  614TCM     c1 3233   0.032   2.804   0.618
  614TCM    cl1 3234  -0.114   2.781   0.719
  614TCM    cl2 3235   0.010   2.722   0.461
  614TCM     h1 3236   0.049   2.910   0.602
  614TCM    cl3 3237   0.174   2.733   0.703
  615TCM     c1 3238   2.155   4.293   4.675
  615TCM    cl1 3239   2.263   4.434   4.698
  615TCM    cl2 3240   1.994   4.349   4.621
  615TCM     h1 3241   2.198   4.226   4.599
  615TCM    cl3 3242   2.138   4.205   4.830
  616TCM     c1 3243   2.876   3.524   2.934
  616TCM    cl1 3244   2.890   3.685   3.011
  616TCM    cl2 3245   3.033   3.481   2.859
  616TCM     h1 3246   2.850   3.450   3.010
  616TCM    cl3 3247   2.748   3.528   2.809
  617TCM     c1 3248   2.776   4.354   0.543
  617TCM    cl1 3249   2.939   4.411   0.593
  617TCM    cl2 3250   2.773   4.333   0.365
  617TCM     h1 3251   2.754   4.258   0.592
  617TCM    cl3 3252   2.654   4.476   0.590
  618TCM     c1 3253   3.303   4.368   0.219
  618TCM    cl1 3254   3.286   4.352   0.041
  618TCM    cl2 3255   3.444   4.271   0.273
  618TCM     h1 3256   3.318   4.473   0.245
  618TCM    cl3 3257   3.155   4.307   0.300
  619TCM     c1 3258   2.142   3.587   0.734
  619TCM    cl1 3259   2.240   3.735   0.712
  619TCM    cl2 3260   2.148   3.537   0.907
  619TCM     h1 3261   2.038   3.607   0.706
  619TCM    cl3 3262   2.207   3.456   0.630
  620TCM     c1 3263   4.068   3.868   3.284
  620TCM    cl1 3264   4.163   3.911   3.138
  620TCM    cl2 3265   4.139   3.949   3.427
  620TCM     h1 3266   3.965   3.901   3.272
  620TCM    cl3 3267   4.073   3.690   3.309
  621TCM     c1 3268   0.181   4.654   4.298
  621TCM    cl1 3269   0.036   4.647   4.192
  621TCM    cl2 3270   0.153   4.776   4.426
  621TCM     h1 3271   0.198   4.556   4.344
  621TCM    cl3 3272   0.324   4.700   4.199
  622TCM     c1 3273   3.934   0.166   3.469
  622TCM    cl1 3274   4.040   0.023   3.440
  622TCM    cl2 3275   3.911   0.188   3.646
  622TCM     h1 3276   3.981   0.255   3.426
  622TCM    cl3 3277   3.774   0.139   3.392
  623TCM     c1 3278   2.477   2.539   3.262
  623TCM    cl1 3279   2.395   2.682   3.335
  623TCM    cl2 3280   2.362   2.401   3.255
  623TCM     h1 3281   2.510   2.564   3.161
  623TCM    cl3 3282   2.618   2.494   3.363
  624TCM     c1 3283   0.042   4.668   2.606
  624TCM    cl1 3284   0.073   4.696   2.781
  624TCM    cl2 3285  -0.130   4.620   2.583
  624TCM     h1 3286   0.063   4.759   2.550
  624TCM    cl3 3287   0.146   4.534   2.547
  625TCM     c1 3288   2.348   0.730   1.738
  625TCM    cl1 3289   2.293   0.753   1.569
  625TCM    cl2 3290   2.205   0.701   1.843
  625TCM     h1 3291   2.415   0.644   1.743
  625TCM    cl3 3292   2.435   0.877   1.794
  626TCM     c1 3293   0.242   2.262   2.620
  626TCM    cl1 3294   0.214   2.085   2.639
  626TCM    cl2 3295   0.402   2.288   2.545
  626TCM     h1 3296   0.164   2.305   2.557
  626TCM    cl3 3297   0.239   2.339   2.782
  627TCM     c1 3298   0.867   4.019   0.763
  627TCM    cl1 3299   0.967   4.050   0.617
  627TCM    cl2 3300   0.965   3.929   0.884
  627TCM     h1 3301   0.835   4.114   0.806
  627TCM    cl3 3302   0.724   3.921   0.718
  628TCM     c1 3303   2.333   3.007   0.440
  628TCM    cl1 3304   2.393   2.998   0.271
  628TCM    cl2 3305   2.197   3.123   0.447
  628TCM     h1 3306   2.300   2.908   0.473
  628TCM    cl3 3307   2.465   3.064   0.548
  629TCM     c1 3308   0.561   0.537   0.640
  629TCM    cl1 3309   0.722   0.615   0.643
  629TCM    cl2 3310   0.530   0.458   0.798
  629TCM     h1 3311   0.484   0.613   0.621
  629TCM    cl3 3312   0.557   0.413   0.511
  630TCM     c1 3313   4.899   2.257   3.206
  630TCM    cl1 3314   4.966   2.110   3.285
  630TCM    cl2 3315   4.987   2.288   3.053
  630TCM     h1 3316   4.792   2.242   3.185
  630TCM    cl3 3317   4.919   2.398   3.316
  631TCM     c1 3318   2.550   0.998   3.212
  631TCM    cl1 3319   2.681   1.097   3.140
  631TCM    cl2 3320   2.602   0.940   3.373
  631TCM     h1 3321   2.460   1.059   3.223
  631TCM    cl3 3322   2.515   0.857   3.107
  632TCM     c1 3323   0.036   0.863   1.970
  632TCM    cl1 3324   0.201   0.862   1.901
  632TCM    cl2 3325  -0.067   0.977   1.878
  632TCM     h1 3326  -0.007   0.762   1.964
  632TCM    cl3 3327   0.042   0.915   2.142
  633TCM     c1 3328   3.905   0.148   4.400
  633TCM    cl1 3329   3.755   0.101   4.486
  633TCM    cl2 3330   3.932   0.324   4.419
  633TCM     h1 3331   3.990   0.093   4.442
  633TCM    cl3 3332   3.888   0.109   4.225
  634TCM     c1 3333   4.829   0.732   4.757
  634TCM    cl1 3334   4.857   0.597   4.641
  634TCM    cl2 3335   4.803   0.663   4.920
  634TCM     h1 3336   4.916   0.798   4.758
  634TCM    cl3 3337   4.684   0.824   4.706
  635TCM     c1 3338   2.701   0.573   1.396
  635TCM    cl1 3339   2.854   0.638   1.327
  635TCM    cl2 3340   2.654   0.667   1.541
  635TCM     h1 3341   2.622   0.579   1.321
  635TCM    cl3 3342   2.725   0.401   1.442
  636TCM     c1 3343   1.866   1.080   3.657
  636TCM    cl1 3344   1.801   1.078   3.824
  636TCM    cl2 3345   1.732   1.053   3.541
  636TCM     h1 3346   1.913   1.176   3.637
  636TCM    cl3 3347   1.987   0.949   3.637
  637TCM     c1 3348   3.195   1.373   1.867
  637TCM    cl1 3349   3.294   1.495   1.780
  637TCM    cl2 3350   3.302   1.244   1.930
  637TCM     h1 3351   3.144   1.421   1.951
  637TCM    cl3 3352   3.075   1.301   1.755
  638TCM     c1 3353   3.699   2.082   4.080
  638TCM    cl1 3354   3.835   2.026   3.977
  638TCM    cl2 3355   3.763   2.184   4.213
  638TCM     h1 3356   3.629   2.140   4.019
  638TCM    cl3 3357   3.615   1.940   4.150
  639TCM     c1 3358   1.242   2.207   4.005
  639TCM    cl1 3359   1.224   2.084   4.134
  639TCM    cl2 3360   1.087   2.224   3.916
  639TCM     h1 3361   1.269   2.304   4.049
  639TCM    cl3 3362   1.370   2.156   3.891
  640TCM     c1 3363   1.182   0.389   1.732
  640TCM    cl1 3364   1.077   0.432   1.592
  640TCM    cl2 3365   1.115   0.244   1.814
  640TCM     h1 3366   1.283   0.367   1.696
  640TCM    cl3 3367   1.188   0.527   1.846
   5.00000   5.00000   5.00000
