Good gRace! Old Maple Actually Chews Slate
 3367
    1PMP     C1    1   5.279   1.820   3.004
    1PMP     O2    2   5.144   1.779   3.023
    1PMP     C3    3   5.046   1.873   3.011
    1PMP     C4    4   5.065   2.008   2.980
    1PMP     C5    5   4.956   2.097   2.971
    1PMP     C6    6   4.975   2.240   2.939
    1PMP     C7    7   5.080   2.314   2.997
    1PMP     C8    8   5.100   2.449   2.964
    1PMP     C9    9   5.014   2.513   2.874
    1PMP    C10   10   5.032   2.659   2.852
    1PMP    O11   11   5.117   2.727   2.907
    1PMP    C12   12   4.909   2.441   2.817
    1PMP    C13   13   4.891   2.305   2.848
    1PMP    C14   14   4.827   2.045   2.993
    1PMP    C15   15   4.805   1.909   3.024
    1PMP    C16   16   4.669   1.858   3.048
    1PMP    C17   17   4.575   1.931   3.122
    1PMP    C18   18   4.446   1.883   3.142
    1PMP    C19   19   4.408   1.758   3.090
    1PMP    C20   20   4.267   1.710   3.107
    1PMP    C21   21   4.265   1.592   3.204
    1PMP    N22   22   4.202   1.678   2.981
    1PMP    C23   23   4.502   1.684   3.017
    1PMP    C24   24   4.630   1.734   2.995
    1PMP    C25   25   4.918   1.826   3.033
    1PMP    H26   26   5.308   1.895   3.079
    1PMP    H27   27   5.343   1.732   3.016
    1PMP    H28   28   5.295   1.858   2.902
    1PMP    H29   29   5.165   2.046   2.961
    1PMP    H30   30   5.145   2.268   3.070
    1PMP    H31   31   5.181   2.504   3.013
    1PMP    H32   32   4.839   2.488   2.748
    1PMP    H33   33   4.808   2.253   2.800
    1PMP    H34   34   4.741   2.112   2.987
    1PMP    H35   35   4.601   2.028   3.164
    1PMP    H36   36   4.375   1.944   3.197
    1PMP    H37   37   4.206   1.789   3.151
    1PMP    H38   38   4.321   1.505   3.167
    1PMP    H39   39   4.308   1.620   3.300
    1PMP    H40   40   4.162   1.558   3.222
    1PMP    H41   41   4.120   1.620   2.993
    1PMP    H42   42   4.473   1.590   2.971
    1PMP    H43   43   4.698   1.676   2.933
    1PMP    H44   44   4.905   1.719   3.057
    2PMP    C45   45   3.579   2.380   2.680
    2PMP    O46   46   3.483   2.279   2.648
    2PMP    C47   47   3.523   2.149   2.660
    2PMP    C48   48   3.648   2.103   2.703
    2PMP    C49   49   3.676   1.966   2.711
    2PMP    C50   50   3.807   1.916   2.754
    2PMP    C51   51   3.926   1.975   2.708
    2PMP    C52   52   4.051   1.926   2.749
    2PMP    C53   53   4.059   1.817   2.837
    2PMP    C54   54   4.195   1.778   2.885
    2PMP    O55   55   4.292   1.839   2.842
    2PMP    C56   56   3.942   1.760   2.885
    2PMP    C57   57   3.818   1.809   2.844
    2PMP    C58   58   3.575   1.875   2.675
    2PMP    C59   59   3.449   1.918   2.632
    2PMP    C60   60   3.344   1.821   2.594
    2PMP    C61   61   3.376   1.706   2.520
    2PMP    C62   62   3.278   1.613   2.484
    2PMP    C63   63   3.146   1.634   2.523
    2PMP    C64   64   3.041   1.530   2.490
    2PMP    C65   65   2.948   1.581   2.381
    2PMP    N66   66   2.968   1.482   2.607
    2PMP    C67   67   3.112   1.747   2.596
    2PMP    C68   68   3.211   1.839   2.633
    2PMP    C69   69   3.425   2.056   2.625
    2PMP    H70   70   3.667   2.372   2.614
    2PMP    H71   71   3.533   2.477   2.661
    2PMP    H72   72   3.608   2.375   2.785
    2PMP    H73   73   3.725   2.174   2.732
    2PMP    H74   74   3.923   2.059   2.639
    2PMP    H75   75   4.141   1.975   2.713
    2PMP    H76   76   3.941   1.678   2.956
    2PMP    H77   77   3.728   1.762   2.885
    2PMP    H78   78   3.595   1.769   2.682
    2PMP    H79   79   3.479   1.687   2.488
    2PMP    H80   80   3.307   1.523   2.429
    2PMP    H81   81   3.092   1.440   2.451
    2PMP    H82   82   2.891   1.669   2.415
    2PMP    H83   83   3.004   1.610   2.292
    2PMP    H84   84   2.875   1.504   2.353
    2PMP    H85   85   2.883   1.435   2.583
    2PMP    H86   86   3.011   1.762   2.631
    2PMP    H87   87   3.183   1.925   2.694
    2PMP    H88   88   3.329   2.092   2.591
    3PMP    C89   89   3.279   0.601   2.917
    3PMP    O90   90   3.143   0.561   2.933
    3PMP    C91   91   3.048   0.655   2.915
    3PMP    C92   92   3.068   0.787   2.878
    3PMP    C93   93   2.960   0.876   2.861
    3PMP    C94   94   2.980   1.016   2.822
    3PMP    C95   95   3.080   1.094   2.882
    3PMP    C96   96   3.096   1.227   2.845
    3PMP    C97   97   3.013   1.287   2.751
    3PMP    C98   98   3.042   1.427   2.711
    3PMP    O99   99   3.134   1.486   2.767
    3PMP   C100  100   2.914   1.210   2.690
    3PMP   C101  101   2.898   1.077   2.727
    3PMP   C102  102   2.829   0.826   2.881
    3PMP   C103  103   2.806   0.692   2.918
    3PMP   C104  104   2.669   0.643   2.938
    3PMP   C105  105   2.573   0.721   3.005
    3PMP   C106  106   2.444   0.674   3.024
    3PMP   C107  107   2.408   0.547   2.978
    3PMP   C108  108   2.266   0.499   2.995
    3PMP   C109  109   2.261   0.387   3.099
    3PMP   N110  110   2.201   0.460   2.870
    3PMP   C111  111   2.502   0.468   2.911
    3PMP   C112  112   2.632   0.516   2.891
    3PMP   C113  113   2.917   0.609   2.934
    3PMP   H114  114   3.305   0.679   2.990
    3PMP   H115  115   3.342   0.515   2.937
    3PMP   H116  116   3.299   0.633   2.815
    3PMP   H117  117   3.168   0.825   2.861
    3PMP   H118  118   3.146   1.052   2.957
    3PMP   H119  119   3.178   1.284   2.892
    3PMP   H120  120   2.848   1.248   2.613
    3PMP   H121  121   2.820   1.019   2.676
    3PMP   H122  122   2.744   0.892   2.867
    3PMP   H123  123   2.598   0.820   3.042
    3PMP   H124  124   2.371   0.738   3.073
    3PMP   H125  125   2.204   0.582   3.033
    3PMP   H126  126   2.316   0.298   3.066
    3PMP   H127  127   2.304   0.420   3.193
    3PMP   H128  128   2.157   0.356   3.118
    3PMP   H129  129   2.117   0.407   2.885
    3PMP   H130  130   2.474   0.371   2.870
    3PMP   H131  131   2.700   0.455   2.835
    3PMP   H132  132   2.903   0.505   2.963
    4PMP   C133  133   1.595   1.146   2.506
    4PMP   O134  134   1.500   1.043   2.477
    4PMP   C135  135   1.538   0.914   2.497
    4PMP   C136  136   1.662   0.871   2.546
    4PMP   C137  137   1.689   0.735   2.563
    4PMP   C138  138   1.818   0.687   2.615
    4PMP   C139  139   1.939   0.742   2.569
    4PMP   C140  140   2.061   0.695   2.618
    4PMP   C141  141   2.065   0.591   2.713
    4PMP   C142  142   2.198   0.552   2.767
    4PMP   O143  143   2.297   0.608   2.722
    4PMP   C144  144   1.945   0.537   2.759
    4PMP   C145  145   1.823   0.585   2.711
    4PMP   C146  146   1.588   0.642   2.529
    4PMP   C147  147   1.464   0.682   2.479
    4PMP   C148  148   1.361   0.584   2.441
    4PMP   C149  149   1.394   0.467   2.372
    4PMP   C150  150   1.298   0.374   2.338
    4PMP   C151  151   1.164   0.395   2.373
    4PMP   C152  152   1.062   0.287   2.344
    4PMP   C153  153   0.969   0.335   2.233
    4PMP   N154  154   0.990   0.242   2.464
    4PMP   C155  155   1.129   0.512   2.441
    4PMP   C156  156   1.227   0.604   2.477
    4PMP   C157  157   1.441   0.820   2.464
    4PMP   H158  158   1.684   1.135   2.443
    4PMP   H159  159   1.549   1.242   2.483
    4PMP   H160  160   1.621   1.145   2.612
    4PMP   H161  161   1.738   0.943   2.575
    4PMP   H162  162   1.940   0.821   2.494
    4PMP   H163  163   2.153   0.740   2.582
    4PMP   H164  164   1.940   0.459   2.834
    4PMP   H165  165   1.731   0.541   2.750
    4PMP   H166  166   1.608   0.535   2.542
    4PMP   H167  167   1.498   0.447   2.345
    4PMP   H168  168   1.328   0.281   2.288
    4PMP   H169  169   1.113   0.197   2.308
    4PMP   H170  170   0.913   0.425   2.261
    4PMP   H171  171   1.027   0.359   2.143
    4PMP   H172  172   0.896   0.258   2.206
    4PMP   H173  173   0.906   0.189   2.447
    4PMP   H174  174   1.026   0.528   2.473
    4PMP   H175  175   1.197   0.692   2.535
    4PMP   H176  176   1.346   0.855   2.424
    5CAP   C177  177   4.868   2.820   2.829
    5CAP   O178  178   4.930   2.704   2.775
    5CAP   H179  179   4.802   2.788   2.909
    5CAP   H180  180   4.808   2.867   2.751
    5CAP   H181  181   4.940   2.894   2.867
    6CAP   C182  182   1.377   0.317   2.704
    6CAP   C183  183   1.262   0.215   2.707
    6CAP   C184  184   1.320   0.077   2.675
    6CAP   C185  185   1.197   0.221   2.845
    6CAP   O186  186   1.171   0.255   2.602
    6CAP   C187  187   1.054   0.193   2.575
    6CAP   O188  188   1.006   0.102   2.640
    6CAP   H189  189   1.452   0.295   2.781
    6CAP   H190  190   1.429   0.317   2.607
    6CAP   H191  191   1.340   0.419   2.720
    6CAP   H192  192   1.358   0.074   2.572
    6CAP   H193  193   1.242  -0.000   2.681
    6CAP   H194  194   1.401   0.051   2.743
    6CAP   H195  195   1.150   0.319   2.861
    6CAP   H196  196   1.118   0.146   2.856
    6CAP   H197  197   1.270   0.204   2.924
    1TCM     c1  198   4.317   0.322   2.676
    1TCM    cl1  199   4.428   0.433   2.594
    1TCM    cl2  200   4.314   0.359   2.850
    1TCM     h1  201   4.215   0.333   2.634
    1TCM    cl3  202   4.372   0.154   2.652
    1TCM     c1  203   1.816   2.540   4.314
    1TCM    cl1  204   1.749   2.439   4.184
    1TCM    cl2  205   1.756   2.482   4.471
    1TCM     h1  206   1.926   2.534   4.313
    1TCM    cl3  207   1.765   2.709   4.291
    1TCM     c1  208   1.847   2.306   0.941
    1TCM    cl1  209   1.759   2.391   0.811
    1TCM    cl2  210   1.802   2.133   0.939
    1TCM     h1  211   1.956   2.316   0.925
    1TCM    cl3  212   1.803   2.376   1.098
    1TCM     c1  213   2.623   0.654   3.787
    1TCM    cl1  214   2.661   0.483   3.752
    1TCM    cl2  215   2.447   0.674   3.800
    1TCM     h1  216   2.671   0.683   3.883
    1TCM    cl3  217   2.685   0.756   3.656
    1TCM     c1  218   2.183   1.899   2.833
    1TCM    cl1  219   2.127   1.731   2.846
    1TCM    cl2  220   2.158   1.956   2.666
    1TCM     h1  221   2.126   1.963   2.903
    1TCM    cl3  222   2.356   1.907   2.873
    1TCM     c1  223   5.033   1.263   0.558
    1TCM    cl1  224   5.012   1.326   0.723
    1TCM    cl2  225   5.207   1.256   0.519
    1TCM     h1  226   4.989   1.162   0.552
    1TCM    cl3  227   4.951   1.371   0.443
    1TCM     c1  228   2.711   0.898   2.515
    1TCM    cl1  229   2.626   0.801   2.392
    1TCM    cl2  230   2.884   0.856   2.514
    1TCM     h1  231   2.699   1.006   2.492
    1TCM    cl3  232   2.643   0.863   2.675
    1TCM     c1  233   3.752   4.044   4.784
    1TCM    cl1  234   3.859   4.182   4.819
    1TCM    cl2  235   3.681   4.064   4.622
    1TCM     h1  236   3.810   3.950   4.788
    1TCM    cl3  237   3.622   4.039   4.905
    1TCM     c1  238   0.777   4.167   3.471
    1TCM    cl1  239   0.602   4.158   3.440
    1TCM    cl2  240   0.857   4.025   3.401
    1TCM     h1  241   0.818   4.259   3.425
    1TCM    cl3  242   0.805   4.171   3.647
    1TCM     c1  243   3.947   1.309   2.624
    1TCM    cl1  244   4.098   1.383   2.681
    1TCM    cl2  245   3.982   1.158   2.538
    1TCM     h1  246   3.881   1.288   2.711
    1TCM    cl3  247   3.864   1.422   2.514
    1TCM     c1  248   4.927   3.086   4.436
    1TCM    cl1  249   4.986   2.968   4.556
    1TCM    cl2  250   5.011   3.241   4.459
    1TCM     h1  251   4.946   3.048   4.334
    1TCM    cl3  252   4.752   3.110   4.458
    1TCM     c1  253   0.617   2.890   1.445
    1TCM    cl1  254   0.696   2.848   1.291
    1TCM    cl2  255   0.527   2.749   1.506
    1TCM     h1  256   0.695   2.919   1.519
    1TCM    cl3  257   0.505   3.026   1.419
    1TCM     c1  258   1.530   1.901   2.454
    1TCM    cl1  259   1.501   2.076   2.466
    1TCM    cl2  260   1.656   1.870   2.332
    1TCM     h1  261   1.563   1.862   2.552
    1TCM    cl3  262   1.380   1.819   2.405
    1TCM     c1  263   4.298   4.431   0.715
    1TCM    cl1  264   4.220   4.515   0.579
    1TCM    cl2  265   4.176   4.338   0.805
    1TCM     h1  266   4.376   4.361   0.677
    1TCM    cl3  267   4.373   4.550   0.823
    1TCM     c1  268   2.566   5.255   3.730
    1TCM    cl1  269   2.468   5.340   3.608
    1TCM    cl2  270   2.553   5.340   3.886
    1TCM     h1  271   2.530   5.151   3.741
    1TCM    cl3  272   2.736   5.253   3.678
    1TCM     c1  273   2.932   1.941   3.093
    1TCM    cl1  274   2.817   2.070   3.055
    1TCM    cl2  275   2.990   1.867   2.942
    1TCM     h1  276   3.019   1.983   3.148
    1TCM    cl3  277   2.852   1.817   3.193
    1TCM     c1  278   0.680   3.116   5.018
    1TCM    cl1  279   0.647   2.942   5.038
    1TCM    cl2  280   0.574   3.182   4.892
    1TCM     h1  281   0.660   3.168   5.115
    1TCM    cl3  282   0.850   3.139   4.972
    1TCM     c1  283   4.593   3.546   2.164
    1TCM    cl1  284   4.676   3.648   2.045
    1TCM    cl2  285   4.622   3.374   2.126
    1TCM     h1  286   4.632   3.568   2.266
    1TCM    cl3  287   4.418   3.579   2.159
    1TCM     c1  288   5.200   3.670   4.888
    1TCM    cl1  289   5.055   3.668   4.786
    1TCM    cl2  290   5.229   3.836   4.945
    1TCM     h1  291   5.185   3.603   4.975
    1TCM    cl3  292   5.340   3.614   4.793
    1TCM     c1  293   2.119   1.138   3.471
    1TCM    cl1  294   2.204   1.088   3.620
    1TCM    cl2  295   2.239   1.183   3.348
    1TCM     h1  296   2.057   1.054   3.434
    1TCM    cl3  297   2.016   1.278   3.507
    1TCM     c1  298   1.336   2.068   2.734
    1TCM    cl1  299   1.315   1.924   2.632
    1TCM    cl2  300   1.387   2.017   2.897
    1TCM     h1  301   1.412   2.134   2.690
    1TCM    cl3  302   1.181   2.155   2.746
    1TCM     c1  303   3.124   4.705   4.852
    1TCM    cl1  304   3.220   4.560   4.888
    1TCM    cl2  305   2.959   4.683   4.915
    1TCM     h1  306   3.171   4.793   4.901
    1TCM    cl3  307   3.118   4.730   4.676
    1TCM     c1  308   2.717   2.483   2.009
    1TCM    cl1  309   2.745   2.311   1.970
    1TCM    cl2  310   2.726   2.506   2.185
    1TCM     h1  311   2.795   2.545   1.960
    1TCM    cl3  312   2.557   2.531   1.950
    1TCM     c1  313   2.753   2.030   5.068
    1TCM    cl1  314   2.630   1.954   4.965
    1TCM    cl2  315   2.742   1.962   5.233
    1TCM     h1  316   2.854   2.011   5.027
    1TCM    cl3  317   2.724   2.205   5.075
    1TCM     c1  318   4.903   0.280   1.325
    1TCM    cl1  319   4.892   0.453   1.288
    1TCM    cl2  320   4.960   0.258   1.492
    1TCM     h1  321   4.803   0.233   1.314
    1TCM    cl3  322   5.017   0.202   1.213
    1TCM     c1  323   3.069   0.875   1.198
    1TCM    cl1  324   3.180   0.763   1.281
    1TCM    cl2  325   3.091   0.860   1.022
    1TCM     h1  326   2.964   0.850   1.225
    1TCM    cl3  327   3.105   1.041   1.248
    1TCM     c1  328   3.947   3.279   1.888
    1TCM    cl1  329   3.830   3.196   1.992
    1TCM    cl2  330   3.944   3.205   1.726
    1TCM     h1  331   3.921   3.386   1.880
    1TCM    cl3  332   4.110   3.262   1.957
    1TCM     c1  333   1.105   0.859   3.615
    1TCM    cl1  334   1.263   0.889   3.689
    1TCM    cl2  335   0.988   0.978   3.676
    1TCM     h1  336   1.113   0.868   3.504
    1TCM    cl3  337   1.049   0.695   3.656
    1TCM     c1  338   0.695   5.194   4.113
    1TCM    cl1  339   0.770   5.064   4.209
    1TCM    cl2  340   0.674   5.139   3.945
    1TCM     h1  341   0.596   5.219   4.156
    1TCM    cl3  342   0.799   5.338   4.115
    1TCM     c1  343   2.828   3.713   3.503
    1TCM    cl1  344   2.920   3.580   3.576
    1TCM    cl2  345   2.775   3.825   3.630
    1TCM     h1  346   2.892   3.767   3.430
    1TCM    cl3  347   2.686   3.647   3.418
    1TCM     c1  348   0.426   0.914   2.430
    1TCM    cl1  349   0.304   0.883   2.556
    1TCM    cl2  350   0.357   0.876   2.270
    1TCM     h1  351   0.457   1.020   2.433
    1TCM    cl3  352   0.568   0.811   2.459
    1TCM     c1  353   4.950   1.988   2.132
    1TCM    cl1  354   5.108   1.909   2.113
    1TCM    cl2  355   4.877   2.013   1.972
    1TCM     h1  356   4.884   1.923   2.194
    1TCM    cl3  357   4.971   2.145   2.213
    1TCM     c1  358   1.255   3.574   2.317
    1TCM    cl1  359   1.139   3.543   2.185
    1TCM    cl2  360   1.379   3.447   2.318
    1TCM     h1  361   1.303   3.673   2.301
    1TCM    cl3  362   1.169   3.575   2.472
    1TCM     c1  363   3.918   1.427   2.059
    1TCM    cl1  364   3.756   1.494   2.088
    1TCM    cl2  365   4.029   1.559   2.013
    1TCM     h1  366   3.955   1.378   2.151
    1TCM    cl3  367   3.910   1.308   1.927
    1TCM     c1  368   0.828   2.215   2.125
    1TCM    cl1  369   0.956   2.262   2.240
    1TCM    cl2  370   0.818   2.037   2.118
    1TCM     h1  371   0.731   2.256   2.159
    1TCM    cl3  372   0.867   2.279   1.964
    1TCM     c1  373   2.139   3.764   1.794
    1TCM    cl1  374   2.095   3.638   1.911
    1TCM    cl2  375   2.089   3.714   1.631
    1TCM     h1  376   2.088   3.859   1.821
    1TCM    cl3  377   2.315   3.789   1.797
    1TCM     c1  378   1.038   4.524   1.127
    1TCM    cl1  379   0.945   4.472   1.269
    1TCM    cl2  380   1.020   4.699   1.105
    1TCM     h1  381   1.146   4.499   1.142
    1TCM    cl3  382   0.978   4.439   0.982
    1TCM     c1  383   0.241   1.301   4.810
    1TCM    cl1  384   0.370   1.230   4.709
    1TCM    cl2  385   0.300   1.319   4.977
    1TCM     h1  386   0.213   1.400   4.770
    1TCM    cl3  387   0.099   1.194   4.809
    1TCM     c1  388   1.333   3.875   4.784
    1TCM    cl1  389   1.430   3.979   4.891
    1TCM    cl2  390   1.402   3.879   4.620
    1TCM     h1  391   1.334   3.772   4.822
    1TCM    cl3  392   1.166   3.935   4.778
    1TCM     c1  393   0.327   0.755   4.837
    1TCM    cl1  394   0.252   0.615   4.756
    1TCM    cl2  395   0.469   0.700   4.929
    1TCM     h1  396   0.359   0.830   4.761
    1TCM    cl3  397   0.209   0.829   4.948
    1TCM     c1  398   1.111   4.298   2.243
    1TCM    cl1  399   0.992   4.334   2.371
    1TCM    cl2  400   1.217   4.439   2.220
    1TCM     h1  401   1.172   4.210   2.273
    1TCM    cl3  402   1.025   4.263   2.091
    1TCM     c1  403   3.685   4.099   0.158
    1TCM    cl1  404   3.802   3.987   0.230
    1TCM    cl2  405   3.770   4.242   0.096
    1TCM     h1  406   3.631   4.049   0.075
    1TCM    cl3  407   3.568   4.150   0.282
    1TCM     c1  408   1.617   1.542   1.414
    1TCM    cl1  409   1.498   1.525   1.284
    1TCM    cl2  410   1.722   1.682   1.381
    1TCM     h1  411   1.564   1.558   1.511
    1TCM    cl3  412   1.716   1.395   1.424
    1TCM     c1  413   3.497   0.645   2.298
    1TCM    cl1  414   3.397   0.734   2.181
    1TCM    cl2  415   3.393   0.540   2.397
    1TCM     h1  416   3.571   0.583   2.243
    1TCM    cl3  417   3.582   0.760   2.403
    1TCM     c1  418   0.135   0.635   1.990
    1TCM    cl1  419   0.309   0.601   1.971
    1TCM    cl2  420   0.066   0.678   1.832
    1TCM     h1  421   0.084   0.544   2.029
    1TCM    cl3  422   0.112   0.770   2.103
    1TCM     c1  423   3.846   2.586   1.107
    1TCM    cl1  424   3.714   2.670   1.193
    1TCM    cl2  425   3.853   2.417   1.161
    1TCM     h1  426   3.826   2.589   0.998
    1TCM    cl3  427   4.000   2.667   1.143
    1TCM     c1  428   4.174   0.099   0.776
    1TCM    cl1  429   4.305   0.026   0.681
    1TCM    cl2  430   4.216   0.096   0.948
    1TCM     h1  431   4.159   0.205   0.743
    1TCM    cl3  432   4.023   0.008   0.750
    1TCM     c1  433   4.891   1.793   3.420
    1TCM    cl1  434   4.866   1.939   3.519
    1TCM    cl2  435   4.927   1.842   3.253
    1TCM     h1  436   4.976   1.735   3.461
    1TCM    cl3  437   4.744   1.694   3.422
    1TCM     c1  438   2.018   3.608   2.415
    1TCM    cl1  439   1.842   3.590   2.427
    1TCM    cl2  440   2.097   3.481   2.511
    1TCM     h1  441   2.049   3.599   2.309
    1TCM    cl3  442   2.066   3.767   2.477
    1TCM     c1  443   0.580   0.263   4.874
    1TCM    cl1  444   0.469   0.177   4.765
    1TCM    cl2  445   0.710   0.153   4.925
    1TCM     h1  446   0.623   0.351   4.822
    1TCM    cl3  447   0.490   0.318   5.018
    1TCM     c1  448   4.552   0.637   4.527
    1TCM    cl1  449   4.680   0.521   4.488
    1TCM    cl2  450   4.615   0.758   4.641
    1TCM     h1  451   4.518   0.687   4.435
    1TCM    cl3  452   4.415   0.551   4.602
    1TCM     c1  453   3.867   4.682   1.528
    1TCM    cl1  454   3.910   4.819   1.423
    1TCM    cl2  455   3.830   4.742   1.691
    1TCM     h1  456   3.778   4.630   1.487
    1TCM    cl3  457   4.004   4.569   1.536
    1TCM     c1  458   4.502   4.561   4.900
    1TCM    cl1  459   4.544   4.575   5.072
    1TCM    cl2  460   4.435   4.715   4.843
    1TCM     h1  461   4.593   4.536   4.842
    1TCM    cl3  462   4.381   4.432   4.879
    1TCM     c1  463   3.992   4.305   1.760
    1TCM    cl1  464   4.118   4.379   1.660
    1TCM    cl2  465   4.000   4.372   1.925
    1TCM     h1  466   3.892   4.327   1.717
    1TCM    cl3  467   4.016   4.129   1.766
    1TCM     c1  468   3.872   4.045   3.393
    1TCM    cl1  469   3.894   3.972   3.553
    1TCM    cl2  470   4.026   4.037   3.303
    1TCM     h1  471   3.794   3.990   3.337
    1TCM    cl3  472   3.824   4.215   3.411
    1TCM     c1  473   0.369   0.902   3.421
    1TCM    cl1  474   0.536   0.843   3.417
    1TCM    cl2  475   0.280   0.835   3.282
    1TCM     h1  476   0.320   0.871   3.515
    1TCM    cl3  477   0.369   1.080   3.410
    1TCM     c1  478   3.052   2.652   2.853
    1TCM    cl1  479   2.943   2.511   2.855
    1TCM    cl2  480   3.056   2.725   3.015
    1TCM     h1  481   3.154   2.619   2.824
    1TCM    cl3  482   2.992   2.771   2.735
    1TCM     c1  483   3.781   2.456   2.362
    1TCM    cl1  484   3.861   2.588   2.450
    1TCM    cl2  485   3.854   2.439   2.201
    1TCM     h1  486   3.794   2.361   2.418
    1TCM    cl3  487   3.608   2.491   2.346
    1TCM     c1  488   5.013   0.718   2.472
    1TCM    cl1  489   4.873   0.631   2.539
    1TCM    cl2  490   4.983   0.757   2.301
    1TCM     h1  491   5.029   0.811   2.529
    1TCM    cl3  492   5.158   0.615   2.484
    1TCM     c1  493   0.439   0.143   3.067
    1TCM    cl1  494   0.338   0.001   3.032
    1TCM    cl2  495   0.344   0.291   3.045
    1TCM     h1  496   0.475   0.137   3.172
    1TCM    cl3  497   0.579   0.145   2.957
    1TCM     c1  498   5.244   3.677   1.385
    1TCM    cl1  499   5.340   3.529   1.363
    1TCM    cl2  500   5.096   3.667   1.287
    1TCM     h1  501   5.216   3.688   1.492
    1TCM    cl3  502   5.339   3.818   1.335
    1TCM     c1  503   1.541   3.317   0.917
    1TCM    cl1  504   1.398   3.244   0.839
    1TCM    cl2  505   1.539   3.279   1.091
    1TCM     h1  506   1.633   3.277   0.871
    1TCM    cl3  507   1.536   3.493   0.896
    1TCM     c1  508   4.862   0.134   2.165
    1TCM    cl1  509   4.689   0.100   2.192
    1TCM    cl2  510   4.899   0.119   1.992
    1TCM     h1  511   4.885   0.237   2.200
    1TCM    cl3  512   4.960   0.018   2.257
    1TCM     c1  513   2.687   4.488   4.197
    1TCM    cl1  514   2.679   4.638   4.102
    1TCM    cl2  515   2.697   4.528   4.370
    1TCM     h1  516   2.595   4.428   4.179
    1TCM    cl3  517   2.830   4.394   4.149
    1TCM     c1  518   4.669   1.726   0.350
    1TCM    cl1  519   4.611   1.657   0.197
    1TCM    cl2  520   4.658   1.904   0.343
    1TCM     h1  521   4.608   1.688   0.434
    1TCM    cl3  522   4.839   1.679   0.376
    1TCM     c1  523   2.928   4.748   4.431
    1TCM    cl1  524   2.806   4.824   4.536
    1TCM    cl2  525   2.901   4.799   4.263
    1TCM     h1  526   3.029   4.779   4.464
    1TCM    cl3  527   2.914   4.571   4.443
    1TCM     c1  528   3.803   4.163   2.088
    1TCM    cl1  529   3.786   4.335   2.045
    1TCM    cl2  530   3.763   4.141   2.260
    1TCM     h1  531   3.734   4.102   2.026
    1TCM    cl3  532   3.970   4.111   2.058
    1TCM     c1  533   0.951   0.273   3.497
    1TCM    cl1  534   0.804   0.362   3.541
    1TCM    cl2  535   0.951   0.241   3.322
    1TCM     h1  536   1.040   0.333   3.524
    1TCM    cl3  537   0.955   0.118   3.586
    1TCM     c1  538   0.907   1.373   2.597
    1TCM    cl1  539   1.029   1.488   2.538
    1TCM    cl2  540   0.946   1.326   2.764
    1TCM     h1  541   0.807   1.421   2.595
    1TCM    cl3  542   0.907   1.229   2.493
    1TCM     c1  543   1.140   0.823   2.257
    1TCM    cl1  544   1.294   0.903   2.215
    1TCM    cl2  545   1.081   0.886   2.412
    1TCM     h1  546   1.066   0.844   2.178
    1TCM    cl3  547   1.166   0.648   2.270
    1TCM     c1  548   2.905   1.150   3.937
    1TCM    cl1  549   2.858   1.000   4.020
    1TCM    cl2  550   2.766   1.213   3.846
    1TCM     h1  551   2.938   1.225   4.011
    1TCM    cl3  552   3.038   1.116   3.824
    1TCM     c1  553   4.619   5.128   1.269
    1TCM    cl1  554   4.762   5.123   1.163
    1TCM    cl2  555   4.670   5.165   1.435
    1TCM     h1  556   4.550   5.207   1.233
    1TCM    cl3  557   4.537   4.971   1.265
    1TCM     c1  558   0.525   4.430   0.318
    1TCM    cl1  559   0.690   4.369   0.294
    1TCM    cl2  560   0.502   4.470   0.490
    1TCM     h1  561   0.510   4.522   0.257
    1TCM    cl3  562   0.407   4.306   0.270
    1TCM     c1  563   2.440   3.421   2.257
    1TCM    cl1  564   2.407   3.395   2.085
    1TCM    cl2  565   2.600   3.354   2.298
    1TCM     h1  566   2.439   3.530   2.280
    1TCM    cl3  567   2.315   3.339   2.354
    1TCM     c1  568   0.348   3.142   1.104
    1TCM    cl1  569   0.392   3.244   0.965
    1TCM    cl2  570   0.413   3.214   1.253
    1TCM     h1  571   0.238   3.135   1.111
    1TCM    cl3  572   0.417   2.979   1.081
    1TCM     c1  573   3.364   3.634   1.049
    1TCM    cl1  574   3.488   3.743   0.984
    1TCM    cl2  575   3.388   3.614   1.224
    1TCM     h1  576   3.263   3.677   1.030
    1TCM    cl3  577   3.376   3.476   0.968
    1TCM     c1  578   3.200   3.078   4.938
    1TCM    cl1  579   3.373   3.048   4.908
    1TCM    cl2  580   3.180   3.152   5.099
    1TCM     h1  581   3.160   3.146   4.861
    1TCM    cl3  582   3.111   2.924   4.933
    1TCM     c1  583   1.105   1.224   1.946
    1TCM    cl1  584   0.998   1.131   1.839
    1TCM    cl2  585   1.018   1.368   2.006
    1TCM     h1  586   1.135   1.161   2.032
    1TCM    cl3  587   1.249   1.275   1.856
    1TCM     c1  588   1.973   2.669   4.772
    1TCM    cl1  589   1.914   2.648   4.938
    1TCM    cl2  590   1.878   2.795   4.690
    1TCM     h1  591   2.080   2.699   4.774
    1TCM    cl3  592   1.956   2.516   4.683
    1TCM     c1  593   2.253   4.136   4.133
    1TCM    cl1  594   2.109   4.146   4.030
    1TCM    cl2  595   2.204   4.098   4.300
    1TCM     h1  596   2.321   4.056   4.095
    1TCM    cl3  597   2.339   4.292   4.130
    1TCM     c1  598   0.788   0.349   0.134
    1TCM    cl1  599   0.878   0.221   0.218
    1TCM    cl2  600   0.766   0.488   0.244
    1TCM     h1  601   0.844   0.381   0.044
    1TCM    cl3  602   0.628   0.287   0.086
    1TCM     c1  603   1.120   0.650   2.944
    1TCM    cl1  604   1.049   0.758   3.067
    1TCM    cl2  605   1.026   0.662   2.794
    1TCM     h1  606   1.225   0.681   2.925
    1TCM    cl3  607   1.117   0.483   3.003
    1TCM     c1  608   4.526   3.224   3.252
    1TCM    cl1  609   4.585   3.104   3.135
    1TCM    cl2  610   4.361   3.273   3.208
    1TCM     h1  611   4.526   3.180   3.354
    1TCM    cl3  612   4.632   3.367   3.250
    1TCM     c1  613   3.187   4.788   5.222
    1TCM    cl1  614   3.126   4.925   5.126
    1TCM    cl2  615   3.349   4.828   5.284
    1TCM     h1  616   3.119   4.769   5.307
    1TCM    cl3  617   3.197   4.643   5.120
    1TCM     c1  618   1.827   0.144   3.538
    1TCM    cl1  619   1.985   0.065   3.513
    1TCM    cl2  620   1.816   0.204   3.705
    1TCM     h1  621   1.817   0.229   3.467
    1TCM    cl3  622   1.697   0.027   3.508
    1TCM     c1  623   0.982   0.798   4.063
    1TCM    cl1  624   0.804   0.797   4.068
    1TCM    cl2  625   1.038   0.686   3.936
    1TCM     h1  626   1.018   0.900   4.041
    1TCM    cl3  627   1.046   0.745   4.220
    1TCM     c1  628   2.043   5.156   2.391
    1TCM    cl1  629   2.149   5.201   2.527
    1TCM    cl2  630   1.882   5.115   2.452
    1TCM     h1  631   2.035   5.242   2.320
    1TCM    cl3  632   2.112   5.016   2.306
    1TCM     c1  633   1.273   1.247   2.473
    1TCM    cl1  634   1.382   1.380   2.518
    1TCM    cl2  635   1.143   1.309   2.369
    1TCM     h1  636   1.331   1.170   2.417
    1TCM    cl3  637   1.203   1.174   2.619
    1TCM     c1  638   1.623   1.628   0.169
    1TCM    cl1  639   1.512   1.691   0.046
    1TCM    cl2  640   1.530   1.546   0.296
    1TCM     h1  641   1.694   1.556   0.123
    1TCM    cl3  642   1.714   1.763   0.241
    1TCM     c1  643   4.236   3.109   2.490
    1TCM    cl1  644   4.143   3.258   2.464
    1TCM    cl2  645   4.378   3.109   2.383
    1TCM     h1  646   4.269   3.104   2.596
    1TCM    cl3  647   4.134   2.968   2.453
    1TCM     c1  648   2.917   4.889   1.441
    1TCM    cl1  649   2.999   4.957   1.583
    1TCM    cl2  650   2.859   4.725   1.478
    1TCM     h1  651   2.831   4.954   1.413
    1TCM    cl3  652   3.031   4.882   1.304
    1TCM     c1  653   4.317   2.463   3.343
    1TCM    cl1  654   4.385   2.321   3.425
    1TCM    cl2  655   4.287   2.424   3.172
    1TCM     h1  656   4.221   2.492   3.392
    1TCM    cl3  657   4.432   2.598   3.354
    1TCM     c1  658   4.295   0.757   3.693
    1TCM    cl1  659   4.460   0.758   3.759
    1TCM    cl2  660   4.301   0.715   3.520
    1TCM     h1  661   4.234   0.683   3.747
    1TCM    cl3  662   4.223   0.919   3.712
    1TCM     c1  663   4.249   0.981   3.313
    1TCM    cl1  664   4.366   0.884   3.221
    1TCM    cl2  665   4.329   1.053   3.454
    1TCM     h1  666   4.208   1.061   3.248
    1TCM    cl3  667   4.116   0.876   3.367
    1TCM     c1  668   2.089   0.271   3.403
    1TCM    cl1  669   2.195   0.412   3.384
    1TCM    cl2  670   2.188   0.124   3.414
    1TCM     h1  671   2.029   0.282   3.496
    1TCM    cl3  672   1.980   0.259   3.263
    1TCM     c1  673   0.537   4.481   3.680
    1TCM    cl1  674   0.386   4.509   3.771
    1TCM    cl2  675   0.533   4.575   3.529
    1TCM     h1  676   0.623   4.513   3.742
    1TCM    cl3  677   0.551   4.308   3.642
    1TCM     c1  678   0.294   1.931   4.789
    1TCM    cl1  679   0.201   1.933   4.941
    1TCM    cl2  680   0.381   2.085   4.770
    1TCM     h1  681   0.366   1.847   4.791
    1TCM    cl3  682   0.182   1.910   4.652
    1TCM     c1  683   1.096   5.126   5.231
    1TCM    cl1  684   1.061   5.262   5.339
    1TCM    cl2  685   1.094   5.182   5.062
    1TCM     h1  686   1.196   5.084   5.255
    1TCM    cl3  687   0.972   5.000   5.253
    1TCM     c1  688   0.865   2.226   1.203
    1TCM    cl1  689   0.951   2.381   1.200
    1TCM    cl2  690   0.878   2.148   1.044
    1TCM     h1  691   0.910   2.160   1.280
    1TCM    cl3  692   0.693   2.254   1.241
    1TCM     c1  693   4.828   1.697   2.309
    1TCM    cl1  694   4.838   1.843   2.410
    1TCM    cl2  695   4.753   1.565   2.402
    1TCM     h1  696   4.767   1.718   2.219
    1TCM    cl3  697   4.992   1.648   2.259
    1TCM     c1  698   2.703   1.475   2.702
    1TCM    cl1  699   2.668   1.366   2.566
    1TCM    cl2  700   2.835   1.407   2.799
    1TCM     h1  701   2.733   1.574   2.663
    1TCM    cl3  702   2.557   1.492   2.803
    1TCM     c1  703   3.185   0.515   2.530
    1TCM    cl1  704   3.036   0.541   2.622
    1TCM    cl2  705   3.164   0.576   2.364
    1TCM     h1  706   3.269   0.569   2.578
    1TCM    cl3  707   3.222   0.341   2.524
    1TCM     c1  708   2.399   4.662   1.099
    1TCM    cl1  709   2.261   4.635   1.208
    1TCM    cl2  710   2.339   4.710   0.938
    1TCM     h1  711   2.464   4.743   1.139
    1TCM    cl3  712   2.494   4.512   1.084
    1TCM     c1  713   0.560   3.432   4.068
    1TCM    cl1  714   0.550   3.290   4.174
    1TCM    cl2  715   0.687   3.542   4.128
    1TCM     h1  716   0.585   3.400   3.964
    1TCM    cl3  717   0.404   3.516   4.067
    1TCM     c1  718   2.500   0.134   1.745
    1TCM    cl1  719   2.517   0.000   1.860
    1TCM    cl2  720   2.484   0.070   1.580
    1TCM     h1  721   2.410   0.193   1.771
    1TCM    cl3  722   2.644   0.239   1.754
    1TCM     c1  723   2.671   4.920   3.736
    1TCM    cl1  724   2.701   4.871   3.568
    1TCM    cl2  725   2.738   4.799   3.847
    1TCM     h1  726   2.719   5.019   3.755
    1TCM    cl3  727   2.495   4.934   3.762
    1TCM     c1  728   3.685   3.574   4.899
    1TCM    cl1  729   3.844   3.639   4.947
    1TCM    cl2  730   3.697   3.504   4.736
    1TCM     h1  731   3.654   3.496   4.971
    1TCM    cl3  732   3.566   3.705   4.899
    1TCM     c1  733   1.830   0.192   4.857
    1TCM    cl1  734   1.922   0.281   4.982
    1TCM    cl2  735   1.924   0.188   4.706
    1TCM     h1  736   1.811   0.089   4.892
    1TCM    cl3  737   1.675   0.275   4.828
    1TCM     c1  738   3.422   3.748   1.914
    1TCM    cl1  739   3.249   3.709   1.896
    1TCM    cl2  740   3.468   3.730   2.085
    1TCM     h1  741   3.482   3.680   1.852
    1TCM    cl3  742   3.450   3.916   1.863
    1TCM     c1  743   0.168   2.648   2.216
    1TCM    cl1  744   0.019   2.678   2.308
    1TCM    cl2  745   0.292   2.765   2.265
    1TCM     h1  746   0.204   2.545   2.236
    1TCM    cl3  747   0.135   2.666   2.042
    1TCM     c1  748   1.856   0.888   3.583
    1TCM    cl1  749   1.791   0.757   3.684
    1TCM    cl2  750   1.933   0.819   3.438
    1TCM     h1  751   1.773   0.955   3.552
    1TCM    cl3  752   1.976   0.981   3.675
    1TCM     c1  753   1.445   4.577   3.675
    1TCM    cl1  754   1.618   4.556   3.638
    1TCM    cl2  755   1.411   4.512   3.838
    1TCM     h1  756   1.420   4.685   3.673
    1TCM    cl3  757   1.347   4.490   3.555
    1TCM     c1  758   1.288   3.253   3.565
    1TCM    cl1  759   1.441   3.177   3.613
    1TCM    cl2  760   1.260   3.398   3.663
    1TCM     h1  761   1.293   3.281   3.457
    1TCM    cl3  762   1.154   3.138   3.590
    1TCM     c1  763   4.843   2.337   2.470
    1TCM    cl1  764   4.730   2.319   2.605
    1TCM    cl2  765   4.938   2.188   2.452
    1TCM     h1  766   4.786   2.356   2.376
    1TCM    cl3  767   4.953   2.473   2.502
    1TCM     c1  768   2.344   1.442   1.856
    1TCM    cl1  769   2.339   1.266   1.886
    1TCM    cl2  770   2.387   1.472   1.686
    1TCM     h1  771   2.244   1.485   1.877
    1TCM    cl3  772   2.465   1.517   1.962
    1TCM     c1  773   1.276   0.153   3.659
    1TCM    cl1  774   1.245   0.010   3.761
    1TCM    cl2  775   1.254   0.109   3.488
    1TCM     h1  776   1.204   0.233   3.686
    1TCM    cl3  777   1.442   0.211   3.685
    1TCM     c1  778   4.380   3.826   2.774
    1TCM    cl1  779   4.422   3.825   2.947
    1TCM    cl2  780   4.363   3.658   2.717
    1TCM     h1  781   4.285   3.881   2.759
    1TCM    cl3  782   4.510   3.907   2.682
    1TCM     c1  783   4.454   1.324   4.037
    1TCM    cl1  784   4.327   1.248   3.939
    1TCM    cl2  785   4.439   1.270   4.206
    1TCM     h1  786   4.553   1.295   3.997
    1TCM    cl3  787   4.436   1.501   4.030
    1TCM     c1  788   3.876   2.125   2.409
    1TCM    cl1  789   3.945   1.964   2.439
    1TCM    cl2  790   3.951   2.244   2.519
    1TCM     h1  791   3.895   2.155   2.304
    1TCM    cl3  792   3.701   2.121   2.438
    1TCM     c1  793   4.999   4.047   3.300
    1TCM    cl1  794   4.875   3.980   3.409
    1TCM    cl2  795   4.977   3.979   3.137
    1TCM     h1  796   4.989   4.157   3.296
    1TCM    cl3  797   5.160   4.005   3.361
    1TCM     c1  798   0.500   1.837   0.563
    1TCM    cl1  799   0.552   1.995   0.627
    1TCM    cl2  800   0.519   1.713   0.689
    1TCM     h1  801   0.394   1.842   0.533
    1TCM    cl3  802   0.601   1.794   0.423
    1TCM     c1  803   3.621   1.774   3.677
    1TCM    cl1  804   3.796   1.748   3.682
    1TCM    cl2  805   3.581   1.883   3.543
    1TCM     h1  806   3.569   1.677   3.662
    1TCM    cl3  807   3.567   1.846   3.830
    1TCM     c1  808   1.388   2.424   3.007
    1TCM    cl1  809   1.520   2.304   3.009
    1TCM    cl2  810   1.383   2.502   2.847
    1TCM     h1  811   1.291   2.374   3.027
    1TCM    cl3  812   1.418   2.547   3.132
    1TCM     c1  813   0.340   3.032   0.164
    1TCM    cl1  814   0.465   3.093   0.274
    1TCM    cl2  815   0.406   3.016   0.000
    1TCM     h1  816   0.306   2.932   0.200
    1TCM    cl3  817   0.202   3.144   0.162
    1TCM     c1  818   0.839   4.609   4.984
    1TCM    cl1  819   0.828   4.438   4.935
    1TCM    cl2  820   0.851   4.619   5.161
    1TCM     h1  821   0.929   4.654   4.938
    1TCM    cl3  822   0.694   4.696   4.929
    1TCM     c1  823   4.730   4.787   0.192
    1TCM    cl1  824   4.851   4.908   0.143
    1TCM    cl2  825   4.654   4.838   0.345
    1TCM     h1  826   4.652   4.779   0.113
    1TCM    cl3  827   4.809   4.630   0.214
    1TCM     c1  828   0.709   1.461   0.741
    1TCM    cl1  829   0.608   1.532   0.869
    1TCM    cl2  830   0.665   1.531   0.584
    1TCM     h1  831   0.816   1.482   0.763
    1TCM    cl3  832   0.683   1.285   0.736
    1TCM     c1  833   2.448   0.353   3.591
    1TCM    cl1  834   2.389   0.514   3.638
    1TCM    cl2  835   2.447   0.245   3.732
    1TCM     h1  836   2.382   0.311   3.512
    1TCM    cl3  837   2.614   0.367   3.528
    1TCM     c1  838   0.507   1.529   3.342
    1TCM    cl1  839   0.652   1.632   3.332
    1TCM    cl2  840   0.473   1.494   3.513
    1TCM     h1  841   0.421   1.582   3.297
    1TCM    cl3  842   0.536   1.377   3.255
    1TCM     c1  843   0.389   4.475   5.030
    1TCM    cl1  844   0.402   4.407   4.866
    1TCM    cl2  845   0.254   4.397   5.115
    1TCM     h1  846   0.483   4.457   5.085
    1TCM    cl3  847   0.359   4.650   5.019
    1TCM     c1  848   4.328   1.381   2.196
    1TCM    cl1  849   4.272   1.271   2.068
    1TCM    cl2  850   4.255   1.333   2.351
    1TCM     h1  851   4.438   1.375   2.204
    1TCM    cl3  852   4.279   1.547   2.157
    1TCM     c1  853   1.496   0.660   1.816
    1TCM    cl1  854   1.622   0.672   1.690
    1TCM    cl2  855   1.430   0.495   1.817
    1TCM     h1  856   1.541   0.683   1.915
    1TCM    cl3  857   1.366   0.776   1.780
    1TCM     c1  858   0.158   5.168   3.563
    1TCM    cl1  859   0.143   5.247   3.405
    1TCM    cl2  860   0.275   5.034   3.552
    1TCM     h1  861   0.194   5.242   3.638
    1TCM    cl3  862   0.000   5.105   3.613
    1TCM     c1  863   2.192   1.852   3.550
    1TCM    cl1  864   2.246   1.953   3.414
    1TCM    cl2  865   2.078   1.945   3.650
    1TCM     h1  866   2.142   1.762   3.511
    1TCM    cl3  867   2.333   1.806   3.648
    1TCM     c1  868   2.684   3.550   3.802
    1TCM    cl1  869   2.536   3.558   3.901
    1TCM    cl2  870   2.647   3.609   3.638
    1TCM     h1  871   2.762   3.614   3.847
    1TCM    cl3  872   2.741   3.382   3.793
    1TCM     c1  873   0.880   1.439   3.695
    1TCM    cl1  874   0.958   1.341   3.568
    1TCM    cl2  875   0.977   1.431   3.844
    1TCM     h1  876   0.873   1.544   3.661
    1TCM    cl3  877   0.717   1.376   3.726
    1TCM     c1  878   0.758   4.416   1.915
    1TCM    cl1  879   0.935   4.437   1.911
    1TCM    cl2  880   0.680   4.573   1.943
    1TCM     h1  881   0.723   4.374   1.819
    1TCM    cl3  882   0.715   4.304   2.047
    1TCM     c1  883   3.747   4.184   2.580
    1TCM    cl1  884   3.760   4.339   2.495
    1TCM    cl2  885   3.706   4.056   2.464
    1TCM     h1  886   3.845   4.161   2.629
    1TCM    cl3  887   3.621   4.195   2.704
    1TCM     c1  888   0.661   2.536   3.567
    1TCM    cl1  889   0.518   2.491   3.662
    1TCM    cl2  890   0.710   2.398   3.465
    1TCM     h1  891   0.637   2.623   3.502
    1TCM    cl3  892   0.794   2.579   3.676
    1TCM     c1  893   1.823   3.959   1.816
    1TCM    cl1  894   1.942   4.026   1.931
    1TCM    cl2  895   1.884   3.806   1.751
    1TCM     h1  896   1.727   3.941   1.868
    1TCM    cl3  897   1.798   4.074   1.683
    1TCM     c1  898   1.637   1.485   2.602
    1TCM    cl1  899   1.720   1.617   2.688
    1TCM    cl2  900   1.755   1.357   2.562
    1TCM     h1  901   1.557   1.443   2.666
    1TCM    cl3  902   1.566   1.548   2.451
    1TCM     c1  903   3.948   0.163   4.029
    1TCM    cl1  904   3.968   0.291   4.151
    1TCM    cl2  905   3.847   0.033   4.096
    1TCM     h1  906   3.899   0.205   3.939
    1TCM    cl3  907   4.108   0.097   3.985
    1TCM     c1  908   0.170   4.529   4.557
    1TCM    cl1  909   0.061   4.436   4.452
    1TCM    cl2  910   0.160   4.466   4.724
    1TCM     h1  911   0.274   4.519   4.521
    1TCM    cl3  912   0.122   4.700   4.556
    1TCM     c1  913   1.119   1.776   0.763
    1TCM    cl1  914   1.129   1.637   0.873
    1TCM    cl2  915   1.082   1.720   0.599
    1TCM     h1  916   1.039   1.845   0.798
    1TCM    cl3  917   1.275   1.862   0.763
    1TCM     c1  918   2.666   2.810   0.255
    1TCM    cl1  919   2.841   2.818   0.225
    1TCM    cl2  920   2.636   2.722   0.407
    1TCM     h1  921   2.625   2.913   0.264
    1TCM    cl3  922   2.586   2.726   0.121
    1TCM     c1  923   3.668   1.395   3.434
    1TCM    cl1  924   3.835   1.454   3.412
    1TCM    cl2  925   3.670   1.238   3.517
    1TCM     h1  926   3.610   1.469   3.494
    1TCM    cl3  927   3.591   1.376   3.274
    1TCM     c1  928   3.498   0.305   1.956
    1TCM    cl1  929   3.499   0.443   2.067
    1TCM    cl2  930   3.651   0.216   1.970
    1TCM     h1  931   3.414   0.237   1.981
    1TCM    cl3  932   3.479   0.363   1.789
    1TCM     c1  933   4.121   2.685   1.517
    1TCM    cl1  934   4.222   2.734   1.655
    1TCM    cl2  935   4.105   2.508   1.516
    1TCM     h1  936   4.021   2.731   1.527
    1TCM    cl3  937   4.196   2.739   1.365
    1TCM     c1  938   3.003   4.263   2.672
    1TCM    cl1  939   2.921   4.403   2.745
    1TCM    cl2  940   3.079   4.311   2.519
    1TCM     h1  941   3.080   4.225   2.742
    1TCM    cl3  942   2.884   4.134   2.641
    1TCM     c1  943   4.442   1.101   2.768
    1TCM    cl1  944   4.495   1.071   2.935
    1TCM    cl2  945   4.584   1.122   2.664
    1TCM     h1  946   4.382   1.014   2.732
    1TCM    cl3  947   4.342   1.248   2.763
    1TCM     c1  948   1.086   2.102   4.960
    1TCM    cl1  949   1.152   1.991   5.083
    1TCM    cl2  950   1.208   2.225   4.920
    1TCM     h1  951   1.060   2.044   4.869
    1TCM    cl3  952   0.940   2.181   5.024
    1TCM     c1  953   2.446   4.621   4.586
    1TCM    cl1  954   2.292   4.709   4.595
    1TCM    cl2  955   2.482   4.584   4.416
    1TCM     h1  956   2.527   4.683   4.628
    1TCM    cl3  957   2.433   4.469   4.678
    1TCM     c1  958   2.323   5.133   5.141
    1TCM    cl1  959   2.263   5.010   5.255
    1TCM    cl2  960   2.457   5.064   5.045
    1TCM     h1  961   2.241   5.164   5.073
    1TCM    cl3  962   2.382   5.274   5.232
    1TCM     c1  963   1.994   1.203   2.989
    1TCM    cl1  964   2.156   1.136   3.020
    1TCM    cl2  965   2.008   1.369   2.929
    1TCM     h1  966   1.942   1.140   2.914
    1TCM    cl3  967   1.901   1.203   3.141
    1TCM     c1  968   1.944   2.217   5.137
    1TCM    cl1  969   1.914   2.042   5.140
    1TCM    cl2  970   2.025   2.266   5.287
    1TCM     h1  971   2.008   2.242   5.049
    1TCM    cl3  972   1.788   2.303   5.123
    1TCM     c1  973   2.303   1.810   1.679
    1TCM    cl1  974   2.127   1.803   1.702
    1TCM    cl2  975   2.380   1.867   1.829
    1TCM     h1  976   2.342   1.709   1.653
    1TCM    cl3  977   2.341   1.923   1.546
    1TCM     c1  978   2.656   2.765   0.884
    1TCM    cl1  979   2.724   2.821   1.038
    1TCM    cl2  980   2.491   2.829   0.865
    1TCM     h1  981   2.719   2.800   0.800
    1TCM    cl3  982   2.650   2.587   0.883
    1TCM     c1  983   3.074   1.872   2.010
    1TCM    cl1  984   2.996   1.994   2.113
    1TCM    cl2  985   3.080   1.931   1.842
    1TCM     h1  986   3.177   1.853   2.046
    1TCM    cl3  987   2.981   1.720   2.016
    1TCM     c1  988   4.613   4.580   2.781
    1TCM    cl1  989   4.576   4.736   2.858
    1TCM    cl2  990   4.785   4.542   2.803
    1TCM     h1  991   4.551   4.500   2.827
    1TCM    cl3  992   4.576   4.590   2.607
    1TCM     c1  993   3.274   0.400   4.907
    1TCM    cl1  994   3.142   0.516   4.885
    1TCM    cl2  995   3.206   0.237   4.930
    1TCM     h1  996   3.339   0.400   4.817
    1TCM    cl3  997   3.371   0.444   5.049
    1TCM     c1  998   3.971   3.976   4.138
    1TCM    cl1  999   3.851   3.998   4.009
    1TCM    cl2 1000   3.898   4.015   4.295
    1TCM     h1 1001   4.006   3.870   4.138
    1TCM    cl3 1002   4.110   4.083   4.109
    1TCM     c1 1003   2.090   1.356   2.607
    1TCM    cl1 1004   1.947   1.263   2.658
    1TCM    cl2 1005   2.237   1.264   2.646
    1TCM     h1 1006   2.085   1.373   2.497
    1TCM    cl3 1007   2.093   1.512   2.692
    1TCM     c1 1008   2.686   0.483   0.137
    1TCM    cl1 1009   2.722   0.534   0.304
    1TCM    cl2 1010   2.592   0.610   0.055
    1TCM     h1 1011   2.781   0.466   0.083
    1TCM    cl3 1012   2.591   0.333   0.140
    1TCM     c1 1013   2.423   2.918   2.025
    1TCM    cl1 1014   2.541   2.909   1.892
    1TCM    cl2 1015   2.409   3.086   2.080
    1TCM     h1 1016   2.325   2.882   1.989
    1TCM    cl3 1017   2.478   2.815   2.159
    1TCM     c1 1018   1.094   4.957   1.624
    1TCM    cl1 1019   1.169   4.836   1.730
    1TCM    cl2 1020   0.918   4.933   1.622
    1TCM     h1 1021   1.117   5.059   1.662
    1TCM    cl3 1022   1.158   4.940   1.459
    1TCM     c1 1023   4.244   2.310   4.425
    1TCM    cl1 1024   4.179   2.461   4.357
    1TCM    cl2 1025   4.393   2.345   4.515
    1TCM     h1 1026   4.169   2.266   4.494
    1TCM    cl3 1027   4.279   2.195   4.294
    1TCM     c1 1028   1.924   5.108   5.119
    1TCM    cl1 1029   2.025   4.987   5.202
    1TCM    cl2 1030   2.003   5.267   5.127
    1TCM     h1 1031   1.910   5.078   5.013
    1TCM    cl3 1032   1.765   5.117   5.199
    1TCM     c1 1033   3.447   3.885   0.662
    1TCM    cl1 1034   3.276   3.866   0.618
    1TCM    cl2 1035   3.546   3.891   0.515
    1TCM     h1 1036   3.461   3.979   0.720
    1TCM    cl3 1037   3.498   3.747   0.762
    1TCM     c1 1038   4.651   0.986   1.067
    1TCM    cl1 1039   4.706   1.135   1.146
    1TCM    cl2 1040   4.504   0.927   1.148
    1TCM     h1 1041   4.630   1.006   0.961
    1TCM    cl3 1042   4.778   0.862   1.080
    1TCM     c1 1043   4.183   1.841   1.948
    1TCM    cl1 1044   4.267   1.898   1.802
    1TCM    cl2 1045   4.079   1.970   2.011
    1TCM     h1 1046   4.121   1.753   1.922
    1TCM    cl3 1047   4.303   1.796   2.071
    1TCM     c1 1048   4.117   1.737   0.115
    1TCM    cl1 1049   4.121   1.564   0.073
    1TCM    cl2 1050   4.220   1.827   0.002
    1TCM     h1 1051   4.013   1.774   0.109
    1TCM    cl3 1052   4.179   1.758   0.281
    1TCM     c1 1053   3.987   3.251   4.811
    1TCM    cl1 1054   4.127   3.309   4.904
    1TCM    cl2 1055   3.935   3.093   4.873
    1TCM     h1 1056   3.904   3.324   4.820
    1TCM    cl3 1057   4.033   3.235   4.640
    1TCM     c1 1058   1.293   0.518   3.827
    1TCM    cl1 1059   1.351   0.682   3.866
    1TCM    cl2 1060   1.409   0.399   3.890
    1TCM     h1 1061   1.194   0.502   3.874
    1TCM    cl3 1062   1.280   0.500   3.651
    1TCM     c1 1063   3.569   0.349   1.449
    1TCM    cl1 1064   3.649   0.231   1.342
    1TCM    cl2 1065   3.474   0.463   1.350
    1TCM     h1 1066   3.502   0.296   1.519
    1TCM    cl3 1067   3.692   0.439   1.541
    1TCM     c1 1068   1.176   0.426   4.159
    1TCM    cl1 1069   1.036   0.535   4.154
    1TCM    cl2 1070   1.122   0.259   4.127
    1TCM     h1 1071   1.250   0.456   4.082
    1TCM    cl3 1072   1.251   0.433   4.320
    1TCM     c1 1073   2.289   1.054   4.260
    1TCM    cl1 1074   2.342   0.924   4.369
    1TCM    cl2 1075   2.312   1.003   4.091
    1TCM     h1 1076   2.181   1.076   4.278
    1TCM    cl3 1077   2.385   1.201   4.291
    1TCM     c1 1078   3.353   0.760   0.349
    1TCM    cl1 1079   3.481   0.753   0.472
    1TCM    cl2 1080   3.422   0.817   0.196
    1TCM     h1 1081   3.310   0.659   0.335
    1TCM    cl3 1082   3.225   0.872   0.402
    1TCM     c1 1083   1.662   2.304   2.756
    1TCM    cl1 1084   1.742   2.436   2.844
    1TCM    cl2 1085   1.487   2.330   2.756
    1TCM     h1 1086   1.699   2.302   2.651
    1TCM    cl3 1087   1.699   2.149   2.835
    1TCM     c1 1088   5.005   4.018   4.670
    1TCM    cl1 1089   4.889   3.910   4.751
    1TCM    cl2 1090   5.042   3.954   4.508
    1TCM     h1 1091   4.960   4.119   4.661
    1TCM    cl3 1092   5.154   4.028   4.766
    1TCM     c1 1093   0.852   0.975   2.732
    1TCM    cl1 1094   0.770   0.885   2.862
    1TCM    cl2 1095   0.800   0.910   2.575
    1TCM     h1 1096   0.826   1.082   2.739
    1TCM    cl3 1097   1.028   0.955   2.749
    1TCM     c1 1098   4.716   0.987   3.647
    1TCM    cl1 1099   4.803   1.102   3.543
    1TCM    cl2 1100   4.711   1.050   3.813
    1TCM     h1 1101   4.612   0.974   3.609
    1TCM    cl3 1102   4.800   0.830   3.646
    1TCM     c1 1103   5.080   4.809   0.635
    1TCM    cl1 1104   5.243   4.818   0.566
    1TCM    cl2 1105   4.982   4.945   0.575
    1TCM     h1 1106   5.032   4.713   0.606
    1TCM    cl3 1107   5.090   4.818   0.813
    1TCM     c1 1108   0.709   3.365   0.336
    1TCM    cl1 1109   0.598   3.313   0.465
    1TCM    cl2 1110   0.859   3.427   0.409
    1TCM     h1 1111   0.733   3.279   0.271
    1TCM    cl3 1112   0.633   3.494   0.240
    1TCM     c1 1113   1.227   2.487   4.725
    1TCM    cl1 1114   1.248   2.655   4.669
    1TCM    cl2 1115   1.185   2.486   4.897
    1TCM     h1 1116   1.145   2.439   4.666
    1TCM    cl3 1117   1.378   2.397   4.700
    1TCM     c1 1118   0.716   3.215   0.708
    1TCM    cl1 1119   0.546   3.195   0.660
    1TCM    cl2 1120   0.821   3.175   0.571
    1TCM     h1 1121   0.734   3.320   0.739
    1TCM    cl3 1122   0.752   3.106   0.844
    1TCM     c1 1123   4.258   1.657   2.598
    1TCM    cl1 1124   4.387   1.779   2.609
    1TCM    cl2 1125   4.295   1.544   2.465
    1TCM     h1 1126   4.251   1.601   2.693
    1TCM    cl3 1127   4.103   1.737   2.565
    1TCM     c1 1128   2.167   0.633   4.366
    1TCM    cl1 1129   2.115   0.497   4.467
    1TCM    cl2 1130   2.113   0.607   4.198
    1TCM     h1 1131   2.122   0.727   4.404
    1TCM    cl3 1132   2.344   0.647   4.370
    1TCM     c1 1133   0.347   0.192   2.611
    1TCM    cl1 1134   0.430   0.296   2.493
    1TCM    cl2 1135   0.316   0.285   2.760
    1TCM     h1 1136   0.251   0.157   2.569
    1TCM    cl3 1137   0.450   0.052   2.650
    1TCM     c1 1138   1.870   4.567   4.458
    1TCM    cl1 1139   1.796   4.433   4.366
    1TCM    cl2 1140   1.964   4.669   4.348
    1TCM     h1 1141   1.790   4.627   4.506
    1TCM    cl3 1142   1.977   4.500   4.583
    1TCM     c1 1143   4.255   4.616   1.467
    1TCM    cl1 1144   4.202   4.731   1.592
    1TCM    cl2 1145   4.433   4.605   1.469
    1TCM     h1 1146   4.212   4.516   1.488
    1TCM    cl3 1147   4.201   4.672   1.307
    1TCM     c1 1148   1.081   2.526   0.578
    1TCM    cl1 1149   1.035   2.376   0.494
    1TCM    cl2 1150   0.986   2.542   0.727
    1TCM     h1 1151   1.189   2.522   0.603
    1TCM    cl3 1152   1.050   2.665   0.472
    1TCM     c1 1153   1.410   0.918   4.367
    1TCM    cl1 1154   1.570   0.972   4.310
    1TCM    cl2 1155   1.431   0.792   4.490
    1TCM     h1 1156   1.356   1.005   4.411
    1TCM    cl3 1157   1.318   0.853   4.230
    1TCM     c1 1158   1.878   1.518   0.877
    1TCM    cl1 1159   2.045   1.555   0.827
    1TCM    cl2 1160   1.782   1.668   0.878
    1TCM     h1 1161   1.833   1.446   0.805
    1TCM    cl3 1162   1.878   1.447   1.040
    1TCM     c1 1163   1.290   4.622   1.478
    1TCM    cl1 1164   1.220   4.614   1.641
    1TCM    cl2 1165   1.160   4.651   1.360
    1TCM     h1 1166   1.363   4.705   1.473
    1TCM    cl3 1167   1.371   4.468   1.440
    1TCM     c1 1168   5.056   2.758   2.554
    1TCM    cl1 1169   5.057   2.899   2.662
    1TCM    cl2 1170   5.157   2.792   2.411
    1TCM     h1 1171   5.097   2.670   2.608
    1TCM    cl3 1172   4.890   2.724   2.503
    1TCM     c1 1173   0.916   2.515   0.187
    1TCM    cl1 1174   1.050   2.412   0.243
    1TCM    cl2 1175   0.789   2.520   0.311
    1TCM     h1 1176   0.953   2.617   0.168
    1TCM    cl3 1177   0.849   2.447   0.036
    1TCM     c1 1178   3.654   4.710   3.396
    1TCM    cl1 1179   3.487   4.767   3.420
    1TCM    cl2 1180   3.768   4.837   3.447
    1TCM     h1 1181   3.671   4.619   3.456
    1TCM    cl3 1182   3.680   4.674   3.224
    1TCM     c1 1183   2.231   1.026   2.399
    1TCM    cl1 1184   2.369   1.134   2.370
    1TCM    cl2 1185   2.165   0.972   2.243
    1TCM     h1 1186   2.265   0.937   2.457
    1TCM    cl3 1187   2.106   1.112   2.490
    1TCM     c1 1188   0.676   4.579   4.505
    1TCM    cl1 1189   0.795   4.702   4.552
    1TCM    cl2 1190   0.715   4.425   4.585
    1TCM     h1 1191   0.575   4.611   4.536
    1TCM    cl3 1192   0.681   4.556   4.329
    1TCM     c1 1193   2.047   4.834   3.936
    1TCM    cl1 1194   1.952   4.829   3.786
    1TCM    cl2 1195   2.054   5.002   3.995
    1TCM     h1 1196   1.999   4.770   4.012
    1TCM    cl3 1197   2.212   4.775   3.904
    1TCM     c1 1198   1.173   0.294   1.226
    1TCM    cl1 1199   1.045   0.400   1.288
    1TCM    cl2 1200   1.194   0.324   1.052
    1TCM     h1 1201   1.268   0.315   1.279
    1TCM    cl3 1202   1.126   0.124   1.251
    1TCM     c1 1203   2.466   3.090   1.077
    1TCM    cl1 1204   2.636   3.045   1.053
    1TCM    cl2 1205   2.434   3.116   1.250
    1TCM     h1 1206   2.444   3.184   1.021
    1TCM    cl3 1207   2.361   2.960   1.016
    1TCM     c1 1208   1.005   3.632   1.109
    1TCM    cl1 1209   1.003   3.481   1.202
    1TCM    cl2 1210   0.944   3.600   0.945
    1TCM     h1 1211   0.940   3.707   1.158
    1TCM    cl3 1212   1.171   3.695   1.099
    1TCM     c1 1213   3.742   2.407   2.013
    1TCM    cl1 1214   3.639   2.376   1.870
    1TCM    cl2 1215   3.687   2.306   2.148
    1TCM     h1 1216   3.847   2.382   1.988
    1TCM    cl3 1217   3.730   2.578   2.058
    1TCM     c1 1218   2.771   2.453   1.239
    1TCM    cl1 1219   2.748   2.450   1.415
    1TCM    cl2 1220   2.710   2.301   1.169
    1TCM     h1 1221   2.714   2.539   1.196
    1TCM    cl3 1222   2.944   2.471   1.201
    1TCM     c1 1223   2.755   3.496   4.269
    1TCM    cl1 1224   2.805   3.329   4.303
    1TCM    cl2 1225   2.835   3.606   4.384
    1TCM     h1 1226   2.783   3.523   4.166
    1TCM    cl3 1227   2.579   3.510   4.288
    1TCM     c1 1228   1.181   2.813   4.151
    1TCM    cl1 1229   1.315   2.711   4.095
    1TCM    cl2 1230   1.219   2.984   4.120
    1TCM     h1 1231   1.088   2.785   4.096
    1TCM    cl3 1232   1.156   2.789   4.325
    1TCM     c1 1233   1.548   2.923   3.445
    1TCM    cl1 1234   1.429   2.973   3.323
    1TCM    cl2 1235   1.464   2.842   3.580
    1TCM     h1 1236   1.621   2.853   3.400
    1TCM    cl3 1237   1.633   3.066   3.507
    1TCM     c1 1238   3.763   4.770   3.912
    1TCM    cl1 1239   3.616   4.689   3.969
    1TCM    cl2 1240   3.719   4.914   3.816
    1TCM     h1 1241   3.825   4.801   3.999
    1TCM    cl3 1242   3.857   4.659   3.810
    1TCM     c1 1243   0.154   3.214   0.535
    1TCM    cl1 1244   0.092   3.197   0.369
    1TCM    cl2 1245   0.021   3.189   0.650
    1TCM     h1 1246   0.233   3.138   0.553
    1TCM    cl3 1247   0.221   3.377   0.557
    1TCM     c1 1248   1.449   2.261   5.084
    1TCM    cl1 1249   1.501   2.388   4.971
    1TCM    cl2 1250   1.306   2.317   5.174
    1TCM     h1 1251   1.424   2.169   5.028
    1TCM    cl3 1252   1.581   2.227   5.199
    1TCM     c1 1253   0.296   1.918   3.052
    1TCM    cl1 1254   0.162   1.908   3.168
    1TCM    cl2 1255   0.437   1.993   3.131
    1TCM     h1 1256   0.323   1.816   3.018
    1TCM    cl3 1257   0.247   2.017   2.913
    1TCM     c1 1258   3.641   0.266   4.948
    1TCM    cl1 1259   3.584   0.426   5.000
    1TCM    cl2 1260   3.519   0.191   4.842
    1TCM     h1 1261   3.736   0.276   4.892
    1TCM    cl3 1262   3.667   0.163   5.090
    1TCM     c1 1263   1.773   2.822   2.166
    1TCM    cl1 1264   1.940   2.768   2.138
    1TCM    cl2 1265   1.680   2.691   2.242
    1TCM     h1 1266   1.773   2.911   2.232
    1TCM    cl3 1267   1.698   2.864   2.010
    1TCM     c1 1268   4.213   0.654   4.263
    1TCM    cl1 1269   4.222   0.681   4.438
    1TCM    cl2 1270   4.377   0.659   4.194
    1TCM     h1 1271   4.167   0.555   4.242
    1TCM    cl3 1272   4.114   0.782   4.188
    1TCM     c1 1273   0.309   3.801   1.600
    1TCM    cl1 1274   0.291   3.747   1.431
    1TCM    cl2 1275   0.481   3.822   1.637
    1TCM     h1 1276   0.256   3.898   1.613
    1TCM    cl3 1277   0.239   3.679   1.709
    1TCM     c1 1278   0.277   1.637   0.912
    1TCM    cl1 1279   0.159   1.769   0.896
    1TCM    cl2 1280   0.301   1.559   0.754
    1TCM     h1 1281   0.373   1.678   0.948
    1TCM    cl3 1282   0.216   1.517   1.028
    1TCM     c1 1283   3.751   2.574   2.941
    1TCM    cl1 1284   3.763   2.698   3.068
    1TCM    cl2 1285   3.646   2.633   2.810
    1TCM     h1 1286   3.852   2.553   2.901
    1TCM    cl3 1287   3.682   2.425   3.010
    1TCM     c1 1288   0.303   4.849   2.844
    1TCM    cl1 1289   0.273   4.877   2.671
    1TCM    cl2 1290   0.149   4.809   2.925
    1TCM     h1 1291   0.374   4.765   2.857
    1TCM    cl3 1292   0.371   4.997   2.917
    1TCM     c1 1293   0.093   4.624   2.497
    1TCM    cl1 1294   0.120   4.619   2.673
    1TCM    cl2 1295   0.000   4.771   2.457
    1TCM     h1 1296   0.190   4.627   2.445
    1TCM    cl3 1297   0.001   4.481   2.447
    1TCM     c1 1298   0.566   2.632   2.396
    1TCM    cl1 1299   0.554   2.638   2.219
    1TCM    cl2 1300   0.550   2.464   2.451
    1TCM     h1 1301   0.665   2.672   2.428
    1TCM    cl3 1302   0.436   2.730   2.468
    1TCM     c1 1303   0.598   3.985   2.871
    1TCM    cl1 1304   0.704   4.031   3.006
    1TCM    cl2 1305   0.691   3.990   2.719
    1TCM     h1 1306   0.559   3.883   2.888
    1TCM    cl3 1307   0.463   4.100   2.860
    1TCM     c1 1308   2.343   0.737   4.031
    1TCM    cl1 1309   2.516   0.775   4.009
    1TCM    cl2 1310   2.289   0.798   4.189
    1TCM     h1 1311   2.284   0.786   3.951
    1TCM    cl3 1312   2.320   0.561   4.024
    1TCM     c1 1313   1.779   2.026   2.122
    1TCM    cl1 1314   1.838   2.001   2.287
    1TCM    cl2 1315   1.864   2.164   2.048
    1TCM     h1 1316   1.798   1.934   2.062
    1TCM    cl3 1317   1.604   2.059   2.125
    1TCM     c1 1318   0.945   3.222   2.374
    1TCM    cl1 1319   1.029   3.140   2.507
    1TCM    cl2 1320   0.959   3.124   2.226
    1TCM     h1 1321   0.838   3.235   2.400
    1TCM    cl3 1322   1.019   3.382   2.346
    1TCM     c1 1323   4.748   3.775   3.151
    1TCM    cl1 1324   4.700   3.904   3.263
    1TCM    cl2 1325   4.719   3.827   2.983
    1TCM     h1 1326   4.856   3.753   3.164
    1TCM    cl3 1327   4.654   3.628   3.185
    1TCM     c1 1328   4.251   1.002   4.517
    1TCM    cl1 1329   4.290   1.175   4.530
    1TCM    cl2 1330   4.228   0.959   4.346
    1TCM     h1 1331   4.334   0.942   4.559
    1TCM    cl3 1332   4.101   0.968   4.607
    1TCM     c1 1333   0.149   3.088   4.630
    1TCM    cl1 1334   0.107   2.932   4.704
    1TCM    cl2 1335   0.294   3.069   4.529
    1TCM     h1 1336   0.065   3.124   4.566
    1TCM    cl3 1337   0.181   3.208   4.757
    1TCM     c1 1338   1.035   1.876   0.316
    1TCM    cl1 1339   1.095   1.941   0.471
    1TCM    cl2 1340   1.063   1.701   0.310
    1TCM     h1 1341   0.926   1.897   0.308
    1TCM    cl3 1342   1.121   1.955   0.182
    1TCM     c1 1343   1.938   2.152   1.775
    1TCM    cl1 1344   1.874   2.017   1.872
    1TCM    cl2 1345   2.101   2.195   1.834
    1TCM     h1 1346   1.944   2.122   1.669
    1TCM    cl3 1347   1.831   2.293   1.791
    1TCM     c1 1348   2.514   4.413   3.866
    1TCM    cl1 1349   2.544   4.277   3.977
    1TCM    cl2 1350   2.656   4.435   3.761
    1TCM     h1 1351   2.425   4.391   3.804
    1TCM    cl3 1352   2.486   4.561   3.960
    1TCM     c1 1353   3.247   0.528   1.761
    1TCM    cl1 1354   3.292   0.551   1.590
    1TCM    cl2 1355   3.108   0.631   1.801
    1TCM     h1 1356   3.221   0.421   1.778
    1TCM    cl3 1357   3.385   0.572   1.864
    1TCM     c1 1358   2.444   4.816   4.863
    1TCM    cl1 1359   2.616   4.837   4.906
    1TCM    cl2 1360   2.343   4.858   5.003
    1TCM     h1 1361   2.419   4.882   4.778
    1TCM    cl3 1362   2.415   4.647   4.818
    1TCM     c1 1363   2.659   1.909   3.400
    1TCM    cl1 1364   2.824   1.962   3.362
    1TCM    cl2 1365   2.648   1.869   3.573
    1TCM     h1 1366   2.587   1.990   3.376
    1TCM    cl3 1367   2.619   1.764   3.304
    1TCM     c1 1368   0.849   1.773   4.999
    1TCM    cl1 1369   0.904   1.642   5.106
    1TCM    cl2 1370   0.852   1.717   4.830
    1TCM     h1 1371   0.745   1.802   5.026
    1TCM    cl3 1372   0.956   1.913   5.018
    1TCM     c1 1373   3.142   1.167   3.179
    1TCM    cl1 1374   3.107   1.325   3.105
    1TCM    cl2 1375   3.154   1.186   3.356
    1TCM     h1 1376   3.060   1.096   3.155
    1TCM    cl3 1377   3.295   1.104   3.116
    1TCM     c1 1378   3.695   0.774   1.699
    1TCM    cl1 1379   3.850   0.784   1.786
    1TCM    cl2 1380   3.714   0.670   1.556
    1TCM     h1 1381   3.618   0.732   1.766
    1TCM    cl3 1382   3.646   0.937   1.647
    1TCM     c1 1383   0.366   0.533   0.635
    1TCM    cl1 1384   0.227   0.592   0.540
    1TCM    cl2 1385   0.315   0.506   0.803
    1TCM     h1 1386   0.403   0.438   0.591
    1TCM    cl3 1387   0.496   0.654   0.631
    1TCM     c1 1388   0.873   3.821   3.737
    1TCM    cl1 1389   0.967   3.922   3.849
    1TCM    cl2 1390   0.753   3.922   3.652
    1TCM     h1 1391   0.941   3.775   3.662
    1TCM    cl3 1392   0.789   3.693   3.827
    1TCM     c1 1393   5.201   4.233   4.445
    1TCM    cl1 1394   5.270   4.180   4.600
    1TCM    cl2 1395   5.306   4.357   4.372
    1TCM     h1 1396   5.192   4.146   4.377
    1TCM    cl3 1397   5.039   4.302   4.473
    1TCM     c1 1398   3.758   1.782   0.952
    1TCM    cl1 1399   3.701   1.937   0.887
    1TCM    cl2 1400   3.935   1.788   0.973
    1TCM     h1 1401   3.710   1.763   1.051
    1TCM    cl3 1402   3.716   1.650   0.840
    1TCM     c1 1403   3.464   4.510   3.758
    1TCM    cl1 1404   3.529   4.607   3.624
    1TCM    cl2 1405   3.347   4.607   3.850
    1TCM     h1 1406   3.413   4.420   3.717
    1TCM    cl3 1407   3.597   4.459   3.865
    1TCM     c1 1408   1.676   4.752   3.224
    1TCM    cl1 1409   1.622   4.867   3.349
    1TCM    cl2 1410   1.677   4.587   3.291
    1TCM     h1 1411   1.606   4.756   3.137
    1TCM    cl3 1412   1.839   4.795   3.170
    1TCM     c1 1413   2.647   0.580   2.478
    1TCM    cl1 1414   2.604   0.412   2.518
    1TCM    cl2 1415   2.529   0.690   2.553
    1TCM     h1 1416   2.748   0.602   2.517
    1TCM    cl3 1417   2.644   0.601   2.302
    1TCM     c1 1418   3.330   2.139   4.217
    1TCM    cl1 1419   3.465   2.086   4.319
    1TCM    cl2 1420   3.256   2.285   4.287
    1TCM     h1 1421   3.367   2.161   4.115
    1TCM    cl3 1422   3.208   2.009   4.208
    1TCM     c1 1423   2.967   2.431   0.553
    1TCM    cl1 1424   3.025   2.587   0.617
    1TCM    cl2 1425   2.880   2.344   0.680
    1TCM     h1 1426   2.900   2.450   0.467
    1TCM    cl3 1427   3.106   2.334   0.499
    1TCM     c1 1428   1.496   0.511   4.953
    1TCM    cl1 1429   1.480   0.379   5.072
    1TCM    cl2 1430   1.474   0.445   4.789
    1TCM     h1 1431   1.419   0.588   4.973
    1TCM    cl3 1432   1.658   0.583   4.967
    1TCM     c1 1433   0.774   1.656   1.700
    1TCM    cl1 1434   0.618   1.572   1.707
    1TCM    cl2 1435   0.831   1.663   1.531
    1TCM     h1 1436   0.762   1.760   1.739
    1TCM    cl3 1437   0.893   1.569   1.799
    1TCM     c1 1438   4.996   3.153   0.337
    1TCM    cl1 1439   5.036   3.287   0.228
    1TCM    cl2 1440   4.976   3.215   0.502
    1TCM     h1 1441   4.902   3.105   0.304
    1TCM    cl3 1442   5.127   3.033   0.334
    1TCM     c1 1443   0.682   1.706   3.994
    1TCM    cl1 1444   0.516   1.770   3.995
    1TCM    cl2 1445   0.713   1.620   4.148
    1TCM     h1 1446   0.694   1.635   3.910
    1TCM    cl3 1447   0.798   1.839   3.977
    1TCM     c1 1448   0.930   0.810   0.445
    1TCM    cl1 1449   1.003   0.881   0.590
    1TCM    cl2 1450   0.888   0.640   0.476
    1TCM     h1 1451   0.838   0.866   0.418
    1TCM    cl3 1452   1.045   0.819   0.310
    1TCM     c1 1453   3.494   4.903   4.931
    1TCM    cl1 1454   3.560   4.962   4.777
    1TCM    cl2 1455   3.539   5.015   5.062
    1TCM     h1 1456   3.384   4.896   4.924
    1TCM    cl3 1457   3.561   4.742   4.966
    1TCM     c1 1458   3.138   3.861   3.626
    1TCM    cl1 1459   3.116   3.706   3.541
    1TCM    cl2 1460   2.992   3.898   3.720
    1TCM     h1 1461   3.225   3.854   3.694
    1TCM    cl3 1462   3.166   3.990   3.507
    1TCM     c1 1463   2.866   4.252   3.338
    1TCM    cl1 1464   3.001   4.205   3.443
    1TCM    cl2 1465   2.897   4.195   3.172
    1TCM     h1 1466   2.772   4.206   3.375
    1TCM    cl3 1467   2.850   4.429   3.338
    1TCM     c1 1468   3.535   1.345   2.733
    1TCM    cl1 1469   3.662   1.458   2.682
    1TCM    cl2 1470   3.604   1.183   2.752
    1TCM     h1 1471   3.492   1.379   2.830
    1TCM    cl3 1472   3.407   1.341   2.610
    1TCM     c1 1473   4.588   2.074   5.164
    1TCM    cl1 1474   4.461   2.124   5.278
    1TCM    cl2 1475   4.722   2.191   5.169
    1TCM     h1 1476   4.625   1.974   5.192
    1TCM    cl3 1477   4.521   2.069   4.999
    1TCM     c1 1478   3.201   2.239   0.797
    1TCM    cl1 1479   3.085   2.127   0.721
    1TCM    cl2 1480   3.312   2.147   0.901
    1TCM     h1 1481   3.260   2.291   0.718
    1TCM    cl3 1482   3.113   2.358   0.894
    1TCM     c1 1483   4.575   4.804   1.610
    1TCM    cl1 1484   4.510   4.891   1.469
    1TCM    cl2 1485   4.443   4.774   1.726
    1TCM     h1 1486   4.618   4.707   1.577
    1TCM    cl3 1487   4.701   4.903   1.687
    1TCM     c1 1488   4.662   0.736   3.298
    1TCM    cl1 1489   4.567   0.866   3.372
    1TCM    cl2 1490   4.772   0.666   3.419
    1TCM     h1 1491   4.594   0.657   3.260
    1TCM    cl3 1492   4.756   0.801   3.162
    1TCM     c1 1493   3.560   2.199   0.427
    1TCM    cl1 1494   3.482   2.354   0.389
    1TCM    cl2 1495   3.544   2.165   0.601
    1TCM     h1 1496   3.511   2.118   0.369
    1TCM    cl3 1497   3.732   2.207   0.383
    1TCM     c1 1498   1.818   0.147   2.875
    1TCM    cl1 1499   1.875   0.000   2.792
    1TCM    cl2 1500   1.817   0.283   2.760
    1TCM     h1 1501   1.715   0.130   2.914
    1TCM    cl3 1502   1.927   0.184   3.010
    1TCM     c1 1503   1.215   4.688   5.051
    1TCM    cl1 1504   1.355   4.732   4.950
    1TCM    cl2 1505   1.245   4.739   5.219
    1TCM     h1 1506   1.125   4.740   5.013
    1TCM    cl3 1507   1.191   4.512   5.046
    1TCM     c1 1508   5.126   0.292   4.522
    1TCM    cl1 1509   5.006   0.380   4.425
    1TCM    cl2 1510   5.252   0.227   4.414
    1TCM     h1 1511   5.173   0.362   4.595
    1TCM    cl3 1512   5.047   0.159   4.609
    1TCM     c1 1513   4.327   4.897   0.254
    1TCM    cl1 1514   4.378   4.864   0.086
    1TCM    cl2 1515   4.212   4.772   0.306
    1TCM     h1 1516   4.416   4.895   0.320
    1TCM    cl3 1517   4.249   5.056   0.262
    1TCM     c1 1518   0.612   2.655   3.909
    1TCM    cl1 1519   0.573   2.707   4.075
    1TCM    cl2 1520   0.700   2.501   3.914
    1TCM     h1 1521   0.517   2.642   3.852
    1TCM    cl3 1522   0.712   2.779   3.831
    1TCM     c1 1523   4.057   1.347   1.658
    1TCM    cl1 1524   4.198   1.276   1.739
    1TCM    cl2 1525   3.962   1.218   1.581
    1TCM     h1 1526   3.994   1.400   1.732
    1TCM    cl3 1527   4.111   1.462   1.534
    1TCM     c1 1528   1.462   4.865   0.385
    1TCM    cl1 1529   1.531   4.975   0.263
    1TCM    cl2 1530   1.299   4.922   0.429
    1TCM     h1 1531   1.455   4.763   0.343
    1TCM    cl3 1532   1.565   4.864   0.529
    1TCM     c1 1533   3.334   1.086   4.001
    1TCM    cl1 1534   3.296   1.259   3.989
    1TCM    cl2 1535   3.183   0.992   3.999
    1TCM     h1 1536   3.397   1.055   3.915
    1TCM    cl3 1537   3.421   1.054   4.153
    1TCM     c1 1538   4.615   3.523   3.725
    1TCM    cl1 1539   4.619   3.378   3.827
    1TCM    cl2 1540   4.475   3.516   3.616
    1TCM     h1 1541   4.607   3.614   3.789
    1TCM    cl3 1542   4.764   3.533   3.629
    1TCM     c1 1543   1.402   0.848   0.601
    1TCM    cl1 1544   1.427   0.962   0.735
    1TCM    cl2 1545   1.469   0.689   0.646
    1TCM     h1 1546   1.294   0.838   0.581
    1TCM    cl3 1547   1.485   0.908   0.455
    1TCM     c1 1548   1.163   2.017   1.075
    1TCM    cl1 1549   1.227   2.155   0.984
    1TCM    cl2 1550   1.180   2.047   1.249
    1TCM     h1 1551   1.056   2.002   1.050
    1TCM    cl3 1552   1.255   1.870   1.031
    1TCM     c1 1553   3.514   3.118   2.433
    1TCM    cl1 1554   3.679   3.062   2.468
    1TCM    cl2 1555   3.408   3.083   2.571
    1TCM     h1 1556   3.516   3.228   2.414
    1TCM    cl3 1557   3.453   3.035   2.288
    1TCM     c1 1558   3.243   3.555   2.833
    1TCM    cl1 1559   3.165   3.420   2.919
    1TCM    cl2 1560   3.416   3.558   2.872
    1TCM     h1 1561   3.230   3.541   2.723
    1TCM    cl3 1562   3.167   3.708   2.882
    1TCM     c1 1563   1.295   1.150   0.289
    1TCM    cl1 1564   1.466   1.132   0.243
    1TCM    cl2 1565   1.260   1.046   0.429
    1TCM     h1 1566   1.275   1.256   0.316
    1TCM    cl3 1567   1.191   1.103   0.153
    1TCM     c1 1568   3.049   0.230   0.888
    1TCM    cl1 1569   2.961   0.338   0.777
    1TCM    cl2 1570   3.179   0.321   0.968
    1TCM     h1 1571   2.980   0.190   0.964
    1TCM    cl3 1572   3.120   0.096   0.795
    1TCM     c1 1573   1.915   3.379   1.049
    1TCM    cl1 1574   1.908   3.210   1.102
    1TCM    cl2 1575   1.917   3.385   0.871
    1TCM     h1 1576   1.827   3.434   1.087
    1TCM    cl3 1577   2.063   3.455   1.112
    1TCM     c1 1578   2.955   3.792   2.003
    1TCM    cl1 1579   2.956   3.681   1.865
    1TCM    cl2 1580   3.020   3.950   1.953
    1TCM     h1 1581   2.851   3.805   2.039
    1TCM    cl3 1582   3.055   3.726   2.134
    1TCM     c1 1583   4.605   0.523   4.089
    1TCM    cl1 1584   4.596   0.645   4.218
    1TCM    cl2 1585   4.774   0.471   4.068
    1TCM     h1 1586   4.543   0.435   4.116
    1TCM    cl3 1587   4.545   0.593   3.936
    1TCM     c1 1588   4.642   2.998   4.795
    1TCM    cl1 1589   4.767   2.946   4.681
    1TCM    cl2 1590   4.506   3.070   4.706
    1TCM     h1 1591   4.605   2.910   4.853
    1TCM    cl3 1592   4.710   3.118   4.907
    1TCM     c1 1593   1.096   4.687   2.404
    1TCM    cl1 1594   0.923   4.650   2.413
    1TCM    cl2 1595   1.154   4.661   2.237
    1TCM     h1 1596   1.113   4.792   2.433
    1TCM    cl3 1597   1.186   4.580   2.514
    1TCM     c1 1598   5.128   0.216   0.356
    1TCM    cl1 1599   5.061   0.330   0.237
    1TCM    cl2 1600   5.073   0.261   0.519
    1TCM     h1 1601   5.093   0.113   0.331
    1TCM    cl3 1602   5.306   0.221   0.350
    1TCM     c1 1603   4.605   0.482   3.676
    1TCM    cl1 1604   4.749   0.586   3.670
    1TCM    cl2 1605   4.626   0.345   3.564
    1TCM     h1 1606   4.590   0.444   3.779
    1TCM    cl3 1607   4.462   0.576   3.627
    1TCM     c1 1608   3.623   5.103   4.444
    1TCM    cl1 1609   3.528   5.238   4.378
    1TCM    cl2 1610   3.514   4.970   4.490
    1TCM     h1 1611   3.695   5.067   4.367
    1TCM    cl3 1612   3.713   5.159   4.587
    1TCM     c1 1613   1.422   1.901   1.586
    1TCM    cl1 1614   1.445   1.788   1.451
    1TCM    cl2 1615   1.389   1.811   1.735
    1TCM     h1 1616   1.513   1.962   1.599
    1TCM    cl3 1617   1.284   2.008   1.550
    1TCM     c1 1618   5.262   0.216   1.425
    1TCM    cl1 1619   5.339   0.345   1.331
    1TCM    cl2 1620   5.279   0.250   1.599
    1TCM     h1 1621   5.154   0.210   1.399
    1TCM    cl3 1622   5.340   0.060   1.388
    1TCM     c1 1623   3.289   1.716   2.953
    1TCM    cl1 1624   3.414   1.652   2.843
    1TCM    cl2 1625   3.131   1.710   2.872
    1TCM     h1 1626   3.286   1.655   3.045
    1TCM    cl3 1627   3.328   1.885   2.994
    1TCM     c1 1628   3.615   0.422   0.536
    1TCM    cl1 1629   3.784   0.414   0.591
    1TCM    cl2 1630   3.520   0.294   0.616
    1TCM     h1 1631   3.572   0.521   0.561
    1TCM    cl3 1632   3.609   0.398   0.360
    1TCM     c1 1633   0.681   1.433   1.970
    1TCM    cl1 1634   0.760   1.317   1.861
    1TCM    cl2 1635   0.739   1.407   2.136
    1TCM     h1 1636   0.705   1.536   1.938
    1TCM    cl3 1637   0.505   1.409   1.965
    1TCM     c1 1638   2.738   3.878   1.250
    1TCM    cl1 1639   2.807   3.716   1.226
    1TCM    cl2 1640   2.727   3.962   1.094
    1TCM     h1 1641   2.636   3.868   1.294
    1TCM    cl3 1642   2.841   3.970   1.361
    1TCM     c1 1643   2.398   2.556   4.414
    1TCM    cl1 1644   2.242   2.507   4.344
    1TCM    cl2 1645   2.372   2.620   4.578
    1TCM     h1 1646   2.466   2.468   4.419
    1TCM    cl3 1647   2.471   2.682   4.313
    1TCM     c1 1648   0.624   2.317   0.911
    1TCM    cl1 1649   0.534   2.468   0.886
    1TCM    cl2 1650   0.669   2.248   0.753
    1TCM     h1 1651   0.716   2.338   0.969
    1TCM    cl3 1652   0.523   2.201   0.999
    1TCM     c1 1653   2.542   0.441   1.588
    1TCM    cl1 1654   2.627   0.305   1.513
    1TCM    cl2 1655   2.593   0.458   1.757
    1TCM     h1 1656   2.565   0.534   1.533
    1TCM    cl3 1657   2.366   0.412   1.582
    1TCM     c1 1658   2.498   3.650   0.167
    1TCM    cl1 1659   2.338   3.636   0.243
    1TCM    cl2 1660   2.479   3.709   0.000
    1TCM     h1 1661   2.560   3.722   0.224
    1TCM    cl3 1662   2.577   3.491   0.165
    1TCM     c1 1663   0.170   3.444   4.956
    1TCM    cl1 1664   0.058   3.310   4.923
    1TCM    cl2 1665   0.279   3.398   5.089
    1TCM     h1 1666   0.230   3.466   4.865
    1TCM    cl3 1667   0.078   3.589   5.003
    1TCM     c1 1668   3.932   1.829   1.693
    1TCM    cl1 1669   3.815   1.933   1.607
    1TCM    cl2 1670   3.898   1.834   1.867
    1TCM     h1 1671   3.922   1.725   1.656
    1TCM    cl3 1672   4.096   1.888   1.663
    1TCM     c1 1673   2.249   2.854   2.739
    1TCM    cl1 1674   2.212   2.841   2.566
    1TCM    cl2 1675   2.382   2.742   2.779
    1TCM     h1 1676   2.280   2.958   2.763
    1TCM    cl3 1677   2.105   2.811   2.834
    1TCM     c1 1678   4.535   2.811   0.762
    1TCM    cl1 1679   4.537   2.965   0.673
    1TCM    cl2 1680   4.410   2.818   0.889
    1TCM     h1 1681   4.513   2.728   0.693
    1TCM    cl3 1682   4.694   2.784   0.838
    1TCM     c1 1683   5.122   4.280   1.794
    1TCM    cl1 1684   5.226   4.387   1.697
    1TCM    cl2 1685   5.077   4.361   1.945
    1TCM     h1 1686   5.031   4.255   1.736
    1TCM    cl3 1687   5.211   4.130   1.832
    1TCM     c1 1688   3.314   1.722   3.834
    1TCM    cl1 1689   3.172   1.649   3.754
    1TCM    cl2 1690   3.366   1.865   3.742
    1TCM     h1 1691   3.286   1.753   3.937
    1TCM    cl3 1692   3.446   1.604   3.841
    1TCM     c1 1693   0.913   3.776   2.426
    1TCM    cl1 1694   0.781   3.860   2.510
    1TCM    cl2 1695   1.061   3.786   2.525
    1TCM     h1 1696   0.886   3.670   2.411
    1TCM    cl3 1697   0.942   3.854   2.269
    1TCM     c1 1698   3.010   4.110   2.315
    1TCM    cl1 1699   3.019   4.287   2.309
    1TCM    cl2 1700   3.078   4.052   2.468
    1TCM     h1 1701   2.904   4.078   2.307
    1TCM    cl3 1702   3.102   4.041   2.179
    1TCM     c1 1703   1.330   3.050   2.326
    1TCM    cl1 1704   1.347   2.897   2.238
    1TCM    cl2 1705   1.373   3.026   2.497
    1TCM     h1 1706   1.397   3.126   2.281
    1TCM    cl3 1707   1.161   3.106   2.314
    1TCM     c1 1708   4.606   0.148   5.193
    1TCM    cl1 1709   4.592   0.262   5.057
    1TCM    cl2 1710   4.515   0.000   5.156
    1TCM     h1 1711   4.713   0.122   5.209
    1TCM    cl3 1712   4.540   0.223   5.340
    1TCM     c1 1713   4.172   4.893   2.410
    1TCM    cl1 1714   4.120   4.789   2.275
    1TCM    cl2 1715   4.204   4.792   2.553
    1TCM     h1 1716   4.264   4.947   2.382
    1TCM    cl3 1717   4.043   5.010   2.448
    1TCM     c1 1718   1.439   5.020   3.122
    1TCM    cl1 1719   1.401   4.855   3.176
    1TCM    cl2 1720   1.381   5.043   2.955
    1TCM     h1 1721   1.388   5.093   3.189
    1TCM    cl3 1722   1.615   5.046   3.128
    1TCM     c1 1723   3.423   5.058   3.807
    1TCM    cl1 1724   3.475   4.890   3.831
    1TCM    cl2 1725   3.473   5.113   3.645
    1TCM     h1 1726   3.312   5.064   3.816
    1TCM    cl3 1727   3.498   5.162   3.931
    1TCM     c1 1728   3.651   2.187   4.869
    1TCM    cl1 1729   3.679   2.362   4.859
    1TCM    cl2 1730   3.523   2.140   4.755
    1TCM     h1 1731   3.744   2.132   4.844
    1TCM    cl3 1732   3.601   2.144   5.035
    1TCM     c1 1733   4.870   4.264   2.543
    1TCM    cl1 1734   4.845   4.113   2.454
    1TCM    cl2 1735   4.905   4.227   2.714
    1TCM     h1 1736   4.955   4.320   2.499
    1TCM    cl3 1737   4.722   4.363   2.533
    1TCM     c1 1738   5.049   3.127   2.450
    1TCM    cl1 1739   5.154   3.036   2.339
    1TCM    cl2 1740   5.116   3.120   2.615
    1TCM     h1 1741   5.043   3.233   2.417
    1TCM    cl3 1742   4.886   3.056   2.449
    1TCM     c1 1743   1.428   2.354   0.963
    1TCM    cl1 1744   1.542   2.481   1.016
    1TCM    cl2 1745   1.505   2.195   0.979
    1TCM     h1 1746   1.337   2.358   1.027
    1TCM    cl3 1747   1.384   2.382   0.794
    1TCM     c1 1748   1.126   1.960   4.068
    1TCM    cl1 1749   0.956   1.994   4.030
    1TCM    cl2 1750   1.149   1.959   4.245
    1TCM     h1 1751   1.154   1.860   4.027
    1TCM    cl3 1752   1.230   2.085   3.996
    1TCM     c1 1753   4.129   3.560   1.314
    1TCM    cl1 1754   4.111   3.661   1.459
    1TCM    cl2 1755   4.227   3.646   1.193
    1TCM     h1 1756   4.180   3.465   1.342
    1TCM    cl3 1757   3.969   3.524   1.247
    1TCM     c1 1758   0.266   5.159   2.147
    1TCM    cl1 1759   0.175   5.308   2.182
    1TCM    cl2 1760   0.333   5.167   1.982
    1TCM     h1 1761   0.349   5.148   2.220
    1TCM    cl3 1762   0.157   5.019   2.160
    1TCM     c1 1763   1.322   2.535   1.749
    1TCM    cl1 1764   1.265   2.690   1.683
    1TCM    cl2 1765   1.234   2.499   1.900
    1TCM     h1 1766   1.304   2.454   1.676
    1TCM    cl3 1767   1.496   2.546   1.783
    1TCM     c1 1768   0.812   2.318   4.147
    1TCM    cl1 1769   0.907   2.398   4.020
    1TCM    cl2 1770   0.910   2.191   4.223
    1TCM     h1 1771   0.783   2.392   4.224
    1TCM    cl3 1772   0.666   2.246   4.075
    1TCM     c1 1773   1.091   0.899   5.164
    1TCM    cl1 1774   1.158   1.048   5.093
    1TCM    cl2 1775   1.118   0.900   5.340
    1TCM     h1 1776   0.982   0.894   5.144
    1TCM    cl3 1777   1.171   0.758   5.093
    1TCM     c1 1778   3.716   2.992   1.007
    1TCM    cl1 1779   3.675   2.998   1.180
    1TCM    cl2 1780   3.603   3.095   0.916
    1TCM     h1 1781   3.819   3.029   0.993
    1TCM    cl3 1782   3.704   2.824   0.949
    1TCM     c1 1783   3.700   5.026   3.013
    1TCM    cl1 1784   3.623   5.041   3.172
    1TCM    cl2 1785   3.584   5.071   2.886
    1TCM     h1 1786   3.788   5.093   3.008
    1TCM    cl3 1787   3.753   4.858   2.987
    1TCM     c1 1788   4.639   3.190   5.169
    1TCM    cl1 1789   4.630   3.366   5.151
    1TCM    cl2 1790   4.511   3.114   5.071
    1TCM     h1 1791   4.738   3.154   5.135
    1TCM    cl3 1792   4.616   3.147   5.340
    1TCM     c1 1793   4.488   2.819   2.964
    1TCM    cl1 1794   4.378   2.831   2.825
    1TCM    cl2 1795   4.489   2.651   3.024
    1TCM     h1 1796   4.591   2.847   2.932
    1TCM    cl3 1797   4.433   2.928   3.093
    1TCM     c1 1798   2.344   4.573   3.579
    1TCM    cl1 1799   2.474   4.452   3.595
    1TCM    cl2 1800   2.415   4.735   3.570
    1TCM     h1 1801   2.286   4.552   3.487
    1TCM    cl3 1802   2.237   4.562   3.721
    1TCM     c1 1803   3.555   2.269   0.957
    1TCM    cl1 1804   3.517   2.215   1.122
    1TCM    cl2 1805   3.413   2.352   0.888
    1TCM     h1 1806   3.641   2.338   0.959
    1TCM    cl3 1807   3.595   2.128   0.856
    1TCM     c1 1808   2.397   1.927   2.606
    1TCM    cl1 1809   2.572   1.910   2.582
    1TCM    cl2 1810   2.365   2.062   2.717
    1TCM     h1 1811   2.347   1.946   2.509
    1TCM    cl3 1812   2.331   1.777   2.676
    1TCM     c1 1813   2.945   2.903   3.479
    1TCM    cl1 1814   3.024   2.973   3.336
    1TCM    cl2 1815   2.777   2.860   3.438
    1TCM     h1 1816   3.000   2.812   3.511
    1TCM    cl3 1817   2.946   3.021   3.612
    1TCM     c1 1818   4.993   1.905   1.693
    1TCM    cl1 1819   5.085   1.889   1.844
    1TCM    cl2 1820   5.044   1.778   1.579
    1TCM     h1 1821   4.885   1.893   1.714
    1TCM    cl3 1822   5.023   2.065   1.622
    1TCM     c1 1823   1.647   1.375   3.583
    1TCM    cl1 1824   1.814   1.422   3.622
    1TCM    cl2 1825   1.539   1.434   3.711
    1TCM     h1 1826   1.618   1.419   3.486
    1TCM    cl3 1827   1.636   1.198   3.574
    1TCM     c1 1828   3.439   4.193   2.246
    1TCM    cl1 1829   3.301   4.121   2.331
    1TCM    cl2 1830   3.384   4.266   2.094
    1TCM     h1 1831   3.485   4.271   2.310
    1TCM    cl3 1832   3.560   4.067   2.211
    1TCM     c1 1833   2.039   3.574   0.502
    1TCM    cl1 1834   2.186   3.671   0.483
    1TCM    cl2 1835   1.998   3.561   0.675
    1TCM     h1 1836   1.955   3.622   0.448
    1TCM    cl3 1837   2.067   3.411   0.436
    1TCM     c1 1838   4.630   2.182   3.333
    1TCM    cl1 1839   4.628   2.318   3.448
    1TCM    cl2 1840   4.668   2.243   3.170
    1TCM     h1 1841   4.707   2.108   3.364
    1TCM    cl3 1842   4.470   2.104   3.331
    1TCM     c1 1843   2.464   3.897   1.512
    1TCM    cl1 1844   2.394   3.995   1.642
    1TCM    cl2 1845   2.638   3.873   1.543
    1TCM     h1 1846   2.414   3.799   1.508
    1TCM    cl3 1847   2.444   3.981   1.356
    1TCM     c1 1848   1.063   4.928   4.812
    1TCM    cl1 1849   1.037   5.069   4.707
    1TCM    cl2 1850   1.154   4.978   4.957
    1TCM     h1 1851   0.965   4.886   4.843
    1TCM    cl3 1852   1.156   4.804   4.724
    1TCM     c1 1853   3.639   3.191   3.709
    1TCM    cl1 1854   3.799   3.127   3.755
    1TCM    cl2 1855   3.630   3.204   3.532
    1TCM     h1 1856   3.560   3.121   3.744
    1TCM    cl3 1857   3.615   3.351   3.782
    1TCM     c1 1858   3.746   3.845   1.239
    1TCM    cl1 1859   3.756   3.682   1.168
    1TCM    cl2 1860   3.653   3.951   1.131
    1TCM     h1 1861   3.696   3.839   1.338
    1TCM    cl3 1862   3.910   3.910   1.259
    1TCM     c1 1863   2.515   1.342   3.932
    1TCM    cl1 1864   2.388   1.394   4.045
    1TCM    cl2 1865   2.441   1.270   3.788
    1TCM     h1 1866   2.577   1.429   3.903
    1TCM    cl3 1867   2.618   1.220   4.012
    1TCM     c1 1868   2.039   3.661   4.930
    1TCM    cl1 1869   2.174   3.759   4.869
    1TCM    cl2 1870   2.057   3.637   5.105
    1TCM     h1 1871   1.943   3.713   4.910
    1TCM    cl3 1872   2.039   3.503   4.848
    1TCM     c1 1873   4.261   3.797   3.213
    1TCM    cl1 1874   4.410   3.727   3.144
    1TCM    cl2 1875   4.120   3.719   3.139
    1TCM     h1 1876   4.260   3.780   3.323
    1TCM    cl3 1877   4.257   3.972   3.179
    1TCM     c1 1878   2.481   5.226   4.706
    1TCM    cl1 1879   2.465   5.235   4.883
    1TCM    cl2 1880   2.335   5.151   4.637
    1TCM     h1 1881   2.493   5.328   4.665
    1TCM    cl3 1882   2.623   5.127   4.665
    1TCM     c1 1883   3.078   1.570   5.007
    1TCM    cl1 1884   3.247   1.548   4.958
    1TCM    cl2 1885   2.970   1.503   4.882
    1TCM     h1 1886   3.060   1.517   5.103
    1TCM    cl3 1887   3.044   1.743   5.027
    1TCM     c1 1888   0.599   0.642   4.150
    1TCM    cl1 1889   0.434   0.585   4.186
    1TCM    cl2 1890   0.601   0.720   3.990
    1TCM     h1 1891   0.630   0.716   4.227
    1TCM    cl3 1892   0.711   0.504   4.150
    1TCM     c1 1893   3.547   0.877   1.962
    1TCM    cl1 1894   3.655   0.737   1.987
    1TCM    cl2 1895   3.421   0.834   1.845
    1TCM     h1 1896   3.501   0.905   2.059
    1TCM    cl3 1897   3.642   1.014   1.900
    1TCM     c1 1898   2.691   4.525   2.471
    1TCM    cl1 1899   2.626   4.690   2.456
    1TCM    cl2 1900   2.839   4.528   2.569
    1TCM     h1 1901   2.615   4.460   2.520
    1TCM    cl3 1902   2.728   4.461   2.309
    1TCM     c1 1903   0.867   1.050   2.176
    1TCM    cl1 1904   0.865   0.890   2.098
    1TCM    cl2 1905   0.935   1.036   2.339
    1TCM     h1 1906   0.929   1.119   2.116
    1TCM    cl3 1907   0.701   1.112   2.186
    1TCM     c1 1908   2.391   4.308   3.182
    1TCM    cl1 1909   2.354   4.310   3.008
    1TCM    cl2 1910   2.345   4.464   3.254
    1TCM     h1 1911   2.332   4.227   3.231
    1TCM    cl3 1912   2.564   4.279   3.206
    1TCM     c1 1913   4.227   1.854   4.782
    1TCM    cl1 1914   4.194   1.905   4.615
    1TCM    cl2 1915   4.294   1.991   4.874
    1TCM     h1 1916   4.133   1.820   4.829
    1TCM    cl3 1917   4.345   1.721   4.780
    1TCM     c1 1918   0.365   0.458   0.322
    1TCM    cl1 1919   0.481   0.332   0.368
    1TCM    cl2 1920   0.424   0.616   0.379
    1TCM     h1 1921   0.353   0.460   0.212
    1TCM    cl3 1922   0.207   0.423   0.398
    1TCM     c1 1923   3.957   3.892   5.158
    1TCM    cl1 1924   3.802   3.934   5.083
    1TCM    cl2 1925   3.934   3.869   5.333
    1TCM     h1 1926   3.997   3.799   5.113
    1TCM    cl3 1927   4.073   4.025   5.132
    1TCM     c1 1928   2.066   2.345   2.748
    1TCM    cl1 1929   2.104   2.236   2.612
    1TCM    cl2 1930   1.996   2.496   2.684
    1TCM     h1 1931   1.993   2.296   2.815
    1TCM    cl3 1932   2.214   2.382   2.838
    1TCM     c1 1933   2.115   4.105   1.542
    1TCM    cl1 1934   2.047   3.949   1.490
    1TCM    cl2 1935   2.174   4.091   1.709
    1TCM     h1 1936   2.199   4.133   1.475
    1TCM    cl3 1937   1.989   4.230   1.535
    1TCM     c1 1938   4.098   3.604   1.897
    1TCM    cl1 1939   4.168   3.591   2.060
    1TCM    cl2 1940   4.144   3.461   1.801
    1TCM     h1 1941   3.988   3.610   1.904
    1TCM    cl3 1942   4.160   3.751   1.817
    1TCM     c1 1943   2.556   4.661   0.639
    1TCM    cl1 1944   2.430   4.621   0.758
    1TCM    cl2 1945   2.523   4.822   0.570
    1TCM     h1 1946   2.655   4.662   0.689
    1TCM    cl3 1947   2.555   4.540   0.509
    1TCM     c1 1948   2.781   2.377   4.680
    1TCM    cl1 1949   2.896   2.243   4.699
    1TCM    cl2 1950   2.711   2.417   4.839
    1TCM     h1 1951   2.834   2.466   4.640
    1TCM    cl3 1952   2.652   2.330   4.568
    1TCM     c1 1953   1.560   3.350   2.680
    1TCM    cl1 1954   1.512   3.213   2.577
    1TCM    cl2 1955   1.585   3.293   2.846
    1TCM     h1 1956   1.655   3.393   2.641
    1TCM    cl3 1957   1.433   3.474   2.677
    1TCM     c1 1958   0.650   4.205   4.913
    1TCM    cl1 1959   0.637   4.181   5.088
    1TCM    cl2 1960   0.527   4.107   4.831
    1TCM     h1 1961   0.634   4.312   4.889
    1TCM    cl3 1962   0.812   4.155   4.858
    1TCM     c1 1963   0.262   2.380   1.750
    1TCM    cl1 1964   0.361   2.526   1.737
    1TCM    cl2 1965   0.193   2.370   1.914
    1TCM     h1 1966   0.179   2.384   1.676
    1TCM    cl3 1967   0.362   2.236   1.720
    1TCM     c1 1968   4.509   1.020   4.252
    1TCM    cl1 1969   4.583   1.116   4.122
    1TCM    cl2 1970   4.498   1.117   4.400
    1TCM     h1 1971   4.407   0.988   4.221
    1TCM    cl3 1972   4.608   0.875   4.282
    1TCM     c1 1973   3.966   1.140   0.468
    1TCM    cl1 1974   3.951   1.276   0.355
    1TCM    cl2 1975   4.001   0.991   0.378
    1TCM     h1 1976   4.048   1.160   0.540
    1TCM    cl3 1977   3.813   1.121   0.558
    1TCM     c1 1978   1.773   1.813   3.954
    1TCM    cl1 1979   1.695   1.674   4.034
    1TCM    cl2 1980   1.708   1.830   3.789
    1TCM     h1 1981   1.752   1.905   4.011
    1TCM    cl3 1982   1.948   1.786   3.946
    1TCM     c1 1983   0.349   1.811   2.072
    1TCM    cl1 1984   0.200   1.881   2.004
    1TCM    cl2 1985   0.341   1.815   2.250
    1TCM     h1 1986   0.360   1.707   2.038
    1TCM    cl3 1987   0.489   1.906   2.017
    1TCM     c1 1988   1.666   0.640   3.451
    1TCM    cl1 1989   1.569   0.542   3.339
    1TCM    cl2 1990   1.642   0.581   3.617
    1TCM     h1 1991   1.773   0.632   3.423
    1TCM    cl3 1992   1.615   0.810   3.440
    1TCM     c1 1993   2.272   4.201   1.209
    1TCM    cl1 1994   2.337   4.323   1.320
    1TCM    cl2 1995   2.273   4.265   1.043
    1TCM     h1 1996   2.335   4.109   1.213
    1TCM    cl3 1997   2.105   4.160   1.256
    1TCM     c1 1998   3.473   1.761   4.312
    1TCM    cl1 1999   3.593   1.780   4.182
    1TCM    cl2 2000   3.526   1.851   4.455
    1TCM     h1 2001   3.375   1.801   4.277
    1TCM    cl3 2002   3.456   1.589   4.352
    1TCM     c1 2003   2.243   3.740   4.250
    1TCM    cl1 2004   2.283   3.840   4.109
    1TCM    cl2 2005   2.374   3.751   4.370
    1TCM     h1 2006   2.148   3.776   4.295
    1TCM    cl3 2007   2.223   3.571   4.200
    1TCM     c1 2008   3.154   0.980   4.951
    1TCM    cl1 2009   3.213   1.134   4.883
    1TCM    cl2 2010   3.190   0.974   5.124
    1TCM     h1 2011   3.044   0.973   4.936
    1TCM    cl3 2012   3.234   0.844   4.868
    1TCM     c1 2013   3.149   2.808   2.420
    1TCM    cl1 2014   3.229   2.841   2.265
    1TCM    cl2 2015   3.271   2.799   2.549
    1TCM     h1 2016   3.078   2.890   2.443
    1TCM    cl3 2017   3.062   2.654   2.411
    1TCM     c1 2018   4.714   4.244   0.901
    1TCM    cl1 2019   4.763   4.221   0.731
    1TCM    cl2 2020   4.859   4.268   1.001
    1TCM     h1 2021   4.649   4.333   0.909
    1TCM    cl3 2022   4.626   4.101   0.958
    1TCM     c1 2023   2.155   2.852   4.410
    1TCM    cl1 2024   2.159   2.841   4.588
    1TCM    cl2 2025   2.102   2.696   4.343
    1TCM     h1 2026   2.084   2.931   4.379
    1TCM    cl3 2027   2.317   2.890   4.349
    1TCM     c1 2028   2.690   4.154   4.379
    1TCM    cl1 2029   2.630   4.314   4.428
    1TCM    cl2 2030   2.651   4.035   4.504
    1TCM     h1 2031   2.642   4.124   4.283
    1TCM    cl3 2032   2.866   4.161   4.356
    1TCM     c1 2033   4.429   5.220   2.645
    1TCM    cl1 2034   4.435   5.113   2.787
    1TCM    cl2 2035   4.262   5.277   2.622
    1TCM     h1 2036   4.496   5.306   2.661
    1TCM    cl3 2037   4.482   5.130   2.501
    1TCM     c1 2038   1.798   3.608   2.136
    1TCM    cl1 2039   1.868   3.759   2.198
    1TCM    cl2 2040   1.852   3.581   1.969
    1TCM     h1 2041   1.832   3.523   2.200
    1TCM    cl3 2042   1.621   3.618   2.140
    1TCM     c1 2043   3.474   0.811   1.054
    1TCM    cl1 2044   3.505   0.843   0.882
    1TCM    cl2 2045   3.490   0.636   1.085
    1TCM     h1 2046   3.548   0.866   1.116
    1TCM    cl3 2047   3.310   0.864   1.096
    1TCM     c1 2048   0.336   3.754   3.039
    1TCM    cl1 2049   0.283   3.796   2.875
    1TCM    cl2 2050   0.195   3.716   3.140
    1TCM     h1 2051   0.403   3.666   3.035
    1TCM    cl3 2052   0.424   3.892   3.110
    1TCM     c1 2053   2.949   2.703   4.893
    1TCM    cl1 2054   2.980   2.735   5.065
    1TCM    cl2 2055   2.893   2.536   4.872
    1TCM     h1 2056   2.871   2.773   4.856
    1TCM    cl3 2057   3.099   2.727   4.800
    1TCM     c1 2058   2.262   0.674   0.696
    1TCM    cl1 2059   2.394   0.781   0.645
    1TCM    cl2 2060   2.321   0.563   0.822
    1TCM     h1 2061   2.179   0.735   0.737
    1TCM    cl3 2062   2.204   0.580   0.557
    1TCM     c1 2063   2.967   0.270   2.241
    1TCM    cl1 2064   3.144   0.255   2.247
    1TCM    cl2 2065   2.923   0.442   2.227
    1TCM     h1 2066   2.928   0.215   2.153
    1TCM    cl3 2067   2.896   0.202   2.389
    1TCM     c1 2068   1.827   3.543   4.605
    1TCM    cl1 2069   1.899   3.678   4.697
    1TCM    cl2 2070   1.824   3.397   4.707
    1TCM     h1 2071   1.723   3.570   4.576
    1TCM    cl3 2072   1.924   3.512   4.460
    1TCM     c1 2073   0.868   2.903   0.737
    1TCM    cl1 2074   0.959   2.991   0.862
    1TCM    cl2 2075   0.720   2.834   0.808
    1TCM     h1 2076   0.841   2.973   0.655
    1TCM    cl3 2077   0.969   2.772   0.671
    1TCM     c1 2078   2.988   0.211   3.453
    1TCM    cl1 2079   3.153   0.200   3.519
    1TCM    cl2 2080   2.977   0.112   3.306
    1TCM     h1 2081   2.915   0.175   3.528
    1TCM    cl3 2082   2.952   0.381   3.412
    1TCM     c1 2083   2.116   3.017   1.143
    1TCM    cl1 2084   1.963   2.945   1.089
    1TCM    cl2 2085   2.189   3.108   1.008
    1TCM     h1 2086   2.097   3.086   1.227
    1TCM    cl3 2087   2.227   2.889   1.195
    1TCM     c1 2088   3.062   5.178   4.009
    1TCM    cl1 2089   2.927   5.063   4.020
    1TCM    cl2 2090   3.114   5.224   4.172
    1TCM     h1 2091   3.146   5.131   3.955
    1TCM    cl3 2092   3.008   5.323   3.920
    1TCM     c1 2093   0.246   0.362   4.231
    1TCM    cl1 2094   0.198   0.508   4.142
    1TCM    cl2 2095   0.334   0.408   4.378
    1TCM     h1 2096   0.155   0.305   4.259
    1TCM    cl3 2097   0.350   0.261   4.128
    1TCM     c1 2098   2.455   2.649   3.980
    1TCM    cl1 2099   2.313   2.651   4.087
    1TCM    cl2 2100   2.410   2.710   3.820
    1TCM     h1 2101   2.534   2.714   4.023
    1TCM    cl3 2102   2.517   2.483   3.966
    1TCM     c1 2103   0.787   1.480   0.280
    1TCM    cl1 2104   0.920   1.432   0.172
    1TCM    cl2 2105   0.686   1.339   0.317
    1TCM     h1 2106   0.829   1.521   0.374
    1TCM    cl3 2107   0.688   1.605   0.200
    1TCM     c1 2108   4.655   2.979   1.942
    1TCM    cl1 2109   4.604   3.136   2.008
    1TCM    cl2 2110   4.805   2.927   2.023
    1TCM     h1 2111   4.576   2.904   1.960
    1TCM    cl3 2112   4.684   2.994   1.768
    1TCM     c1 2113   3.131   3.240   0.590
    1TCM    cl1 2114   3.069   3.132   0.717
    1TCM    cl2 2115   3.184   3.393   0.662
    1TCM     h1 2116   3.216   3.191   0.539
    1TCM    cl3 2117   3.001   3.272   0.472
    1TCM     c1 2118   2.579   4.890   1.595
    1TCM    cl1 2119   2.520   4.758   1.492
    1TCM    cl2 2120   2.458   4.929   1.719
    1TCM     h1 2121   2.674   4.859   1.644
    1TCM    cl3 2122   2.609   5.034   1.495
    1TCM     c1 2123   2.697   4.000   4.960
    1TCM    cl1 2124   2.722   4.171   4.999
    1TCM    cl2 2125   2.788   3.959   4.813
    1TCM     h1 2126   2.733   3.937   5.045
    1TCM    cl3 2127   2.524   3.969   4.934
    1TCM     c1 2128   3.963   3.976   2.742
    1TCM    cl1 2129   4.034   3.826   2.809
    1TCM    cl2 2130   3.889   3.941   2.584
    1TCM     h1 2131   3.886   4.015   2.812
    1TCM    cl3 2132   4.091   4.097   2.721
    1TCM     c1 2133   2.338   1.569   2.498
    1TCM    cl1 2134   2.214   1.696   2.498
    1TCM    cl2 2135   2.498   1.641   2.467
    1TCM     h1 2136   2.339   1.519   2.597
    1TCM    cl3 2137   2.301   1.450   2.371
    1TCM     c1 2138   4.908   2.351   0.671
    1TCM    cl1 2139   4.773   2.362   0.556
    1TCM    cl2 2140   4.845   2.354   0.837
    1TCM     h1 2141   4.964   2.256   0.654
    1TCM    cl3 2142   5.018   2.489   0.646
    1TCM     c1 2143   4.183   0.558   3.233
    1TCM    cl1 2144   4.337   0.553   3.322
    1TCM    cl2 2145   4.199   0.467   3.081
    1TCM     h1 2146   4.103   0.513   3.295
    1TCM    cl3 2147   4.142   0.727   3.196
    1TCM     c1 2148   4.853   2.340   0.168
    1TCM    cl1 2149   4.927   2.481   0.247
    1TCM    cl2 2150   4.767   2.243   0.289
    1TCM     h1 2151   4.782   2.374   0.090
    1TCM    cl3 2152   4.981   2.241   0.093
    1TCM     c1 2153   3.410   1.219   1.051
    1TCM    cl1 2154   3.272   1.204   1.162
    1TCM    cl2 2155   3.380   1.121   0.906
    1TCM     h1 2156   3.423   1.325   1.023
    1TCM    cl3 2157   3.558   1.161   1.132
    1TCM     c1 2158   2.747   4.389   4.731
    1TCM    cl1 2159   2.776   4.510   4.604
    1TCM    cl2 2160   2.682   4.241   4.658
    1TCM     h1 2161   2.843   4.367   4.783
    1TCM    cl3 2162   2.630   4.454   4.848
    1TCM     c1 2163   1.520   5.270   0.611
    1TCM    cl1 2164   1.620   5.307   0.753
    1TCM    cl2 2165   1.595   5.340   0.465
    1TCM     h1 2166   1.511   5.160   0.599
    1TCM    cl3 2167   1.357   5.340   0.633
    1TCM     c1 2168   1.403   3.292   4.506
    1TCM    cl1 2169   1.548   3.379   4.560
    1TCM    cl2 2170   1.446   3.181   4.373
    1TCM     h1 2171   1.361   3.233   4.590
    1TCM    cl3 2172   1.281   3.408   4.448
    1TCM     c1 2173   1.228   2.254   2.433
    1TCM    cl1 2174   1.388   2.278   2.508
    1TCM    cl2 2175   1.242   2.270   2.257
    1TCM     h1 2176   1.191   2.152   2.458
    1TCM    cl3 2177   1.115   2.376   2.495
    1TCM     c1 2178   1.429   1.394   0.634
    1TCM    cl1 2179   1.327   1.426   0.491
    1TCM    cl2 2180   1.594   1.352   0.581
    1TCM     h1 2181   1.433   1.484   0.698
    1TCM    cl3 2182   1.361   1.258   0.726
    1TCM     c1 2183   0.366   5.193   3.258
    1TCM    cl1 2184   0.229   5.083   3.233
    1TCM    cl2 2185   0.343   5.340   3.161
    1TCM     h1 2186   0.373   5.220   3.366
    1TCM    cl3 2187   0.516   5.112   3.208
    1TCM     c1 2188   2.794   3.960   0.332
    1TCM    cl1 2189   2.834   3.865   0.477
    1TCM    cl2 2190   2.744   3.850   0.201
    1TCM     h1 2191   2.710   4.029   0.355
    1TCM    cl3 2192   2.936   4.053   0.280
    1TCM     c1 2193   5.172   1.815   0.823
    1TCM    cl1 2194   5.301   1.872   0.715
    1TCM    cl2 2195   5.081   1.685   0.743
    1TCM     h1 2196   5.217   1.776   0.917
    1TCM    cl3 2197   5.062   1.950   0.861
    1TCM     c1 2198   3.247   4.758   4.106
    1TCM    cl1 2199   3.278   4.613   4.205
    1TCM    cl2 2200   3.169   4.710   3.954
    1TCM     h1 2201   3.180   4.827   4.162
    1TCM    cl3 2202   3.401   4.840   4.071
    1TCM     c1 2203   0.359   3.222   3.462
    1TCM    cl1 2204   0.368   3.357   3.577
    1TCM    cl2 2205   0.275   3.085   3.539
    1TCM     h1 2206   0.303   3.253   3.372
    1TCM    cl3 2207   0.523   3.172   3.416
    1TCM     c1 2208   2.887   0.492   1.968
    1TCM    cl1 2209   3.009   0.590   2.053
    1TCM    cl2 2210   2.931   0.479   1.796
    1TCM     h1 2211   2.882   0.391   2.013
    1TCM    cl3 2212   2.728   0.571   1.983
    1TCM     c1 2213   4.850   5.005   4.338
    1TCM    cl1 2214   4.873   4.904   4.482
    1TCM    cl2 2215   4.807   5.170   4.388
    1TCM     h1 2216   4.944   5.007   4.279
    1TCM    cl3 2217   4.719   4.937   4.238
    1TCM     c1 2218   4.015   1.003   2.050
    1TCM    cl1 2219   4.056   0.858   1.957
    1TCM    cl2 2220   3.999   0.962   2.222
    1TCM     h1 2221   4.096   1.079   2.037
    1TCM    cl3 2222   3.862   1.070   1.990
    1TCM     c1 2223   2.327   4.776   2.447
    1TCM    cl1 2224   2.245   4.654   2.348
    1TCM    cl2 2225   2.412   4.696   2.582
    1TCM     h1 2226   2.401   4.831   2.385
    1TCM    cl3 2227   2.207   4.890   2.513
    1TCM     c1 2228   2.256   2.619   0.910
    1TCM    cl1 2229   2.432   2.603   0.925
    1TCM    cl2 2230   2.214   2.649   0.740
    1TCM     h1 2231   2.207   2.526   0.945
    1TCM    cl3 2232   2.201   2.756   1.009
    1TCM     c1 2233   2.182   4.736   0.424
    1TCM    cl1 2234   2.317   4.638   0.485
    1TCM    cl2 2235   2.112   4.658   0.280
    1TCM     h1 2236   2.104   4.744   0.502
    1TCM    cl3 2237   2.241   4.898   0.381
    1TCM     c1 2238   3.682   1.159   2.428
    1TCM    cl1 2239   3.593   1.279   2.332
    1TCM    cl2 2240   3.776   1.054   2.319
    1TCM     h1 2241   3.752   1.212   2.497
    1TCM    cl3 2242   3.568   1.061   2.522
    1TCM     c1 2243   3.713   4.001   0.803
    1TCM    cl1 2244   3.881   4.047   0.842
    1TCM    cl2 2245   3.603   4.131   0.854
    1TCM     h1 2246   3.704   3.984   0.694
    1TCM    cl3 2247   3.671   3.851   0.889
    1TCM     c1 2248   1.698   4.331   2.145
    1TCM    cl1 2249   1.640   4.235   2.007
    1TCM    cl2 2250   1.816   4.236   2.238
    1TCM     h1 2251   1.747   4.424   2.108
    1TCM    cl3 2252   1.561   4.374   2.250
    1TCM     c1 2253   5.008   2.839   3.170
    1TCM    cl1 2254   5.106   2.850   3.318
    1TCM    cl2 2255   4.875   2.956   3.178
    1TCM     h1 2256   5.072   2.861   3.082
    1TCM    cl3 2257   4.941   2.674   3.155
    1TCM     c1 2258   1.502   1.324   2.100
    1TCM    cl1 2259   1.399   1.214   2.006
    1TCM    cl2 2260   1.507   1.270   2.269
    1TCM     h1 2261   1.605   1.323   2.058
    1TCM    cl3 2262   1.436   1.489   2.091
    1TCM     c1 2263   1.062   4.271   0.226
    1TCM    cl1 2264   1.192   4.198   0.323
    1TCM    cl2 2265   0.916   4.170   0.236
    1TCM     h1 2266   1.040   4.373   0.264
    1TCM    cl3 2267   1.115   4.282   0.056
    1TCM     c1 2268   3.148   2.637   0.925
    1TCM    cl1 2269   2.991   2.613   0.845
    1TCM    cl2 2270   3.135   2.591   1.096
    1TCM     h1 2271   3.225   2.575   0.875
    1TCM    cl3 2272   3.195   2.809   0.914
    1TCM     c1 2273   0.585   1.988   2.552
    1TCM    cl1 2274   0.556   2.033   2.382
    1TCM    cl2 2275   0.721   2.083   2.616
    1TCM     h1 2276   0.494   2.009   2.612
    1TCM    cl3 2277   0.624   1.815   2.561
    1TCM     c1 2278   2.624   0.765   4.986
    1TCM    cl1 2279   2.719   0.902   4.925
    1TCM    cl2 2280   2.453   0.812   4.999
    1TCM     h1 2281   2.634   0.679   4.915
    1TCM    cl3 2282   2.685   0.716   5.146
    1TCM     c1 2283   0.415   4.339   4.233
    1TCM    cl1 2284   0.481   4.322   4.398
    1TCM    cl2 2285   0.478   4.208   4.130
    1TCM     h1 2286   0.304   4.333   4.237
    1TCM    cl3 2287   0.464   4.496   4.166
    1TCM     c1 2288   4.989   4.014   1.502
    1TCM    cl1 2289   5.027   3.860   1.583
    1TCM    cl2 2290   4.998   3.991   1.325
    1TCM     h1 2291   4.887   4.046   1.530
    1TCM    cl3 2292   5.107   4.138   1.551
    1TCM     c1 2293   2.606   2.277   0.422
    1TCM    cl1 2294   2.624   2.397   0.292
    1TCM    cl2 2295   2.672   2.344   0.573
    1TCM     h1 2296   2.498   2.255   0.436
    1TCM    cl3 2297   2.693   2.128   0.379
    1TCM     c1 2298   3.368   2.467   2.156
    1TCM    cl1 2299   3.463   2.612   2.197
    1TCM    cl2 2300   3.197   2.512   2.136
    1TCM     h1 2301   3.406   2.423   2.062
    1TCM    cl3 2302   3.383   2.348   2.287
    1TCM     c1 2303   4.063   1.262   5.231
    1TCM    cl1 2304   4.015   1.125   5.129
    1TCM    cl2 2305   4.206   1.217   5.327
    1TCM     h1 2306   4.087   1.349   5.167
    1TCM    cl3 2307   3.929   1.305   5.340
    1TCM     c1 2308   1.087   2.066   4.521
    1TCM    cl1 2309   1.168   2.103   4.674
    1TCM    cl2 2310   1.066   1.890   4.506
    1TCM     h1 2311   0.988   2.115   4.518
    1TCM    cl3 2312   1.187   2.125   4.385
    1TCM     c1 2313   0.427   0.361   2.166
    1TCM    cl1 2314   0.475   0.532   2.156
    1TCM    cl2 2315   0.403   0.296   2.003
    1TCM     h1 2316   0.506   0.303   2.218
    1TCM    cl3 2317   0.275   0.348   2.258
    1TCM     c1 2318   3.810   0.442   1.107
    1TCM    cl1 2319   3.709   0.297   1.085
    1TCM    cl2 2320   3.823   0.529   0.952
    1TCM     h1 2321   3.763   0.508   1.183
    1TCM    cl3 2322   3.972   0.394   1.161
    1TCM     c1 2323   3.142   2.293   3.630
    1TCM    cl1 2324   3.312   2.239   3.630
    1TCM    cl2 2325   3.038   2.161   3.570
    1TCM     h1 2326   3.112   2.319   3.734
    1TCM    cl3 2327   3.125   2.435   3.525
    1TCM     c1 2328   3.764   2.883   3.553
    1TCM    cl1 2329   3.732   2.735   3.459
    1TCM    cl2 2330   3.824   3.010   3.444
    1TCM     h1 2331   3.670   2.917   3.601
    1TCM    cl3 2332   3.886   2.850   3.677
    1TCM     c1 2333   3.235   4.463   1.829
    1TCM    cl1 2334   3.125   4.377   1.939
    1TCM    cl2 2335   3.258   4.365   1.682
    1TCM     h1 2336   3.191   4.561   1.802
    1TCM    cl3 2337   3.392   4.488   1.909
    1TCM     c1 2338   0.522   1.311   4.217
    1TCM    cl1 2339   0.362   1.234   4.214
    1TCM    cl2 2340   0.643   1.194   4.273
    1TCM     h1 2341   0.548   1.346   4.115
    1TCM    cl3 2342   0.518   1.450   4.328
    1TCM     c1 2343   0.386   1.841   1.625
    1TCM    cl1 2344   0.353   1.769   1.785
    1TCM    cl2 2345   0.561   1.838   1.594
    1TCM     h1 2346   0.333   1.782   1.547
    1TCM    cl3 2347   0.327   2.009   1.622
    1TCM     c1 2348   0.132   2.940   1.388
    1TCM    cl1 2349   0.002   3.056   1.352
    1TCM    cl2 2350   0.285   3.028   1.411
    1TCM     h1 2351   0.108   2.884   1.481
    1TCM    cl3 2352   0.150   2.826   1.253
    1TCM     c1 2353   0.892   3.672   0.105
    1TCM    cl1 2354   0.882   3.529   0.000
    1TCM    cl2 2355   0.827   3.632   0.266
    1TCM     h1 2356   0.998   3.704   0.114
    1TCM    cl3 2357   0.797   3.804   0.033
    1TCM     c1 2358   3.680   1.356   1.505
    1TCM    cl1 2359   3.603   1.210   1.571
    1TCM    cl2 2360   3.752   1.318   1.347
    1TCM     h1 2361   3.605   1.436   1.493
    1TCM    cl3 2362   3.808   1.411   1.616
    1TCM     c1 2363   3.481   1.724   4.808
    1TCM    cl1 2364   3.440   1.712   4.981
    1TCM    cl2 2365   3.652   1.772   4.791
    1TCM     h1 2366   3.465   1.626   4.759
    1TCM    cl3 2367   3.378   1.846   4.731
    1TCM     c1 2368   0.716   3.968   4.304
    1TCM    cl1 2369   0.552   3.910   4.270
    1TCM    cl2 2370   0.785   3.875   4.439
    1TCM     h1 2371   0.780   3.955   4.214
    1TCM    cl3 2372   0.710   4.141   4.347
    1TCM     c1 2373   3.599   3.219   5.185
    1TCM    cl1 2374   3.611   3.250   5.010
    1TCM    cl2 2375   3.706   3.332   5.272
    1TCM     h1 2376   3.494   3.234   5.218
    1TCM    cl3 2377   3.649   3.052   5.219
    1TCM     c1 2378   0.970   2.661   1.548
    1TCM    cl1 2379   0.797   2.699   1.565
    1TCM    cl2 2380   1.003   2.609   1.381
    1TCM     h1 2381   1.030   2.751   1.571
    1TCM    cl3 2382   1.013   2.530   1.661
    1TCM     c1 2383   4.402   5.086   5.219
    1TCM    cl1 2384   4.306   4.937   5.218
    1TCM    cl2 2385   4.319   5.210   5.123
    1TCM     h1 2386   4.413   5.122   5.324
    1TCM    cl3 2387   4.562   5.055   5.149
    1TCM     c1 2388   4.432   1.120   0.298
    1TCM    cl1 2389   4.304   1.118   0.175
    1TCM    cl2 2390   4.484   0.953   0.333
    1TCM     h1 2391   4.519   1.178   0.261
    1TCM    cl3 2392   4.371   1.195   0.447
    1TCM     c1 2393   3.107   0.838   3.514
    1TCM    cl1 2394   2.968   0.879   3.411
    1TCM    cl2 2395   3.236   0.766   3.414
    1TCM     h1 2396   3.146   0.931   3.563
    1TCM    cl3 2397   3.057   0.722   3.639
    1TCM     c1 2398   4.376   1.369   4.895
    1TCM    cl1 2399   4.395   1.407   5.068
    1TCM    cl2 2400   4.296   1.211   4.878
    1TCM     h1 2401   4.315   1.447   4.847
    1TCM    cl3 2402   4.536   1.362   4.818
    1TCM     c1 2403   4.762   2.169   3.816
    1TCM    cl1 2404   4.884   2.054   3.875
    1TCM    cl2 2405   4.626   2.079   3.746
    1TCM     h1 2406   4.726   2.231   3.900
    1TCM    cl3 2407   4.834   2.273   3.691
    1TCM     c1 2408   0.080   4.855   3.777
    1TCM    cl1 2409   0.241   4.847   3.853
    1TCM    cl2 2410   0.097   4.839   3.600
    1TCM     h1 2411   0.017   4.773   3.815
    1TCM    cl3 2412   0.005   5.012   3.815
    1TCM     c1 2413   3.367   0.752   3.801
    1TCM    cl1 2414   3.394   0.727   3.976
    1TCM    cl2 2415   3.502   0.846   3.734
    1TCM     h1 2416   3.361   0.653   3.751
    1TCM    cl3 2417   3.214   0.840   3.777
    1TCM     c1 2418   3.841   3.779   1.615
    1TCM    cl1 2419   3.684   3.842   1.671
    1TCM    cl2 2420   3.857   3.608   1.664
    1TCM     h1 2421   3.846   3.786   1.505
    1TCM    cl3 2422   3.973   3.874   1.687
    1TCM     c1 2423   0.554   0.173   1.369
    1TCM    cl1 2424   0.417   0.280   1.405
    1TCM    cl2 2425   0.526   0.090   1.214
    1TCM     h1 2426   0.647   0.234   1.362
    1TCM    cl3 2427   0.571   0.052   1.498
    1TCM     c1 2428   2.163   3.964   3.682
    1TCM    cl1 2429   2.141   4.137   3.719
    1TCM    cl2 2430   2.187   3.874   3.833
    1TCM     h1 2431   2.073   3.926   3.629
    1TCM    cl3 2432   2.305   3.944   3.577
    1TCM     c1 2433   4.515   3.949   1.353
    1TCM    cl1 2434   4.648   3.943   1.471
    1TCM    cl2 2435   4.581   3.926   1.189
    1TCM     h1 2436   4.442   3.868   1.375
    1TCM    cl3 2437   4.434   4.107   1.363
    1TCM     c1 2438   3.168   4.356   4.571
    1TCM    cl1 2439   2.991   4.360   4.587
    1TCM    cl2 2440   3.238   4.269   4.709
    1TCM     h1 2441   3.195   4.304   4.477
    1TCM    cl3 2442   3.231   4.522   4.568
    1TCM     c1 2443   2.070   1.872   4.797
    1TCM    cl1 2444   2.117   1.814   4.636
    1TCM    cl2 2445   2.113   1.750   4.919
    1TCM     h1 2446   2.124   1.966   4.819
    1TCM    cl3 2447   1.895   1.901   4.802
    1TCM     c1 2448   1.511   3.513   1.880
    1TCM    cl1 2449   1.589   3.673   1.876
    1TCM    cl2 2450   1.377   3.515   1.997
    1TCM     h1 2451   1.471   3.489   1.779
    1TCM    cl3 2452   1.630   3.390   1.928
    1TCM     c1 2453   1.842   0.164   1.536
    1TCM    cl1 2454   1.786   0.031   1.641
    1TCM    cl2 2455   1.795   0.130   1.368
    1TCM     h1 2456   1.797   0.259   1.570
    1TCM    cl3 2457   2.020   0.176   1.547
    1TCM     c1 2458   4.206   4.401   3.759
    1TCM    cl1 2459   4.272   4.410   3.595
    1TCM    cl2 2460   4.330   4.453   3.876
    1TCM     h1 2461   4.117   4.468   3.767
    1TCM    cl3 2462   4.158   4.234   3.795
    1TCM     c1 2463   0.703   0.987   3.803
    1TCM    cl1 2464   0.755   0.817   3.814
    1TCM    cl2 2465   0.825   1.090   3.882
    1TCM     h1 2466   0.693   1.016   3.697
    1TCM    cl3 2467   0.547   1.006   3.886
    1TCM     c1 2468   1.705   4.448   0.717
    1TCM    cl1 2469   1.700   4.601   0.808
    1TCM    cl2 2470   1.711   4.483   0.543
    1TCM     h1 2471   1.796   4.391   0.746
    1TCM    cl3 2472   1.560   4.353   0.753
    1TCM     c1 2473   3.247   0.387   0.135
    1TCM    cl1 2474   3.259   0.502   0.000
    1TCM    cl2 2475   3.145   0.249   0.087
    1TCM     h1 2476   3.348   0.350   0.162
    1TCM    cl3 2477   3.174   0.467   0.276
    1TCM     c1 2478   3.780   0.952   3.293
    1TCM    cl1 2479   3.613   0.899   3.265
    1TCM    cl2 2480   3.832   1.056   3.158
    1TCM     h1 2481   3.785   1.009   3.388
    1TCM    cl3 2482   3.886   0.810   3.303
    1TCM     c1 2483   0.141   4.599   3.987
    1TCM    cl1 2484   0.044   4.529   3.856
    1TCM    cl2 2485   0.302   4.643   3.925
    1TCM     h1 2486   0.090   4.689   4.027
    1TCM    cl3 2487   0.159   4.479   4.117
    1TCM     c1 2488   4.396   1.735   5.177
    1TCM    cl1 2489   4.395   1.866   5.058
    1TCM    cl2 2490   4.418   1.803   5.340
    1TCM     h1 2491   4.299   1.680   5.173
    1TCM    cl3 2492   4.529   1.623   5.141
    1TCM     c1 2493   0.399   0.679   2.787
    1TCM    cl1 2494   0.428   0.828   2.881
    1TCM    cl2 2495   0.337   0.553   2.895
    1TCM     h1 2496   0.325   0.700   2.708
    1TCM    cl3 2497   0.552   0.625   2.714
    1TCM     c1 2498   0.372   2.222   2.098
    1TCM    cl1 2499   0.279   2.343   2.188
    1TCM    cl2 2500   0.417   2.288   1.939
    1TCM     h1 2501   0.464   2.196   2.155
    1TCM    cl3 2502   0.273   2.076   2.075
    1TCM     c1 2503   3.727   2.192   1.693
    1TCM    cl1 2504   3.837   2.156   1.558
    1TCM    cl2 2505   3.631   2.337   1.654
    1TCM     h1 2506   3.660   2.106   1.709
    1TCM    cl3 2507   3.822   2.222   1.840
    1TCM     c1 2508   2.658   0.920   4.316
    1TCM    cl1 2509   2.812   1.010   4.309
    1TCM    cl2 2510   2.543   1.007   4.420
    1TCM     h1 2511   2.616   0.911   4.214
    1TCM    cl3 2512   2.688   0.758   4.383
    1TCM     c1 2513   4.669   2.541   4.939
    1TCM    cl1 2514   4.525   2.642   4.968
    1TCM    cl2 2515   4.644   2.443   4.793
    1TCM     h1 2516   4.758   2.607   4.925
    1TCM    cl3 2517   4.696   2.435   5.079
    1TCM     c1 2518   3.840   0.775   2.855
    1TCM    cl1 2519   3.755   0.661   2.961
    1TCM    cl2 2520   3.801   0.942   2.903
    1TCM     h1 2521   3.950   0.759   2.863
    1TCM    cl3 2522   3.789   0.749   2.686
    1TCM     c1 2523   3.303   2.095   3.328
    1TCM    cl1 2524   3.444   2.019   3.405
    1TCM    cl2 2525   3.296   2.047   3.157
    1TCM     h1 2526   3.211   2.061   3.379
    1TCM    cl3 2527   3.316   2.272   3.340
    1TCM     c1 2528   3.665   1.689   1.508
    1TCM    cl1 2529   3.812   1.668   1.411
    1TCM    cl2 2530   3.673   1.585   1.652
    1TCM     h1 2531   3.656   1.795   1.540
    1TCM    cl3 2532   3.522   1.645   1.411
    1TCM     c1 2533   0.439   3.472   1.601
    1TCM    cl1 2534   0.271   3.445   1.551
    1TCM    cl2 2535   0.538   3.333   1.551
    1TCM     h1 2536   0.478   3.564   1.553
    1TCM    cl3 2537   0.446   3.488   1.778
    1TCM     c1 2538   2.480   3.735   4.584
    1TCM    cl1 2539   2.340   3.626   4.596
    1TCM    cl2 2540   2.425   3.896   4.533
    1TCM     h1 2541   2.529   3.743   4.683
    1TCM    cl3 2542   2.595   3.671   4.465
    1TCM     c1 2543   1.904   1.606   1.965
    1TCM    cl1 2544   1.782   1.668   1.852
    1TCM    cl2 2545   1.990   1.469   1.891
    1TCM     h1 2546   1.976   1.687   1.990
    1TCM    cl3 2547   1.823   1.551   2.114
    1TCM     c1 2548   4.516   2.608   0.238
    1TCM    cl1 2549   4.406   2.747   0.226
    1TCM    cl2 2550   4.464   2.481   0.124
    1TCM     h1 2551   4.619   2.640   0.213
    1TCM    cl3 2552   4.512   2.544   0.404
    1TCM     c1 2553   3.111   4.581   3.602
    1TCM    cl1 2554   3.265   4.568   3.515
    1TCM    cl2 2555   2.981   4.512   3.501
    1TCM     h1 2556   3.117   4.524   3.697
    1TCM    cl3 2557   3.076   4.751   3.636
    1TCM     c1 2558   4.989   3.891   5.167
    1TCM    cl1 2559   5.071   3.760   5.078
    1TCM    cl2 2560   5.025   3.876   5.340
    1TCM     h1 2561   5.024   3.989   5.129
    1TCM    cl3 2562   4.813   3.878   5.142
    1TCM     c1 2563   1.196   2.665   3.325
    1TCM    cl1 2564   1.369   2.708   3.329
    1TCM    cl2 2565   1.099   2.814   3.332
    1TCM     h1 2566   1.174   2.611   3.232
    1TCM    cl3 2567   1.158   2.563   3.465
    1TCM     c1 2568   2.583   2.821   1.391
    1TCM    cl1 2569   2.425   2.902   1.385
    1TCM    cl2 2570   2.681   2.869   1.251
    1TCM     h1 2571   2.636   2.849   1.485
    1TCM    cl3 2572   2.559   2.645   1.389
    1TCM     c1 2573   0.146   3.558   3.560
    1TCM    cl1 2574   0.206   3.487   3.712
    1TCM    cl2 2575   0.107   3.729   3.587
    1TCM     h1 2576   0.224   3.550   3.482
    1TCM    cl3 2577   0.000   3.471   3.508
    1TCM     c1 2578   2.491   4.832   3.298
    1TCM    cl1 2579   2.477   4.986   3.386
    1TCM    cl2 2580   2.522   4.866   3.126
    1TCM     h1 2581   2.575   4.773   3.339
    1TCM    cl3 2582   2.339   4.741   3.314
    1TCM     c1 2583   4.997   2.720   4.199
    1TCM    cl1 2584   4.876   2.851   4.199
    1TCM    cl2 2585   5.024   2.665   4.365
    1TCM     h1 2586   4.960   2.636   4.137
    1TCM    cl3 2587   5.150   2.780   4.130
    1TCM     c1 2588   2.587   2.226   3.594
    1TCM    cl1 2589   2.701   2.093   3.625
    1TCM    cl2 2590   2.441   2.203   3.692
    1TCM     h1 2591   2.635   2.323   3.621
    1TCM    cl3 2592   2.543   2.228   3.421
    1TCM     c1 2593   1.983   0.914   4.093
    1TCM    cl1 2594   1.937   0.760   4.018
    1TCM    cl2 2595   1.893   0.935   4.245
    1TCM     h1 2596   2.092   0.914   4.115
    1TCM    cl3 2597   1.944   1.048   3.982
    1TCM     c1 2598   0.929   0.348   0.919
    1TCM    cl1 2599   0.963   0.521   0.945
    1TCM    cl2 2600   0.754   0.324   0.897
    1TCM     h1 2601   0.983   0.312   0.829
    1TCM    cl3 2602   0.984   0.256   1.061
    1TCM     c1 2603   4.151   1.431   3.665
    1TCM    cl1 2604   4.181   1.574   3.565
    1TCM    cl2 2605   4.118   1.481   3.832
    1TCM     h1 2606   4.064   1.376   3.625
    1TCM    cl3 2607   4.294   1.325   3.662
    1TCM     c1 2608   3.243   4.944   3.378
    1TCM    cl1 2609   3.290   5.090   3.287
    1TCM    cl2 2610   3.079   4.963   3.442
    1TCM     h1 2611   3.247   4.856   3.310
    1TCM    cl3 2612   3.357   4.919   3.513
    1TCM     c1 2613   2.196   2.521   3.116
    1TCM    cl1 2614   2.129   2.654   3.019
    1TCM    cl2 2615   2.195   2.566   3.288
    1TCM     h1 2616   2.135   2.430   3.101
    1TCM    cl3 2617   2.363   2.489   3.064
    1TCM     c1 2618   1.509   0.735   5.234
    1TCM    cl1 2619   1.474   0.873   5.340
    1TCM    cl2 2620   1.545   0.794   5.070
    1TCM     h1 2621   1.596   0.680   5.273
    1TCM    cl3 2622   1.368   0.627   5.228
    1TCM     c1 2623   2.190   4.408   4.392
    1TCM    cl1 2624   2.195   4.576   4.449
    1TCM    cl2 2625   2.115   4.306   4.517
    1TCM     h1 2626   2.129   4.402   4.299
    1TCM    cl3 2627   2.355   4.351   4.359
    1TCM     c1 2628   0.775   3.743   5.077
    1TCM    cl1 2629   0.648   3.643   5.003
    1TCM    cl2 2630   0.935   3.683   5.026
    1TCM     h1 2631   0.763   3.849   5.044
    1TCM    cl3 2632   0.763   3.735   5.254
    1TCM     c1 2633   5.094   3.053   1.866
    1TCM    cl1 2634   5.170   2.935   1.976
    1TCM    cl2 2635   5.220   3.151   1.788
    1TCM     h1 2636   5.037   2.999   1.788
    1TCM    cl3 2637   4.985   3.158   1.958
    1TCM     c1 2638   3.329   1.202   3.589
    1TCM    cl1 2639   3.289   1.324   3.466
    1TCM    cl2 2640   3.179   1.129   3.651
    1TCM     h1 2641   3.392   1.123   3.544
    1TCM    cl3 2642   3.417   1.280   3.723
    1TCM     c1 2643   1.541   0.088   1.311
    1TCM    cl1 2644   1.384   0.006   1.295
    1TCM    cl2 2645   1.658   0.013   1.200
    1TCM     h1 2646   1.529   0.195   1.285
    1TCM    cl3 2647   1.599   0.073   1.478
    1TCM     c1 2648   2.764   2.943   3.886
    1TCM    cl1 2649   2.725   2.772   3.858
    1TCM    cl2 2650   2.927   2.955   3.957
    1TCM     h1 2651   2.761   2.998   3.790
    1TCM    cl3 2652   2.645   3.013   3.998
    1TCM     c1 2653   5.074   3.360   1.250
    1TCM    cl1 2654   5.165   3.456   1.132
    1TCM    cl2 2655   5.003   3.469   1.372
    1TCM     h1 2656   4.993   3.305   1.198
    1TCM    cl3 2657   5.183   3.245   1.330
    1TCM     c1 2658   1.884   0.267   0.187
    1TCM    cl1 2659   1.845   0.426   0.116
    1TCM    cl2 2660   1.866   0.275   0.364
    1TCM     h1 2661   1.815   0.191   0.146
    1TCM    cl3 2662   2.052   0.224   0.146
    1TCM     c1 2663   1.123   1.963   3.024
    1TCM    cl1 2664   1.055   2.087   2.916
    1TCM    cl2 2665   0.995   1.850   3.072
    1TCM     h1 2666   1.204   1.908   2.970
    1TCM    cl3 2667   1.191   2.041   3.169
    1TCM     c1 2668   2.719   3.878   2.469
    1TCM    cl1 2669   2.574   3.896   2.570
    1TCM    cl2 2670   2.688   3.947   2.307
    1TCM     h1 2671   2.804   3.931   2.516
    1TCM    cl3 2672   2.759   3.705   2.453
    1TCM     c1 2673   1.489   0.567   2.965
    1TCM    cl1 2674   1.470   0.744   2.959
    1TCM    cl2 2675   1.330   0.489   2.948
    1TCM     h1 2676   1.555   0.535   2.881
    1TCM    cl3 2677   1.562   0.521   3.120
    1TCM     c1 2678   5.107   5.022   2.764
    1TCM    cl1 2679   4.963   5.001   2.661
    1TCM    cl2 2680   5.244   4.932   2.694
    1TCM     h1 2681   5.132   5.130   2.769
    1TCM    cl3 2682   5.072   4.961   2.927
    1TCM     c1 2683   2.559   3.882   3.128
    1TCM    cl1 2684   2.553   3.906   2.951
    1TCM    cl2 2685   2.489   3.724   3.169
    1TCM     h1 2686   2.665   3.885   3.161
    1TCM    cl3 2687   2.467   4.011   3.208
    1TCM     c1 2688   5.054   5.024   0.221
    1TCM    cl1 2689   5.022   4.875   0.312
    1TCM    cl2 2690   5.039   4.992   0.046
    1TCM     h1 2691   4.981   5.102   0.250
    1TCM    cl3 2692   5.219   5.080   0.256
    1TCM     c1 2693   1.535   4.043   5.172
    1TCM    cl1 2694   1.410   3.987   5.285
    1TCM    cl2 2695   1.686   4.071   5.260
    1TCM     h1 2696   1.551   3.966   5.094
    1TCM    cl3 2697   1.482   4.194   5.095
    1TCM     c1 2698   0.455   1.962   3.486
    1TCM    cl1 2699   0.409   1.840   3.365
    1TCM    cl2 2700   0.632   1.965   3.503
    1TCM     h1 2701   0.419   2.062   3.453
    1TCM    cl3 2702   0.382   1.921   3.643
    1TCM     c1 2703   4.620   0.448   4.794
    1TCM    cl1 2704   4.567   0.603   4.864
    1TCM    cl2 2705   4.478   0.349   4.756
    1TCM     h1 2706   4.678   0.467   4.701
    1TCM    cl3 2707   4.723   0.362   4.911
    1TCM     c1 2708   4.285   2.417   2.494
    1TCM    cl1 2709   4.358   2.355   2.644
    1TCM    cl2 2710   4.414   2.454   2.377
    1TCM     h1 2711   4.217   2.341   2.452
    1TCM    cl3 2712   4.194   2.566   2.530
    1TCM     c1 2713   3.492   4.682   1.655
    1TCM    cl1 2714   3.340   4.712   1.743
    1TCM    cl2 2715   3.499   4.787   1.513
    1TCM     h1 2716   3.578   4.704   1.722
    1TCM    cl3 2717   3.498   4.512   1.604
    1TCM     c1 2718   5.222   5.217   0.762
    1TCM    cl1 2719   5.112   5.266   0.631
    1TCM    cl2 2720   5.340   5.099   0.700
    1TCM     h1 2721   5.277   5.306   0.800
    1TCM    cl3 2722   5.129   5.144   0.894
    1TCM     c1 2723   3.966   5.139   0.259
    1TCM    cl1 2724   3.842   5.190   0.142
    1TCM    cl2 2725   3.909   5.171   0.424
    1TCM     h1 2726   3.986   5.031   0.247
    1TCM    cl3 2727   4.116   5.231   0.229
    1TCM     c1 2728   0.640   5.084   2.477
    1TCM    cl1 2729   0.494   5.028   2.562
    1TCM    cl2 2730   0.593   5.153   2.320
    1TCM     h1 2731   0.691   5.162   2.538
    1TCM    cl3 2732   0.750   4.947   2.451
    1TCM     c1 2733   2.853   5.153   4.391
    1TCM    cl1 2734   2.881   5.083   4.552
    1TCM    cl2 2735   2.901   5.036   4.267
    1TCM     h1 2736   2.745   5.177   4.380
    1TCM    cl3 2737   2.949   5.302   4.374
    1TCM     c1 2738   4.393   4.205   1.830
    1TCM    cl1 2739   4.536   4.289   1.766
    1TCM    cl2 2740   4.376   4.239   2.004
    1TCM     h1 2741   4.302   4.239   1.777
    1TCM    cl3 2742   4.412   4.029   1.806
    1TCM     c1 2743   3.239   3.687   4.808
    1TCM    cl1 2744   3.254   3.595   4.656
    1TCM    cl2 2745   3.320   3.598   4.939
    1TCM     h1 2746   3.287   3.786   4.796
    1TCM    cl3 2747   3.067   3.708   4.847
    1TCM     c1 2748   2.750   0.505   4.343
    1TCM    cl1 2749   2.854   0.581   4.465
    1TCM    cl2 2750   2.791   0.569   4.182
    1TCM     h1 2751   2.765   0.395   4.344
    1TCM    cl3 2752   2.579   0.542   4.379
    1TCM     c1 2753   3.366   3.340   1.812
    1TCM    cl1 2754   3.227   3.234   1.780
    1TCM    cl2 2755   3.408   3.331   1.985
    1TCM     h1 2756   3.453   3.308   1.751
    1TCM    cl3 2757   3.323   3.508   1.770
    1TCM     c1 2758   1.501   3.859   3.113
    1TCM    cl1 2759   1.438   3.819   2.951
    1TCM    cl2 2760   1.678   3.842   3.114
    1TCM     h1 2761   1.474   3.964   3.138
    1TCM    cl3 2762   1.430   3.749   3.233
    1TCM     c1 2763   2.868   4.235   1.787
    1TCM    cl1 2764   2.921   4.066   1.772
    1TCM    cl2 2765   2.701   4.239   1.848
    1TCM     h1 2766   2.935   4.288   1.858
    1TCM    cl3 2767   2.876   4.314   1.628
    1TCM     c1 2768   5.164   1.531   2.908
    1TCM    cl1 2769   5.250   1.394   2.833
    1TCM    cl2 2770   5.210   1.543   3.079
    1TCM     h1 2771   5.192   1.625   2.856
    1TCM    cl3 2772   4.989   1.506   2.895
    1TCM     c1 2773   4.415   3.474   3.023
    1TCM    cl1 2774   4.353   3.313   2.978
    1TCM    cl2 2775   4.578   3.496   2.957
    1TCM     h1 2776   4.347   3.552   2.982
    1TCM    cl3 2777   4.420   3.488   3.201
    1TCM     c1 2778   2.707   4.915   2.658
    1TCM    cl1 2779   2.745   5.055   2.555
    1TCM    cl2 2780   2.681   4.970   2.825
    1TCM     h1 2781   2.614   4.866   2.621
    1TCM    cl3 2782   2.842   4.800   2.654
    1TCM     c1 2783   2.962   3.195   2.473
    1TCM    cl1 2784   3.033   3.149   2.317
    1TCM    cl2 2785   2.785   3.192   2.461
    1TCM     h1 2786   2.996   3.123   2.551
    1TCM    cl3 2787   3.016   3.359   2.516
    1TCM     c1 2788   1.905   3.496   4.162
    1TCM    cl1 2789   1.787   3.594   4.253
    1TCM    cl2 2790   1.917   3.558   3.996
    1TCM     h1 2791   2.004   3.502   4.211
    1TCM    cl3 2792   1.850   3.327   4.159
    1TCM     c1 2793   4.826   1.874   0.649
    1TCM    cl1 2794   4.810   2.037   0.581
    1TCM    cl2 2795   4.950   1.784   0.558
    1TCM     h1 2796   4.857   1.882   0.756
    1TCM    cl3 2797   4.671   1.789   0.638
    1TCM     c1 2798   2.098   3.049   2.123
    1TCM    cl1 2799   2.231   3.103   2.228
    1TCM    cl2 2800   2.109   3.133   1.966
    1TCM     h1 2801   2.105   2.940   2.107
    1TCM    cl3 2802   1.942   3.087   2.200
    1TCM     c1 2803   1.984   0.953   4.968
    1TCM    cl1 2804   1.975   1.087   4.852
    1TCM    cl2 2805   2.151   0.936   5.027
    1TCM     h1 2806   1.917   0.973   5.054
    1TCM    cl3 2807   1.935   0.802   4.888
    1TCM     c1 2808   0.296   5.107   4.038
    1TCM    cl1 2809   0.127   5.073   4.081
    1TCM    cl2 2810   0.302   5.184   3.878
    1TCM     h1 2811   0.340   5.174   4.114
    1TCM    cl3 2812   0.388   4.954   4.033
    1TCM     c1 2813   1.656   4.484   1.710
    1TCM    cl1 2814   1.739   4.582   1.587
    1TCM    cl2 2815   1.636   4.580   1.859
    1TCM     h1 2816   1.556   4.454   1.672
    1TCM    cl3 2817   1.752   4.339   1.746
    1TCM     c1 2818   4.876   0.939   4.248
    1TCM    cl1 2819   4.848   0.968   4.075
    1TCM    cl2 2820   4.841   0.769   4.286
    1TCM     h1 2821   4.981   0.962   4.273
    1TCM    cl3 2822   4.768   1.044   4.343
    1TCM     c1 2823   2.355   3.240   0.258
    1TCM    cl1 2824   2.526   3.198   0.230
    1TCM    cl2 2825   2.298   3.348   0.129
    1TCM     h1 2826   2.294   3.147   0.259
    1TCM    cl3 2827   2.339   3.322   0.415
    1TCM     c1 2828   2.666   4.380   1.368
    1TCM    cl1 2829   2.614   4.290   1.224
    1TCM    cl2 2830   2.631   4.284   1.513
    1TCM     h1 2831   2.775   4.400   1.362
    1TCM    cl3 2832   2.577   4.534   1.376
    1TCM     c1 2833   1.576   0.896   3.859
    1TCM    cl1 2834   1.542   0.849   3.691
    1TCM    cl2 2835   1.679   1.042   3.861
    1TCM     h1 2836   1.480   0.918   3.912
    1TCM    cl3 2837   1.660   0.764   3.943
    1TCM     c1 2838   1.547   1.189   2.884
    1TCM    cl1 2839   1.487   1.099   3.025
    1TCM    cl2 2840   1.541   1.364   2.919
    1TCM     h1 2841   1.651   1.159   2.862
    1TCM    cl3 2842   1.444   1.154   2.743
    1TCM     c1 2843   1.995   3.194   3.461
    1TCM    cl1 2844   2.167   3.164   3.427
    1TCM    cl2 2845   1.977   3.349   3.546
    1TCM     h1 2846   1.938   3.197   3.366
    1TCM    cl3 2847   1.931   3.063   3.564
    1TCM     c1 2848   3.804   4.298   3.054
    1TCM    cl1 2849   3.962   4.375   3.026
    1TCM    cl2 2850   3.826   4.153   3.155
    1TCM     h1 2851   3.737   4.370   3.107
    1TCM    cl3 2852   3.732   4.253   2.898
    1TCM     c1 2853   2.728   5.151   0.490
    1TCM    cl1 2854   2.862   5.234   0.573
    1TCM    cl2 2855   2.577   5.240   0.518
    1TCM     h1 2856   2.749   5.147   0.381
    1TCM    cl3 2857   2.712   4.986   0.553
    1TCM     c1 2858   1.673   3.792   4.104
    1TCM    cl1 2859   1.730   3.849   4.262
    1TCM    cl2 2860   1.611   3.930   4.010
    1TCM     h1 2861   1.756   3.744   4.049
    1TCM    cl3 2862   1.542   3.674   4.127
    1TCM     c1 2863   2.359   2.235   1.329
    1TCM    cl1 2864   2.416   2.365   1.222
    1TCM    cl2 2865   2.247   2.303   1.450
    1TCM     h1 2866   2.306   2.158   1.269
    1TCM    cl3 2867   2.497   2.160   1.412
    1TCM     c1 2868   2.088   1.253   2.112
    1TCM    cl1 2869   2.260   1.291   2.136
    1TCM    cl2 2870   2.048   1.263   1.939
    1TCM     h1 2871   2.067   1.150   2.149
    1TCM    cl3 2872   1.988   1.369   2.203
    1TCM     c1 2873   2.293   2.829   0.447
    1TCM    cl1 2874   2.292   2.998   0.504
    1TCM    cl2 2875   2.431   2.744   0.520
    1TCM     h1 2876   2.199   2.780   0.477
    1TCM    cl3 2877   2.308   2.826   0.270
    1TCM     c1 2878   3.595   2.534   4.341
    1TCM    cl1 2879   3.449   2.504   4.244
    1TCM    cl2 2880   3.600   2.420   4.477
    1TCM     h1 2881   3.685   2.521   4.278
    1TCM    cl3 2882   3.591   2.701   4.404
    1TCM     c1 2883   0.707   0.365   1.986
    1TCM    cl1 2884   0.738   0.481   2.117
    1TCM    cl2 2885   0.734   0.200   2.045
    1TCM     h1 2886   0.602   0.375   1.952
    1TCM    cl3 2887   0.816   0.398   1.850
    1TCM     c1 2888   4.293   4.855   0.793
    1TCM    cl1 2889   4.325   4.854   0.968
    1TCM    cl2 2890   4.331   5.015   0.726
    1TCM     h1 2891   4.357   4.779   0.744
    1TCM    cl3 2892   4.122   4.818   0.763
    1TCM     c1 2893   0.295   4.300   1.103
    1TCM    cl1 2894   0.200   4.150   1.114
    1TCM    cl2 2895   0.193   4.431   1.038
    1TCM     h1 2896   0.332   4.328   1.204
    1TCM    cl3 2897   0.434   4.274   0.994
    1TCM     c1 2898   2.206   2.366   3.809
    1TCM    cl1 2899   2.307   2.379   3.664
    1TCM    cl2 2900   2.310   2.357   3.953
    1TCM     h1 2901   2.140   2.454   3.816
    1TCM    cl3 2902   2.107   2.218   3.799
    1TCM     c1 2903   0.584   4.090   1.291
    1TCM    cl1 2904   0.476   4.116   1.152
    1TCM    cl2 2905   0.518   4.174   1.433
    1TCM     h1 2906   0.591   3.982   1.312
    1TCM    cl3 2907   0.745   4.155   1.253
    1TCM     c1 2908   1.392   3.934   0.435
    1TCM    cl1 2909   1.395   3.765   0.492
    1TCM    cl2 2910   1.533   3.964   0.330
    1TCM     h1 2911   1.299   3.952   0.379
    1TCM    cl3 2912   1.399   4.043   0.576
    1TCM     c1 2913   3.093   2.187   2.578
    1TCM    cl1 2914   3.211   2.245   2.697
    1TCM    cl2 2915   3.108   2.283   2.428
    1TCM     h1 2916   3.112   2.080   2.555
    1TCM    cl3 2917   2.928   2.205   2.643
    1TCM     c1 2918   1.903   2.747   2.478
    1TCM    cl1 2919   2.037   2.682   2.575
    1TCM    cl2 2920   1.757   2.759   2.579
    1TCM     h1 2921   1.930   2.848   2.440
    1TCM    cl3 2922   1.871   2.638   2.341
    1TCM     c1 2923   3.413   5.122   2.096
    1TCM    cl1 2924   3.348   5.240   1.980
    1TCM    cl2 2925   3.279   5.037   2.175
    1TCM     h1 2926   3.477   5.049   2.042
    1TCM    cl3 2927   3.510   5.207   2.218
    1TCM     c1 2928   1.008   2.497   4.429
    1TCM    cl1 2929   1.016   2.336   4.505
    1TCM    cl2 2930   1.009   2.478   4.252
    1TCM     h1 2931   0.914   2.547   4.460
    1TCM    cl3 2932   1.148   2.594   4.479
    1TCM     c1 2933   4.594   3.891   4.948
    1TCM    cl1 2934   4.660   3.754   5.041
    1TCM    cl2 2935   4.646   3.878   4.779
    1TCM     h1 2936   4.483   3.888   4.954
    1TCM    cl3 2937   4.654   4.043   5.017
    1TCM     c1 2938   4.919   1.865   4.172
    1TCM    cl1 2939   5.087   1.814   4.203
    1TCM    cl2 2940   4.877   1.832   4.003
    1TCM     h1 2941   4.851   1.808   4.239
    1TCM    cl3 2942   4.903   2.039   4.205
    1TCM     c1 2943   4.101   2.315   2.839
    1TCM    cl1 2944   3.962   2.236   2.916
    1TCM    cl2 2945   4.134   2.238   2.682
    1TCM     h1 2946   4.079   2.423   2.823
    1TCM    cl3 2947   4.244   2.299   2.943
    1TCM     c1 2948   1.467   2.826   5.171
    1TCM    cl1 2949   1.450   2.996   5.223
    1TCM    cl2 2950   1.311   2.743   5.187
    1TCM     h1 2951   1.500   2.824   5.065
    1TCM    cl3 2952   1.588   2.745   5.273
    1TCM     c1 2953   3.659   2.135   3.145
    1TCM    cl1 2954   3.542   2.257   3.091
    1TCM    cl2 2955   3.706   2.168   3.313
    1TCM     h1 2956   3.614   2.034   3.138
    1TCM    cl3 2957   3.803   2.141   3.041
    1TCM     c1 2958   2.773   4.835   0.981
    1TCM    cl1 2959   2.766   5.013   0.989
    1TCM    cl2 2960   2.635   4.774   0.887
    1TCM     h1 2961   2.868   4.804   0.932
    1TCM    cl3 2962   2.767   4.768   1.145
    1TCM     c1 2963   1.658   3.842   0.889
    1TCM    cl1 2964   1.821   3.788   0.934
    1TCM    cl2 2965   1.619   3.781   0.726
    1TCM     h1 2966   1.584   3.803   0.962
    1TCM    cl3 2967   1.653   4.020   0.888
    1TCM     c1 2968   5.070   3.217   5.126
    1TCM    cl1 2969   5.003   3.340   5.236
    1TCM    cl2 2970   4.955   3.083   5.109
    1TCM     h1 2971   5.089   3.263   5.027
    1TCM    cl3 2972   5.223   3.156   5.193
    1TCM     c1 2973   2.956   5.045   3.099
    1TCM    cl1 2974   2.987   5.216   3.136
    1TCM    cl2 2975   2.928   5.027   2.924
    1TCM     h1 2976   3.044   4.984   3.128
    1TCM    cl3 2977   2.813   4.990   3.188
    1TCM     c1 2978   4.799   3.841   3.681
    1TCM    cl1 2979   4.800   3.747   3.831
    1TCM    cl2 2980   4.690   3.764   3.563
    1TCM     h1 2981   4.763   3.944   3.702
    1TCM    cl3 2982   4.963   3.848   3.614
    1TCM     c1 2983   1.661   0.944   3.162
    1TCM    cl1 2984   1.818   0.885   3.224
    1TCM    cl2 2985   1.613   1.089   3.252
    1TCM     h1 2986   1.671   0.968   3.054
    1TCM    cl3 2987   1.538   0.817   3.183
    1TCM     c1 2988   3.319   2.685   4.623
    1TCM    cl1 2989   3.172   2.780   4.597
    1TCM    cl2 2990   3.366   2.604   4.472
    1TCM     h1 2991   3.401   2.752   4.656
    1TCM    cl3 2992   3.290   2.562   4.749
    1TCM     c1 2993   2.400   4.290   0.640
    1TCM    cl1 2994   2.319   4.171   0.535
    1TCM    cl2 2995   2.445   4.212   0.794
    1TCM     h1 2996   2.491   4.327   0.589
    1TCM    cl3 2997   2.290   4.426   0.672
    1TCM     c1 2998   3.240   1.591   0.296
    1TCM    cl1 2999   3.355   1.685   0.199
    1TCM    cl2 3000   3.156   1.473   0.192
    1TCM     h1 3001   3.294   1.537   0.377
    1TCM    cl3 3002   3.120   1.700   0.369
    1TCM     c1 3003   2.378   1.721   4.051
    1TCM    cl1 3004   2.399   1.870   4.146
    1TCM    cl2 3005   2.205   1.693   4.021
    1TCM     h1 3006   2.432   1.730   3.954
    1TCM    cl3 3007   2.445   1.583   4.142
    1TCM     c1 3008   1.292   0.911   2.722
    1TCM    cl1 3009   1.469   0.915   2.707
    1TCM    cl2 3010   1.218   0.961   2.568
    1TCM     h1 3011   1.259   0.808   2.747
    1TCM    cl3 3012   1.241   1.023   2.851
    1TCM     c1 3013   2.826   4.357   5.149
    1TCM    cl1 3014   2.798   4.275   5.305
    1TCM    cl2 3015   2.671   4.382   5.067
    1TCM     h1 3016   2.875   4.454   5.167
    1TCM    cl3 3017   2.931   4.255   5.048
    1TCM     c1 3018   2.343   4.542   1.618
    1TCM    cl1 3019   2.229   4.442   1.711
    1TCM    cl2 3020   2.288   4.554   1.449
    1TCM     h1 3021   2.348   4.643   1.663
    1TCM    cl3 3022   2.504   4.467   1.622
    1TCM     c1 3023   0.972   2.534   5.138
    1TCM    cl1 3024   0.815   2.520   5.220
    1TCM    cl2 3025   0.988   2.403   5.020
    1TCM     h1 3026   0.977   2.632   5.085
    1TCM    cl3 3027   1.103   2.524   5.257
    1TCM     c1 3028   1.715   1.171   1.831
    1TCM    cl1 3029   1.693   1.335   1.765
    1TCM    cl2 3030   1.561   1.112   1.897
    1TCM     h1 3031   1.749   1.103   1.750
    1TCM    cl3 3032   1.837   1.174   1.959
    1TCM     c1 3033   0.523   3.619   3.663
    1TCM    cl1 3034   0.362   3.693   3.655
    1TCM    cl2 3035   0.585   3.593   3.499
    1TCM     h1 3036   0.592   3.687   3.718
    1TCM    cl3 3037   0.512   3.463   3.748
    1TCM     c1 3038   0.284   0.190   3.784
    1TCM    cl1 3039   0.295   0.367   3.782
    1TCM    cl2 3040   0.418   0.120   3.689
    1TCM     h1 3041   0.291   0.154   3.889
    1TCM    cl3 3042   0.129   0.139   3.714
    1TCM     c1 3043   4.261   5.194   3.311
    1TCM    cl1 3044   4.406   5.218   3.411
    1TCM    cl2 3045   4.286   5.055   3.203
    1TCM     h1 3046   4.174   5.174   3.377
    1TCM    cl3 3047   4.231   5.340   3.214
    1TCM     c1 3048   3.258   4.037   1.531
    1TCM    cl1 3049   3.370   4.171   1.565
    1TCM    cl2 3050   3.326   3.886   1.596
    1TCM     h1 3051   3.160   4.057   1.579
    1TCM    cl3 3052   3.235   4.021   1.355
    1TCM     c1 3053   4.630   4.303   3.894
    1TCM    cl1 3054   4.725   4.444   3.843
    1TCM    cl2 3055   4.731   4.196   3.994
    1TCM     h1 3056   4.543   4.338   3.954
    1TCM    cl3 3057   4.573   4.215   3.751
    1TCM     c1 3058   0.954   3.799   0.393
    1TCM    cl1 3059   1.055   3.670   0.324
    1TCM    cl2 3060   0.835   3.852   0.273
    1TCM     h1 3061   0.902   3.761   0.483
    1TCM    cl3 3062   1.058   3.936   0.439
    1TCM     c1 3063   5.107   2.332   5.089
    1TCM    cl1 3064   5.058   2.273   5.250
    1TCM    cl2 3065   5.274   2.394   5.097
    1TCM     h1 3066   5.102   2.249   5.016
    1TCM    cl3 3067   4.998   2.463   5.039
    1TCM     c1 3068   1.034   5.181   2.441
    1TCM    cl1 3069   1.156   5.170   2.570
    1TCM    cl2 3070   1.116   5.194   2.283
    1TCM     h1 3071   0.970   5.091   2.442
    1TCM    cl3 3072   0.934   5.326   2.466
    1TCM     c1 3073   1.012   1.241   4.213
    1TCM    cl1 3074   0.934   1.332   4.344
    1TCM    cl2 3075   0.926   1.272   4.060
    1TCM     h1 3076   1.117   1.273   4.203
    1TCM    cl3 3077   1.006   1.067   4.249
    1TCM     c1 3078   3.904   2.697   4.214
    1TCM    cl1 3079   3.774   2.636   4.110
    1TCM    cl2 3080   3.888   2.627   4.377
    1TCM     h1 3081   4.003   2.669   4.172
    1TCM    cl3 3082   3.892   2.874   4.226
    1TCM     c1 3083   2.352   3.509   5.209
    1TCM    cl1 3084   2.495   3.412   5.168
    1TCM    cl2 3085   2.209   3.441   5.126
    1TCM     h1 3086   2.335   3.506   5.318
    1TCM    cl3 3087   2.377   3.677   5.156
    1TCM     c1 3088   1.262   0.596   1.012
    1TCM    cl1 3089   1.199   0.526   0.861
    1TCM    cl2 3090   1.232   0.771   1.013
    1TCM     h1 3091   1.211   0.549   1.098
    1TCM    cl3 3092   1.437   0.566   1.022
    1TCM     c1 3093   0.404   3.671   0.567
    1TCM    cl1 3094   0.462   3.671   0.399
    1TCM    cl2 3095   0.402   3.504   0.629
    1TCM     h1 3096   0.472   3.732   0.629
    1TCM    cl3 3097   0.240   3.739   0.573
    1TCM     c1 3098   3.185   1.655   3.411
    1TCM    cl1 3099   3.282   1.759   3.305
    1TCM    cl2 3100   3.076   1.555   3.311
    1TCM     h1 3101   3.252   1.589   3.470
    1TCM    cl3 3102   3.088   1.756   3.521
    1TCM     c1 3103   2.841   4.704   0.279
    1TCM    cl1 3104   2.753   4.584   0.377
    1TCM    cl2 3105   2.790   4.689   0.109
    1TCM     h1 3106   2.818   4.806   0.316
    1TCM    cl3 3107   3.016   4.674   0.292
    1TCM     c1 3108   3.696   3.518   3.433
    1TCM    cl1 3109   3.831   3.404   3.448
    1TCM    cl2 3110   3.714   3.613   3.284
    1TCM     h1 3111   3.600   3.462   3.430
    1TCM    cl3 3112   3.695   3.628   3.573
    1TCM     c1 3113   2.999   3.880   1.026
    1TCM    cl1 3114   2.900   4.010   0.955
    1TCM    cl2 3115   2.905   3.729   1.028
    1TCM     h1 3116   3.091   3.866   0.965
    1TCM    cl3 3117   3.043   3.924   1.192
    1TCM     c1 3118   4.480   4.334   1.174
    1TCM    cl1 3119   4.458   4.448   1.039
    1TCM    cl2 3120   4.631   4.243   1.151
    1TCM     h1 3121   4.485   4.390   1.270
    1TCM    cl3 3122   4.343   4.221   1.179
    1TCM     c1 3123   4.566   3.082   0.301
    1TCM    cl1 3124   4.429   3.189   0.337
    1TCM    cl2 3125   4.658   3.051   0.450
    1TCM     h1 3126   4.528   2.986   0.260
    1TCM    cl3 3127   4.672   3.159   0.181
    1TCM     c1 3128   2.875   1.006   2.211
    1TCM    cl1 3129   2.714   0.966   2.276
    1TCM    cl2 3130   2.861   1.139   2.095
    1TCM     h1 3131   2.942   1.036   2.295
    1TCM    cl3 3132   2.943   0.863   2.130
    1TCM     c1 3133   3.425   4.580   2.998
    1TCM    cl1 3134   3.453   4.720   2.892
    1TCM    cl2 3135   3.312   4.625   3.128
    1TCM     h1 3136   3.382   4.496   2.939
    1TCM    cl3 3137   3.579   4.529   3.070
    1TCM     c1 3138   3.732   3.500   3.952
    1TCM    cl1 3139   3.812   3.614   4.063
    1TCM    cl2 3140   3.769   3.333   4.001
    1TCM     h1 3141   3.622   3.517   3.957
    1TCM    cl3 3142   3.790   3.529   3.787
    1TCM     c1 3143   4.169   0.314   0.213
    1TCM    cl1 3144   4.318   0.303   0.309
    1TCM    cl2 3145   4.199   0.248   0.050
    1TCM     h1 3146   4.088   0.256   0.262
    1TCM    cl3 3147   4.120   0.484   0.199
    1TCM     c1 3148   3.245   3.167   3.453
    1TCM    cl1 3149   3.329   3.276   3.565
    1TCM    cl2 3150   3.309   3.191   3.289
    1TCM     h1 3151   3.262   3.062   3.484
    1TCM    cl3 3152   3.071   3.202   3.455
    1TCM     c1 3153   0.625   2.644   1.866
    1TCM    cl1 3154   0.770   2.747   1.852
    1TCM    cl2 3155   0.619   2.532   1.728
    1TCM     h1 3156   0.629   2.587   1.961
    1TCM    cl3 3157   0.479   2.746   1.865
    1TCM     c1 3158   5.191   4.292   3.022
    1TCM    cl1 3159   5.201   4.452   2.944
    1TCM    cl2 3160   5.243   4.307   3.192
    1TCM     h1 3161   5.086   4.255   3.018
    1TCM    cl3 3162   5.297   4.178   2.938
    1TCM     c1 3163   2.360   3.498   1.476
    1TCM    cl1 3164   2.487   3.441   1.365
    1TCM    cl2 3165   2.425   3.507   1.641
    1TCM     h1 3166   2.326   3.599   1.444
    1TCM    cl3 3167   2.223   3.386   1.472
    1TCM     c1 3168   5.080   1.397   2.449
    1TCM    cl1 3169   5.151   1.519   2.340
    1TCM    cl2 3170   5.208   1.288   2.507
    1TCM     h1 3171   5.033   1.448   2.536
    1TCM    cl3 3172   4.957   1.303   2.362
    1TCM     c1 3173   4.191   3.117   4.000
    1TCM    cl1 3174   4.034   3.059   4.060
    1TCM    cl2 3175   4.313   2.990   4.020
    1TCM     h1 3176   4.182   3.143   3.892
    1TCM    cl3 3177   4.239   3.262   4.092
    1TCM     c1 3178   1.602   3.548   3.475
    1TCM    cl1 3179   1.670   3.649   3.346
    1TCM    cl2 3180   1.618   3.376   3.432
    1TCM     h1 3181   1.656   3.567   3.570
    1TCM    cl3 3182   1.429   3.587   3.497
    1TCM     c1 3183   2.539   3.262   2.604
    1TCM    cl1 3184   2.446   3.211   2.747
    1TCM    cl2 3185   2.704   3.304   2.653
    1TCM     h1 3186   2.541   3.180   2.530
    1TCM    cl3 3187   2.461   3.405   2.532
    1TCM     c1 3188   1.928   2.884   0.172
    1TCM    cl1 3189   1.824   2.778   0.271
    1TCM    cl2 3190   1.892   2.857   0.000
    1TCM     h1 3191   1.907   2.990   0.199
    1TCM    cl3 3192   2.098   2.846   0.204
    1TCM     c1 3193   4.828   0.831   2.860
    1TCM    cl1 3194   4.809   0.655   2.878
    1TCM    cl2 3195   4.716   0.891   2.735
    1TCM     h1 3196   4.805   0.881   2.957
    1TCM    cl3 3197   4.995   0.868   2.813
    1TCM     c1 3198   4.886   2.046   1.275
    1TCM    cl1 3199   4.759   2.016   1.154
    1TCM    cl2 3200   4.842   2.188   1.373
    1TCM     h1 3201   4.896   1.957   1.341
    1TCM    cl3 3202   5.041   2.077   1.193
    1TCM     c1 3203   3.207   4.054   0.394
    1TCM    cl1 3204   3.336   4.096   0.509
    1TCM    cl2 3205   3.218   4.161   0.252
    1TCM     h1 3206   3.219   3.949   0.361
    1TCM    cl3 3207   3.049   4.075   0.472
    1TCM     c1 3208   2.761   4.091   3.658
    1TCM    cl1 3209   2.876   4.089   3.793
    1TCM    cl2 3210   2.844   4.044   3.508
    1TCM     h1 3211   2.679   4.020   3.679
    1TCM    cl3 3212   2.694   4.255   3.640
    1TCM     c1 3213   2.099   4.499   2.194
    1TCM    cl1 3214   2.217   4.381   2.255
    1TCM    cl2 3215   2.001   4.560   2.330
    1TCM     h1 3216   2.153   4.583   2.146
    1TCM    cl3 3217   1.993   4.421   2.075
    1TCM     c1 3218   1.594   1.789   0.705
    1TCM    cl1 3219   1.520   1.786   0.867
    1TCM    cl2 3220   1.750   1.874   0.713
    1TCM     h1 3221   1.610   1.686   0.669
    1TCM    cl3 3222   1.486   1.875   0.592
    1TCM     c1 3223   0.264   2.850   4.390
    1TCM    cl1 3224   0.298   3.004   4.307
    1TCM    cl2 3225   0.319   2.715   4.288
    1TCM     h1 3226   0.318   2.848   4.487
    1TCM    cl3 3227   0.089   2.836   4.418
    1TCM     c1 3228   0.516   1.592   4.736
    1TCM    cl1 3229   0.596   1.749   4.765
    1TCM    cl2 3230   0.609   1.464   4.818
    1TCM     h1 3231   0.413   1.595   4.777
    1TCM    cl3 3232   0.511   1.560   4.562
    1TCM     c1 3233   4.969   2.888   0.603
    1TCM    cl1 3234   4.862   2.950   0.731
    1TCM    cl2 3235   4.988   2.712   0.622
    1TCM     h1 3236   4.925   2.910   0.504
    1TCM    cl3 3237   5.128   2.966   0.617
    1TCM     c1 3238   2.201   4.212   4.840
    1TCM    cl1 3239   2.368   4.275   4.834
    1TCM    cl2 3240   2.098   4.327   4.929
    1TCM     h1 3241   2.162   4.201   4.737
    1TCM    cl3 3242   2.200   4.055   4.922
    1TCM     c1 3243   3.068   3.473   3.274
    1TCM    cl1 3244   2.900   3.516   3.231
    1TCM    cl2 3245   3.175   3.609   3.233
    1TCM     h1 3246   3.074   3.452   3.383
    1TCM    cl3 3247   3.117   3.329   3.183
    1TCM     c1 3248   2.982   4.387   0.419
    1TCM    cl1 3249   3.050   4.294   0.554
    1TCM    cl2 3250   3.095   4.382   0.281
    1TCM     h1 3251   2.885   4.344   0.388
    1TCM    cl3 3252   2.958   4.556   0.469
    1TCM     c1 3253   3.432   4.479   0.474
    1TCM    cl1 3254   3.503   4.389   0.338
    1TCM    cl2 3255   3.513   4.432   0.625
    1TCM     h1 3256   3.445   4.588   0.458
    1TCM    cl3 3257   3.259   4.441   0.486
    1TCM     c1 3258   2.345   3.716   1.047
    1TCM    cl1 3259   2.494   3.770   1.127
    1TCM    cl2 3260   2.272   3.584   1.141
    1TCM     h1 3261   2.273   3.801   1.041
    1TCM    cl3 3262   2.382   3.659   0.883
    1TCM     c1 3263   4.087   3.937   3.759
    1TCM    cl1 3264   4.191   3.899   3.621
    1TCM    cl2 3265   4.187   3.977   3.900
    1TCM     h1 3266   4.022   4.023   3.734
    1TCM    cl3 3267   3.985   3.796   3.797
    1TCM     c1 3268   5.216   4.778   4.203
    1TCM    cl1 3269   5.062   4.740   4.123
    1TCM    cl2 3270   5.184   4.837   4.368
    1TCM     h1 3271   5.279   4.687   4.208
    1TCM    cl3 3272   5.301   4.904   4.110
    1TCM     c1 3273   4.190   0.340   3.552
    1TCM    cl1 3274   4.222   0.209   3.668
    1TCM    cl2 3275   4.032   0.414   3.589
    1TCM     h1 3276   4.269   0.417   3.560
    1TCM    cl3 3277   4.186   0.274   3.387
    1TCM     c1 3278   2.439   2.661   3.429
    1TCM    cl1 3279   2.384   2.796   3.328
    1TCM    cl2 3280   2.383   2.685   3.596
    1TCM     h1 3281   2.398   2.566   3.390
    1TCM    cl3 3282   2.617   2.655   3.427
    1TCM     c1 3283   5.033   4.611   2.665
    1TCM    cl1 3284   5.146   4.681   2.783
    1TCM    cl2 3285   4.986   4.448   2.718
    1TCM     h1 3286   4.942   4.675   2.659
    1TCM    cl3 3287   5.110   4.603   2.506
    1TCM     c1 3288   2.384   0.839   2.065
    1TCM    cl1 3289   2.291   0.725   1.965
    1TCM    cl2 3290   2.389   0.780   2.233
    1TCM     h1 3291   2.488   0.847   2.026
    1TCM    cl3 3292   2.307   0.999   2.061
    1TCM     c1 3293   0.277   2.372   3.065
    1TCM    cl1 3294   0.152   2.376   2.938
    1TCM    cl2 3295   0.336   2.206   3.085
    1TCM     h1 3296   0.361   2.438   3.035
    1TCM    cl3 3297   0.208   2.429   3.218
    1TCM     c1 3298   1.098   4.053   1.113
    1TCM    cl1 3299   1.101   4.054   0.935
    1TCM    cl2 3300   1.232   3.953   1.174
    1TCM     h1 3301   1.110   4.157   1.151
    1TCM    cl3 3302   0.943   3.987   1.170
    1TCM     c1 3303   2.655   3.049   0.690
    1TCM    cl1 3304   2.694   3.101   0.525
    1TCM    cl2 3305   2.557   3.174   0.770
    1TCM     h1 3306   2.598   2.954   0.687
    1TCM    cl3 3307   2.806   3.025   0.781
    1TCM     c1 3308   0.748   0.643   0.787
    1TCM    cl1 3309   0.914   0.686   0.742
    1TCM    cl2 3310   0.747   0.570   0.949
    1TCM     h1 3311   0.685   0.734   0.787
    1TCM    cl3 3312   0.683   0.526   0.669
    1TCM     c1 3313   5.102   2.149   3.318
    1TCM    cl1 3314   5.068   2.054   3.465
    1TCM    cl2 3315   4.980   2.111   3.194
    1TCM     h1 3316   5.098   2.257   3.342
    1TCM    cl3 3317   5.264   2.107   3.257
    1TCM     c1 3318   2.508   1.005   3.491
    1TCM    cl1 3319   2.652   1.006   3.386
    1TCM    cl2 3320   2.556   1.050   3.657
    1TCM     h1 3321   2.434   1.078   3.453
    1TCM    cl3 3322   2.436   0.842   3.493
    1TCM     c1 3323   5.083   1.019   2.241
    1TCM    cl1 3324   5.172   1.172   2.221
    1TCM    cl2 3325   5.173   0.888   2.161
    1TCM     h1 3326   5.073   0.996   2.349
    1TCM    cl3 3327   4.922   1.034   2.167
    1TCM     c1 3328   3.961   0.515   4.543
    1TCM    cl1 3329   3.839   0.417   4.627
    1TCM    cl2 3330   3.977   0.672   4.624
    1TCM     h1 3331   4.059   0.462   4.545
    1TCM    cl3 3332   3.912   0.540   4.374
    1TCM     c1 3333   5.107   0.884   5.068
    1TCM    cl1 3334   5.202   0.802   4.942
    1TCM    cl2 3335   5.185   0.860   5.226
    1TCM     h1 3336   5.102   0.992   5.045
    1TCM    cl3 3337   4.943   0.816   5.072
    1TCM     c1 3338   2.866   0.596   1.518
    1TCM    cl1 3339   3.007   0.701   1.546
    1TCM    cl2 3340   2.734   0.644   1.627
    1TCM     h1 3341   2.832   0.608   1.412
    1TCM    cl3 3342   2.911   0.427   1.548
    1TCM     c1 3343   2.095   1.395   3.863
    1TCM    cl1 3344   2.057   1.479   4.015
    1TCM    cl2 3345   1.945   1.326   3.795
    1TCM     h1 3346   2.139   1.467   3.791
    1TCM    cl3 3347   2.211   1.264   3.895
    1TCM     c1 3348   3.439   1.388   2.103
    1TCM    cl1 3349   3.396   1.476   1.955
    1TCM    cl2 3350   3.558   1.482   2.195
    1TCM     h1 3351   3.348   1.373   2.165
    1TCM    cl3 3352   3.508   1.230   2.061
    1TCM     c1 3353   3.873   2.154   4.337
    1TCM    cl1 3354   4.024   2.114   4.252
    1TCM    cl2 3355   3.908   2.189   4.507
    1TCM     h1 3356   3.826   2.243   4.289
    1TCM    cl3 3357   3.761   2.016   4.327
    1TCM     c1 3358   1.450   2.351   4.333
    1TCM    cl1 3359   1.322   2.415   4.439
    1TCM    cl2 3360   1.470   2.459   4.193
    1TCM     h1 3361   1.545   2.346   4.390
    1TCM    cl3 3362   1.405   2.189   4.277
    1TCM     c1 3363   1.082   0.509   1.992
    1TCM    cl1 3364   0.965   0.574   2.108
    1TCM    cl2 3365   1.019   0.357   1.923
    1TCM     h1 3366   1.098   0.582   1.910
    1TCM    cl3 3367   1.236   0.477   2.075
   5.54000   5.54000   5.54000
