God Rules Over Mankind, Animals, Cosmos and Such
 3367
    1PMP     C1    1   0.785   4.740   5.187
    1PMP     O2    2   0.768   4.599   5.188
    1PMP     C3    3   0.681   4.545   5.098
    1PMP     C4    4   0.609   4.616   5.002
    1PMP     C5    5   0.521   4.550   4.914
    1PMP     C6    6   0.445   4.624   4.812
    1PMP     C7    7   0.380   4.745   4.845
    1PMP     C8    8   0.306   4.815   4.749
    1PMP     C9    9   0.295   4.765   4.619
    1PMP    C10   10   0.203   4.834   4.525
    1PMP    O11   11   0.141   4.936   4.552
    1PMP    C12   12   0.359   4.647   4.585
    1PMP    C13   13   0.433   4.577   4.681
    1PMP    C14   14   0.509   4.410   4.926
    1PMP    C15   15   0.580   4.337   5.022
    1PMP    C16   16   0.566   4.191   5.033
    1PMP    C17   17   0.440   4.129   5.024
    1PMP    C18   18   0.426   3.991   5.033
    1PMP    C19   19   0.539   3.911   5.052
    1PMP    C20   20   0.523   3.760   5.055
    1PMP    C21   21   0.548   3.705   5.195
    1PMP    N22   22   0.606   3.690   4.957
    1PMP    C23   23   0.665   3.970   5.063
    1PMP    C24   24   0.678   4.109   5.052
    1PMP    C25   25   0.665   4.407   5.108
    1PMP    H26   26   0.691   4.791   5.208
    1PMP    H27   27   0.856   4.766   5.265
    1PMP    H28   28   0.827   4.774   5.091
    1PMP    H29   29   0.621   4.723   4.991
    1PMP    H30   30   0.383   4.784   4.946
    1PMP    H31   31   0.255   4.907   4.778
    1PMP    H32   32   0.352   4.604   4.484
    1PMP    H33   33   0.482   4.484   4.652
    1PMP    H34   34   0.441   4.357   4.858
    1PMP    H35   35   0.350   4.189   5.009
    1PMP    H36   36   0.327   3.947   5.023
    1PMP    H37   37   0.420   3.735   5.028
    1PMP    H38   38   0.649   3.725   5.229
    1PMP    H39   39   0.479   3.752   5.268
    1PMP    H40   40   0.531   3.597   5.199
    1PMP    H41   41   0.615   3.592   4.977
    1PMP    H42   42   0.754   3.909   5.073
    1PMP    H43   43   0.778   4.152   5.055
    1PMP    H44   44   0.721   4.354   5.185
    2PMP    C45   45   0.119   3.402   4.151
    2PMP    O46   46   0.186   3.277   4.155
    2PMP    C47   47   0.284   3.262   4.250
    2PMP    C48   48   0.324   3.357   4.344
    2PMP    C49   49   0.427   3.329   4.436
    2PMP    C50   50   0.471   3.429   4.535
    2PMP    C51   51   0.492   3.562   4.499
    2PMP    C52   52   0.536   3.655   4.593
    2PMP    C53   53   0.560   3.616   4.726
    2PMP    C54   54   0.592   3.725   4.823
    2PMP    O55   55   0.600   3.839   4.782
    2PMP    C56   56   0.539   3.484   4.763
    2PMP    C57   57   0.496   3.391   4.668
    2PMP    C58   58   0.487   3.203   4.431
    2PMP    C59   59   0.449   3.105   4.338
    2PMP    C60   60   0.514   2.973   4.335
    2PMP    C61   61   0.653   2.962   4.351
    2PMP    C62   62   0.715   2.836   4.350
    2PMP    C63   63   0.640   2.720   4.334
    2PMP    C64   64   0.707   2.585   4.339
    2PMP    C65   65   0.709   2.522   4.200
    2PMP    N66   66   0.651   2.495   4.438
    2PMP    C67   67   0.500   2.731   4.317
    2PMP    C68   68   0.439   2.856   4.320
    2PMP    C69   69   0.347   3.137   4.247
    2PMP    H70   70   0.189   3.483   4.128
    2PMP    H71   71   0.046   3.398   4.071
    2PMP    H72   72   0.066   3.421   4.246
    2PMP    H73   73   0.275   3.454   4.347
    2PMP    H74   74   0.475   3.595   4.397
    2PMP    H75   75   0.549   3.759   4.563
    2PMP    H76   76   0.554   3.447   4.864
    2PMP    H77   77   0.479   3.288   4.700
    2PMP    H78   78   0.566   3.180   4.502
    2PMP    H79   79   0.715   3.050   4.365
    2PMP    H80   80   0.823   2.832   4.366
    2PMP    H81   81   0.812   2.600   4.370
    2PMP    H82   82   0.609   2.502   4.163
    2PMP    H83   83   0.760   2.587   4.128
    2PMP    H84   84   0.763   2.426   4.201
    2PMP    H85   85   0.678   2.399   4.422
    2PMP    H86   86   0.440   2.642   4.310
    2PMP    H87   87   0.331   2.861   4.313
    2PMP    H88   88   0.316   3.065   4.172
    3PMP    C89   89   1.176   2.432   5.268
    3PMP    O90   90   1.159   2.291   5.268
    3PMP    C91   91   1.076   2.238   5.172
    3PMP    C92   92   1.009   2.310   5.073
    3PMP    C93   93   0.926   2.244   4.981
    3PMP    C94   94   0.853   2.316   4.876
    3PMP    C95   95   0.785   2.435   4.904
    3PMP    C96   96   0.715   2.502   4.804
    3PMP    C97   97   0.711   2.453   4.673
    3PMP    C98   98   0.644   2.537   4.570
    3PMP    O99   99   0.594   2.643   4.605
    3PMP   C100  100   0.778   2.333   4.644
    3PMP   C101  101   0.849   2.268   4.744
    3PMP   C102  102   0.914   2.104   4.990
    3PMP   C103  103   0.981   2.030   5.089
    3PMP   C104  104   0.966   1.884   5.096
    3PMP   C105  105   0.841   1.823   5.077
    3PMP   C106  106   0.827   1.685   5.083
    3PMP   C107  107   0.938   1.603   5.108
    3PMP   C108  108   0.922   1.454   5.107
    3PMP   C109  109   0.939   1.398   5.249
    3PMP   N110  110   1.009   1.384   5.013
    3PMP   C111  111   1.063   1.662   5.127
    3PMP   C112  112   1.077   1.801   5.120
    3PMP   C113  113   1.062   2.100   5.179
    3PMP   H114  114   1.081   2.483   5.286
    3PMP   H115  115   1.243   2.457   5.350
    3PMP   H116  116   1.222   2.466   5.175
    3PMP   H117  117   1.021   2.418   5.065
    3PMP   H118  118   0.785   2.476   5.004
    3PMP   H119  119   0.664   2.596   4.829
    3PMP   H120  120   0.781   2.291   4.544
    3PMP   H121  121   0.902   2.176   4.718
    3PMP   H122  122   0.852   2.051   4.918
    3PMP   H123  123   0.752   1.883   5.058
    3PMP   H124  124   0.729   1.641   5.064
    3PMP   H125  125   0.820   1.429   5.074
    3PMP   H126  126   1.039   1.416   5.288
    3PMP   H127  127   0.866   1.444   5.317
    3PMP   H128  128   0.922   1.290   5.251
    3PMP   H129  129   1.018   1.286   5.032
    3PMP   H130  130   1.152   1.602   5.141
    3PMP   H131  131   1.176   1.844   5.130
    3PMP   H132  132   1.113   2.046   5.258
    4PMP   C133  133   0.574   1.104   4.177
    4PMP   O134  134   0.642   0.979   4.183
    4PMP   C135  135   0.734   0.963   4.282
    4PMP   C136  136   0.768   1.057   4.380
    4PMP   C137  137   0.865   1.028   4.478
    4PMP   C138  138   0.903   1.127   4.581
    4PMP   C139  139   0.926   1.261   4.547
    4PMP   C140  140   0.963   1.354   4.646
    4PMP   C141  141   0.978   1.313   4.779
    4PMP   C142  142   1.005   1.421   4.880
    4PMP   O143  143   1.012   1.537   4.839
    4PMP   C144  144   0.957   1.179   4.813
    4PMP   C145  145   0.919   1.088   4.714
    4PMP   C146  146   0.926   0.902   4.475
    4PMP   C147  147   0.894   0.806   4.378
    4PMP   C148  148   0.961   0.675   4.376
    4PMP   C149  149   1.099   0.665   4.396
    4PMP   C150  150   1.163   0.541   4.398
    4PMP   C151  151   1.088   0.423   4.380
    4PMP   C152  152   1.156   0.289   4.394
    4PMP   C153  153   1.165   0.222   4.256
    4PMP   N154  154   1.094   0.201   4.492
    4PMP   C155  155   0.950   0.432   4.357
    4PMP   C156  156   0.888   0.557   4.357
    4PMP   C157  157   0.797   0.839   4.283
    4PMP   H158  158   0.644   1.186   4.159
    4PMP   H159  159   0.504   1.100   4.093
    4PMP   H160  160   0.515   1.121   4.268
    4PMP   H161  161   0.719   1.154   4.383
    4PMP   H162  162   0.917   1.295   4.444
    4PMP   H163  163   0.978   1.457   4.617
    4PMP   H164  164   0.965   1.143   4.914
    4PMP   H165  165   0.901   0.985   4.744
    4PMP   H166  166   1.001   0.878   4.550
    4PMP   H167  167   1.160   0.754   4.413
    4PMP   H168  168   1.270   0.536   4.418
    4PMP   H169  169   1.259   0.305   4.430
    4PMP   H170  170   1.066   0.203   4.213
    4PMP   H171  171   1.220   0.285   4.186
    4PMP   H172  172   1.217   0.125   4.262
    4PMP   H173  173   1.120   0.104   4.486
    4PMP   H174  174   0.891   0.343   4.344
    4PMP   H175  175   0.780   0.561   4.344
    4PMP   H176  176   0.770   0.768   4.205
    5CAP   C177  177   0.054   4.755   4.365
    5CAP   O178  178   0.186   4.757   4.415
    5CAP   H179  179  -0.004   4.682   4.423
    5CAP   H180  180   0.056   4.720   4.260
    5CAP   H181  181   0.005   4.853   4.368
    6CAP   C182  182   0.992   0.574   4.743
    6CAP   C183  183   1.035   0.429   4.771
    6CAP   C184  184   1.170   0.430   4.842
    6CAP   C185  185   0.924   0.363   4.855
    6CAP   O186  186   1.050   0.367   4.641
    6CAP   C187  187   1.075   0.235   4.624
    6CAP   O188  188   1.081   0.151   4.712
    6CAP   H189  189   0.979   0.631   4.835
    6CAP   H190  190   1.067   0.625   4.682
    6CAP   H191  191   0.898   0.577   4.687
    6CAP   H192  192   1.247   0.472   4.776
    6CAP   H193  193   1.202   0.329   4.868
    6CAP   H194  194   1.167   0.489   4.934
    6CAP   H195  195   0.832   0.356   4.798
    6CAP   H196  196   0.951   0.262   4.886
    6CAP   H197  197   0.905   0.420   4.947
    1TCM     c1  198   4.339   0.335   2.674
    1TCM    cl1  199   4.463   0.360   2.550
    1TCM    cl2  200   4.242   0.484   2.692
    1TCM     h1  201   4.272   0.252   2.644
    1TCM    cl3  202   4.416   0.296   2.830
    1TCM     c1  203   1.694   2.479   4.345
    1TCM    cl1  204   1.603   2.326   4.354
    1TCM    cl2  205   1.627   2.595   4.462
    1TCM     h1  206   1.801   2.460   4.369
    1TCM    cl3  207   1.681   2.546   4.181
    1TCM     c1  208   1.817   2.263   0.998
    1TCM    cl1  209   1.904   2.111   0.967
    1TCM    cl2  210   1.797   2.352   0.845
    1TCM     h1  211   1.717   2.241   1.041
    1TCM    cl3  212   1.910   2.362   1.112
    1TCM     c1  213   2.651   0.611   3.811
    1TCM    cl1  214   2.713   0.513   3.675
    1TCM    cl2  215   2.687   0.528   3.964
    1TCM     h1  216   2.701   0.710   3.810
    1TCM    cl3  217   2.476   0.632   3.794
    1TCM     c1  218   2.175   1.765   2.858
    1TCM    cl1  219   2.069   1.874   2.766
    1TCM    cl2  220   2.120   1.758   3.027
    1TCM     h1  221   2.171   1.663   2.813
    1TCM    cl3  222   2.342   1.826   2.853
    1TCM     c1  223   5.037   1.289   0.559
    1TCM    cl1  224   5.175   1.233   0.460
    1TCM    cl2  225   5.084   1.289   0.730
    1TCM     h1  226   5.009   1.391   0.528
    1TCM    cl3  227   4.899   1.179   0.536
    1TCM     c1  228   2.902   0.792   2.574
    1TCM    cl1  229   2.761   0.892   2.537
    1TCM    cl2  230   2.852   0.622   2.592
    1TCM     h1  231   2.977   0.800   2.492
    1TCM    cl3  232   2.976   0.847   2.727
    1TCM     c1  233   3.775   4.020   4.741
    1TCM    cl1  234   3.711   3.937   4.598
    1TCM    cl2  235   3.651   4.130   4.806
    1TCM     h1  236   3.801   3.946   4.819
    1TCM    cl3  237   3.919   4.114   4.697
    1TCM     c1  238   0.770   4.147   3.479
    1TCM    cl1  239   0.814   3.982   3.430
    1TCM    cl2  240   0.831   4.263   3.359
    1TCM     h1  241   0.659   4.155   3.485
    1TCM    cl3  242   0.841   4.183   3.638
    1TCM     c1  243   3.902   1.342   2.588
    1TCM    cl1  244   3.882   1.339   2.765
    1TCM    cl2  245   4.051   1.257   2.544
    1TCM     h1  246   3.815   1.291   2.541
    1TCM    cl3  247   3.910   1.510   2.532
    1TCM     c1  248   4.917   3.091   4.463
    1TCM    cl1  249   4.741   3.073   4.484
    1TCM    cl2  250   4.987   2.936   4.413
    1TCM     h1  251   4.937   3.168   4.385
    1TCM    cl3  252   4.990   3.142   4.617
    1TCM     c1  253   0.576   2.830   1.451
    1TCM    cl1  254   0.554   3.005   1.473
    1TCM    cl2  255   0.417   2.752   1.431
    1TCM     h1  256   0.637   2.812   1.360
    1TCM    cl3  257   0.659   2.761   1.592
    1TCM     c1  258   1.503   1.965   2.431
    1TCM    cl1  259   1.393   1.861   2.524
    1TCM    cl2  260   1.467   1.948   2.257
    1TCM     h1  261   1.490   2.070   2.461
    1TCM    cl3  262   1.671   1.915   2.461
    1TCM     c1  263   4.282   4.435   0.723
    1TCM    cl1  264   4.451   4.426   0.779
    1TCM    cl2  265   4.247   4.298   0.616
    1TCM     h1  266   4.214   4.432   0.811
    1TCM    cl3  267   4.257   4.588   0.635
    1TCM     c1  268   2.571   5.231   3.819
    1TCM    cl1  269   2.668   5.084   3.846
    1TCM    cl2  270   2.585   5.338   3.961
    1TCM     h1  271   2.607   5.283   3.729
    1TCM    cl3  272   2.400   5.185   3.797
    1TCM     c1  273   2.881   1.888   3.067
    1TCM    cl1  274   3.035   1.814   3.018
    1TCM    cl2  275   2.792   1.773   3.171
    1TCM     h1  276   2.901   1.981   3.124
    1TCM    cl3  277   2.784   1.925   2.923
    1TCM     c1  278   0.685   3.105   5.024
    1TCM    cl1  279   0.791   3.208   4.925
    1TCM    cl2  280   0.716   2.935   4.986
    1TCM     h1  281   0.705   3.124   5.131
    1TCM    cl3  282   0.515   3.144   4.988
    1TCM     c1  283   4.599   3.535   2.148
    1TCM    cl1  284   4.542   3.647   2.022
    1TCM    cl2  285   4.459   3.454   2.223
    1TCM     h1  286   4.666   3.459   2.103
    1TCM    cl3  287   4.688   3.626   2.272
    1TCM     c1  288   5.245   3.664   4.906
    1TCM    cl1  289   5.095   3.744   4.853
    1TCM    cl2  290   5.340   3.776   5.006
    1TCM     h1  291   5.220   3.574   4.965
    1TCM    cl3  292   5.340   3.617   4.763
    1TCM     c1  293   2.175   1.157   3.523
    1TCM    cl1  294   2.304   1.276   3.548
    1TCM    cl2  295   2.198   1.076   3.367
    1TCM     h1  296   2.179   1.081   3.605
    1TCM    cl3  297   2.017   1.238   3.525
    1TCM     c1  298   1.324   2.060   2.766
    1TCM    cl1  299   1.368   1.888   2.764
    1TCM    cl2  300   1.173   2.084   2.675
    1TCM     h1  301   1.310   2.094   2.871
    1TCM    cl3  302   1.454   2.156   2.691
    1TCM     c1  303   3.126   4.698   4.811
    1TCM    cl1  304   3.193   4.708   4.646
    1TCM    cl2  305   3.151   4.534   4.874
    1TCM     h1  306   3.177   4.771   4.876
    1TCM    cl3  307   2.952   4.733   4.806
    1TCM     c1  308   2.706   2.467   2.025
    1TCM    cl1  309   2.624   2.436   1.870
    1TCM    cl2  310   2.660   2.628   2.085
    1TCM     h1  311   2.675   2.390   2.099
    1TCM    cl3  312   2.882   2.460   2.002
    1TCM     c1  313   2.732   2.026   5.067
    1TCM    cl1  314   2.834   1.933   5.179
    1TCM    cl2  315   2.828   2.076   4.927
    1TCM     h1  316   2.647   1.962   5.033
    1TCM    cl3  317   2.668   2.169   5.150
    1TCM     c1  318   4.931   0.262   1.258
    1TCM    cl1  319   4.781   0.167   1.242
    1TCM    cl2  320   4.914   0.376   1.393
    1TCM     h1  321   5.016   0.193   1.277
    1TCM    cl3  322   4.960   0.352   1.108
    1TCM     c1  323   3.034   0.848   1.266
    1TCM    cl1  324   3.107   0.687   1.243
    1TCM    cl2  325   2.861   0.840   1.228
    1TCM     h1  326   3.047   0.879   1.372
    1TCM    cl3  327   3.113   0.965   1.159
    1TCM     c1  328   3.963   3.278   1.871
    1TCM    cl1  329   3.956   3.107   1.823
    1TCM    cl2  330   3.970   3.289   2.048
    1TCM     h1  331   4.054   3.325   1.827
    1TCM    cl3  332   3.818   3.362   1.812
    1TCM     c1  333   1.024   0.855   3.685
    1TCM    cl1  334   0.895   0.896   3.569
    1TCM    cl2  335   0.981   0.916   3.846
    1TCM     h1  336   1.035   0.744   3.689
    1TCM    cl3  337   1.177   0.929   3.632
    1TCM     c1  338   0.702   5.165   4.128
    1TCM    cl1  339   0.599   5.300   4.182
    1TCM    cl2  340   0.857   5.171   4.213
    1TCM     h1  341   0.651   5.069   4.150
    1TCM    cl3  342   0.730   5.179   3.953
    1TCM     c1  343   2.809   3.634   3.435
    1TCM    cl1  344   2.956   3.601   3.528
    1TCM    cl2  345   2.852   3.669   3.266
    1TCM     h1  346   2.742   3.545   3.438
    1TCM    cl3  347   2.724   3.773   3.505
    1TCM     c1  348   0.305   0.962   2.477
    1TCM    cl1  349   0.138   0.974   2.536
    1TCM    cl2  350   0.312   0.845   2.343
    1TCM     h1  351   0.339   1.062   2.441
    1TCM    cl3  352   0.411   0.908   2.609
    1TCM     c1  353   4.981   1.982   2.121
    1TCM    cl1  354   5.093   2.018   2.255
    1TCM    cl2  355   4.976   2.121   2.010
    1TCM     h1  356   5.017   1.893   2.066
    1TCM    cl3  357   4.819   1.952   2.186
    1TCM     c1  358   1.254   3.561   2.333
    1TCM    cl1  359   1.330   3.401   2.348
    1TCM    cl2  360   1.153   3.565   2.187
    1TCM     h1  361   1.192   3.581   2.422
    1TCM    cl3  362   1.381   3.686   2.320
    1TCM     c1  363   3.908   1.415   2.031
    1TCM    cl1  364   3.796   1.278   2.010
    1TCM    cl2  365   3.899   1.473   2.199
    1TCM     h1  366   4.011   1.382   2.009
    1TCM    cl3  367   3.862   1.547   1.921
    1TCM     c1  368   0.862   2.231   2.088
    1TCM    cl1  369   0.720   2.238   2.194
    1TCM    cl2  370   0.822   2.303   1.930
    1TCM     h1  371   0.945   2.287   2.134
    1TCM    cl3  372   0.911   2.062   2.065
    1TCM     c1  373   2.182   3.840   1.757
    1TCM    cl1  374   2.350   3.792   1.724
    1TCM    cl2  375   2.093   3.852   1.603
    1TCM     h1  376   2.134   3.764   1.821
    1TCM    cl3  377   2.180   3.997   1.839
    1TCM     c1  378   1.047   4.556   1.146
    1TCM    cl1  379   0.904   4.551   1.041
    1TCM    cl2  380   1.118   4.394   1.158
    1TCM     h1  381   1.121   4.627   1.104
    1TCM    cl3  382   0.999   4.611   1.309
    1TCM     c1  383   0.240   1.267   4.841
    1TCM    cl1  384   0.070   1.317   4.819
    1TCM    cl2  385   0.325   1.389   4.938
    1TCM     h1  386   0.242   1.169   4.894
    1TCM    cl3  387   0.318   1.251   4.683
    1TCM     c1  388   1.322   3.896   4.780
    1TCM    cl1  389   1.460   4.009   4.788
    1TCM    cl2  390   1.343   3.767   4.900
    1TCM     h1  391   1.228   3.951   4.800
    1TCM    cl3  392   1.314   3.824   4.617
    1TCM     c1  393   0.310   0.744   4.846
    1TCM    cl1  394   0.397   0.700   4.995
    1TCM    cl2  395   0.372   0.647   4.710
    1TCM     h1  396   0.202   0.724   4.859
    1TCM    cl3  397   0.335   0.917   4.812
    1TCM     c1  398   1.065   4.309   2.237
    1TCM    cl1  399   0.948   4.273   2.366
    1TCM    cl2  400   0.986   4.403   2.109
    1TCM     h1  401   1.150   4.367   2.280
    1TCM    cl3  402   1.127   4.156   2.170
    1TCM     c1  403   3.690   4.130   0.172
    1TCM    cl1  404   3.768   4.012   0.064
    1TCM    cl2  405   3.750   4.107   0.338
    1TCM     h1  406   3.714   4.233   0.138
    1TCM    cl3  407   3.514   4.106   0.169
    1TCM     c1  408   1.579   1.542   1.410
    1TCM    cl1  409   1.452   1.629   1.500
    1TCM    cl2  410   1.714   1.653   1.377
    1TCM     h1  411   1.615   1.457   1.470
    1TCM    cl3  412   1.512   1.482   1.256
    1TCM     c1  413   3.468   0.654   2.307
    1TCM    cl1  414   3.297   0.606   2.307
    1TCM    cl2  415   3.563   0.536   2.402
    1TCM     h1  416   3.506   0.656   2.203
    1TCM    cl3  417   3.485   0.815   2.380
    1TCM     c1  418   0.137   0.611   1.988
    1TCM    cl1  419   0.031   0.633   2.129
    1TCM    cl2  420   0.283   0.709   2.007
    1TCM     h1  421   0.165   0.504   1.980
    1TCM    cl3  422   0.050   0.661   1.841
    1TCM     c1  423   3.856   2.613   1.103
    1TCM    cl1  424   3.924   2.476   1.192
    1TCM    cl2  425   3.985   2.695   1.012
    1TCM     h1  426   3.779   2.576   1.032
    1TCM    cl3  427   3.782   2.727   1.217
    1TCM     c1  428   4.173   0.090   0.795
    1TCM    cl1  429   4.056   0.000   0.695
    1TCM    cl2  430   4.200   0.251   0.725
    1TCM     h1  431   4.133   0.100   0.898
    1TCM    cl3  432   4.327   0.001   0.801
    1TCM     c1  433   4.953   1.743   3.394
    1TCM    cl1  434   4.826   1.768   3.271
    1TCM    cl2  435   4.883   1.663   3.536
    1TCM     h1  436   5.033   1.679   3.351
    1TCM    cl3  437   5.022   1.900   3.441
    1TCM     c1  438   1.987   3.586   2.406
    1TCM    cl1  439   2.068   3.525   2.260
    1TCM    cl2  440   1.893   3.732   2.366
    1TCM     h1  441   1.919   3.508   2.446
    1TCM    cl3  442   2.109   3.626   2.529
    1TCM     c1  443   0.553   0.219   4.817
    1TCM    cl1  444   0.557   0.275   4.985
    1TCM    cl2  445   0.442   0.080   4.803
    1TCM     h1  446   0.518   0.301   4.751
    1TCM    cl3  447   0.717   0.169   4.767
    1TCM     c1  448   4.533   0.694   4.563
    1TCM    cl1  449   4.523   0.858   4.495
    1TCM    cl2  450   4.492   0.698   4.736
    1TCM     h1  451   4.462   0.628   4.509
    1TCM    cl3  452   4.699   0.632   4.543
    1TCM     c1  453   3.845   4.615   1.569
    1TCM    cl1  454   3.739   4.741   1.635
    1TCM    cl2  455   3.881   4.650   1.399
    1TCM     h1  456   3.940   4.612   1.627
    1TCM    cl3  457   3.764   4.457   1.582
    1TCM     c1  458   4.493   4.567   4.892
    1TCM    cl1  459   4.329   4.524   4.945
    1TCM    cl2  460   4.607   4.440   4.943
    1TCM     h1  461   4.495   4.576   4.781
    1TCM    cl3  462   4.541   4.722   4.964
    1TCM     c1  463   3.973   4.325   1.755
    1TCM    cl1  464   3.869   4.220   1.656
    1TCM    cl2  465   4.066   4.225   1.869
    1TCM     h1  466   4.043   4.381   1.689
    1TCM    cl3  467   3.872   4.440   1.846
    1TCM     c1  468   3.856   4.069   3.374
    1TCM    cl1  469   3.739   3.937   3.359
    1TCM    cl2  470   3.926   4.069   3.537
    1TCM     h1  471   3.937   4.056   3.299
    1TCM    cl3  472   3.775   4.224   3.345
    1TCM     c1  473   0.368   0.896   3.405
    1TCM    cl1  474   0.275   1.046   3.381
    1TCM    cl2  475   0.409   0.879   3.577
    1TCM     h1  476   0.306   0.810   3.373
    1TCM    cl3  477   0.517   0.902   3.309
    1TCM     c1  478   3.052   2.654   2.850
    1TCM    cl1  479   3.094   2.668   3.022
    1TCM    cl2  480   2.985   2.808   2.793
    1TCM     h1  481   3.143   2.629   2.792
    1TCM    cl3  482   2.931   2.525   2.829
    1TCM     c1  483   3.701   2.448   2.418
    1TCM    cl1  484   3.634   2.459   2.254
    1TCM    cl2  485   3.616   2.320   2.508
    1TCM     h1  486   3.809   2.424   2.413
    1TCM    cl3  487   3.679   2.604   2.501
    1TCM     c1  488   5.012   0.663   2.433
    1TCM    cl1  489   5.117   0.619   2.570
    1TCM    cl2  490   5.104   0.653   2.282
    1TCM     h1  491   4.926   0.592   2.429
    1TCM    cl3  492   4.951   0.828   2.455
    1TCM     c1  493   0.354   0.174   3.013
    1TCM    cl1  494   0.467   0.057   2.941
    1TCM    cl2  495   0.187   0.118   2.988
    1TCM     h1  496   0.374   0.182   3.122
    1TCM    cl3  497   0.375   0.333   2.936
    1TCM     c1  498   5.214   3.672   1.369
    1TCM    cl1  499   5.071   3.686   1.263
    1TCM    cl2  500   5.161   3.628   1.533
    1TCM     h1  501   5.281   3.594   1.329
    1TCM    cl3  502   5.299   3.828   1.373
    1TCM     c1  503   1.558   3.298   0.954
    1TCM    cl1  504   1.519   3.471   0.970
    1TCM    cl2  505   1.678   3.276   0.825
    1TCM     h1  506   1.599   3.261   1.050
    1TCM    cl3  507   1.410   3.208   0.914
    1TCM     c1  508   2.741   4.419   4.200
    1TCM    cl1  509   2.576   4.484   4.208
    1TCM    cl2  510   2.831   4.501   4.070
    1TCM     h1  511   2.792   4.437   4.297
    1TCM    cl3  512   2.735   4.245   4.167
    1TCM     c1  513   4.638   1.694   0.408
    1TCM    cl1  514   4.495   1.642   0.316
    1TCM    cl2  515   4.609   1.855   0.479
    1TCM     h1  516   4.658   1.621   0.490
    1TCM    cl3  517   4.779   1.702   0.300
    1TCM     c1  518   2.933   4.764   4.501
    1TCM    cl1  519   3.010   4.604   4.493
    1TCM    cl2  520   2.815   4.779   4.369
    1TCM     h1  521   2.882   4.776   4.598
    1TCM    cl3  522   3.057   4.890   4.484
    1TCM     c1  523   3.856   4.163   2.053
    1TCM    cl1  524   3.778   4.251   1.920
    1TCM    cl2  525   3.736   4.127   2.179
    1TCM     h1  526   3.899   4.068   2.015
    1TCM    cl3  527   3.986   4.263   2.122
    1TCM     c1  528   0.935   0.233   3.413
    1TCM    cl1  529   0.786   0.236   3.510
    1TCM    cl2  530   0.896   0.272   3.244
    1TCM     h1  531   1.006   0.308   3.453
    1TCM    cl3  532   1.008   0.071   3.422
    1TCM     c1  533   0.967   1.365   2.634
    1TCM    cl1  534   0.905   1.458   2.496
    1TCM    cl2  535   0.832   1.321   2.741
    1TCM     h1  536   1.017   1.273   2.597
    1TCM    cl3  537   1.084   1.465   2.724
    1TCM     c1  538   1.165   0.797   2.304
    1TCM    cl1  539   1.048   0.739   2.184
    1TCM    cl2  540   1.266   0.924   2.232
    1TCM     h1  541   1.111   0.838   2.392
    1TCM    cl3  542   1.268   0.662   2.356
    1TCM     c1  543   2.888   1.135   3.970
    1TCM    cl1  544   2.732   1.129   4.055
    1TCM    cl2  545   2.869   1.231   3.820
    1TCM     h1  546   2.964   1.183   4.035
    1TCM    cl3  547   2.939   0.970   3.928
    1TCM     c1  548   4.624   5.146   1.272
    1TCM    cl1  549   4.752   5.227   1.177
    1TCM    cl2  550   4.639   5.194   1.442
    1TCM     h1  551   4.525   5.176   1.233
    1TCM    cl3  552   4.643   4.970   1.258
    1TCM     c1  553   0.538   4.427   0.334
    1TCM    cl1  554   0.394   4.517   0.387
    1TCM    cl2  555   0.539   4.417   0.156
    1TCM     h1  556   0.629   4.480   0.369
    1TCM    cl3  557   0.534   4.263   0.402
    1TCM     c1  558   2.397   3.425   2.230
    1TCM    cl1  559   2.508   3.549   2.169
    1TCM    cl2  560   2.418   3.407   2.406
    1TCM     h1  561   2.292   3.454   2.209
    1TCM    cl3  562   2.433   3.270   2.151
    1TCM     c1  563   0.360   3.168   1.124
    1TCM    cl1  564   0.531   3.188   1.077
    1TCM    cl2  565   0.331   3.250   1.279
    1TCM     h1  566   0.296   3.213   1.046
    1TCM    cl3  567   0.323   2.995   1.140
    1TCM     c1  568   3.390   3.631   1.048
    1TCM    cl1  569   3.290   3.576   1.185
    1TCM    cl2  570   3.346   3.797   1.005
    1TCM     h1  571   3.497   3.627   1.076
    1TCM    cl3  572   3.362   3.524   0.908
    1TCM     c1  573   3.171   3.035   4.986
    1TCM    cl1  574   3.300   3.030   4.864
    1TCM    cl2  575   3.243   3.048   5.148
    1TCM     h1  576   3.105   3.123   4.967
    1TCM    cl3  577   3.074   2.886   4.976
    1TCM     c1  578   1.136   1.274   1.934
    1TCM    cl1  579   1.265   1.223   1.823
    1TCM    cl2  580   1.203   1.294   2.098
    1TCM     h1  581   1.093   1.370   1.900
    1TCM    cl3  582   1.008   1.151   1.937
    1TCM     c1  583   1.968   2.668   4.756
    1TCM    cl1  584   1.876   2.624   4.610
    1TCM    cl2  585   2.094   2.546   4.785
    1TCM     h1  586   2.015   2.767   4.741
    1TCM    cl3  587   1.858   2.674   4.896
    1TCM     c1  588   2.244   4.128   4.185
    1TCM    cl1  589   2.228   4.039   4.032
    1TCM    cl2  590   2.368   4.050   4.286
    1TCM     h1  591   2.275   4.233   4.163
    1TCM    cl3  592   2.089   4.128   4.271
    1TCM     c1  593   0.769   0.351   0.147
    1TCM    cl1  594   0.895   0.452   0.072
    1TCM    cl2  595   0.794   0.345   0.323
    1TCM     h1  596   0.669   0.394   0.125
    1TCM    cl3  597   0.779   0.186   0.081
    1TCM     c1  598   1.107   0.654   2.967
    1TCM    cl1  599   1.087   0.823   2.916
    1TCM    cl2  600   0.959   0.599   3.049
    1TCM     h1  601   1.126   0.590   2.879
    1TCM    cl3  602   1.245   0.642   3.080
    1TCM     c1  603   4.492   3.212   3.274
    1TCM    cl1  604   4.447   3.164   3.109
    1TCM    cl2  605   4.626   3.329   3.267
    1TCM     h1  606   4.405   3.259   3.324
    1TCM    cl3  607   4.544   3.069   3.366
    1TCM     c1  608   3.213   4.775   5.188
    1TCM    cl1  609   3.209   4.867   5.340
    1TCM    cl2  610   3.243   4.885   5.052
    1TCM     h1  611   3.295   4.700   5.193
    1TCM    cl3  612   3.058   4.692   5.164
    1TCM     c1  613   1.869   0.124   3.630
    1TCM    cl1  614   1.858   0.129   3.453
    1TCM    cl2  615   1.835   0.285   3.696
    1TCM     h1  616   1.794   0.051   3.669
    1TCM    cl3  617   2.032   0.073   3.678
    1TCM     c1  618   1.028   0.811   4.041
    1TCM    cl1  619   1.067   0.713   4.184
    1TCM    cl2  620   0.882   0.908   4.073
    1TCM     h1  621   1.113   0.879   4.018
    1TCM    cl3  622   0.998   0.704   3.902
    1TCM     c1  623   2.060   5.148   2.410
    1TCM    cl1  624   1.941   5.225   2.517
    1TCM    cl2  625   2.034   5.202   2.242
    1TCM     h1  626   2.163   5.175   2.442
    1TCM    cl3  627   2.041   4.971   2.418
    1TCM     c1  628   1.209   1.272   2.384
    1TCM    cl1  629   1.169   1.100   2.365
    1TCM    cl2  630   1.068   1.371   2.336
    1TCM     h1  631   1.233   1.293   2.490
    1TCM    cl3  632   1.348   1.313   2.282
    1TCM     c1  633   1.608   1.634   0.190
    1TCM    cl1  634   1.572   1.803   0.146
    1TCM    cl2  635   1.782   1.618   0.226
    1TCM     h1  636   1.549   1.606   0.280
    1TCM    cl3  637   1.565   1.527   0.055
    1TCM     c1  638   4.227   3.115   2.468
    1TCM    cl1  639   4.396   3.171   2.460
    1TCM    cl2  640   4.151   3.178   2.615
    1TCM     h1  641   4.172   3.152   2.379
    1TCM    cl3  642   4.224   2.937   2.470
    1TCM     c1  643   2.941   4.880   1.406
    1TCM    cl1  644   2.875   5.035   1.349
    1TCM    cl2  645   2.820   4.752   1.382
    1TCM     h1  646   3.033   4.855   1.349
    1TCM    cl3  647   2.980   4.892   1.579
    1TCM     c1  648   4.330   2.470   3.328
    1TCM    cl1  649   4.426   2.531   3.464
    1TCM    cl2  650   4.166   2.432   3.384
    1TCM     h1  651   4.325   2.548   3.249
    1TCM    cl3  652   4.406   2.323   3.262
    1TCM     c1  653   4.279   0.787   3.721
    1TCM    cl1  654   4.345   0.731   3.877
    1TCM    cl2  655   4.299   0.659   3.599
    1TCM     h1  656   4.171   0.810   3.733
    1TCM    cl3  657   4.366   0.933   3.669
    1TCM     c1  658   4.267   0.995   3.312
    1TCM    cl1  659   4.135   0.984   3.194
    1TCM    cl2  660   4.218   0.919   3.464
    1TCM     h1  661   4.357   0.943   3.272
    1TCM    cl3  662   4.306   1.166   3.341
    1TCM     c1  663   2.072   0.287   3.323
    1TCM    cl1  664   1.946   0.388   3.249
    1TCM    cl2  665   2.229   0.326   3.250
    1TCM     h1  666   2.075   0.307   3.432
    1TCM    cl3  667   2.034   0.116   3.295
    1TCM     c1  668   0.508   4.494   3.660
    1TCM    cl1  669   0.571   4.638   3.743
    1TCM    cl2  670   0.413   4.397   3.774
    1TCM     h1  671   0.444   4.525   3.575
    1TCM    cl3  672   0.644   4.397   3.599
    1TCM     c1  673   0.292   1.934   4.820
    1TCM    cl1  674   0.349   1.840   4.960
    1TCM    cl2  675   0.305   1.834   4.673
    1TCM     h1  676   0.186   1.963   4.835
    1TCM    cl3  677   0.392   2.080   4.802
    1TCM     c1  678   1.117   5.107   5.241
    1TCM    cl1  679   1.248   5.192   5.325
    1TCM    cl2  680   1.156   5.094   5.068
    1TCM     h1  681   1.105   5.006   5.284
    1TCM    cl3  682   0.965   5.198   5.261
    1TCM     c1  683   0.863   2.251   1.203
    1TCM    cl1  684   0.711   2.190   1.271
    1TCM    cl2  685   0.998   2.205   1.309
    1TCM     h1  686   0.879   2.208   1.102
    1TCM    cl3  687   0.856   2.429   1.192
    1TCM     c1  688   4.806   1.725   2.329
    1TCM    cl1  689   4.963   1.809   2.319
    1TCM    cl2  690   4.833   1.552   2.360
    1TCM     h1  691   4.746   1.769   2.411
    1TCM    cl3  692   4.719   1.745   2.175
    1TCM     c1  693   2.937   1.335   2.602
    1TCM    cl1  694   2.787   1.364   2.693
    1TCM    cl2  695   2.934   1.429   2.451
    1TCM     h1  696   3.024   1.367   2.663
    1TCM    cl3  697   2.951   1.162   2.564
    1TCM     c1  698   3.211   0.571   2.660
    1TCM    cl1  699   3.058   0.597   2.748
    1TCM    cl2  700   3.309   0.720   2.667
    1TCM     h1  701   3.267   0.488   2.706
    1TCM    cl3  702   3.175   0.533   2.490
    1TCM     c1  703   2.368   4.657   1.104
    1TCM    cl1  704   2.460   4.766   1.210
    1TCM    cl2  705   2.449   4.646   0.946
    1TCM     h1  706   2.363   4.556   1.150
    1TCM    cl3  707   2.203   4.720   1.082
    1TCM     c1  708   0.644   3.439   4.096
    1TCM    cl1  709   0.578   3.604   4.095
    1TCM    cl2  710   0.658   3.381   3.928
    1TCM     h1  711   0.745   3.440   4.143
    1TCM    cl3  712   0.536   3.332   4.188
    1TCM     c1  713   2.530   0.156   1.751
    1TCM    cl1  714   2.485   0.203   1.916
    1TCM    cl2  715   2.455   0.000   1.711
    1TCM     h1  716   2.495   0.233   1.680
    1TCM    cl3  717   2.707   0.141   1.740
    1TCM     c1  718   2.676   4.935   3.622
    1TCM    cl1  719   2.527   4.945   3.526
    1TCM    cl2  720   2.639   4.869   3.783
    1TCM     h1  721   2.749   4.869   3.571
    1TCM    cl3  722   2.746   5.098   3.639
    1TCM     c1  723   3.664   3.678   4.832
    1TCM    cl1  724   3.595   3.842   4.834
    1TCM    cl2  725   3.815   3.678   4.738
    1TCM     h1  726   3.685   3.645   4.936
    1TCM    cl3  727   3.548   3.566   4.757
    1TCM     c1  728   1.703   0.256   4.776
    1TCM    cl1  729   1.539   0.254   4.845
    1TCM    cl2  730   1.692   0.244   4.598
    1TCM     h1  731   1.753   0.351   4.803
    1TCM    cl3  732   1.796   0.119   4.839
    1TCM     c1  733   3.457   3.772   1.894
    1TCM    cl1  734   3.408   3.627   1.984
    1TCM    cl2  735   3.607   3.838   1.964
    1TCM     h1  736   3.475   3.745   1.788
    1TCM    cl3  737   3.329   3.894   1.904
    1TCM     c1  738   0.240   2.769   2.138
    1TCM    cl1  739   0.312   2.907   2.224
    1TCM    cl2  740   0.280   2.780   1.965
    1TCM     h1  741   0.281   2.674   2.180
    1TCM    cl3  742   0.064   2.771   2.159
    1TCM     c1  743   1.849   0.921   3.532
    1TCM    cl1  744   1.882   1.011   3.382
    1TCM    cl2  745   1.804   0.753   3.492
    1TCM     h1  746   1.939   0.921   3.596
    1TCM    cl3  747   1.715   0.999   3.620
    1TCM     c1  748   1.459   4.572   3.681
    1TCM    cl1  749   1.317   4.677   3.696
    1TCM    cl2  750   1.494   4.542   3.509
    1TCM     h1  751   1.547   4.621   3.728
    1TCM    cl3  752   1.428   4.417   3.763
    1TCM     c1  753   1.300   3.252   3.569
    1TCM    cl1  754   1.327   3.386   3.683
    1TCM    cl2  755   1.393   3.281   3.420
    1TCM     h1  756   1.333   3.157   3.615
    1TCM    cl3  757   1.127   3.242   3.529
    1TCM     c1  758   4.867   2.334   2.486
    1TCM    cl1  759   4.726   2.381   2.389
    1TCM    cl2  760   4.818   2.310   2.655
    1TCM     h1  761   4.910   2.240   2.446
    1TCM    cl3  762   4.990   2.463   2.478
    1TCM     c1  763   2.476   1.459   1.798
    1TCM    cl1  764   2.343   1.449   1.915
    1TCM    cl2  765   2.507   1.629   1.757
    1TCM     h1  766   2.568   1.414   1.843
    1TCM    cl3  767   2.433   1.369   1.651
    1TCM     c1  768   1.364   0.140   3.726
    1TCM    cl1  769   1.188   0.168   3.727
    1TCM    cl2  770   1.415   0.088   3.564
    1TCM     h1  771   1.416   0.235   3.753
    1TCM    cl3  772   1.405   0.014   3.844
    1TCM     c1  773   4.302   3.799   2.735
    1TCM    cl1  774   4.470   3.741   2.742
    1TCM    cl2  775   4.194   3.678   2.807
    1TCM     h1  776   4.294   3.894   2.792
    1TCM    cl3  777   4.256   3.827   2.566
    1TCM     c1  778   4.428   1.294   4.029
    1TCM    cl1  779   4.465   1.152   3.929
    1TCM    cl2  780   4.479   1.264   4.196
    1TCM     h1  781   4.481   1.382   3.989
    1TCM    cl3  782   4.253   1.325   4.025
    1TCM     c1  783   3.747   2.056   2.675
    1TCM    cl1  784   3.687   2.123   2.828
    1TCM    cl2  785   3.894   2.143   2.626
    1TCM     h1  786   3.770   1.949   2.688
    1TCM    cl3  787   3.622   2.076   2.549
    1TCM     c1  788   4.963   4.008   3.377
    1TCM    cl1  789   5.066   3.890   3.461
    1TCM    cl2  790   4.977   3.987   3.201
    1TCM     h1  791   4.857   3.993   3.408
    1TCM    cl3  792   5.014   4.173   3.421
    1TCM     c1  793   0.471   1.824   0.645
    1TCM    cl1  794   0.478   1.735   0.799
    1TCM    cl2  795   0.347   1.950   0.655
    1TCM     h1  796   0.570   1.871   0.625
    1TCM    cl3  797   0.431   1.711   0.514
    1TCM     c1  798   3.708   1.698   3.655
    1TCM    cl1  799   3.868   1.748   3.713
    1TCM    cl2  800   3.700   1.717   3.478
    1TCM     h1  801   3.691   1.591   3.681
    1TCM    cl3  802   3.583   1.798   3.731
    1TCM     c1  803   1.456   2.412   2.975
    1TCM    cl1  804   1.383   2.388   2.814
    1TCM    cl2  805   1.429   2.266   3.074
    1TCM     h1  806   1.564   2.429   2.964
    1TCM    cl3  807   1.380   2.552   3.054
    1TCM     c1  808   0.303   3.047   0.164
    1TCM    cl1  809   0.310   3.224   0.155
    1TCM    cl2  810   0.383   2.992   0.313
    1TCM     h1  811   0.197   3.014   0.165
    1TCM    cl3  812   0.386   2.977   0.023
    1TCM     c1  813   0.883   4.697   4.860
    1TCM    cl1  814   0.865   4.567   4.980
    1TCM    cl2  815   0.880   4.628   4.697
    1TCM     h1  816   0.800   4.770   4.872
    1TCM    cl3  817   1.038   4.780   4.886
    1TCM     c1  818   4.709   4.854   0.142
    1TCM    cl1  819   4.855   4.833   0.043
    1TCM    cl2  820   4.756   4.872   0.313
    1TCM     h1  821   4.654   4.944   0.109
    1TCM    cl3  822   4.604   4.711   0.124
    1TCM     c1  823   0.818   1.551   0.594
    1TCM    cl1  824   0.955   1.502   0.696
    1TCM    cl2  825   0.877   1.592   0.431
    1TCM     h1  826   0.746   1.467   0.587
    1TCM    cl3  827   0.739   1.693   0.666
    1TCM     c1  828   2.434   0.380   3.526
    1TCM    cl1  829   2.368   0.514   3.622
    1TCM    cl2  830   2.468   0.437   3.361
    1TCM     h1  831   2.528   0.343   3.572
    1TCM    cl3  832   2.316   0.247   3.520
    1TCM     c1  833   0.527   1.539   3.323
    1TCM    cl1  834   0.540   1.540   3.501
    1TCM    cl2  835   0.677   1.476   3.253
    1TCM     h1  836   0.442   1.474   3.293
    1TCM    cl3  837   0.499   1.705   3.265
    1TCM     c1  838   0.181   4.420   4.967
    1TCM    cl1  839   0.199   4.278   4.861
    1TCM    cl2  840   0.231   4.377   5.133
    1TCM     h1  841   0.245   4.503   4.930
    1TCM    cl3  842   0.011   4.473   4.968
    1TCM     c1  843   4.297   1.433   2.197
    1TCM    cl1  844   4.463   1.489   2.230
    1TCM    cl2  845   4.187   1.499   2.320
    1TCM     h1  846   4.265   1.468   2.097
    1TCM    cl3  847   4.292   1.256   2.203
    1TCM     c1  848   1.486   0.669   1.810
    1TCM    cl1  849   1.451   0.542   1.929
    1TCM    cl2  850   1.420   0.622   1.651
    1TCM     h1  851   1.439   0.764   1.842
    1TCM    cl3  852   1.662   0.692   1.796
    1TCM     c1  853   2.020   1.887   3.562
    1TCM    cl1  854   2.000   2.009   3.434
    1TCM    cl2  855   1.963   1.953   3.717
    1TCM     h1  856   1.962   1.796   3.537
    1TCM    cl3  857   2.192   1.844   3.576
    1TCM     c1  858   2.648   3.611   3.828
    1TCM    cl1  859   2.764   3.695   3.933
    1TCM    cl2  860   2.580   3.471   3.914
    1TCM     h1  861   2.567   3.681   3.799
    1TCM    cl3  862   2.732   3.554   3.681
    1TCM     c1  863   0.854   1.372   3.733
    1TCM    cl1  864   0.813   1.332   3.564
    1TCM    cl2  865   0.707   1.424   3.818
    1TCM     h1  866   0.896   1.283   3.783
    1TCM    cl3  867   0.973   1.504   3.735
    1TCM     c1  868   0.794   4.413   1.931
    1TCM    cl1  869   0.663   4.400   1.811
    1TCM    cl2  870   0.728   4.386   2.094
    1TCM     h1  871   0.872   4.337   1.909
    1TCM    cl3  872   0.866   4.576   1.923
    1TCM     c1  873   3.718   4.173   2.605
    1TCM    cl1  874   3.871   4.189   2.516
    1TCM    cl2  875   3.673   4.001   2.614
    1TCM     h1  876   3.730   4.214   2.707
    1TCM    cl3  877   3.591   4.263   2.519
    1TCM     c1  878   0.684   2.573   3.579
    1TCM    cl1  879   0.692   2.594   3.402
    1TCM    cl2  880   0.792   2.440   3.628
    1TCM     h1  881   0.715   2.667   3.629
    1TCM    cl3  882   0.517   2.533   3.625
    1TCM     c1  883   1.777   3.879   1.753
    1TCM    cl1  884   1.790   3.947   1.589
    1TCM    cl2  885   1.630   3.940   1.831
    1TCM     h1  886   1.773   3.768   1.747
    1TCM    cl3  887   1.919   3.928   1.848
    1TCM     c1  888   1.612   1.618   2.620
    1TCM    cl1  889   1.480   1.706   2.699
    1TCM    cl2  890   1.550   1.465   2.553
    1TCM     h1  891   1.655   1.680   2.538
    1TCM    cl3  892   1.739   1.583   2.740
    1TCM     c1  893   3.955   0.136   4.035
    1TCM    cl1  894   4.038   0.040   3.910
    1TCM    cl2  895   4.049   0.130   4.186
    1TCM     h1  896   3.946   0.241   4.001
    1TCM    cl3  897   3.793   0.068   4.064
    1TCM     c1  898   0.115   4.431   4.575
    1TCM    cl1  899   0.170   4.490   4.417
    1TCM    cl2  900   0.000   4.548   4.645
    1TCM     h1  901   0.065   4.333   4.564
    1TCM    cl3  902   0.255   4.415   4.684
    1TCM     c1  903   1.046   1.733   0.850
    1TCM    cl1  904   0.943   1.871   0.896
    1TCM    cl2  905   1.064   1.730   0.673
    1TCM     h1  906   1.145   1.744   0.897
    1TCM    cl3  907   0.970   1.582   0.904
    1TCM     c1  908   2.722   2.851   0.299
    1TCM    cl1  909   2.660   2.940   0.157
    1TCM    cl2  910   2.690   2.677   0.278
    1TCM     h1  911   2.831   2.868   0.308
    1TCM    cl3  912   2.640   2.909   0.446
    1TCM     c1  913   3.615   1.425   3.446
    1TCM    cl1  914   3.493   1.384   3.324
    1TCM    cl2  915   3.766   1.471   3.365
    1TCM     h1  916   3.579   1.509   3.508
    1TCM    cl3  917   3.645   1.283   3.550
    1TCM     c1  918   3.528   0.282   1.975
    1TCM    cl1  919   3.580   0.423   2.070
    1TCM    cl2  920   3.551   0.316   1.802
    1TCM     h1  921   3.588   0.193   2.004
    1TCM    cl3  922   3.356   0.250   2.006
    1TCM     c1  923   4.127   2.685   1.509
    1TCM    cl1  924   4.085   2.770   1.659
    1TCM    cl2  925   4.108   2.510   1.532
    1TCM     h1  926   4.060   2.719   1.427
    1TCM    cl3  927   4.296   2.721   1.465
    1TCM     c1  928   3.013   4.244   2.681
    1TCM    cl1  929   2.866   4.146   2.666
    1TCM    cl2  930   3.080   4.225   2.845
    1TCM     h1  931   3.088   4.209   2.607
    1TCM    cl3  932   2.975   4.415   2.652
    1TCM     c1  933   4.438   1.113   2.777
    1TCM    cl1  934   4.529   1.006   2.887
    1TCM    cl2  935   4.437   1.043   2.614
    1TCM     h1  936   4.334   1.124   2.814
    1TCM    cl3  937   4.516   1.273   2.773
    1TCM     c1  938   1.212   2.073   4.900
    1TCM    cl1  939   1.198   2.226   4.989
    1TCM    cl2  940   1.308   1.957   4.995
    1TCM     h1  941   1.110   2.031   4.882
    1TCM    cl3  942   1.291   2.102   4.744
    1TCM     c1  943   2.377   4.584   4.603
    1TCM    cl1  944   2.535   4.627   4.671
    1TCM    cl2  945   2.355   4.407   4.612
    1TCM     h1  946   2.297   4.634   4.661
    1TCM    cl3  947   2.369   4.635   4.433
    1TCM     c1  948   2.308   5.078   5.104
    1TCM    cl1  949   2.280   5.175   5.251
    1TCM    cl2  950   2.477   5.098   5.052
    1TCM     h1  951   2.288   4.971   5.126
    1TCM    cl3  952   2.200   5.134   4.975
    1TCM     c1  953   2.034   1.287   3.017
    1TCM    cl1  954   2.080   1.308   3.188
    1TCM    cl2  955   1.973   1.122   2.992
    1TCM     h1  956   1.956   1.360   2.991
    1TCM    cl3  957   2.177   1.313   2.914
    1TCM     c1  958   1.946   2.210   5.153
    1TCM    cl1  959   1.869   2.354   5.224
    1TCM    cl2  960   2.025   2.255   5.001
    1TCM     h1  961   2.021   2.170   5.224
    1TCM    cl3  962   1.822   2.086   5.122
    1TCM     c1  963   2.251   1.827   1.713
    1TCM    cl1  964   2.219   1.734   1.861
    1TCM    cl2  965   2.329   1.723   1.592
    1TCM     h1  966   2.155   1.865   1.672
    1TCM    cl3  967   2.357   1.964   1.751
    1TCM     c1  968   2.673   2.710   0.843
    1TCM    cl1  969   2.738   2.554   0.895
    1TCM    cl2  970   2.766   2.770   0.704
    1TCM     h1  971   2.566   2.698   0.814
    1TCM    cl3  972   2.685   2.827   0.977
    1TCM     c1  973   3.074   1.880   2.014
    1TCM    cl1  974   2.980   2.015   1.948
    1TCM    cl2  975   3.129   1.776   1.881
    1TCM     h1  976   3.162   1.919   2.069
    1TCM    cl3  977   2.972   1.785   2.125
    1TCM     c1  978   4.635   4.632   2.719
    1TCM    cl1  979   4.626   4.582   2.889
    1TCM    cl2  980   4.750   4.767   2.703
    1TCM     h1  981   4.669   4.547   2.657
    1TCM    cl3  982   4.474   4.685   2.664
    1TCM     c1  983   3.219   0.416   4.909
    1TCM    cl1  984   3.361   0.478   4.997
    1TCM    cl2  985   3.144   0.549   4.818
    1TCM     h1  986   3.251   0.336   4.839
    1TCM    cl3  987   3.101   0.350   5.025
    1TCM     c1  988   3.966   3.997   4.137
    1TCM    cl1  989   3.954   3.820   4.131
    1TCM    cl2  990   4.046   4.046   4.288
    1TCM     h1  991   4.026   4.033   4.050
    1TCM    cl3  992   3.803   4.068   4.130
    1TCM     c1  993   1.975   1.394   2.600
    1TCM    cl1  994   1.877   1.314   2.725
    1TCM    cl2  995   2.062   1.531   2.672
    1TCM     h1  996   2.048   1.321   2.559
    1TCM    cl3  997   1.869   1.453   2.470
    1TCM     c1  998   2.677   0.495   0.139
    1TCM    cl1  999   2.831   0.408   0.145
    1TCM    cl2 1000   2.641   0.564   0.299
    1TCM     h1 1001   2.683   0.577   0.065
    1TCM    cl3 1002   2.547   0.383   0.092
    1TCM     c1 1003   2.454   2.908   2.033
    1TCM    cl1 1004   2.485   3.056   2.126
    1TCM    cl2 1005   2.453   2.946   1.859
    1TCM     h1 1006   2.534   2.833   2.054
    1TCM    cl3 1007   2.296   2.840   2.079
    1TCM     c1 1008   1.115   4.963   1.641
    1TCM    cl1 1009   1.098   5.140   1.641
    1TCM    cl2 1010   1.288   4.920   1.652
    1TCM     h1 1011   1.061   4.920   1.728
    1TCM    cl3 1012   1.048   4.897   1.490
    1TCM     c1 1013   4.250   2.316   4.402
    1TCM    cl1 1014   4.125   2.435   4.443
    1TCM    cl2 1015   4.183   2.152   4.415
    1TCM     h1 1016   4.285   2.334   4.298
    1TCM    cl3 1017   4.387   2.333   4.514
    1TCM     c1 1018   1.932   5.126   5.147
    1TCM    cl1 1019   1.847   5.007   5.047
    1TCM    cl2 1020   1.859   5.131   5.309
    1TCM     h1 1021   2.039   5.098   5.155
    1TCM    cl3 1022   1.919   5.287   5.071
    1TCM     c1 1023   3.464   3.796   0.641
    1TCM    cl1 1024   3.350   3.700   0.544
    1TCM    cl2 1025   3.516   3.703   0.782
    1TCM     h1 1026   3.552   3.822   0.578
    1TCM    cl3 1027   3.384   3.946   0.695
    1TCM     c1 1028   4.668   0.982   1.077
    1TCM    cl1 1029   4.704   1.033   1.243
    1TCM    cl2 1030   4.574   1.109   0.995
    1TCM     h1 1031   4.762   0.965   1.022
    1TCM    cl3 1032   4.573   0.831   1.080
    1TCM     c1 1033   4.135   1.839   1.944
    1TCM    cl1 1034   4.187   1.899   1.785
    1TCM    cl2 1035   4.044   1.966   2.029
    1TCM     h1 1036   4.071   1.750   1.931
    1TCM    cl3 1037   4.278   1.794   2.040
    1TCM     c1 1038   4.134   1.741   0.167
    1TCM    cl1 1039   4.196   1.577   0.201
    1TCM    cl2 1040   3.959   1.733   0.137
    1TCM     h1 1041   4.154   1.806   0.255
    1TCM    cl3 1042   4.216   1.807   0.024
    1TCM     c1 1043   3.991   3.240   4.817
    1TCM    cl1 1044   3.939   3.395   4.748
    1TCM    cl2 1045   4.153   3.257   4.889
    1TCM     h1 1046   3.919   3.208   4.896
    1TCM    cl3 1047   3.995   3.117   4.689
    1TCM     c1 1048   1.236   0.576   3.821
    1TCM    cl1 1049   1.237   0.562   3.998
    1TCM    cl2 1050   1.243   0.748   3.776
    1TCM     h1 1051   1.324   0.523   3.779
    1TCM    cl3 1052   1.086   0.504   3.757
    1TCM     c1 1053   3.584   0.361   1.436
    1TCM    cl1 1054   3.407   0.350   1.445
    1TCM    cl2 1055   3.634   0.367   1.265
    1TCM     h1 1056   3.618   0.453   1.488
    1TCM    cl3 1057   3.656   0.218   1.514
    1TCM     c1 1058   1.250   0.323   3.971
    1TCM    cl1 1059   1.391   0.409   4.038
    1TCM    cl2 1060   1.101   0.393   4.036
    1TCM     h1 1061   1.250   0.332   3.860
    1TCM    cl3 1062   1.259   0.151   4.016
    1TCM     c1 1063   3.133   5.264   3.617
    1TCM    cl1 1064   3.228   5.286   3.468
    1TCM    cl2 1065   2.973   5.340   3.598
    1TCM     h1 1066   3.120   5.155   3.637
    1TCM    cl3 1067   3.218   5.340   3.753
    1TCM     c1 1068   2.289   1.133   4.307
    1TCM    cl1 1069   2.281   1.035   4.159
    1TCM    cl2 1070   2.428   1.244   4.297
    1TCM     h1 1071   2.196   1.191   4.319
    1TCM    cl3 1072   2.310   1.026   4.448
    1TCM     c1 1073   3.298   0.737   0.363
    1TCM    cl1 1074   3.461   0.804   0.385
    1TCM    cl2 1075   3.297   0.565   0.411
    1TCM     h1 1076   3.226   0.793   0.426
    1TCM    cl3 1077   3.250   0.751   0.192
    1TCM     c1 1078   1.688   2.110   2.725
    1TCM    cl1 1079   1.616   2.181   2.871
    1TCM    cl2 1080   1.865   2.100   2.744
    1TCM     h1 1081   1.647   2.009   2.708
    1TCM    cl3 1082   1.650   2.213   2.585
    1TCM     c1 1083   5.005   4.020   4.679
    1TCM    cl1 1084   5.076   3.890   4.581
    1TCM    cl2 1085   4.915   4.131   4.574
    1TCM     h1 1086   4.937   3.976   4.754
    1TCM    cl3 1087   5.135   4.110   4.762
    1TCM     c1 1088   0.908   0.938   2.731
    1TCM    cl1 1089   0.855   1.103   2.773
    1TCM    cl2 1090   0.847   0.895   2.570
    1TCM     h1 1091   1.018   0.933   2.732
    1TCM    cl3 1092   0.843   0.823   2.851
    1TCM     c1 1093   4.738   0.997   3.654
    1TCM    cl1 1094   4.786   0.857   3.752
    1TCM    cl2 1095   4.794   0.973   3.486
    1TCM     h1 1096   4.628   1.006   3.655
    1TCM    cl3 1097   4.811   1.144   3.721
    1TCM     c1 1098   5.108   4.814   0.648
    1TCM    cl1 1099   5.237   4.896   0.738
    1TCM    cl2 1100   5.166   4.776   0.484
    1TCM     h1 1101   5.080   4.720   0.700
    1TCM    cl3 1102   4.966   4.921   0.637
    1TCM     c1 1103   0.722   3.399   0.370
    1TCM    cl1 1104   0.802   3.489   0.500
    1TCM    cl2 1105   0.552   3.370   0.414
    1TCM     h1 1106   0.726   3.457   0.276
    1TCM    cl3 1107   0.804   3.243   0.346
    1TCM     c1 1108   1.239   2.475   4.720
    1TCM    cl1 1109   1.228   2.311   4.788
    1TCM    cl2 1110   1.397   2.494   4.640
    1TCM     h1 1111   1.158   2.490   4.647
    1TCM    cl3 1112   1.224   2.594   4.851
    1TCM     c1 1113   0.716   3.245   0.713
    1TCM    cl1 1114   0.681   3.126   0.841
    1TCM    cl2 1115   0.686   3.171   0.554
    1TCM     h1 1116   0.650   3.333   0.726
    1TCM    cl3 1117   0.886   3.295   0.724
    1TCM     c1 1118   4.249   1.630   2.606
    1TCM    cl1 1119   4.320   1.747   2.492
    1TCM    cl2 1120   4.244   1.702   2.768
    1TCM     h1 1121   4.146   1.605   2.573
    1TCM    cl3 1122   4.348   1.483   2.610
    1TCM     c1 1123   2.140   0.584   4.333
    1TCM    cl1 1124   2.184   0.477   4.198
    1TCM    cl2 1125   2.138   0.752   4.276
    1TCM     h1 1126   2.039   0.556   4.370
    1TCM    cl3 1127   2.259   0.567   4.464
    1TCM     c1 1128   0.443   0.158   2.661
    1TCM    cl1 1129   0.521   0.000   2.637
    1TCM    cl2 1130   0.527   0.247   2.790
    1TCM     h1 1131   0.447   0.216   2.567
    1TCM    cl3 1132   0.273   0.133   2.707
    1TCM     c1 1133   1.879   4.549   4.438
    1TCM    cl1 1134   1.914   4.411   4.331
    1TCM    cl2 1135   1.957   4.522   4.596
    1TCM     h1 1136   1.918   4.642   4.393
    1TCM    cl3 1137   1.703   4.563   4.460
    1TCM     c1 1138   4.296   4.632   1.533
    1TCM    cl1 1139   4.193   4.693   1.402
    1TCM    cl2 1140   4.429   4.536   1.463
    1TCM     h1 1141   4.339   4.718   1.589
    1TCM    cl3 1142   4.200   4.530   1.642
    1TCM     c1 1143   1.135   2.611   0.562
    1TCM    cl1 1144   1.305   2.636   0.608
    1TCM    cl2 1145   1.123   2.474   0.450
    1TCM     h1 1146   1.075   2.590   0.653
    1TCM    cl3 1147   1.072   2.758   0.483
    1TCM     c1 1148   1.326   0.965   4.243
    1TCM    cl1 1149   1.223   1.045   4.364
    1TCM    cl2 1150   1.301   1.042   4.084
    1TCM     h1 1151   1.432   0.974   4.272
    1TCM    cl3 1152   1.282   0.793   4.233
    1TCM     c1 1153   1.872   1.526   0.881
    1TCM    cl1 1154   1.859   1.696   0.828
    1TCM    cl2 1155   1.875   1.519   1.058
    1TCM     h1 1156   1.785   1.469   0.843
    1TCM    cl3 1157   2.022   1.456   0.816
    1TCM     c1 1158   1.228   4.576   1.454
    1TCM    cl1 1159   1.232   4.407   1.400
    1TCM    cl2 1160   1.242   4.684   1.314
    1TCM     h1 1161   1.132   4.595   1.507
    1TCM    cl3 1162   1.363   4.606   1.565
    1TCM     c1 1163   5.112   2.790   2.641
    1TCM    cl1 1164   5.042   2.672   2.754
    1TCM    cl2 1165   5.055   2.757   2.477
    1TCM     h1 1166   5.082   2.893   2.671
    1TCM    cl3 1167   5.290   2.778   2.646
    1TCM     c1 1168   0.864   2.456   0.242
    1TCM    cl1 1169   0.826   2.404   0.076
    1TCM    cl2 1170   0.712   2.476   0.333
    1TCM     h1 1171   0.927   2.379   0.291
    1TCM    cl3 1172   0.951   2.610   0.238
    1TCM     c1 1173   3.684   4.703   3.439
    1TCM    cl1 1174   3.773   4.803   3.322
    1TCM    cl2 1175   3.796   4.588   3.516
    1TCM     h1 1176   3.639   4.768   3.516
    1TCM    cl3 1177   3.556   4.613   3.354
    1TCM     c1 1178   2.168   1.026   2.406
    1TCM    cl1 1179   2.344   1.035   2.382
    1TCM    cl2 1180   2.097   1.188   2.389
    1TCM     h1 1181   2.124   0.958   2.329
    1TCM    cl3 1182   2.133   0.962   2.568
    1TCM     c1 1183   0.730   4.626   4.496
    1TCM    cl1 1184   0.637   4.652   4.645
    1TCM    cl2 1185   0.628   4.662   4.355
    1TCM     h1 1186   0.819   4.694   4.496
    1TCM    cl3 1187   0.785   4.457   4.488
    1TCM     c1 1188   2.052   4.832   3.931
    1TCM    cl1 1189   2.097   4.950   4.057
    1TCM    cl2 1190   2.180   4.826   3.808
    1TCM     h1 1191   2.040   4.731   3.977
    1TCM    cl3 1192   1.899   4.881   3.856
    1TCM     c1 1193   1.192   0.281   1.293
    1TCM    cl1 1194   1.182   0.105   1.266
    1TCM    cl2 1195   1.135   0.320   1.457
    1TCM     h1 1196   1.298   0.313   1.282
    1TCM    cl3 1197   1.092   0.365   1.173
    1TCM     c1 1198   2.468   3.131   1.105
    1TCM    cl1 1199   2.444   3.129   1.281
    1TCM    cl2 1200   2.632   3.075   1.067
    1TCM     h1 1201   2.394   3.063   1.057
    1TCM    cl3 1202   2.446   3.296   1.043
    1TCM     c1 1203   1.024   3.619   1.111
    1TCM    cl1 1204   1.067   3.737   0.985
    1TCM    cl2 1205   0.926   3.489   1.039
    1TCM     h1 1206   1.117   3.576   1.154
    1TCM    cl3 1207   0.931   3.700   1.239
    1TCM     c1 1208   3.762   2.390   2.046
    1TCM    cl1 1209   3.841   2.538   2.105
    1TCM    cl2 1210   3.795   2.257   2.159
    1TCM     h1 1211   3.652   2.406   2.039
    1TCM    cl3 1212   3.826   2.348   1.886
    1TCM     c1 1213   2.782   2.485   1.275
    1TCM    cl1 1214   2.723   2.457   1.110
    1TCM    cl2 1215   2.905   2.613   1.273
    1TCM     h1 1216   2.698   2.516   1.340
    1TCM    cl3 1217   2.854   2.335   1.339
    1TCM     c1 1218   2.753   3.505   4.298
    1TCM    cl1 1219   2.727   3.625   4.170
    1TCM    cl2 1220   2.905   3.418   4.266
    1TCM     h1 1221   2.760   3.556   4.396
    1TCM    cl3 1222   2.618   3.389   4.300
    1TCM     c1 1223   1.203   2.806   4.163
    1TCM    cl1 1224   1.241   2.813   4.337
    1TCM    cl2 1225   1.030   2.770   4.142
    1TCM     h1 1226   1.227   2.904   4.116
    1TCM    cl3 1227   1.300   2.679   4.086
    1TCM     c1 1228   1.516   2.929   3.467
    1TCM    cl1 1229   1.539   2.780   3.561
    1TCM    cl2 1230   1.466   2.887   3.302
    1TCM     h1 1231   1.438   2.991   3.515
    1TCM    cl3 1232   1.669   3.020   3.461
    1TCM     c1 1233   3.799   4.792   3.861
    1TCM    cl1 1234   3.737   4.698   3.723
    1TCM    cl2 1235   3.790   4.694   4.009
    1TCM     h1 1236   3.905   4.821   3.842
    1TCM    cl3 1237   3.701   4.939   3.881
    1TCM     c1 1238   0.160   3.224   0.520
    1TCM    cl1 1239   0.238   3.236   0.679
    1TCM    cl2 1240   0.152   3.053   0.471
    1TCM     h1 1241   0.058   3.266   0.525
    1TCM    cl3 1242   0.255   3.315   0.400
    1TCM     c1 1243   1.508   2.273   5.081
    1TCM    cl1 1244   1.462   2.115   5.148
    1TCM    cl2 1245   1.602   2.364   5.202
    1TCM     h1 1246   1.570   2.258   4.990
    1TCM    cl3 1247   1.362   2.365   5.039
    1TCM     c1 1248   0.255   1.946   3.024
    1TCM    cl1 1249   0.285   1.779   2.971
    1TCM    cl2 1250   0.385   2.052   2.965
    1TCM     h1 1251   0.158   1.981   2.982
    1TCM    cl3 1252   0.249   1.952   3.201
    1TCM     c1 1253   3.695   0.231   4.947
    1TCM    cl1 1254   3.634   0.321   4.806
    1TCM    cl2 1255   3.565   0.128   5.011
    1TCM     h1 1256   3.781   0.168   4.916
    1TCM    cl3 1257   3.747   0.346   5.072
    1TCM     c1 1258   1.827   2.781   2.165
    1TCM    cl1 1259   1.738   2.897   2.267
    1TCM    cl2 1260   1.831   2.841   1.998
    1TCM     h1 1261   1.930   2.770   2.204
    1TCM    cl3 1262   1.745   2.623   2.169
    1TCM     c1 1263   4.177   0.701   4.245
    1TCM    cl1 1264   4.211   0.575   4.124
    1TCM    cl2 1265   4.002   0.712   4.271
    1TCM     h1 1266   4.227   0.675   4.340
    1TCM    cl3 1267   4.238   0.857   4.186
    1TCM     c1 1268   0.328   3.833   1.612
    1TCM    cl1 1269   0.364   3.955   1.487
    1TCM    cl2 1270   0.171   3.870   1.686
    1TCM     h1 1271   0.323   3.732   1.565
    1TCM    cl3 1272   0.455   3.835   1.736
    1TCM     c1 1273   0.259   1.621   0.918
    1TCM    cl1 1274   0.119   1.538   0.990
    1TCM    cl2 1275   0.355   1.697   1.047
    1TCM     h1 1276   0.322   1.548   0.864
    1TCM    cl3 1277   0.202   1.746   0.805
    1TCM     c1 1278   3.731   2.546   2.849
    1TCM    cl1 1279   3.647   2.697   2.891
    1TCM    cl2 1280   3.611   2.423   2.803
    1TCM     h1 1281   3.800   2.564   2.764
    1TCM    cl3 1282   3.823   2.489   2.990
    1TCM     c1 1283   0.290   4.832   2.863
    1TCM    cl1 1284   0.371   4.676   2.831
    1TCM    cl2 1285   0.141   4.803   2.955
    1TCM     h1 1286   0.358   4.897   2.921
    1TCM    cl3 1287   0.250   4.910   2.708
    1TCM     c1 1288   0.132   4.654   2.493
    1TCM    cl1 1289   0.067   4.686   2.656
    1TCM    cl2 1290   0.210   4.801   2.431
    1TCM     h1 1291   0.207   4.572   2.499
    1TCM    cl3 1292   0.000   4.606   2.385
    1TCM     c1 1293   0.480   2.507   2.423
    1TCM    cl1 1294   0.303   2.517   2.424
    1TCM    cl2 1295   0.540   2.530   2.257
    1TCM     h1 1296   0.522   2.585   2.489
    1TCM    cl3 1297   0.530   2.347   2.482
    1TCM     c1 1298   0.642   4.029   2.892
    1TCM    cl1 1299   0.474   3.998   2.939
    1TCM    cl2 1300   0.706   3.889   2.802
    1TCM     h1 1301   0.647   4.120   2.828
    1TCM    cl3 1302   0.741   4.055   3.037
    1TCM     c1 1303   2.390   0.721   4.080
    1TCM    cl1 1304   2.365   0.695   4.254
    1TCM    cl2 1305   2.232   0.735   3.999
    1TCM     h1 1306   2.448   0.814   4.064
    1TCM    cl3 1307   2.479   0.583   4.011
    1TCM     c1 1308   1.842   1.938   2.212
    1TCM    cl1 1309   1.797   1.923   2.041
    1TCM    cl2 1310   1.824   1.780   2.292
    1TCM     h1 1311   1.948   1.970   2.220
    1TCM    cl3 1312   1.737   2.057   2.292
    1TCM     c1 1313   0.960   3.191   2.351
    1TCM    cl1 1314   1.026   3.204   2.515
    1TCM    cl2 1315   0.963   3.351   2.273
    1TCM     h1 1316   1.021   3.120   2.291
    1TCM    cl3 1317   0.792   3.132   2.358
    1TCM     c1 1318   4.766   3.759   3.073
    1TCM    cl1 1319   4.719   3.855   2.932
    1TCM    cl2 1320   4.811   3.595   3.020
    1TCM     h1 1321   4.853   3.806   3.123
    1TCM    cl3 1322   4.630   3.749   3.187
    1TCM     c1 1323   4.307   1.066   4.577
    1TCM    cl1 1324   4.396   1.105   4.726
    1TCM    cl2 1325   4.416   1.083   4.437
    1TCM     h1 1326   4.270   0.961   4.582
    1TCM    cl3 1327   4.169   1.177   4.560
    1TCM     c1 1328   0.143   3.112   4.633
    1TCM    cl1 1329   0.312   3.066   4.601
    1TCM    cl2 1330   0.130   3.175   4.799
    1TCM     h1 1331   0.112   3.190   4.561
    1TCM    cl3 1332   0.039   2.969   4.616
    1TCM     c1 1333   1.049   1.938   0.285
    1TCM    cl1 1334   0.977   1.895   0.442
    1TCM    cl2 1335   1.145   2.086   0.303
    1TCM     h1 1336   1.116   1.855   0.252
    1TCM    cl3 1337   0.921   1.963   0.165
    1TCM     c1 1338   1.921   2.163   1.793
    1TCM    cl1 1339   1.805   2.116   1.920
    1TCM    cl2 1340   1.845   2.145   1.634
    1TCM     h1 1341   1.951   2.269   1.808
    1TCM    cl3 1342   2.065   2.059   1.803
    1TCM     c1 1343   2.579   4.471   3.880
    1TCM    cl1 1344   2.418   4.541   3.912
    1TCM    cl2 1345   2.674   4.584   3.780
    1TCM     h1 1346   2.631   4.453   3.976
    1TCM    cl3 1347   2.560   4.318   3.793
    1TCM     c1 1348   3.294   0.534   1.670
    1TCM    cl1 1349   3.204   0.418   1.771
    1TCM    cl2 1350   3.227   0.533   1.505
    1TCM     h1 1351   3.283   0.636   1.713
    1TCM    cl3 1352   3.465   0.488   1.665
    1TCM     c1 1353   2.479   4.818   4.877
    1TCM    cl1 1354   2.357   4.688   4.878
    1TCM    cl2 1355   2.534   4.844   4.709
    1TCM     h1 1356   2.434   4.911   4.916
    1TCM    cl3 1357   2.618   4.770   4.978
    1TCM     c1 1358   2.660   1.885   3.415
    1TCM    cl1 1359   2.731   1.824   3.567
    1TCM    cl2 1360   2.611   1.747   3.314
    1TCM     h1 1361   2.571   1.947   3.438
    1TCM    cl3 1362   2.780   1.982   3.328
    1TCM     c1 1363   0.875   1.760   4.794
    1TCM    cl1 1364   0.981   1.733   4.934
    1TCM    cl2 1365   0.970   1.827   4.659
    1TCM     h1 1366   0.830   1.663   4.763
    1TCM    cl3 1367   0.746   1.874   4.838
    1TCM     c1 1368   3.148   1.170   3.111
    1TCM    cl1 1369   3.198   1.036   3.218
    1TCM    cl2 1370   3.280   1.206   2.997
    1TCM     h1 1371   3.058   1.140   3.054
    1TCM    cl3 1372   3.112   1.314   3.208
    1TCM     c1 1373   3.710   0.765   1.665
    1TCM    cl1 1374   3.806   0.769   1.515
    1TCM    cl2 1375   3.630   0.922   1.688
    1TCM     h1 1376   3.633   0.685   1.657
    1TCM    cl3 1377   3.816   0.732   1.803
    1TCM     c1 1378   0.549   0.462   0.578
    1TCM    cl1 1379   0.654   0.596   0.630
    1TCM    cl2 1380   0.389   0.479   0.654
    1TCM     h1 1381   0.538   0.465   0.468
    1TCM    cl3 1382   0.622   0.308   0.626
    1TCM     c1 1383   0.843   3.829   3.733
    1TCM    cl1 1384   0.890   3.974   3.825
    1TCM    cl2 1385   0.830   3.691   3.844
    1TCM     h1 1386   0.745   3.847   3.685
    1TCM    cl3 1387   0.965   3.796   3.609
    1TCM     c1 1388   5.170   4.208   4.465
    1TCM    cl1 1389   5.281   4.259   4.594
    1TCM    cl2 1390   5.250   4.227   4.307
    1TCM     h1 1391   5.143   4.101   4.480
    1TCM    cl3 1392   5.023   4.308   4.470
    1TCM     c1 1393   3.750   1.790   0.938
    1TCM    cl1 1394   3.657   1.935   0.895
    1TCM    cl2 1395   3.783   1.790   1.113
    1TCM     h1 1396   3.693   1.699   0.912
    1TCM    cl3 1397   3.904   1.790   0.850
    1TCM     c1 1398   3.409   4.549   3.822
    1TCM    cl1 1399   3.333   4.398   3.878
    1TCM    cl2 1400   3.428   4.544   3.646
    1TCM     h1 1401   3.345   4.635   3.851
    1TCM    cl3 1402   3.569   4.566   3.898
    1TCM     c1 1403   1.683   4.733   3.219
    1TCM    cl1 1404   1.715   4.560   3.195
    1TCM    cl2 1405   1.809   4.829   3.138
    1TCM     h1 1406   1.583   4.759   3.177
    1TCM    cl3 1407   1.684   4.770   3.393
    1TCM     c1 1408   2.586   0.508   2.621
    1TCM    cl1 1409   2.649   0.612   2.751
    1TCM    cl2 1410   2.449   0.589   2.542
    1TCM     h1 1411   2.667   0.490   2.547
    1TCM    cl3 1412   2.533   0.353   2.690
    1TCM     c1 1413   3.329   2.125   4.221
    1TCM    cl1 1414   3.349   2.014   4.358
    1TCM    cl2 1415   3.463   2.242   4.219
    1TCM     h1 1416   3.329   2.068   4.126
    1TCM    cl3 1417   3.175   2.212   4.237
    1TCM     c1 1418   2.964   2.443   0.633
    1TCM    cl1 1419   2.879   2.570   0.542
    1TCM    cl2 1420   3.137   2.483   0.643
    1TCM     h1 1421   2.922   2.437   0.735
    1TCM    cl3 1422   2.944   2.287   0.550
    1TCM     c1 1423   1.606   0.446   5.025
    1TCM    cl1 1424   1.561   0.503   4.862
    1TCM    cl2 1425   1.459   0.404   5.115
    1TCM     h1 1426   1.671   0.357   5.016
    1TCM    cl3 1427   1.693   0.575   5.110
    1TCM     c1 1428   0.765   1.627   1.653
    1TCM    cl1 1429   0.688   1.639   1.813
    1TCM    cl2 1430   0.802   1.456   1.618
    1TCM     h1 1431   0.696   1.666   1.576
    1TCM    cl3 1432   0.915   1.722   1.652
    1TCM     c1 1433   5.009   3.162   0.362
    1TCM    cl1 1434   4.968   3.005   0.290
    1TCM    cl2 1435   4.879   3.212   0.472
    1TCM     h1 1436   5.104   3.153   0.418
    1TCM    cl3 1437   5.028   3.283   0.233
    1TCM     c1 1438   0.677   1.728   3.994
    1TCM    cl1 1439   0.733   1.595   4.098
    1TCM    cl2 1440   0.653   1.874   4.093
    1TCM     h1 1441   0.752   1.748   3.916
    1TCM    cl3 1442   0.523   1.683   3.917
    1TCM     c1 1443   0.963   0.804   0.464
    1TCM    cl1 1444   0.805   0.771   0.389
    1TCM    cl2 1445   1.046   0.651   0.498
    1TCM     h1 1446   1.024   0.865   0.395
    1TCM    cl3 1447   0.938   0.893   0.616
    1TCM     c1 1448   3.506   4.945   4.930
    1TCM    cl1 1449   3.473   4.982   5.101
    1TCM    cl2 1450   3.495   4.769   4.904
    1TCM     h1 1451   3.431   4.996   4.866
    1TCM    cl3 1452   3.669   5.001   4.887
    1TCM     c1 1453   3.133   3.871   3.648
    1TCM    cl1 1454   2.972   3.809   3.691
    1TCM    cl2 1455   3.150   3.872   3.471
    1TCM     h1 1456   3.144   3.974   3.688
    1TCM    cl3 1457   3.257   3.766   3.719
    1TCM     c1 1458   2.819   4.330   3.324
    1TCM    cl1 1459   2.775   4.449   3.200
    1TCM    cl2 1460   2.794   4.401   3.486
    1TCM     h1 1461   2.755   4.240   3.313
    1TCM    cl3 1462   2.990   4.284   3.305
    1TCM     c1 1463   3.499   1.336   2.706
    1TCM    cl1 1464   3.354   1.434   2.679
    1TCM    cl2 1465   3.496   1.270   2.871
    1TCM     h1 1466   3.501   1.252   2.633
    1TCM    cl3 1467   3.644   1.436   2.685
    1TCM     c1 1468   4.570   2.110   5.139
    1TCM    cl1 1469   4.692   2.099   5.268
    1TCM    cl2 1470   4.469   1.964   5.141
    1TCM     h1 1471   4.507   2.200   5.156
    1TCM    cl3 1472   4.652   2.124   4.982
    1TCM     c1 1473   3.174   2.184   0.799
    1TCM    cl1 1474   3.266   2.252   0.662
    1TCM    cl2 1475   3.210   2.277   0.946
    1TCM     h1 1476   3.066   2.190   0.776
    1TCM    cl3 1477   3.221   2.014   0.823
    1TCM     c1 1478   4.609   4.818   1.569
    1TCM    cl1 1479   4.674   4.653   1.555
    1TCM    cl2 1480   4.496   4.826   1.706
    1TCM     h1 1481   4.692   4.890   1.585
    1TCM    cl3 1482   4.522   4.860   1.419
    1TCM     c1 1483   4.629   0.718   3.263
    1TCM    cl1 1484   4.653   0.546   3.301
    1TCM    cl2 1485   4.575   0.734   3.094
    1TCM     h1 1486   4.552   0.761   3.330
    1TCM    cl3 1487   4.782   0.805   3.285
    1TCM     c1 1488   3.556   2.212   0.450
    1TCM    cl1 1489   3.673   2.346   0.439
    1TCM    cl2 1490   3.638   2.067   0.514
    1TCM     h1 1491   3.474   2.241   0.518
    1TCM    cl3 1492   3.491   2.177   0.289
    1TCM     c1 1493   1.771   0.143   2.735
    1TCM    cl1 1494   1.670   0.210   2.864
    1TCM    cl2 1495   1.921   0.239   2.721
    1TCM     h1 1496   1.797   0.038   2.759
    1TCM    cl3 1497   1.683   0.149   2.581
    1TCM     c1 1498   1.234   4.695   5.055
    1TCM    cl1 1499   1.408   4.670   5.079
    1TCM    cl2 1500   1.149   4.665   5.209
    1TCM     h1 1501   1.215   4.800   5.023
    1TCM    cl3 1502   1.174   4.583   4.931
    1TCM     c1 1503   5.130   0.296   4.513
    1TCM    cl1 1504   5.185   0.215   4.364
    1TCM    cl2 1505   5.164   0.192   4.653
    1TCM     h1 1506   5.184   0.392   4.524
    1TCM    cl3 1507   4.955   0.326   4.503
    1TCM     c1 1508   4.380   4.857   0.248
    1TCM    cl1 1509   4.215   4.884   0.307
    1TCM    cl2 1510   4.490   4.838   0.386
    1TCM     h1 1511   4.382   4.764   0.186
    1TCM    cl3 1512   4.432   4.995   0.149
    1TCM     c1 1513   0.530   2.516   3.887
    1TCM    cl1 1514   0.626   2.648   3.957
    1TCM    cl2 1515   0.470   2.412   4.018
    1TCM     h1 1516   0.444   2.559   3.831
    1TCM    cl3 1517   0.631   2.421   3.776
    1TCM     c1 1518   4.072   1.349   1.715
    1TCM    cl1 1519   4.163   1.382   1.566
    1TCM    cl2 1520   4.090   1.486   1.827
    1TCM     h1 1521   3.965   1.336   1.690
    1TCM    cl3 1522   4.134   1.201   1.791
    1TCM     c1 1523   1.434   4.921   0.406
    1TCM    cl1 1524   1.566   5.039   0.382
    1TCM    cl2 1525   1.423   4.879   0.578
    1TCM     h1 1526   1.338   4.966   0.372
    1TCM    cl3 1527   1.468   4.775   0.311
    1TCM     c1 1528   3.323   1.127   4.020
    1TCM    cl1 1529   3.296   1.148   3.845
    1TCM    cl2 1530   3.451   1.006   4.045
    1TCM     h1 1531   3.355   1.224   4.064
    1TCM    cl3 1532   3.173   1.072   4.097
    1TCM     c1 1533   4.656   3.549   3.719
    1TCM    cl1 1534   4.764   3.482   3.594
    1TCM    cl2 1535   4.554   3.419   3.785
    1TCM     h1 1536   4.717   3.593   3.800
    1TCM    cl3 1537   4.552   3.674   3.647
    1TCM     c1 1538   1.395   0.830   0.620
    1TCM    cl1 1539   1.277   0.927   0.711
    1TCM    cl2 1540   1.474   0.714   0.729
    1TCM     h1 1541   1.343   0.775   0.539
    1TCM    cl3 1542   1.518   0.938   0.549
    1TCM     c1 1543   1.193   2.015   1.113
    1TCM    cl1 1544   1.287   1.904   1.215
    1TCM    cl2 1545   1.190   1.953   0.946
    1TCM     h1 1546   1.090   2.023   1.152
    1TCM    cl3 1547   1.270   2.176   1.115
    1TCM     c1 1548   3.485   3.093   2.414
    1TCM    cl1 1549   3.648   3.080   2.346
    1TCM    cl2 1550   3.473   3.243   2.509
    1TCM     h1 1551   3.410   3.096   2.332
    1TCM    cl3 1552   3.452   2.954   2.519
    1TCM     c1 1553   3.253   3.558   2.835
    1TCM    cl1 1554   3.129   3.685   2.827
    1TCM    cl2 1555   3.174   3.399   2.853
    1TCM     h1 1556   3.313   3.559   2.742
    1TCM    cl3 1557   3.359   3.587   2.975
    1TCM     c1 1558   1.308   1.199   0.316
    1TCM    cl1 1559   1.301   1.051   0.416
    1TCM    cl2 1560   1.177   1.195   0.196
    1TCM     h1 1561   1.296   1.288   0.381
    1TCM    cl3 1562   1.465   1.206   0.233
    1TCM     c1 1563   3.054   0.246   0.876
    1TCM    cl1 1564   3.125   0.292   1.032
    1TCM    cl2 1565   2.928   0.124   0.902
    1TCM     h1 1566   3.009   0.336   0.828
    1TCM    cl3 1567   3.181   0.179   0.770
    1TCM     c1 1568   1.916   3.343   1.035
    1TCM    cl1 1569   1.805   3.476   0.992
    1TCM    cl2 1570   1.944   3.344   1.211
    1TCM     h1 1571   1.871   3.246   1.005
    1TCM    cl3 1572   2.071   3.366   0.951
    1TCM     c1 1573   2.931   3.797   2.006
    1TCM    cl1 1574   3.063   3.915   2.025
    1TCM    cl2 1575   2.863   3.758   2.165
    1TCM     h1 1576   2.852   3.840   1.941
    1TCM    cl3 1577   2.995   3.649   1.930
    1TCM     c1 1578   4.564   0.509   4.119
    1TCM    cl1 1579   4.683   0.380   4.150
    1TCM    cl2 1580   4.633   0.665   4.169
    1TCM     h1 1581   4.540   0.512   4.011
    1TCM    cl3 1582   4.416   0.477   4.212
    1TCM     c1 1583   4.668   3.018   4.764
    1TCM    cl1 1584   4.819   2.975   4.681
    1TCM    cl2 1585   4.663   2.937   4.923
    1TCM     h1 1586   4.664   3.128   4.779
    1TCM    cl3 1587   4.529   2.965   4.667
    1TCM     c1 1588   1.115   4.674   2.411
    1TCM    cl1 1589   1.024   4.755   2.281
    1TCM    cl2 1590   1.164   4.794   2.533
    1TCM     h1 1591   1.051   4.597   2.459
    1TCM    cl3 1592   1.259   4.596   2.343
    1TCM     c1 1593   5.136   0.238   0.372
    1TCM    cl1 1594   4.963   0.204   0.346
    1TCM    cl2 1595   5.209   0.291   0.218
    1TCM     h1 1596   5.147   0.318   0.447
    1TCM    cl3 1597   5.218   0.091   0.429
    1TCM     c1 1598   4.579   0.469   3.657
    1TCM    cl1 1599   4.592   0.367   3.511
    1TCM    cl2 1600   4.616   0.637   3.614
    1TCM     h1 1601   4.475   0.463   3.697
    1TCM    cl3 1602   4.694   0.412   3.780
    1TCM     c1 1603   3.611   5.098   4.455
    1TCM    cl1 1604   3.568   5.221   4.576
    1TCM    cl2 1605   3.787   5.078   4.451
    1TCM     h1 1606   3.563   5.001   4.483
    1TCM    cl3 1607   3.553   5.149   4.295
    1TCM     c1 1608   1.465   1.873   1.597
    1TCM    cl1 1609   1.535   1.854   1.435
    1TCM    cl2 1610   1.288   1.870   1.587
    1TCM     h1 1611   1.500   1.791   1.662
    1TCM    cl3 1612   1.518   2.029   1.666
    1TCM     c1 1613   5.272   0.242   1.510
    1TCM    cl1 1614   5.113   0.254   1.587
    1TCM    cl2 1615   5.255   0.267   1.334
    1TCM     h1 1616   5.340   0.319   1.552
    1TCM    cl3 1617   5.340   0.080   1.539
    1TCM     c1 1618   3.319   1.766   2.804
    1TCM    cl1 1619   3.204   1.758   2.669
    1TCM    cl2 1620   3.241   1.847   2.943
    1TCM     h1 1621   3.349   1.664   2.833
    1TCM    cl3 1622   3.462   1.859   2.755
    1TCM     c1 1623   3.626   0.407   0.550
    1TCM    cl1 1624   3.713   0.559   0.523
    1TCM    cl2 1625   3.680   0.285   0.433
    1TCM     h1 1626   3.647   0.371   0.653
    1TCM    cl3 1627   3.451   0.434   0.531
    1TCM     c1 1628   0.666   1.400   2.003
    1TCM    cl1 1629   0.529   1.506   1.964
    1TCM    cl2 1630   0.605   1.240   2.052
    1TCM     h1 1631   0.731   1.389   1.914
    1TCM    cl3 1632   0.759   1.471   2.137
    1TCM     c1 1633   2.789   3.851   1.344
    1TCM    cl1 1634   2.760   3.745   1.204
    1TCM    cl2 1635   2.697   3.790   1.484
    1TCM     h1 1636   2.897   3.851   1.367
    1TCM    cl3 1637   2.736   4.016   1.305
    1TCM     c1 1638   2.415   2.574   4.424
    1TCM    cl1 1639   2.515   2.514   4.289
    1TCM    cl2 1640   2.454   2.483   4.571
    1TCM     h1 1641   2.436   2.682   4.440
    1TCM    cl3 1642   2.243   2.552   4.384
    1TCM     c1 1643   0.604   2.321   0.860
    1TCM    cl1 1644   0.738   2.425   0.805
    1TCM    cl2 1645   0.465   2.342   0.752
    1TCM     h1 1646   0.637   2.215   0.858
    1TCM    cl3 1647   0.558   2.366   1.026
    1TCM     c1 1648   2.610   0.442   1.645
    1TCM    cl1 1649   2.753   0.338   1.622
    1TCM    cl2 1650   2.538   0.409   1.805
    1TCM     h1 1651   2.640   0.548   1.640
    1TCM    cl3 1652   2.490   0.407   1.518
    1TCM     c1 1653   2.481   3.638   0.167
    1TCM    cl1 1654   2.407   3.591   0.013
    1TCM    cl2 1655   2.415   3.537   0.298
    1TCM     h1 1656   2.591   3.624   0.161
    1TCM    cl3 1657   2.446   3.809   0.201
    1TCM     c1 1658   0.144   3.436   4.968
    1TCM    cl1 1659   0.269   3.321   5.021
    1TCM    cl2 1660   0.142   3.443   4.791
    1TCM     h1 1661   0.045   3.402   5.005
    1TCM    cl3 1662   0.180   3.597   5.034
    1TCM     c1 1663   3.937   1.949   1.697
    1TCM    cl1 1664   3.794   1.877   1.775
    1TCM    cl2 1665   4.023   2.051   1.814
    1TCM     h1 1666   4.004   1.868   1.662
    1TCM    cl3 1667   3.886   2.048   1.558
    1TCM     c1 1668   2.238   2.809   2.757
    1TCM    cl1 1669   2.121   2.942   2.740
    1TCM    cl2 1670   2.280   2.747   2.595
    1TCM     h1 1671   2.330   2.846   2.807
    1TCM    cl3 1672   2.166   2.679   2.854
    1TCM     c1 1673   4.438   2.778   0.697
    1TCM    cl1 1674   4.590   2.827   0.619
    1TCM    cl2 1675   4.420   2.866   0.851
    1TCM     h1 1676   4.353   2.802   0.631
    1TCM    cl3 1677   4.442   2.603   0.729
    1TCM     c1 1678   5.125   4.284   1.795
    1TCM    cl1 1679   4.991   4.167   1.793
    1TCM    cl2 1680   5.130   4.371   1.641
    1TCM     h1 1681   5.110   4.356   1.878
    1TCM    cl3 1682   5.278   4.197   1.819
    1TCM     c1 1683   3.272   1.765   3.806
    1TCM    cl1 1684   3.228   1.592   3.799
    1TCM    cl2 1685   3.424   1.784   3.894
    1TCM     h1 1686   3.283   1.803   3.703
    1TCM    cl3 1687   3.143   1.855   3.889
    1TCM     c1 1688   0.935   3.788   2.394
    1TCM    cl1 1689   0.976   3.733   2.230
    1TCM    cl2 1690   0.985   3.666   2.512
    1TCM     h1 1691   0.988   3.884   2.414
    1TCM    cl3 1692   0.759   3.814   2.405
    1TCM     c1 1693   3.036   4.172   2.313
    1TCM    cl1 1694   3.013   4.103   2.150
    1TCM    cl2 1695   3.122   4.054   2.415
    1TCM     h1 1696   3.095   4.265   2.306
    1TCM    cl3 1697   2.877   4.208   2.385
    1TCM     c1 1698   1.321   3.068   2.336
    1TCM    cl1 1699   1.475   3.156   2.345
    1TCM    cl2 1700   1.224   3.105   2.480
    1TCM     h1 1701   1.266   3.099   2.245
    1TCM    cl3 1702   1.353   2.893   2.329
    1TCM     c1 1703   4.601   0.155   5.160
    1TCM    cl1 1704   4.696   0.272   5.066
    1TCM    cl2 1705   4.519   0.238   5.294
    1TCM     h1 1706   4.525   0.108   5.094
    1TCM    cl3 1707   4.709   0.030   5.225
    1TCM     c1 1708   4.157   4.923   2.380
    1TCM    cl1 1709   4.002   4.904   2.466
    1TCM    cl2 1710   4.126   4.972   2.212
    1TCM     h1 1711   4.218   5.000   2.431
    1TCM    cl3 1712   4.244   4.768   2.381
    1TCM     c1 1713   1.431   5.024   3.126
    1TCM    cl1 1714   1.306   5.143   3.168
    1TCM    cl2 1715   1.571   5.043   3.234
    1TCM     h1 1716   1.389   4.922   3.137
    1TCM    cl3 1717   1.482   5.049   2.957
    1TCM     c1 1718   3.400   5.014   3.752
    1TCM    cl1 1719   3.421   5.189   3.774
    1TCM    cl2 1720   3.464   4.929   3.894
    1TCM     h1 1721   3.292   4.991   3.740
    1TCM    cl3 1722   3.487   4.962   3.607
    1TCM     c1 1723   3.635   2.203   4.863
    1TCM    cl1 1724   3.798   2.167   4.801
    1TCM    cl2 1725   3.647   2.265   5.029
    1TCM     h1 1726   3.588   2.280   4.798
    1TCM    cl3 1727   3.537   2.055   4.861
    1TCM     c1 1728   4.864   4.221   2.578
    1TCM    cl1 1729   4.810   4.390   2.565
    1TCM    cl2 1730   4.784   4.123   2.453
    1TCM     h1 1731   4.974   4.216   2.564
    1TCM    cl3 1732   4.822   4.157   2.739
    1TCM     c1 1733   5.018   3.140   2.470
    1TCM    cl1 1734   5.184   3.077   2.462
    1TCM    cl2 1735   4.995   3.230   2.622
    1TCM     h1 1736   5.001   3.208   2.384
    1TCM    cl3 1737   4.903   3.005   2.462
    1TCM     c1 1738   1.444   2.378   0.933
    1TCM    cl1 1739   1.528   2.412   1.086
    1TCM    cl2 1740   1.550   2.284   0.826
    1TCM     h1 1741   1.351   2.320   0.954
    1TCM    cl3 1742   1.400   2.531   0.854
    1TCM     c1 1743   1.108   1.980   4.053
    1TCM    cl1 1744   1.203   1.834   4.089
    1TCM    cl2 1745   1.211   2.099   3.969
    1TCM     h1 1746   1.022   1.954   3.988
    1TCM    cl3 1747   1.048   2.051   4.205
    1TCM     c1 1748   4.131   3.589   1.306
    1TCM    cl1 1749   4.082   3.757   1.337
    1TCM    cl2 1750   4.022   3.518   1.184
    1TCM     h1 1751   4.235   3.588   1.268
    1TCM    cl3 1752   4.121   3.495   1.456
    1TCM     c1 1753   0.262   5.172   2.133
    1TCM    cl1 1754   0.313   5.016   2.064
    1TCM    cl2 1755   0.310   5.179   2.304
    1TCM     h1 1756   0.311   5.255   2.077
    1TCM    cl3 1757   0.085   5.188   2.120
    1TCM     c1 1758   1.321   2.547   1.756
    1TCM    cl1 1759   1.439   2.527   1.624
    1TCM    cl2 1760   1.407   2.547   1.912
    1TCM     h1 1761   1.266   2.642   1.744
    1TCM    cl3 1762   1.205   2.412   1.753
    1TCM     c1 1763   0.821   2.281   4.013
    1TCM    cl1 1764   0.794   2.449   3.961
    1TCM    cl2 1765   0.972   2.272   4.106
    1TCM     h1 1766   0.737   2.248   4.076
    1TCM    cl3 1767   0.834   2.176   3.870
    1TCM     c1 1768   1.112   0.881   5.168
    1TCM    cl1 1769   0.936   0.895   5.149
    1TCM    cl2 1770   1.155   0.889   5.340
    1TCM     h1 1771   1.146   0.784   5.126
    1TCM    cl3 1772   1.192   1.014   5.080
    1TCM     c1 1773   3.701   2.960   1.032
    1TCM    cl1 1774   3.554   2.982   1.130
    1TCM    cl2 1775   3.703   3.080   0.901
    1TCM     h1 1776   3.790   2.973   1.096
    1TCM    cl3 1777   3.701   2.796   0.962
    1TCM     c1 1778   3.685   5.010   3.028
    1TCM    cl1 1779   3.665   5.183   3.062
    1TCM    cl2 1780   3.764   4.989   2.871
    1TCM     h1 1781   3.747   4.963   3.108
    1TCM    cl3 1782   3.525   4.931   3.024
    1TCM     c1 1783   4.624   3.194   5.179
    1TCM    cl1 1784   4.512   3.297   5.086
    1TCM    cl2 1785   4.555   3.164   5.340
    1TCM     h1 1786   4.638   3.098   5.126
    1TCM    cl3 1787   4.780   3.277   5.196
    1TCM     c1 1788   4.466   2.819   2.970
    1TCM    cl1 1789   4.372   2.865   2.826
    1TCM    cl2 1790   4.357   2.757   3.095
    1TCM     h1 1791   4.540   2.741   2.942
    1TCM    cl3 1792   4.553   2.962   3.032
    1TCM     c1 1793   2.324   4.449   3.611
    1TCM    cl1 1794   2.464   4.349   3.569
    1TCM    cl2 1795   2.379   4.601   3.685
    1TCM     h1 1796   2.266   4.471   3.519
    1TCM    cl3 1797   2.220   4.361   3.726
    1TCM     c1 1798   3.574   2.260   0.947
    1TCM    cl1 1799   3.520   2.327   1.103
    1TCM    cl2 1800   3.515   2.364   0.816
    1TCM     h1 1801   3.685   2.257   0.945
    1TCM    cl3 1802   3.509   2.096   0.928
    1TCM     c1 1803   2.400   2.064   2.660
    1TCM    cl1 1804   2.490   2.176   2.764
    1TCM    cl2 1805   2.453   2.084   2.492
    1TCM     h1 1806   2.420   1.959   2.693
    1TCM    cl3 1807   2.226   2.098   2.672
    1TCM     c1 1808   2.942   2.913   3.472
    1TCM    cl1 1809   2.842   3.056   3.434
    1TCM    cl2 1810   2.846   2.766   3.444
    1TCM     h1 1811   3.032   2.912   3.407
    1TCM    cl3 1812   2.992   2.920   3.642
    1TCM     c1 1813   5.020   1.906   1.686
    1TCM    cl1 1814   4.892   1.936   1.567
    1TCM    cl2 1815   4.985   1.755   1.773
    1TCM     h1 1816   5.118   1.897   1.635
    1TCM    cl3 1817   5.026   2.041   1.802
    1TCM     c1 1818   1.654   1.365   3.585
    1TCM    cl1 1819   1.543   1.264   3.681
    1TCM    cl2 1820   1.817   1.358   3.657
    1TCM     h1 1821   1.658   1.327   3.481
    1TCM    cl3 1822   1.597   1.533   3.585
    1TCM     c1 1823   3.433   4.198   2.245
    1TCM    cl1 1824   3.411   4.129   2.408
    1TCM    cl2 1825   3.307   4.320   2.215
    1TCM     h1 1826   3.533   4.246   2.239
    1TCM    cl3 1827   3.421   4.069   2.124
    1TCM     c1 1828   2.057   3.572   0.477
    1TCM    cl1 1829   2.205   3.576   0.379
    1TCM    cl2 1830   2.025   3.735   0.541
    1TCM     h1 1831   1.972   3.539   0.415
    1TCM    cl3 1832   2.079   3.459   0.613
    1TCM     c1 1833   4.608   2.138   3.265
    1TCM    cl1 1834   4.756   2.155   3.168
    1TCM    cl2 1835   4.466   2.136   3.158
    1TCM     h1 1836   4.612   2.043   3.323
    1TCM    cl3 1837   4.595   2.275   3.378
    1TCM     c1 1838   2.428   3.912   1.425
    1TCM    cl1 1839   2.554   3.959   1.542
    1TCM    cl2 1840   2.504   3.872   1.269
    1TCM     h1 1841   2.374   3.823   1.464
    1TCM    cl3 1842   2.313   4.046   1.404
    1TCM     c1 1843   1.058   4.927   4.718
    1TCM    cl1 1844   1.209   4.962   4.804
    1TCM    cl2 1845   0.919   4.959   4.826
    1TCM     h1 1846   1.050   4.992   4.628
    1TCM    cl3 1847   1.056   4.756   4.668
    1TCM     c1 1848   3.629   3.220   3.696
    1TCM    cl1 1849   3.540   3.095   3.787
    1TCM    cl2 1850   3.560   3.235   3.533
    1TCM     h1 1851   3.622   3.317   3.749
    1TCM    cl3 1852   3.800   3.173   3.683
    1TCM     c1 1853   3.762   3.877   1.240
    1TCM    cl1 1854   3.873   3.833   1.108
    1TCM    cl2 1855   3.855   3.928   1.382
    1TCM     h1 1856   3.696   3.960   1.207
    1TCM    cl3 1857   3.662   3.736   1.283
    1TCM     c1 1858   2.514   1.282   3.876
    1TCM    cl1 1859   2.373   1.294   3.984
    1TCM    cl2 1860   2.466   1.333   3.712
    1TCM     h1 1861   2.595   1.349   3.913
    1TCM    cl3 1862   2.572   1.115   3.871
    1TCM     c1 1863   2.188   3.615   4.835
    1TCM    cl1 1864   2.067   3.506   4.906
    1TCM    cl2 1865   2.345   3.591   4.916
    1TCM     h1 1866   2.198   3.594   4.727
    1TCM    cl3 1867   2.136   3.784   4.858
    1TCM     c1 1868   4.329   3.836   3.205
    1TCM    cl1 1869   4.444   3.964   3.160
    1TCM    cl2 1870   4.222   3.895   3.334
    1TCM     h1 1871   4.269   3.808   3.117
    1TCM    cl3 1872   4.419   3.694   3.263
    1TCM     c1 1873   2.482   5.225   4.724
    1TCM    cl1 1874   2.657   5.223   4.756
    1TCM    cl2 1875   2.453   5.274   4.556
    1TCM     h1 1876   2.441   5.123   4.741
    1TCM    cl3 1877   2.402   5.340   4.834
    1TCM     c1 1878   3.077   1.578   5.020
    1TCM    cl1 1879   3.069   1.449   4.897
    1TCM    cl2 1880   2.935   1.684   5.004
    1TCM     h1 1881   3.077   1.532   5.121
    1TCM    cl3 1882   3.225   1.673   4.997
    1TCM     c1 1883   0.607   0.609   4.086
    1TCM    cl1 1884   0.509   0.551   4.222
    1TCM    cl2 1885   0.551   0.534   3.935
    1TCM     h1 1886   0.597   0.720   4.078
    1TCM    cl3 1887   0.778   0.568   4.114
    1TCM     c1 1888   3.533   0.952   2.022
    1TCM    cl1 1889   3.674   0.929   1.917
    1TCM    cl2 1890   3.582   0.932   2.192
    1TCM     h1 1891   3.493   1.055   2.008
    1TCM    cl3 1892   3.408   0.833   1.982
    1TCM     c1 1893   2.833   0.086   2.587
    1TCM    cl1 1894   3.007   0.124   2.577
    1TCM    cl2 1895   2.780   0.013   2.433
    1TCM     h1 1896   2.816   0.014   2.670
    1TCM    cl3 1897   2.741   0.235   2.617
    1TCM     c1 1898   2.696   4.552   2.490
    1TCM    cl1 1899   2.759   4.521   2.653
    1TCM    cl2 1900   2.640   4.399   2.418
    1TCM     h1 1901   2.611   4.623   2.496
    1TCM    cl3 1902   2.824   4.621   2.388
    1TCM     c1 1903   0.848   1.039   2.206
    1TCM    cl1 1904   1.026   1.046   2.201
    1TCM    cl2 1905   0.787   0.966   2.056
    1TCM     h1 1906   0.816   0.979   2.293
    1TCM    cl3 1907   0.784   1.204   2.221
    1TCM     c1 1908   2.375   4.399   3.129
    1TCM    cl1 1909   2.201   4.379   3.153
    1TCM    cl2 1910   2.405   4.484   2.976
    1TCM     h1 1911   2.418   4.458   3.213
    1TCM    cl3 1912   2.454   4.239   3.124
    1TCM     c1 1913   4.249   1.859   4.758
    1TCM    cl1 1914   4.370   1.790   4.647
    1TCM    cl2 1915   4.086   1.805   4.710
    1TCM     h1 1916   4.270   1.824   4.862
    1TCM    cl3 1917   4.257   2.036   4.752
    1TCM     c1 1918   0.295   0.506   0.299
    1TCM    cl1 1919   0.314   0.655   0.394
    1TCM    cl2 1920   0.455   0.439   0.260
    1TCM     h1 1921   0.237   0.432   0.358
    1TCM    cl3 1922   0.208   0.543   0.148
    1TCM     c1 1923   3.909   3.856   5.187
    1TCM    cl1 1924   3.974   3.763   5.051
    1TCM    cl2 1925   3.957   3.779   5.340
    1TCM     h1 1926   3.948   3.960   5.184
    1TCM    cl3 1927   3.731   3.860   5.177
    1TCM     c1 1928   1.968   2.419   2.779
    1TCM    cl1 1929   1.892   2.357   2.631
    1TCM    cl2 1930   1.951   2.596   2.784
    1TCM     h1 1931   1.918   2.375   2.868
    1TCM    cl3 1932   2.140   2.376   2.780
    1TCM     c1 1933   2.122   4.130   1.635
    1TCM    cl1 1934   2.088   4.213   1.481
    1TCM    cl2 1935   2.141   4.251   1.765
    1TCM     h1 1936   2.039   4.062   1.659
    1TCM    cl3 1937   2.273   4.037   1.620
    1TCM     c1 1938   4.092   3.628   1.888
    1TCM    cl1 1939   4.252   3.581   1.826
    1TCM    cl2 1940   4.106   3.780   1.979
    1TCM     h1 1941   4.022   3.642   1.804
    1TCM    cl3 1942   4.030   3.501   1.996
    1TCM     c1 1943   2.575   4.596   0.587
    1TCM    cl1 1944   2.504   4.566   0.748
    1TCM    cl2 1945   2.751   4.576   0.595
    1TCM     h1 1946   2.533   4.523   0.515
    1TCM    cl3 1947   2.536   4.761   0.535
    1TCM     c1 1948   2.786   2.373   4.755
    1TCM    cl1 1949   2.819   2.227   4.658
    1TCM    cl2 1950   2.793   2.517   4.650
    1TCM     h1 1951   2.686   2.365   4.801
    1TCM    cl3 1952   2.909   2.387   4.883
    1TCM     c1 1953   1.558   3.355   2.681
    1TCM    cl1 1954   1.567   3.213   2.574
    1TCM    cl2 1955   1.600   3.307   2.847
    1TCM     h1 1956   1.629   3.432   2.646
    1TCM    cl3 1957   1.393   3.421   2.678
    1TCM     c1 1958   0.774   4.228   4.829
    1TCM    cl1 1959   0.812   4.345   4.957
    1TCM    cl2 1960   0.882   4.088   4.843
    1TCM     h1 1961   0.669   4.195   4.839
    1TCM    cl3 1962   0.797   4.305   4.670
    1TCM     c1 1963   0.223   2.459   1.777
    1TCM    cl1 1964   0.105   2.524   1.894
    1TCM    cl2 1965   0.252   2.580   1.650
    1TCM     h1 1966   0.318   2.437   1.830
    1TCM    cl3 1967   0.159   2.310   1.704
    1TCM     c1 1968   4.492   0.946   4.176
    1TCM    cl1 1969   4.358   1.063   4.173
    1TCM    cl2 1970   4.439   0.798   4.259
    1TCM     h1 1971   4.522   0.922   4.073
    1TCM    cl3 1972   4.629   1.017   4.264
    1TCM     c1 1973   3.997   1.128   0.470
    1TCM    cl1 1974   3.988   0.979   0.374
    1TCM    cl2 1975   4.017   1.086   0.642
    1TCM     h1 1976   4.083   1.189   0.437
    1TCM    cl3 1977   3.846   1.221   0.450
    1TCM     c1 1978   1.953   1.732   3.962
    1TCM    cl1 1979   1.979   1.876   4.063
    1TCM    cl2 1980   2.031   1.756   3.804
    1TCM     h1 1981   1.997   1.643   4.012
    1TCM    cl3 1982   1.779   1.706   3.938
    1TCM     c1 1983   0.293   1.874   2.010
    1TCM    cl1 1984   0.128   1.878   1.944
    1TCM    cl2 1985   0.399   1.976   1.910
    1TCM     h1 1986   0.293   1.912   2.114
    1TCM    cl3 1987   0.353   1.706   2.008
    1TCM     c1 1988   1.645   0.554   3.469
    1TCM    cl1 1989   1.697   0.586   3.302
    1TCM    cl2 1990   1.593   0.706   3.545
    1TCM     h1 1991   1.560   0.482   3.468
    1TCM    cl3 1992   1.780   0.485   3.562
    1TCM     c1 1993   2.305   4.216   1.182
    1TCM    cl1 1994   2.365   4.244   1.017
    1TCM    cl2 1995   2.238   4.052   1.194
    1TCM     h1 1996   2.388   4.227   1.254
    1TCM    cl3 1997   2.178   4.335   1.220
    1TCM     c1 1998   3.479   1.777   4.387
    1TCM    cl1 1999   3.334   1.733   4.481
    1TCM    cl2 2000   3.430   1.824   4.222
    1TCM     h1 2001   3.531   1.862   4.436
    1TCM    cl3 2002   3.588   1.637   4.378
    1TCM     c1 2003   2.233   3.788   4.154
    1TCM    cl1 2004   2.242   3.611   4.158
    1TCM    cl2 2005   2.270   3.853   4.315
    1TCM     h1 2006   2.306   3.827   4.080
    1TCM    cl3 2007   2.069   3.838   4.107
    1TCM     c1 2008   3.182   0.984   4.950
    1TCM    cl1 2009   3.147   0.858   4.830
    1TCM    cl2 2010   3.131   0.928   5.111
    1TCM     h1 2011   3.291   1.005   4.951
    1TCM    cl3 2012   3.093   1.132   4.908
    1TCM     c1 2013   3.145   2.832   2.466
    1TCM    cl1 2014   3.238   2.929   2.582
    1TCM    cl2 2015   3.128   2.922   2.313
    1TCM     h1 2016   3.198   2.736   2.447
    1TCM    cl3 2017   2.984   2.798   2.533
    1TCM     c1 2018   4.713   4.219   0.891
    1TCM    cl1 2019   4.792   4.278   0.743
    1TCM    cl2 2020   4.725   4.344   1.017
    1TCM     h1 2021   4.606   4.198   0.870
    1TCM    cl3 2022   4.793   4.071   0.946
    1TCM     c1 2023   2.132   2.855   4.423
    1TCM    cl1 2024   2.062   3.003   4.354
    1TCM    cl2 2025   2.278   2.896   4.515
    1TCM     h1 2026   2.059   2.806   4.490
    1TCM    cl3 2027   2.175   2.743   4.291
    1TCM     c1 2028   2.593   4.151   4.506
    1TCM    cl1 2029   2.653   4.305   4.442
    1TCM    cl2 2030   2.621   4.145   4.682
    1TCM     h1 2031   2.484   4.142   4.486
    1TCM    cl3 2032   2.678   4.016   4.429
    1TCM     c1 2033   4.427   5.186   2.675
    1TCM    cl1 2034   4.575   5.270   2.622
    1TCM    cl2 2035   4.365   5.262   2.823
    1TCM     h1 2036   4.351   5.193   2.595
    1TCM    cl3 2037   4.465   5.015   2.708
    1TCM     c1 2038   1.872   3.698   2.071
    1TCM    cl1 2039   1.864   3.616   1.913
    1TCM    cl2 2040   2.042   3.728   2.114
    1TCM     h1 2041   1.818   3.795   2.065
    1TCM    cl3 2042   1.797   3.595   2.194
    1TCM     c1 2043   3.499   0.775   1.045
    1TCM    cl1 2044   3.491   0.765   1.222
    1TCM    cl2 2045   3.361   0.688   0.974
    1TCM     h1 2046   3.495   0.882   1.014
    1TCM    cl3 2047   3.651   0.703   0.987
    1TCM     c1 2048   0.296   3.750   2.998
    1TCM    cl1 2049   0.137   3.678   2.965
    1TCM    cl2 2050   0.395   3.635   3.090
    1TCM     h1 2051   0.346   3.774   2.902
    1TCM    cl3 2052   0.275   3.899   3.093
    1TCM     c1 2053   2.932   2.706   4.820
    1TCM    cl1 2054   2.976   2.675   4.990
    1TCM    cl2 2055   2.755   2.697   4.803
    1TCM     h1 2056   2.967   2.807   4.791
    1TCM    cl3 2057   3.008   2.583   4.716
    1TCM     c1 2058   2.281   0.657   0.699
    1TCM    cl1 2059   2.300   0.797   0.807
    1TCM    cl2 2060   2.325   0.704   0.533
    1TCM     h1 2061   2.347   0.575   0.733
    1TCM    cl3 2062   2.111   0.603   0.702
    1TCM     c1 2063   2.913   0.313   2.232
    1TCM    cl1 2064   2.992   0.249   2.086
    1TCM    cl2 2065   2.924   0.193   2.363
    1TCM     h1 2066   2.963   0.407   2.263
    1TCM    cl3 2067   2.742   0.346   2.197
    1TCM     c1 2068   1.784   3.540   4.680
    1TCM    cl1 2069   1.778   3.523   4.503
    1TCM    cl2 2070   1.661   3.434   4.754
    1TCM     h1 2071   1.884   3.512   4.717
    1TCM    cl3 2072   1.750   3.709   4.724
    1TCM     c1 2073   0.817   2.842   0.703
    1TCM    cl1 2074   0.950   2.937   0.774
    1TCM    cl2 2075   0.666   2.875   0.791
    1TCM     h1 2076   0.805   2.869   0.596
    1TCM    cl3 2077   0.856   2.668   0.715
    1TCM     c1 2078   2.925   0.201   3.318
    1TCM    cl1 2079   3.077   0.270   3.379
    1TCM    cl2 2080   2.924   0.025   3.344
    1TCM     h1 2081   2.839   0.247   3.371
    1TCM    cl3 2082   2.911   0.234   3.144
    1TCM     c1 2083   2.102   3.015   1.120
    1TCM    cl1 2084   2.229   2.893   1.093
    1TCM    cl2 2085   2.172   3.155   1.205
    1TCM     h1 2086   2.062   3.048   1.022
    1TCM    cl3 2087   1.972   2.945   1.218
    1TCM     c1 2088   3.125   5.169   4.041
    1TCM    cl1 2089   2.988   5.223   4.142
    1TCM    cl2 2090   3.085   5.012   3.967
    1TCM     h1 2091   3.144   5.244   3.962
    1TCM    cl3 2092   3.270   5.151   4.142
    1TCM     c1 2093   0.271   0.413   4.167
    1TCM    cl1 2094   0.315   0.420   4.339
    1TCM    cl2 2095   0.101   0.366   4.150
    1TCM     h1 2096   0.287   0.513   4.121
    1TCM    cl3 2097   0.374   0.294   4.084
    1TCM     c1 2098   2.446   2.655   3.960
    1TCM    cl1 2099   2.572   2.618   4.080
    1TCM    cl2 2100   2.514   2.642   3.797
    1TCM     h1 2101   2.362   2.583   3.971
    1TCM    cl3 2102   2.385   2.820   3.986
    1TCM     c1 2103   0.781   1.365   0.268
    1TCM    cl1 2104   0.708   1.380   0.106
    1TCM    cl2 2105   0.958   1.385   0.255
    1TCM     h1 2106   0.740   1.443   0.334
    1TCM    cl3 2107   0.745   1.204   0.334
    1TCM     c1 2108   4.677   2.993   1.934
    1TCM    cl1 2109   4.649   2.817   1.924
    1TCM    cl2 2110   4.718   3.036   2.102
    1TCM     h1 2111   4.761   3.021   1.867
    1TCM    cl3 2112   4.530   3.079   1.884
    1TCM     c1 2113   3.117   3.235   0.598
    1TCM    cl1 2114   3.010   3.354   0.520
    1TCM    cl2 2115   3.125   3.268   0.772
    1TCM     h1 2116   3.077   3.133   0.581
    1TCM    cl3 2117   3.280   3.246   0.528
    1TCM     c1 2118   2.596   4.878   1.565
    1TCM    cl1 2119   2.441   4.928   1.638
    1TCM    cl2 2120   2.564   4.787   1.415
    1TCM     h1 2121   2.657   4.968   1.542
    1TCM    cl3 2122   2.684   4.774   1.679
    1TCM     c1 2123   2.697   4.036   4.914
    1TCM    cl1 2124   2.639   3.901   4.815
    1TCM    cl2 2125   2.723   3.980   5.081
    1TCM     h1 2126   2.793   4.074   4.872
    1TCM    cl3 2127   2.577   4.167   4.913
    1TCM     c1 2128   3.992   3.980   2.776
    1TCM    cl1 2129   4.004   4.155   2.799
    1TCM    cl2 2130   4.093   3.897   2.897
    1TCM     h1 2131   3.887   3.948   2.788
    1TCM    cl3 2132   4.049   3.937   2.613
    1TCM     c1 2133   2.396   1.507   2.447
    1TCM    cl1 2134   2.483   1.515   2.602
    1TCM    cl2 2135   2.490   1.593   2.322
    1TCM     h1 2136   2.383   1.401   2.417
    1TCM    cl3 2137   2.236   1.584   2.464
    1TCM     c1 2138   4.908   2.378   0.646
    1TCM    cl1 2139   4.864   2.241   0.543
    1TCM    cl2 2140   4.798   2.386   0.785
    1TCM     h1 2141   5.013   2.366   0.682
    1TCM    cl3 2142   4.896   2.529   0.553
    1TCM     c1 2143   4.231   0.556   3.198
    1TCM    cl1 2144   4.198   0.664   3.335
    1TCM    cl2 2145   4.241   0.652   3.048
    1TCM     h1 2146   4.327   0.504   3.215
    1TCM    cl3 2147   4.100   0.437   3.184
    1TCM     c1 2148   4.816   2.341   0.203
    1TCM    cl1 2149   4.858   2.169   0.218
    1TCM    cl2 2150   4.664   2.358   0.112
    1TCM     h1 2151   4.803   2.385   0.304
    1TCM    cl3 2152   4.945   2.427   0.117
    1TCM     c1 2153   3.383   1.245   1.071
    1TCM    cl1 2154   3.206   1.238   1.079
    1TCM    cl2 2155   3.435   1.412   1.038
    1TCM     h1 2156   3.426   1.211   1.167
    1TCM    cl3 2157   3.441   1.138   0.940
    1TCM     c1 2158   2.808   4.526   4.688
    1TCM    cl1 2159   2.745   4.682   4.745
    1TCM    cl2 2160   2.704   4.395   4.747
    1TCM     h1 2161   2.809   4.525   4.577
    1TCM    cl3 2162   2.973   4.502   4.748
    1TCM     c1 2163   1.531   5.269   0.609
    1TCM    cl1 2164   1.703   5.286   0.651
    1TCM    cl2 2165   1.488   5.096   0.605
    1TCM     h1 2166   1.469   5.321   0.684
    1TCM    cl3 2167   1.502   5.340   0.448
    1TCM     c1 2168   1.420   3.324   4.484
    1TCM    cl1 2169   1.429   3.404   4.643
    1TCM    cl2 2170   1.270   3.229   4.474
    1TCM     h1 2171   1.421   3.401   4.404
    1TCM    cl3 2172   1.560   3.217   4.465
    1TCM     c1 2173   1.220   2.377   2.382
    1TCM    cl1 2174   1.136   2.402   2.537
    1TCM    cl2 2175   1.280   2.210   2.373
    1TCM     h1 2176   1.151   2.396   2.298
    1TCM    cl3 2177   1.358   2.489   2.372
    1TCM     c1 2178   1.404   1.406   0.627
    1TCM    cl1 2179   1.240   1.405   0.560
    1TCM    cl2 2180   1.519   1.348   0.504
    1TCM     h1 2181   1.431   1.509   0.657
    1TCM    cl3 2182   1.411   1.299   0.769
    1TCM     c1 2183   0.346   5.181   3.254
    1TCM    cl1 2184   0.439   5.230   3.398
    1TCM    cl2 2185   0.416   5.256   3.109
    1TCM     h1 2186   0.350   5.071   3.244
    1TCM    cl3 2187   0.177   5.233   3.272
    1TCM     c1 2188   2.797   3.964   0.329
    1TCM    cl1 2189   2.857   4.130   0.310
    1TCM    cl2 2190   2.884   3.856   0.218
    1TCM     h1 2191   2.813   3.930   0.433
    1TCM    cl3 2192   2.623   3.959   0.291
    1TCM     c1 2193   5.055   1.849   0.898
    1TCM    cl1 2194   5.133   1.976   0.995
    1TCM    cl2 2195   5.175   1.773   0.791
    1TCM     h1 2196   5.012   1.772   0.966
    1TCM    cl3 2197   4.925   1.921   0.800
    1TCM     c1 2198   3.287   4.755   4.124
    1TCM    cl1 2199   3.220   4.783   3.961
    1TCM    cl2 2200   3.456   4.704   4.110
    1TCM     h1 2201   3.281   4.849   4.183
    1TCM    cl3 2202   3.193   4.628   4.206
    1TCM     c1 2203   0.445   3.267   3.422
    1TCM    cl1 2204   0.336   3.194   3.302
    1TCM    cl2 2205   0.440   3.444   3.408
    1TCM     h1 2206   0.413   3.237   3.524
    1TCM    cl3 2207   0.611   3.210   3.393
    1TCM     c1 2208   2.881   0.554   1.981
    1TCM    cl1 2209   2.947   0.710   2.034
    1TCM    cl2 2210   3.012   0.456   1.911
    1TCM     h1 2211   2.838   0.501   2.068
    1TCM    cl3 2212   2.755   0.581   1.858
    1TCM     c1 2213   4.853   5.001   4.345
    1TCM    cl1 2214   4.851   5.100   4.198
    1TCM    cl2 2215   4.726   4.876   4.334
    1TCM     h1 2216   4.952   4.952   4.356
    1TCM    cl3 2217   4.822   5.104   4.486
    1TCM     c1 2218   4.070   0.999   2.048
    1TCM    cl1 2219   4.008   0.877   2.162
    1TCM    cl2 2220   3.969   1.001   1.902
    1TCM     h1 2221   4.068   1.099   2.097
    1TCM    cl3 2222   4.238   0.959   2.004
    1TCM     c1 2223   2.295   4.756   2.393
    1TCM    cl1 2224   2.298   4.882   2.518
    1TCM    cl2 2225   2.235   4.604   2.464
    1TCM     h1 2226   2.227   4.787   2.310
    1TCM    cl3 2227   2.459   4.731   2.329
    1TCM     c1 2228   2.277   2.628   0.909
    1TCM    cl1 2229   2.167   2.654   1.046
    1TCM    cl2 2230   2.187   2.559   0.772
    1TCM     h1 2231   2.322   2.726   0.879
    1TCM    cl3 2232   2.407   2.517   0.957
    1TCM     c1 2233   2.229   4.754   0.421
    1TCM    cl1 2234   2.308   4.709   0.573
    1TCM    cl2 2235   2.194   4.928   0.421
    1TCM     h1 2236   2.296   4.729   0.336
    1TCM    cl3 2237   2.076   4.663   0.405
    1TCM     c1 2238   3.662   1.215   2.306
    1TCM    cl1 2239   3.815   1.142   2.252
    1TCM    cl2 2240   3.635   1.173   2.477
    1TCM     h1 2241   3.668   1.325   2.296
    1TCM    cl3 2242   3.528   1.153   2.207
    1TCM     c1 2243   3.727   4.083   0.834
    1TCM    cl1 2244   3.641   3.965   0.733
    1TCM    cl2 2245   3.769   4.008   0.990
    1TCM     h1 2246   3.819   4.116   0.783
    1TCM    cl3 2247   3.622   4.224   0.863
    1TCM     c1 2248   1.751   4.290   2.177
    1TCM    cl1 2249   1.881   4.173   2.148
    1TCM    cl2 2250   1.701   4.362   2.022
    1TCM     h1 2251   1.664   4.239   2.223
    1TCM    cl3 2252   1.809   4.419   2.285
    1TCM     c1 2253   4.966   2.767   3.007
    1TCM    cl1 2254   5.136   2.733   2.967
    1TCM    cl2 2255   4.864   2.631   2.954
    1TCM     h1 2256   4.956   2.780   3.117
    1TCM    cl3 2257   4.914   2.915   2.924
    1TCM     c1 2258   1.616   1.262   2.223
    1TCM    cl1 2259   1.585   1.363   2.080
    1TCM    cl2 2260   1.529   1.107   2.206
    1TCM     h1 2261   1.725   1.242   2.231
    1TCM    cl3 2262   1.560   1.346   2.369
    1TCM     c1 2263   0.946   4.344   0.289
    1TCM    cl1 2264   0.990   4.483   0.187
    1TCM    cl2 2265   0.903   4.401   0.452
    1TCM     h1 2266   0.859   4.291   0.244
    1TCM    cl3 2267   1.084   4.232   0.299
    1TCM     c1 2268   3.146   2.675   0.925
    1TCM    cl1 2269   3.035   2.617   0.798
    1TCM    cl2 2270   3.178   2.544   1.041
    1TCM     h1 2271   3.241   2.708   0.878
    1TCM    cl3 2272   3.072   2.813   1.010
    1TCM     c1 2273   0.617   1.975   2.560
    1TCM    cl1 2274   0.730   2.099   2.619
    1TCM    cl2 2275   0.456   2.046   2.540
    1TCM     h1 2276   0.653   1.936   2.462
    1TCM    cl3 2277   0.610   1.841   2.678
    1TCM     c1 2278   2.629   0.788   4.992
    1TCM    cl1 2279   2.682   0.713   4.840
    1TCM    cl2 2280   2.695   0.698   5.130
    1TCM     h1 2281   2.665   0.893   4.996
    1TCM    cl3 2282   2.451   0.786   5.001
    1TCM     c1 2283   0.395   4.303   4.201
    1TCM    cl1 2284   0.475   4.404   4.324
    1TCM    cl2 2285   0.289   4.185   4.281
    1TCM     h1 2286   0.334   4.367   4.134
    1TCM    cl3 2287   0.518   4.218   4.105
    1TCM     c1 2288   5.041   4.039   1.519
    1TCM    cl1 2289   4.936   4.002   1.658
    1TCM    cl2 2290   5.203   4.083   1.577
    1TCM     h1 2291   5.048   3.950   1.454
    1TCM    cl3 2292   4.972   4.174   1.427
    1TCM     c1 2293   2.598   2.332   0.448
    1TCM    cl1 2294   2.583   2.424   0.297
    1TCM    cl2 2295   2.620   2.444   0.584
    1TCM     h1 2296   2.507   2.271   0.464
    1TCM    cl3 2297   2.739   2.224   0.438
    1TCM     c1 2298   3.381   2.459   2.184
    1TCM    cl1 2299   3.493   2.592   2.146
    1TCM    cl2 2300   3.214   2.514   2.160
    1TCM     h1 2301   3.401   2.374   2.116
    1TCM    cl3 2302   3.403   2.408   2.352
    1TCM     c1 2303   4.064   1.224   5.180
    1TCM    cl1 2304   4.103   1.354   5.294
    1TCM    cl2 2305   4.170   1.085   5.209
    1TCM     h1 2306   3.958   1.194   5.193
    1TCM    cl3 2307   4.087   1.283   5.013
    1TCM     c1 2308   1.102   2.024   4.496
    1TCM    cl1 2309   1.147   1.961   4.656
    1TCM    cl2 2310   1.012   1.899   4.407
    1TCM     h1 2311   1.038   2.114   4.508
    1TCM    cl3 2312   1.249   2.066   4.405
    1TCM     c1 2313   0.450   0.329   2.148
    1TCM    cl1 2314   0.509   0.231   2.012
    1TCM    cl2 2315   0.535   0.282   2.296
    1TCM     h1 2316   0.468   0.437   2.127
    1TCM    cl3 2317   0.275   0.302   2.169
    1TCM     c1 2318   3.821   0.432   1.087
    1TCM    cl1 2319   3.934   0.556   1.146
    1TCM    cl2 2320   3.656   0.498   1.087
    1TCM     h1 2321   3.849   0.402   0.984
    1TCM    cl3 2322   3.828   0.290   1.194
    1TCM     c1 2323   3.177   2.263   3.634
    1TCM    cl1 2324   3.301   2.353   3.544
    1TCM    cl2 2325   3.180   2.313   3.805
    1TCM     h1 2326   3.077   2.284   3.591
    1TCM    cl3 2327   3.211   2.088   3.624
    1TCM     c1 2328   3.738   2.889   3.589
    1TCM    cl1 2329   3.866   2.880   3.712
    1TCM    cl2 2330   3.709   2.727   3.522
    1TCM     h1 2331   3.645   2.928   3.635
    1TCM    cl3 2332   3.789   2.999   3.458
    1TCM     c1 2333   3.257   4.438   1.768
    1TCM    cl1 2334   3.253   4.616   1.782
    1TCM    cl2 2335   3.249   4.392   1.597
    1TCM     h1 2336   3.352   4.400   1.812
    1TCM    cl3 2337   3.119   4.368   1.856
    1TCM     c1 2338   0.442   1.408   4.223
    1TCM    cl1 2339   0.363   1.274   4.309
    1TCM    cl2 2340   0.395   1.404   4.051
    1TCM     h1 2341   0.411   1.504   4.267
    1TCM    cl3 2342   0.619   1.391   4.236
    1TCM     c1 2343   0.361   1.884   1.627
    1TCM    cl1 2344   0.529   1.863   1.679
    1TCM    cl2 2345   0.320   1.758   1.508
    1TCM     h1 2346   0.293   1.876   1.714
    1TCM    cl3 2347   0.342   2.044   1.552
    1TCM     c1 2348   0.101   2.918   1.356
    1TCM    cl1 2349   0.214   2.801   1.283
    1TCM    cl2 2350   0.094   3.065   1.257
    1TCM     h1 2351   0.000   2.872   1.363
    1TCM    cl3 2352   0.157   2.960   1.520
    1TCM     c1 2353   0.937   3.684   0.100
    1TCM    cl1 2354   0.774   3.669   0.169
    1TCM    cl2 2355   0.946   3.830   0.000
    1TCM     h1 2356   1.011   3.690   0.182
    1TCM    cl3 2357   0.972   3.541   0.000
    1TCM     c1 2358   3.613   1.303   1.485
    1TCM    cl1 2359   3.436   1.321   1.492
    1TCM    cl2 2360   3.657   1.135   1.522
    1TCM     h1 2361   3.648   1.329   1.383
    1TCM    cl3 2362   3.688   1.412   1.604
    1TCM     c1 2363   3.507   1.721   4.716
    1TCM    cl1 2364   3.359   1.630   4.751
    1TCM    cl2 2365   3.620   1.705   4.852
    1TCM     h1 2366   3.555   1.680   4.624
    1TCM    cl3 2367   3.467   1.892   4.691
    1TCM     c1 2368   0.697   3.996   4.310
    1TCM    cl1 2369   0.571   4.119   4.333
    1TCM    cl2 2370   0.844   4.072   4.245
    1TCM     h1 2371   0.721   3.948   4.408
    1TCM    cl3 2372   0.640   3.872   4.196
    1TCM     c1 2373   3.626   3.216   5.182
    1TCM    cl1 2374   3.589   3.128   5.032
    1TCM    cl2 2375   3.515   3.164   5.311
    1TCM     h1 2376   3.731   3.194   5.213
    1TCM    cl3 2377   3.607   3.391   5.155
    1TCM     c1 2378   0.954   2.726   1.512
    1TCM    cl1 2379   0.901   2.573   1.587
    1TCM    cl2 2380   1.126   2.715   1.470
    1TCM     h1 2381   0.894   2.744   1.421
    1TCM    cl3 2382   0.930   2.860   1.627
    1TCM     c1 2383   4.403   5.071   5.200
    1TCM    cl1 2384   4.282   5.091   5.329
    1TCM    cl2 2385   4.563   5.115   5.262
    1TCM     h1 2386   4.404   4.965   5.167
    1TCM    cl3 2387   4.361   5.176   5.063
    1TCM     c1 2388   4.402   1.120   0.292
    1TCM    cl1 2389   4.262   1.155   0.188
    1TCM    cl2 2390   4.347   1.092   0.458
    1TCM     h1 2391   4.455   1.030   0.254
    1TCM    cl3 2392   4.514   1.258   0.289
    1TCM     c1 2393   3.075   0.827   3.490
    1TCM    cl1 2394   3.018   0.829   3.322
    1TCM    cl2 2395   3.184   0.965   3.518
    1TCM     h1 2396   2.987   0.835   3.559
    1TCM    cl3 2397   3.162   0.676   3.522
    1TCM     c1 2398   4.350   1.432   4.918
    1TCM    cl1 2399   4.495   1.534   4.907
    1TCM    cl2 2400   4.349   1.316   4.782
    1TCM     h1 2401   4.351   1.376   5.014
    1TCM    cl3 2402   4.205   1.534   4.909
    1TCM     c1 2403   4.771   2.153   3.825
    1TCM    cl1 2404   4.675   2.003   3.824
    1TCM    cl2 2405   4.688   2.277   3.729
    1TCM     h1 2406   4.782   2.189   3.930
    1TCM    cl3 2407   4.931   2.122   3.755
    1TCM     c1 2408   0.113   4.966   3.726
    1TCM    cl1 2409   0.029   4.919   3.576
    1TCM    cl2 2410   0.265   4.873   3.739
    1TCM     h1 2411   0.137   5.074   3.723
    1TCM    cl3 2412   0.010   4.931   3.866
    1TCM     c1 2413   3.391   0.741   3.842
    1TCM    cl1 2414   3.216   0.743   3.807
    1TCM    cl2 2415   3.480   0.689   3.697
    1TCM     h1 2416   3.424   0.843   3.871
    1TCM    cl3 2417   3.423   0.628   3.975
    1TCM     c1 2418   3.834   3.718   1.632
    1TCM    cl1 2419   3.960   3.811   1.547
    1TCM    cl2 2420   3.833   3.764   1.804
    1TCM     h1 2421   3.735   3.741   1.588
    1TCM    cl3 2422   3.868   3.544   1.617
    1TCM     c1 2423   0.539   0.175   1.382
    1TCM    cl1 2424   0.636   0.045   1.455
    1TCM    cl2 2425   0.396   0.105   1.304
    1TCM     h1 2426   0.508   0.246   1.461
    1TCM    cl3 2427   0.637   0.260   1.260
    1TCM     c1 2428   2.164   3.965   3.692
    1TCM    cl1 2429   2.294   3.938   3.810
    1TCM    cl2 2430   2.210   3.895   3.535
    1TCM     h1 2431   2.071   3.916   3.728
    1TCM    cl3 2432   2.136   4.139   3.673
    1TCM     c1 2433   4.522   3.947   1.343
    1TCM    cl1 2434   4.551   3.925   1.517
    1TCM    cl2 2435   4.653   4.045   1.273
    1TCM     h1 2436   4.520   3.847   1.293
    1TCM    cl3 2437   4.367   4.029   1.318
    1TCM     c1 2438   3.135   4.337   4.589
    1TCM    cl1 2439   2.967   4.311   4.638
    1TCM    cl2 2440   3.234   4.198   4.642
    1TCM     h1 2441   3.141   4.346   4.478
    1TCM    cl3 2442   3.197   4.486   4.663
    1TCM     c1 2443   2.076   1.869   4.792
    1TCM    cl1 2444   1.938   1.975   4.828
    1TCM    cl2 2445   2.048   1.786   4.637
    1TCM     h1 2446   2.169   1.929   4.785
    1TCM    cl3 2447   2.093   1.748   4.921
    1TCM     c1 2448   1.564   3.454   2.047
    1TCM    cl1 2449   1.588   3.597   1.944
    1TCM    cl2 2450   1.530   3.507   2.214
    1TCM     h1 2451   1.479   3.395   2.009
    1TCM    cl3 2452   1.711   3.354   2.046
    1TCM     c1 2453   1.811   0.118   1.510
    1TCM    cl1 2454   1.900   0.092   1.662
    1TCM    cl2 2455   1.927   0.150   1.379
    1TCM     h1 2456   1.752   0.027   1.486
    1TCM    cl3 2457   1.702   0.257   1.529
    1TCM     c1 2458   4.213   4.351   3.796
    1TCM    cl1 2459   4.097   4.423   3.681
    1TCM    cl2 2460   4.144   4.355   3.960
    1TCM     h1 2461   4.234   4.246   3.766
    1TCM    cl3 2462   4.364   4.445   3.793
    1TCM     c1 2463   0.704   1.034   3.774
    1TCM    cl1 2464   0.634   1.001   3.614
    1TCM    cl2 2465   0.656   0.905   3.887
    1TCM     h1 2466   0.815   1.036   3.766
    1TCM    cl3 2467   0.645   1.190   3.833
    1TCM     c1 2468   1.688   4.455   0.705
    1TCM    cl1 2469   1.815   4.578   0.683
    1TCM    cl2 2470   1.576   4.509   0.833
    1TCM     h1 2471   1.633   4.442   0.610
    1TCM    cl3 2472   1.763   4.301   0.753
    1TCM     c1 2473   3.293   0.446   0.174
    1TCM    cl1 2474   3.143   0.421   0.267
    1TCM    cl2 2475   3.257   0.431   0.000
    1TCM     h1 2476   3.333   0.547   0.195
    1TCM    cl3 2477   3.413   0.323   0.220
    1TCM     c1 2478   3.798   0.931   3.290
    1TCM    cl1 2479   3.841   0.923   3.117
    1TCM    cl2 2480   3.946   0.950   3.387
    1TCM     h1 2481   3.731   1.017   3.307
    1TCM    cl3 2482   3.716   0.780   3.336
    1TCM     c1 2483   0.155   4.595   3.983
    1TCM    cl1 2484   0.280   4.482   3.928
    1TCM    cl2 2485   0.228   4.720   4.085
    1TCM     h1 2486   0.107   4.642   3.895
    1TCM    cl3 2487   0.032   4.507   4.077
    1TCM     c1 2488   4.439   1.667   5.262
    1TCM    cl1 2489   4.513   1.818   5.321
    1TCM    cl2 2490   4.419   1.676   5.086
    1TCM     h1 2491   4.505   1.582   5.287
    1TCM    cl3 2492   4.280   1.645   5.339
    1TCM     c1 2493   0.541   0.627   2.754
    1TCM    cl1 2494   0.583   0.628   2.581
    1TCM    cl2 2495   0.427   0.494   2.786
    1TCM     h1 2496   0.633   0.612   2.815
    1TCM    cl3 2497   0.466   0.782   2.798
    1TCM     c1 2498   0.436   2.105   2.212
    1TCM    cl1 2499   0.512   1.956   2.152
    1TCM    cl2 2500   0.432   2.226   2.081
    1TCM     h1 2501   0.333   2.084   2.246
    1TCM    cl3 2502   0.531   2.169   2.348
    1TCM     c1 2503   3.660   2.203   1.686
    1TCM    cl1 2504   3.677   2.170   1.512
    1TCM    cl2 2505   3.803   2.140   1.772
    1TCM     h1 2506   3.652   2.312   1.703
    1TCM    cl3 2507   3.515   2.122   1.748
    1TCM     c1 2508   2.634   0.929   4.337
    1TCM    cl1 2509   2.516   0.979   4.214
    1TCM    cl2 2510   2.560   0.809   4.445
    1TCM     h1 2511   2.723   0.885   4.288
    1TCM    cl3 2512   2.684   1.071   4.432
    1TCM     c1 2513   4.639   2.542   4.917
    1TCM    cl1 2514   4.618   2.673   5.036
    1TCM    cl2 2515   4.531   2.407   4.959
    1TCM     h1 2516   4.613   2.580   4.816
    1TCM    cl3 2517   4.807   2.487   4.919
    1TCM     c1 2518   3.822   0.777   2.866
    1TCM    cl1 2519   3.703   0.766   2.735
    1TCM    cl2 2520   3.911   0.931   2.853
    1TCM     h1 2521   3.770   0.772   2.964
    1TCM    cl3 2522   3.937   0.642   2.854
    1TCM     c1 2523   3.309   2.186   3.301
    1TCM    cl1 2524   3.313   2.029   3.218
    1TCM    cl2 2525   3.305   2.316   3.181
    1TCM     h1 2526   3.218   2.191   3.365
    1TCM    cl3 2527   3.454   2.203   3.403
    1TCM     c1 2528   3.823   1.623   1.490
    1TCM    cl1 2529   3.886   1.773   1.417
    1TCM    cl2 2530   3.733   1.663   1.638
    1TCM     h1 2531   3.756   1.572   1.418
    1TCM    cl3 2532   3.959   1.515   1.530
    1TCM     c1 2533   0.426   3.420   1.587
    1TCM    cl1 2534   0.250   3.423   1.618
    1TCM    cl2 2535   0.463   3.293   1.468
    1TCM     h1 2536   0.458   3.518   1.548
    1TCM    cl3 2537   0.512   3.386   1.739
    1TCM     c1 2538   2.514   3.737   4.569
    1TCM    cl1 2539   2.389   3.757   4.694
    1TCM    cl2 2540   2.461   3.817   4.419
    1TCM     h1 2541   2.608   3.783   4.604
    1TCM    cl3 2542   2.540   3.564   4.538
    1TCM     c1 2543   1.926   1.624   1.972
    1TCM    cl1 2544   2.050   1.714   2.061
    1TCM    cl2 2545   1.972   1.615   1.800
    1TCM     h1 2546   1.917   1.522   2.013
    1TCM    cl3 2547   1.770   1.708   1.987
    1TCM     c1 2548   4.583   2.605   0.356
    1TCM    cl1 2549   4.731   2.622   0.258
    1TCM    cl2 2550   4.628   2.593   0.528
    1TCM     h1 2551   4.519   2.694   0.341
    1TCM    cl3 2552   4.496   2.458   0.307
    1TCM     c1 2553   3.126   4.605   3.566
    1TCM    cl1 2554   2.964   4.593   3.495
    1TCM    cl2 2555   3.217   4.455   3.533
    1TCM     h1 2556   3.180   4.691   3.522
    1TCM    cl3 2557   3.112   4.628   3.742
    1TCM     c1 2558   5.013   3.879   5.224
    1TCM    cl1 2559   4.876   3.787   5.290
    1TCM    cl2 2560   4.994   4.051   5.265
    1TCM     h1 2561   5.108   3.841   5.268
    1TCM    cl3 2562   5.018   3.860   5.047
    1TCM     c1 2563   1.193   2.685   3.340
    1TCM    cl1 2564   1.124   2.553   3.437
    1TCM    cl2 2565   1.172   2.648   3.167
    1TCM     h1 2566   1.142   2.780   3.364
    1TCM    cl3 2567   1.367   2.701   3.376
    1TCM     c1 2568   2.538   2.796   1.295
    1TCM    cl1 2569   2.516   2.894   1.149
    1TCM    cl2 2570   2.417   2.666   1.299
    1TCM     h1 2571   2.640   2.751   1.295
    1TCM    cl3 2572   2.520   2.899   1.439
    1TCM     c1 2573   0.131   3.562   3.585
    1TCM    cl1 2574   0.247   3.570   3.451
    1TCM    cl2 2575   0.000   3.449   3.543
    1TCM     h1 2576   0.182   3.527   3.677
    1TCM    cl3 2577   0.062   3.724   3.614
    1TCM     c1 2578   2.473   4.846   3.305
    1TCM    cl1 2579   2.625   4.798   3.385
    1TCM    cl2 2580   2.338   4.827   3.419
    1TCM     h1 2581   2.480   4.952   3.273
    1TCM    cl3 2582   2.446   4.743   3.163
    1TCM     c1 2583   5.002   2.729   4.196
    1TCM    cl1 2584   5.172   2.778   4.202
    1TCM    cl2 2585   4.898   2.874   4.191
    1TCM     h1 2586   4.984   2.668   4.104
    1TCM    cl3 2587   4.962   2.632   4.340
    1TCM     c1 2588   2.579   2.255   3.579
    1TCM    cl1 2589   2.447   2.138   3.596
    1TCM    cl2 2590   2.600   2.296   3.407
    1TCM     h1 2591   2.555   2.347   3.636
    1TCM    cl3 2592   2.730   2.185   3.642
    1TCM     c1 2593   1.967   0.915   3.896
    1TCM    cl1 2594   1.992   0.785   4.015
    1TCM    cl2 2595   1.921   1.065   3.981
    1TCM     h1 2596   2.061   0.932   3.840
    1TCM    cl3 2597   1.838   0.869   3.784
    1TCM     c1 2598   0.934   0.360   0.891
    1TCM    cl1 2599   0.966   0.516   0.970
    1TCM    cl2 2600   0.968   0.374   0.717
    1TCM     h1 2601   0.998   0.282   0.935
    1TCM    cl3 2602   0.763   0.316   0.914
    1TCM     c1 2603   4.153   1.432   3.649
    1TCM    cl1 2604   4.050   1.576   3.664
    1TCM    cl2 2605   4.187   1.366   3.811
    1TCM     h1 2606   4.101   1.355   3.588
    1TCM    cl3 2607   4.306   1.477   3.570
    1TCM     c1 2608   3.222   4.918   3.406
    1TCM    cl1 2609   3.263   4.778   3.305
    1TCM    cl2 2610   3.055   4.903   3.465
    1TCM     h1 2611   3.292   4.924   3.492
    1TCM    cl3 2612   3.237   5.067   3.309
    1TCM     c1 2613   2.228   2.559   3.109
    1TCM    cl1 2614   2.136   2.433   3.024
    1TCM    cl2 2615   2.117   2.686   3.165
    1TCM     h1 2616   2.280   2.513   3.197
    1TCM    cl3 2617   2.349   2.629   2.999
    1TCM     c1 2618   1.544   0.753   5.235
    1TCM    cl1 2619   1.449   0.861   5.340
    1TCM    cl2 2620   1.487   0.769   5.067
    1TCM     h1 2621   1.651   0.782   5.241
    1TCM    cl3 2622   1.523   0.585   5.289
    1TCM     c1 2623   2.206   4.394   4.403
    1TCM    cl1 2624   2.138   4.403   4.239
    1TCM    cl2 2625   2.161   4.540   4.494
    1TCM     h1 2626   2.166   4.304   4.455
    1TCM    cl3 2627   2.383   4.383   4.393
    1TCM     c1 2628   0.917   3.720   5.046
    1TCM    cl1 2629   0.816   3.774   4.910
    1TCM    cl2 2630   0.822   3.613   5.151
    1TCM     h1 2631   1.005   3.665   5.007
    1TCM    cl3 2632   0.972   3.861   5.139
    1TCM     c1 2633   5.094   3.052   1.875
    1TCM    cl1 2634   5.078   3.195   1.770
    1TCM    cl2 2635   5.088   3.102   2.045
    1TCM     h1 2636   5.011   2.981   1.854
    1TCM    cl3 2637   5.250   2.972   1.842
    1TCM     c1 2638   3.308   1.183   3.598
    1TCM    cl1 2639   3.397   1.302   3.696
    1TCM    cl2 2640   3.364   1.191   3.429
    1TCM     h1 2641   3.328   1.081   3.638
    1TCM    cl3 2642   3.134   1.217   3.605
    1TCM     c1 2643   0.083   1.323   1.833
    1TCM    cl1 2644   0.252   1.269   1.853
    1TCM    cl2 2645   0.000   1.319   1.990
    1TCM     h1 2646   0.083   1.426   1.793
    1TCM    cl3 2647   0.000   1.215   1.719
    1TCM     c1 2648   1.559   0.128   1.262
    1TCM    cl1 2649   1.419   0.074   1.165
    1TCM    cl2 2650   1.682   0.000   1.262
    1TCM     h1 2651   1.601   0.220   1.217
    1TCM    cl3 2652   1.507   0.160   1.429
    1TCM     c1 2653   2.759   2.931   3.888
    1TCM    cl1 2654   2.835   2.814   3.998
    1TCM    cl2 2655   2.885   3.030   3.810
    1TCM     h1 2656   2.701   2.877   3.810
    1TCM    cl3 2657   2.649   3.036   3.980
    1TCM     c1 2658   5.128   3.328   1.244
    1TCM    cl1 2659   5.194   3.462   1.147
    1TCM    cl2 2660   5.030   3.393   1.377
    1TCM     h1 2661   5.065   3.263   1.180
    1TCM    cl3 2662   5.262   3.232   1.311
    1TCM     c1 2663   1.888   0.289   0.191
    1TCM    cl1 2664   1.757   0.170   0.201
    1TCM    cl2 2665   2.014   0.229   0.080
    1TCM     h1 2666   1.849   0.385   0.154
    1TCM    cl3 2667   1.959   0.312   0.353
    1TCM     c1 2668   1.119   1.899   2.982
    1TCM    cl1 2669   1.091   1.725   2.957
    1TCM    cl2 2670   1.283   1.924   3.045
    1TCM     h1 2671   1.108   1.952   2.885
    1TCM    cl3 2672   1.000   1.962   3.099
    1TCM     c1 2673   2.691   3.844   2.452
    1TCM    cl1 2674   2.835   3.763   2.385
    1TCM    cl2 2675   2.742   3.985   2.548
    1TCM     h1 2676   2.626   3.878   2.369
    1TCM    cl3 2677   2.602   3.731   2.556
    1TCM     c1 2678   1.531   0.633   2.915
    1TCM    cl1 2679   1.559   0.757   2.791
    1TCM    cl2 2680   1.468   0.710   3.063
    1TCM     h1 2681   1.457   0.559   2.878
    1TCM    cl3 2682   1.684   0.550   2.952
    1TCM     c1 2683   5.137   5.028   2.830
    1TCM    cl1 2684   5.101   4.905   2.706
    1TCM    cl2 2685   5.159   4.948   2.987
    1TCM     h1 2686   5.229   5.083   2.802
    1TCM    cl3 2687   5.001   5.142   2.840
    1TCM     c1 2688   2.629   3.892   3.232
    1TCM    cl1 2689   2.490   3.934   3.334
    1TCM    cl2 2690   2.647   4.014   3.103
    1TCM     h1 2691   2.721   3.890   3.294
    1TCM    cl3 2692   2.603   3.732   3.159
    1TCM     c1 2693   5.025   5.003   0.273
    1TCM    cl1 2694   4.919   5.037   0.134
    1TCM    cl2 2695   5.065   4.829   0.276
    1TCM     h1 2696   5.118   5.062   0.264
    1TCM    cl3 2697   4.941   5.047   0.423
    1TCM     c1 2698   1.541   4.064   5.169
    1TCM    cl1 2699   1.391   4.050   5.075
    1TCM    cl2 2700   1.631   3.910   5.161
    1TCM     h1 2701   1.604   4.145   5.128
    1TCM    cl3 2702   1.501   4.100   5.339
    1TCM     c1 2703   0.481   1.916   3.518
    1TCM    cl1 2704   0.324   1.854   3.460
    1TCM    cl2 2705   0.481   1.919   3.696
    1TCM     h1 2706   0.562   1.851   3.482
    1TCM    cl3 2707   0.505   2.081   3.456
    1TCM     c1 2708   4.637   0.366   4.811
    1TCM    cl1 2709   4.584   0.505   4.908
    1TCM    cl2 2710   4.663   0.418   4.642
    1TCM     h1 2711   4.732   0.326   4.852
    1TCM    cl3 2712   4.512   0.240   4.815
    1TCM     c1 2713   4.345   2.427   2.477
    1TCM    cl1 2714   4.261   2.304   2.574
    1TCM    cl2 2715   4.488   2.485   2.566
    1TCM     h1 2716   4.377   2.383   2.381
    1TCM    cl3 2717   4.235   2.563   2.447
    1TCM     c1 2718   3.478   4.748   1.719
    1TCM    cl1 2719   3.557   4.616   1.630
    1TCM    cl2 2720   3.586   4.889   1.724
    1TCM     h1 2721   3.384   4.776   1.667
    1TCM    cl3 2722   3.442   4.695   1.885
    1TCM     c1 2723   5.207   5.169   0.752
    1TCM    cl1 2724   5.215   5.340   0.703
    1TCM    cl2 2725   5.036   5.121   0.772
    1TCM     h1 2726   5.254   5.106   0.674
    1TCM    cl3 2727   5.293   5.148   0.907
    1TCM     c1 2728   3.975   5.144   0.258
    1TCM    cl1 2729   4.019   5.084   0.420
    1TCM    cl2 2730   4.123   5.183   0.167
    1TCM     h1 2731   3.918   5.066   0.204
    1TCM    cl3 2732   3.876   5.291   0.274
    1TCM     c1 2733   0.707   5.227   2.439
    1TCM    cl1 2734   0.615   5.339   2.542
    1TCM    cl2 2735   0.693   5.276   2.269
    1TCM     h1 2736   0.814   5.229   2.470
    1TCM    cl3 2737   0.643   5.062   2.459
    1TCM     c1 2738   2.875   5.151   4.386
    1TCM    cl1 2739   2.800   5.271   4.279
    1TCM    cl2 2740   2.953   5.024   4.288
    1TCM     h1 2741   2.951   5.200   4.450
    1TCM    cl3 2742   2.750   5.077   4.489
    1TCM     c1 2743   4.412   4.190   1.837
    1TCM    cl1 2744   4.274   4.196   1.726
    1TCM    cl2 2745   4.355   4.205   2.005
    1TCM     h1 2746   4.466   4.094   1.825
    1TCM    cl3 2747   4.523   4.325   1.801
    1TCM     c1 2748   3.278   3.671   4.887
    1TCM    cl1 2749   3.350   3.575   5.018
    1TCM    cl2 2750   3.298   3.586   4.733
    1TCM     h1 2751   3.169   3.685   4.908
    1TCM    cl3 2752   3.358   3.829   4.879
    1TCM     c1 2753   2.768   0.534   4.351
    1TCM    cl1 2754   2.686   0.512   4.508
    1TCM    cl2 2755   2.731   0.396   4.246
    1TCM     h1 2756   2.733   0.627   4.304
    1TCM    cl3 2757   2.944   0.543   4.378
    1TCM     c1 2758   3.346   3.350   1.815
    1TCM    cl1 2759   3.489   3.434   1.751
    1TCM    cl2 2760   3.329   3.384   1.989
    1TCM     h1 2761   3.255   3.384   1.762
    1TCM    cl3 2762   3.365   3.174   1.792
    1TCM     c1 2763   0.182   3.080   3.550
    1TCM    cl1 2764   0.315   2.983   3.483
    1TCM    cl2 2765   0.210   3.108   3.723
    1TCM     h1 2766   0.176   3.177   3.497
    1TCM    cl3 2767   0.028   2.992   3.529
    1TCM     c1 2768   1.511   3.838   3.103
    1TCM    cl1 2769   1.601   3.866   3.254
    1TCM    cl2 2770   1.515   3.984   3.003
    1TCM     h1 2771   1.557   3.753   3.048
    1TCM    cl3 2772   1.342   3.798   3.142
    1TCM     c1 2773   2.848   4.220   1.745
    1TCM    cl1 2774   2.715   4.103   1.758
    1TCM    cl2 2775   2.922   4.243   1.905
    1TCM     h1 2776   2.924   4.181   1.674
    1TCM    cl3 2777   2.785   4.375   1.685
    1TCM     c1 2778   5.142   1.676   2.962
    1TCM    cl1 2779   5.079   1.635   2.801
    1TCM    cl2 2780   5.319   1.658   2.963
    1TCM     h1 2781   5.115   1.780   2.987
    1TCM    cl3 2782   5.071   1.565   3.083
    1TCM     c1 2783   4.442   3.473   3.036
    1TCM    cl1 2784   4.567   3.348   3.043
    1TCM    cl2 2785   4.298   3.418   3.125
    1TCM     h1 2786   4.480   3.567   3.082
    1TCM    cl3 2787   4.398   3.505   2.866
    1TCM     c1 2788   2.731   4.930   2.626
    1TCM    cl1 2789   2.867   4.816   2.622
    1TCM    cl2 2790   2.736   5.021   2.779
    1TCM     h1 2791   2.739   5.001   2.541
    1TCM    cl3 2792   2.578   4.840   2.615
    1TCM     c1 2793   2.996   3.185   2.426
    1TCM    cl1 2794   2.919   3.052   2.337
    1TCM    cl2 2795   3.161   3.209   2.366
    1TCM     h1 2796   2.937   3.279   2.410
    1TCM    cl3 2797   3.000   3.147   2.599
    1TCM     c1 2798   1.917   3.507   4.155
    1TCM    cl1 2799   1.903   3.652   4.053
    1TCM    cl2 2800   1.943   3.556   4.324
    1TCM     h1 2801   1.824   3.447   4.148
    1TCM    cl3 2802   2.056   3.409   4.101
    1TCM     c1 2803   4.989   1.870   0.516
    1TCM    cl1 2804   5.011   1.844   0.341
    1TCM    cl2 2805   4.946   1.716   0.594
    1TCM     h1 2806   5.084   1.908   0.560
    1TCM    cl3 2807   4.859   1.989   0.543
    1TCM     c1 2808   2.046   3.085   2.143
    1TCM    cl1 2809   2.185   3.121   2.247
    1TCM    cl2 2810   2.103   3.047   1.979
    1TCM     h1 2811   1.991   2.997   2.184
    1TCM    cl3 2812   1.937   3.225   2.137
    1TCM     c1 2813   1.993   0.949   4.969
    1TCM    cl1 2814   2.042   1.117   4.935
    1TCM    cl2 2815   2.112   0.837   4.899
    1TCM     h1 2816   1.987   0.934   5.079
    1TCM    cl3 2817   1.833   0.918   4.897
    1TCM     c1 2818   0.296   5.090   3.999
    1TCM    cl1 2819   0.364   5.209   4.112
    1TCM    cl2 2820   0.328   5.143   3.832
    1TCM     h1 2821   0.343   4.991   4.016
    1TCM    cl3 2822   0.120   5.077   4.024
    1TCM     c1 2823   1.660   4.492   1.727
    1TCM    cl1 2824   1.652   4.626   1.612
    1TCM    cl2 2825   1.827   4.475   1.786
    1TCM     h1 2826   1.593   4.512   1.813
    1TCM    cl3 2827   1.611   4.341   1.647
    1TCM     c1 2828   4.938   0.989   4.264
    1TCM    cl1 2829   4.847   0.897   4.385
    1TCM    cl2 2830   4.863   0.967   4.104
    1TCM     h1 2831   4.938   1.097   4.290
    1TCM    cl3 2832   5.106   0.930   4.259
    1TCM     c1 2833   2.342   3.223   0.253
    1TCM    cl1 2834   2.354   3.321   0.105
    1TCM    cl2 2835   2.266   3.319   0.381
    1TCM     h1 2836   2.281   3.133   0.233
    1TCM    cl3 2837   2.505   3.173   0.304
    1TCM     c1 2838   2.678   4.255   1.398
    1TCM    cl1 2839   2.720   4.424   1.431
    1TCM    cl2 2840   2.698   4.221   1.224
    1TCM     h1 2841   2.745   4.188   1.456
    1TCM    cl3 2842   2.510   4.225   1.445
    1TCM     c1 2843   1.676   0.945   4.107
    1TCM    cl1 2844   1.785   0.818   4.168
    1TCM    cl2 2845   1.715   0.980   3.937
    1TCM     h1 2846   1.571   0.910   4.114
    1TCM    cl3 2847   1.696   1.092   4.204
    1TCM     c1 2848   1.585   1.125   2.875
    1TCM    cl1 2849   1.607   1.146   2.699
    1TCM    cl2 2850   1.528   0.960   2.908
    1TCM     h1 2851   1.682   1.142   2.926
    1TCM    cl3 2852   1.465   1.242   2.934
    1TCM     c1 2853   1.991   3.191   3.479
    1TCM    cl1 2854   1.963   3.170   3.305
    1TCM    cl2 2855   2.034   3.361   3.512
    1TCM     h1 2856   1.899   3.165   3.536
    1TCM    cl3 2857   2.125   3.086   3.531
    1TCM     c1 2858   3.862   4.284   3.041
    1TCM    cl1 2859   3.809   4.426   3.133
    1TCM    cl2 2860   3.881   4.327   2.870
    1TCM     h1 2861   3.959   4.248   3.081
    1TCM    cl3 2862   3.741   4.154   3.056
    1TCM     c1 2863   2.704   5.131   0.534
    1TCM    cl1 2864   2.880   5.125   0.513
    1TCM    cl2 2865   2.652   5.300   0.551
    1TCM     h1 2866   2.655   5.086   0.445
    1TCM    cl3 2867   2.658   5.040   0.680
    1TCM     c1 2868   1.651   3.805   4.113
    1TCM    cl1 2869   1.773   3.934   4.104
    1TCM    cl2 2870   1.699   3.686   4.236
    1TCM     h1 2871   1.553   3.849   4.139
    1TCM    cl3 2872   1.640   3.724   3.955
    1TCM     c1 2873   2.369   2.236   1.329
    1TCM    cl1 2874   2.509   2.341   1.362
    1TCM    cl2 2875   2.233   2.335   1.271
    1TCM     h1 2876   2.397   2.161   1.252
    1TCM    cl3 2877   2.322   2.152   1.479
    1TCM     c1 2878   3.140   0.138   3.825
    1TCM    cl1 2879   3.188   0.079   3.985
    1TCM    cl2 2880   3.125   0.315   3.829
    1TCM     h1 2881   3.217   0.110   3.750
    1TCM    cl3 2882   2.984   0.067   3.779
    1TCM     c1 2883   2.051   1.218   2.104
    1TCM    cl1 2884   2.049   1.346   1.981
    1TCM    cl2 2885   1.944   1.263   2.239
    1TCM     h1 2886   2.016   1.123   2.059
    1TCM    cl3 2887   2.217   1.198   2.165
    1TCM     c1 2888   2.332   2.799   0.414
    1TCM    cl1 2889   2.208   2.860   0.525
    1TCM    cl2 2890   2.280   2.827   0.246
    1TCM     h1 2891   2.428   2.853   0.432
    1TCM    cl3 2892   2.356   2.625   0.440
    1TCM     c1 2893   3.605   2.510   4.373
    1TCM    cl1 2894   3.693   2.660   4.411
    1TCM    cl2 2895   3.720   2.389   4.311
    1TCM     h1 2896   3.556   2.471   4.464
    1TCM    cl3 2897   3.482   2.544   4.249
    1TCM     c1 2898   0.770   0.433   1.995
    1TCM    cl1 2899   0.627   0.408   1.892
    1TCM    cl2 2900   0.731   0.388   2.163
    1TCM     h1 2901   0.853   0.370   1.959
    1TCM    cl3 2902   0.818   0.604   1.989
    1TCM     c1 2903   0.074   2.891   3.875
    1TCM    cl1 2904   0.106   3.062   3.912
    1TCM    cl2 2905   0.010   2.811   4.020
    1TCM     h1 2906   0.000   2.885   3.793
    1TCM    cl3 2907   0.226   2.812   3.826
    1TCM     c1 2908   4.295   4.857   0.797
    1TCM    cl1 2909   4.326   4.857   0.972
    1TCM    cl2 2910   4.332   5.018   0.730
    1TCM     h1 2911   4.360   4.781   0.748
    1TCM    cl3 2912   4.124   4.819   0.766
    1TCM     c1 2913   0.298   4.306   1.103
    1TCM    cl1 2914   0.251   4.134   1.100
    1TCM    cl2 2915   0.165   4.404   1.037
    1TCM     h1 2916   0.319   4.337   1.207
    1TCM    cl3 2917   0.444   4.329   1.004
    1TCM     c1 2918   2.195   2.352   3.821
    1TCM    cl1 2919   2.264   2.385   3.660
    1TCM    cl2 2920   2.327   2.329   3.938
    1TCM     h1 2921   2.133   2.438   3.853
    1TCM    cl3 2922   2.095   2.206   3.814
    1TCM     c1 2923   0.579   4.088   1.297
    1TCM    cl1 2924   0.473   4.120   1.158
    1TCM    cl2 2925   0.519   4.176   1.439
    1TCM     h1 2926   0.579   3.979   1.319
    1TCM    cl3 2927   0.744   4.141   1.259
    1TCM     c1 2928   1.466   3.889   0.405
    1TCM    cl1 2929   1.318   3.867   0.501
    1TCM    cl2 2930   1.589   3.772   0.456
    1TCM     h1 2931   1.443   3.874   0.297
    1TCM    cl3 2932   1.528   4.054   0.429
    1TCM     c1 2933   3.181   2.126   2.550
    1TCM    cl1 2934   3.322   2.020   2.530
    1TCM    cl2 2935   3.177   2.245   2.418
    1TCM     h1 2936   3.089   2.065   2.548
    1TCM    cl3 2937   3.193   2.211   2.706
    1TCM     c1 2938   1.915   2.760   2.489
    1TCM    cl1 2939   2.048   2.763   2.607
    1TCM    cl2 2940   1.759   2.762   2.575
    1TCM     h1 2941   1.922   2.848   2.423
    1TCM    cl3 2942   1.927   2.611   2.391
    1TCM     c1 2943   3.415   5.124   2.097
    1TCM    cl1 2944   3.349   5.242   1.981
    1TCM    cl2 2945   3.280   5.038   2.177
    1TCM     h1 2946   3.478   5.050   2.044
    1TCM    cl3 2947   3.512   5.208   2.220
    1TCM     c1 2948   1.121   2.566   4.376
    1TCM    cl1 2949   1.271   2.560   4.472
    1TCM    cl2 2950   1.162   2.554   4.203
    1TCM     h1 2951   1.056   2.481   4.404
    1TCM    cl3 2952   1.037   2.719   4.407
    1TCM     c1 2953   4.627   3.898   4.931
    1TCM    cl1 2954   4.688   3.757   5.021
    1TCM    cl2 2955   4.721   3.919   4.782
    1TCM     h1 2956   4.520   3.882   4.906
    1TCM    cl3 2957   4.643   4.044   5.032
    1TCM     c1 2958   4.921   1.879   4.164
    1TCM    cl1 2959   5.088   1.821   4.185
    1TCM    cl2 2960   4.871   1.854   3.995
    1TCM     h1 2961   4.853   1.824   4.231
    1TCM    cl3 2962   4.914   2.053   4.202
    1TCM     c1 2963   4.125   2.241   2.863
    1TCM    cl1 2964   4.027   2.388   2.842
    1TCM    cl2 2965   4.149   2.163   2.705
    1TCM     h1 2966   4.223   2.268   2.906
    1TCM    cl3 2967   4.041   2.129   2.972
    1TCM     c1 2968   1.492   2.843   5.166
    1TCM    cl1 2969   1.482   3.011   5.223
    1TCM    cl2 2970   1.330   2.769   5.171
    1TCM     h1 2971   1.530   2.842   5.061
    1TCM    cl3 2972   1.602   2.751   5.270
    1TCM     c1 2973   3.666   2.145   3.133
    1TCM    cl1 2974   3.512   2.230   3.107
    1TCM    cl2 2975   3.725   2.178   3.298
    1TCM     h1 2976   3.651   2.036   3.120
    1TCM    cl3 2977   3.786   2.203   3.015
    1TCM     c1 2978   2.756   4.870   1.045
    1TCM    cl1 2979   2.708   5.027   1.114
    1TCM    cl2 2980   2.668   4.844   0.893
    1TCM     h1 2981   2.865   4.870   1.026
    1TCM    cl3 2982   2.716   4.740   1.160
    1TCM     c1 2983   1.659   3.843   0.892
    1TCM    cl1 2984   1.822   3.789   0.938
    1TCM    cl2 2985   1.620   3.782   0.729
    1TCM     h1 2986   1.585   3.804   0.965
    1TCM    cl3 2987   1.653   4.021   0.891
    1TCM     c1 2988   5.073   3.219   5.124
    1TCM    cl1 2989   5.005   3.341   5.234
    1TCM    cl2 2990   4.958   3.084   5.107
    1TCM     h1 2991   5.091   3.264   5.025
    1TCM    cl3 2992   5.226   3.157   5.191
    1TCM     c1 2993   2.953   5.034   3.102
    1TCM    cl1 2994   3.038   5.188   3.082
    1TCM    cl2 2995   2.883   4.984   2.946
    1TCM     h1 2996   3.024   4.956   3.137
    1TCM    cl3 2997   2.822   5.053   3.221
    1TCM     c1 2998   4.805   3.871   3.670
    1TCM    cl1 2999   4.772   3.845   3.843
    1TCM    cl2 3000   4.653   3.906   3.585
    1TCM     h1 3001   4.875   3.956   3.658
    1TCM    cl3 3002   4.879   3.724   3.601
    1TCM     c1 3003   1.688   0.904   3.151
    1TCM    cl1 3004   1.814   1.025   3.120
    1TCM    cl2 3005   1.534   0.985   3.188
    1TCM     h1 3006   1.675   0.840   3.060
    1TCM    cl3 3007   1.736   0.802   3.288
    1TCM     c1 3008   3.319   2.736   4.576
    1TCM    cl1 3009   3.460   2.842   4.555
    1TCM    cl2 3010   3.284   2.654   4.423
    1TCM     h1 3011   3.342   2.660   4.655
    1TCM    cl3 3012   3.178   2.832   4.626
    1TCM     c1 3013   2.353   4.266   0.618
    1TCM    cl1 3014   2.477   4.203   0.507
    1TCM    cl2 3015   2.425   4.288   0.780
    1TCM     h1 3016   2.316   4.364   0.581
    1TCM    cl3 3017   2.218   4.151   0.629
    1TCM     c1 3018   3.241   1.592   0.300
    1TCM    cl1 3019   3.356   1.686   0.203
    1TCM    cl2 3020   3.158   1.474   0.196
    1TCM     h1 3021   3.296   1.538   0.380
    1TCM    cl3 3022   3.121   1.701   0.373
    1TCM     c1 3023   2.382   1.752   4.033
    1TCM    cl1 3024   2.409   1.805   4.201
    1TCM    cl2 3025   2.218   1.801   3.982
    1TCM     h1 3026   2.457   1.800   3.967
    1TCM    cl3 3027   2.398   1.576   4.023
    1TCM     c1 3028   1.266   0.940   2.716
    1TCM    cl1 3029   1.440   0.974   2.700
    1TCM    cl2 3030   1.186   0.966   2.559
    1TCM     h1 3031   1.252   0.834   2.747
    1TCM    cl3 3032   1.196   1.048   2.838
    1TCM     c1 3033   2.825   4.329   5.121
    1TCM    cl1 3034   2.778   4.267   5.281
    1TCM    cl2 3035   2.679   4.364   5.025
    1TCM     h1 3036   2.885   4.421   5.133
    1TCM    cl3 3037   2.922   4.206   5.036
    1TCM     c1 3038   2.315   4.476   1.618
    1TCM    cl1 3039   2.145   4.519   1.648
    1TCM    cl2 3040   2.372   4.559   1.471
    1TCM     h1 3041   2.376   4.508   1.704
    1TCM    cl3 3042   2.329   4.300   1.596
    1TCM     c1 3043   0.979   2.674   5.071
    1TCM    cl1 3044   0.853   2.605   5.175
    1TCM    cl2 3045   0.989   2.580   4.920
    1TCM     h1 3046   0.954   2.779   5.047
    1TCM    cl3 3047   1.135   2.668   5.155
    1TCM     c1 3048   1.708   1.196   1.845
    1TCM    cl1 3049   1.639   1.308   1.726
    1TCM    cl2 3050   1.577   1.097   1.914
    1TCM     h1 3051   1.782   1.130   1.796
    1TCM    cl3 3052   1.787   1.288   1.975
    1TCM     c1 3053   0.520   3.623   3.643
    1TCM    cl1 3054   0.394   3.748   3.639
    1TCM    cl2 3055   0.587   3.602   3.480
    1TCM     h1 3056   0.601   3.654   3.713
    1TCM    cl3 3057   0.449   3.470   3.698
    1TCM     c1 3058   2.332   0.078   1.423
    1TCM    cl1 3059   2.326   0.254   1.402
    1TCM    cl2 3060   2.488   0.016   1.365
    1TCM     h1 3061   2.320   0.053   1.531
    1TCM    cl3 3062   2.200   0.002   1.331
    1TCM     c1 3063   0.259   0.164   3.831
    1TCM    cl1 3064   0.369   0.072   3.937
    1TCM    cl2 3065   0.243   0.079   3.675
    1TCM     h1 3066   0.159   0.171   3.879
    1TCM    cl3 3067   0.324   0.327   3.804
    1TCM     c1 3068   3.250   4.021   1.533
    1TCM    cl1 3069   3.383   4.120   1.596
    1TCM    cl2 3070   3.283   3.849   1.565
    1TCM     h1 3071   3.155   4.050   1.583
    1TCM    cl3 3072   3.235   4.047   1.357
    1TCM     c1 3073   4.641   4.323   3.841
    1TCM    cl1 3074   4.564   4.470   3.904
    1TCM    cl2 3075   4.740   4.248   3.969
    1TCM     h1 3076   4.563   4.251   3.808
    1TCM    cl3 3077   4.745   4.364   3.703
    1TCM     c1 3078   0.953   3.723   0.396
    1TCM    cl1 3079   0.936   3.555   0.339
    1TCM    cl2 3080   0.875   3.833   0.279
    1TCM     h1 3081   0.905   3.734   0.495
    1TCM    cl3 3082   1.126   3.764   0.409
    1TCM     c1 3083   5.127   2.332   5.095
    1TCM    cl1 3084   5.064   2.265   5.248
    1TCM    cl2 3085   5.302   2.355   5.109
    1TCM     h1 3086   5.105   2.261   5.012
    1TCM    cl3 3087   5.049   2.488   5.062
    1TCM     c1 3088   0.994   5.022   2.479
    1TCM    cl1 3089   0.920   5.086   2.627
    1TCM    cl2 3090   0.973   5.139   2.347
    1TCM     h1 3091   1.102   5.003   2.496
    1TCM    cl3 3092   0.914   4.869   2.434
    1TCM     c1 3093   1.027   1.264   4.140
    1TCM    cl1 3094   0.960   1.387   4.250
    1TCM    cl2 3095   1.004   1.317   3.971
    1TCM     h1 3096   1.135   1.251   4.160
    1TCM    cl3 3097   0.942   1.110   4.166
    1TCM     c1 3098   3.913   2.698   4.213
    1TCM    cl1 3099   3.790   2.627   4.106
    1TCM    cl2 3100   3.906   2.619   4.372
    1TCM     h1 3101   4.014   2.683   4.169
    1TCM    cl3 3102   3.882   2.872   4.232
    1TCM     c1 3103   2.294   3.523   5.213
    1TCM    cl1 3104   2.442   3.544   5.117
    1TCM    cl2 3105   2.183   3.414   5.127
    1TCM     h1 3106   2.320   3.479   5.312
    1TCM    cl3 3107   2.216   3.681   5.237
    1TCM     c1 3108   1.279   0.595   0.978
    1TCM    cl1 3109   1.277   0.612   0.801
    1TCM    cl2 3110   1.254   0.754   1.053
    1TCM     h1 3111   1.199   0.526   1.010
    1TCM    cl3 3112   1.437   0.530   1.030
    1TCM     c1 3113   0.413   3.659   0.565
    1TCM    cl1 3114   0.473   3.630   0.400
    1TCM    cl2 3115   0.406   3.505   0.653
    1TCM     h1 3116   0.481   3.729   0.618
    1TCM    cl3 3117   0.250   3.730   0.557
    1TCM     c1 3118   3.218   1.682   3.450
    1TCM    cl1 3119   3.215   1.825   3.344
    1TCM    cl2 3120   3.216   1.535   3.351
    1TCM     h1 3121   3.311   1.684   3.512
    1TCM    cl3 3122   3.076   1.684   3.557
    1TCM     c1 3123   2.851   4.762   0.322
    1TCM    cl1 3124   2.928   4.867   0.201
    1TCM    cl2 3125   2.824   4.600   0.253
    1TCM     h1 3126   2.917   4.753   0.411
    1TCM    cl3 3127   2.695   4.832   0.371
    1TCM     c1 3128   3.742   3.530   3.398
    1TCM    cl1 3129   3.918   3.524   3.422
    1TCM    cl2 3130   3.703   3.642   3.266
    1TCM     h1 3131   3.704   3.428   3.373
    1TCM    cl3 3132   3.664   3.585   3.548
    1TCM     c1 3133   2.954   3.945   0.985
    1TCM    cl1 3134   3.006   4.102   1.050
    1TCM    cl2 3135   2.777   3.941   0.971
    1TCM     h1 3136   3.000   3.930   0.885
    1TCM    cl3 3137   3.008   3.816   1.095
    1TCM     c1 3138   4.481   4.351   1.193
    1TCM    cl1 3139   4.489   4.445   1.042
    1TCM    cl2 3140   4.642   4.286   1.230
    1TCM     h1 3141   4.448   4.417   1.276
    1TCM    cl3 3142   4.366   4.217   1.173
    1TCM     c1 3143   4.572   3.076   0.262
    1TCM    cl1 3144   4.514   3.223   0.344
    1TCM    cl2 3145   4.731   3.031   0.328
    1TCM     h1 3146   4.500   2.994   0.279
    1TCM    cl3 3147   4.587   3.108   0.088
    1TCM     c1 3148   2.928   1.032   2.246
    1TCM    cl1 3149   2.830   0.900   2.312
    1TCM    cl2 3150   2.836   1.115   2.118
    1TCM     h1 3151   2.952   1.105   2.327
    1TCM    cl3 3152   3.079   0.967   2.178
    1TCM     c1 3153   3.445   4.582   2.996
    1TCM    cl1 3154   3.465   4.723   2.890
    1TCM    cl2 3155   3.356   4.629   3.142
    1TCM     h1 3156   3.388   4.503   2.942
    1TCM    cl3 3157   3.605   4.518   3.041
    1TCM     c1 3158   3.726   3.479   3.940
    1TCM    cl1 3159   3.819   3.577   4.055
    1TCM    cl2 3160   3.739   3.307   3.984
    1TCM     h1 3161   3.619   3.509   3.943
    1TCM    cl3 3162   3.790   3.503   3.776
    1TCM     c1 3163   4.171   0.315   0.217
    1TCM    cl1 3164   4.319   0.303   0.313
    1TCM    cl2 3165   4.201   0.248   0.054
    1TCM     h1 3166   4.090   0.257   0.266
    1TCM    cl3 3167   4.122   0.485   0.203
    1TCM     c1 3168   3.263   3.172   3.468
    1TCM    cl1 3169   3.370   3.099   3.590
    1TCM    cl2 3170   3.336   3.154   3.307
    1TCM     h1 3171   3.165   3.122   3.470
    1TCM    cl3 3172   3.242   3.345   3.503
    1TCM     c1 3173   0.660   2.614   1.920
    1TCM    cl1 3174   0.785   2.693   1.821
    1TCM    cl2 3175   0.636   2.447   1.863
    1TCM     h1 3176   0.693   2.612   2.026
    1TCM    cl3 3177   0.507   2.704   1.907
    1TCM     c1 3178   5.194   4.294   3.023
    1TCM    cl1 3179   5.203   4.453   2.944
    1TCM    cl2 3180   5.245   4.309   3.192
    1TCM     h1 3181   5.089   4.257   3.019
    1TCM    cl3 3182   5.300   4.180   2.938
    1TCM     c1 3183   2.318   3.522   1.563
    1TCM    cl1 3184   2.438   3.477   1.439
    1TCM    cl2 3185   2.394   3.516   1.724
    1TCM     h1 3186   2.282   3.625   1.544
    1TCM    cl3 3187   2.182   3.409   1.558
    1TCM     c1 3188   5.088   1.371   2.447
    1TCM    cl1 3189   5.130   1.502   2.335
    1TCM    cl2 3190   5.236   1.294   2.507
    1TCM     h1 3191   5.030   1.412   2.532
    1TCM    cl3 3192   4.989   1.250   2.362
    1TCM     c1 3193   4.193   3.119   3.999
    1TCM    cl1 3194   4.036   3.060   4.059
    1TCM    cl2 3195   4.316   2.991   4.019
    1TCM     h1 3196   4.184   3.145   3.892
    1TCM    cl3 3197   4.241   3.263   4.091
    1TCM     c1 3198   1.609   3.547   3.478
    1TCM    cl1 3199   1.661   3.655   3.346
    1TCM    cl2 3200   1.630   3.378   3.429
    1TCM     h1 3201   1.670   3.567   3.569
    1TCM    cl3 3202   1.437   3.578   3.516
    1TCM     c1 3203   2.554   3.265   2.632
    1TCM    cl1 3204   2.456   3.181   2.754
    1TCM    cl2 3205   2.725   3.263   2.681
    1TCM     h1 3206   2.543   3.214   2.534
    1TCM    cl3 3207   2.499   3.434   2.618
    1TCM     c1 3208   1.895   2.892   0.172
    1TCM    cl1 3209   1.795   2.782   0.270
    1TCM    cl2 3210   1.873   2.854   0.000
    1TCM     h1 3211   1.864   2.997   0.192
    1TCM    cl3 3212   2.066   2.871   0.217
    1TCM     c1 3213   4.823   0.836   2.892
    1TCM    cl1 3214   4.776   0.671   2.939
    1TCM    cl2 3215   4.723   0.888   2.754
    1TCM     h1 3216   4.806   0.905   2.977
    1TCM    cl3 3217   4.994   0.838   2.845
    1TCM     c1 3218   4.888   2.047   1.278
    1TCM    cl1 3219   4.762   2.017   1.157
    1TCM    cl2 3220   4.844   2.189   1.376
    1TCM     h1 3221   4.898   1.959   1.344
    1TCM    cl3 3222   5.043   2.078   1.196
    1TCM     c1 3223   3.205   4.079   0.417
    1TCM    cl1 3224   3.255   3.920   0.479
    1TCM    cl2 3225   3.233   4.085   0.241
    1TCM     h1 3226   3.097   4.095   0.438
    1TCM    cl3 3227   3.300   4.206   0.496
    1TCM     c1 3228   2.738   4.025   3.596
    1TCM    cl1 3229   2.824   3.998   3.750
    1TCM    cl2 3230   2.841   3.972   3.461
    1TCM     h1 3231   2.644   3.968   3.596
    1TCM    cl3 3232   2.703   4.199   3.579
    1TCM     c1 3233   2.043   4.557   2.223
    1TCM    cl1 3234   2.067   4.389   2.169
    1TCM    cl2 3235   2.006   4.558   2.397
    1TCM     h1 3236   2.136   4.615   2.205
    1TCM    cl3 3237   1.909   4.630   2.133
    1TCM     c1 3238   1.603   1.704   0.693
    1TCM    cl1 3239   1.453   1.694   0.787
    1TCM    cl2 3240   1.690   1.854   0.736
    1TCM     h1 3241   1.667   1.617   0.716
    1TCM    cl3 3242   1.565   1.706   0.519
    1TCM     c1 3243   0.155   2.781   4.418
    1TCM    cl1 3244   0.143   2.954   4.382
    1TCM    cl2 3245   0.197   2.692   4.270
    1TCM     h1 3246   0.235   2.765   4.494
    1TCM    cl3 3247  -0.000   2.722   4.481
    1TCM     c1 3248   0.502   1.614   4.678
    1TCM    cl1 3249   0.550   1.764   4.760
    1TCM    cl2 3250   0.584   1.476   4.753
    1TCM     h1 3251   0.392   1.601   4.687
    1TCM    cl3 3252   0.547   1.623   4.506
    1TCM     c1 3253   5.032   2.940   0.633
    1TCM    cl1 3254   5.005   2.950   0.808
    1TCM    cl2 3255   5.042   2.769   0.584
    1TCM     h1 3256   4.948   2.989   0.580
    1TCM    cl3 3257   5.185   3.022   0.592
    1TCM     c1 3258   2.220   4.217   4.835
    1TCM    cl1 3259   2.274   4.065   4.909
    1TCM    cl2 3260   2.223   4.347   4.956
    1TCM     h1 3261   2.288   4.243   4.751
    1TCM    cl3 3262   2.055   4.198   4.772
    1TCM     c1 3263   3.078   3.457   3.255
    1TCM    cl1 3264   2.913   3.466   3.189
    1TCM    cl2 3265   3.161   3.612   3.228
    1TCM     h1 3266   3.073   3.436   3.363
    1TCM    cl3 3267   3.168   3.327   3.173
    1TCM     c1 3268   2.962   4.381   0.396
    1TCM    cl1 3269   2.978   4.258   0.523
    1TCM    cl2 3270   3.102   4.372   0.287
    1TCM     h1 3271   2.869   4.363   0.338
    1TCM    cl3 3272   2.955   4.543   0.470
    1TCM     c1 3273   3.451   4.478   0.473
    1TCM    cl1 3274   3.478   4.354   0.349
    1TCM    cl2 3275   3.510   4.419   0.630
    1TCM     h1 3276   3.506   4.570   0.446
    1TCM    cl3 3277   3.277   4.514   0.485
    1TCM     c1 3278   2.330   3.763   1.041
    1TCM    cl1 3279   2.480   3.859   1.044
    1TCM    cl2 3280   2.291   3.711   1.207
    1TCM     h1 3281   2.247   3.825   1.002
    1TCM    cl3 3282   2.352   3.620   0.938
    1TCM     c1 3283   4.096   3.935   3.742
    1TCM    cl1 3284   4.167   3.881   3.589
    1TCM    cl2 3285   4.226   3.972   3.858
    1TCM     h1 3286   4.035   4.026   3.725
    1TCM    cl3 3287   3.993   3.806   3.808
    1TCM     c1 3288   5.218   4.780   4.202
    1TCM    cl1 3289   5.064   4.741   4.122
    1TCM    cl2 3290   5.187   4.839   4.367
    1TCM     h1 3291   5.281   4.688   4.207
    1TCM    cl3 3292   5.304   4.905   4.109
    1TCM     c1 3293   4.210   0.353   3.544
    1TCM    cl1 3294   4.239   0.213   3.649
    1TCM    cl2 3295   4.056   0.430   3.590
    1TCM     h1 3296   4.293   0.426   3.556
    1TCM    cl3 3297   4.201   0.299   3.375
    1TCM     c1 3298   2.443   2.663   3.451
    1TCM    cl1 3299   2.389   2.798   3.348
    1TCM    cl2 3300   2.387   2.690   3.617
    1TCM     h1 3301   2.400   2.568   3.412
    1TCM    cl3 3302   2.621   2.654   3.448
    1TCM     c1 3303   5.021   4.583   2.606
    1TCM    cl1 3304   4.986   4.703   2.733
    1TCM    cl2 3305   5.000   4.420   2.673
    1TCM     h1 3306   4.952   4.598   2.521
    1TCM    cl3 3307   5.189   4.603   2.551
    1TCM     c1 3308   2.385   0.840   2.067
    1TCM    cl1 3309   2.292   0.726   1.967
    1TCM    cl2 3310   2.390   0.781   2.235
    1TCM     h1 3311   2.489   0.848   2.028
    1TCM    cl3 3312   2.308   1.000   2.063
    1TCM     c1 3313   0.277   2.364   3.079
    1TCM    cl1 3314   0.160   2.347   2.946
    1TCM    cl2 3315   0.319   2.202   3.141
    1TCM     h1 3316   0.368   2.414   3.041
    1TCM    cl3 3317   0.205   2.460   3.210
    1TCM     c1 3318   1.099   4.055   1.116
    1TCM    cl1 3319   1.102   4.056   0.938
    1TCM    cl2 3320   1.232   3.954   1.177
    1TCM     h1 3321   1.111   4.159   1.153
    1TCM    cl3 3322   0.944   3.989   1.173
    1TCM     c1 3323   2.665   3.016   0.724
    1TCM    cl1 3324   2.704   3.084   0.564
    1TCM    cl2 3325   2.578   3.138   0.820
    1TCM     h1 3326   2.601   2.926   0.711
    1TCM    cl3 3327   2.816   2.971   0.807
    1TCM     c1 3328   0.643   0.652   0.945
    1TCM    cl1 3329   0.747   0.541   0.853
    1TCM    cl2 3330   0.540   0.559   1.056
    1TCM     h1 3331   0.706   0.722   1.003
    1TCM    cl3 3332   0.540   0.745   0.833
    1TCM     c1 3333   5.077   2.178   3.243
    1TCM    cl1 3334   4.997   2.302   3.343
    1TCM    cl2 3335   5.091   2.237   3.076
    1TCM     h1 3336   5.178   2.157   3.284
    1TCM    cl3 3337   4.980   2.030   3.246
    1TCM     c1 3338   2.501   1.014   3.494
    1TCM    cl1 3339   2.629   1.016   3.372
    1TCM    cl2 3340   2.564   1.077   3.648
    1TCM     h1 3341   2.416   1.077   3.460
    1TCM    cl3 3342   2.444   0.847   3.518
    1TCM     c1 3343   5.073   1.020   2.254
    1TCM    cl1 3344   5.193   1.145   2.213
    1TCM    cl2 3345   5.131   0.862   2.197
    1TCM     h1 3346   5.059   1.017   2.364
    1TCM    cl3 3347   4.918   1.058   2.175
    1TCM     c1 3348   3.974   0.489   4.530
    1TCM    cl1 3349   3.832   0.444   4.627
    1TCM    cl2 3350   4.002   0.665   4.544
    1TCM     h1 3351   4.063   0.435   4.567
    1TCM    cl3 3352   3.946   0.447   4.359
    1TCM     c1 3353   5.110   0.884   5.066
    1TCM    cl1 3354   5.205   0.802   4.940
    1TCM    cl2 3355   5.188   0.861   5.224
    1TCM     h1 3356   5.104   0.993   5.043
    1TCM    cl3 3357   4.945   0.817   5.070
    1TCM     c1 3358   2.914   0.626   1.529
    1TCM    cl1 3359   3.064   0.720   1.524
    1TCM    cl2 3360   2.808   0.689   1.657
    1TCM     h1 3361   2.862   0.633   1.431
    1TCM    cl3 3362   2.952   0.456   1.563
    1TCM     c1 3363   2.124   1.387   3.824
    1TCM    cl1 3364   2.134   1.398   4.001
    1TCM    cl2 3365   2.136   1.217   3.775
    1TCM     h1 3366   2.027   1.429   3.790
    1TCM    cl3 3367   2.257   1.480   3.751
   5.54000   5.54000   5.54000
