GROningen Mixture of Alchemy and Childrens' Stories
 3367
    1PMP     C1    1   0.534   4.642   2.582
    1PMP     O2    2   0.496   4.509   2.617
    1PMP     C3    3   0.451   4.430   2.515
    1PMP     C4    4   0.444   4.464   2.380
    1PMP     C5    5   0.396   4.372   2.284
    1PMP     C6    6   0.388   4.408   2.142
    1PMP     C7    7   0.338   4.533   2.102
    1PMP     C8    8   0.330   4.568   1.966
    1PMP     C9    9   0.371   4.478   1.868
    1PMP    C10   10   0.350   4.514   1.726
    1PMP    O11   11   0.299   4.617   1.688
    1PMP    C12   12   0.420   4.352   1.906
    1PMP    C13   13   0.429   4.318   2.042
    1PMP    C14   14   0.357   4.245   2.329
    1PMP    C15   15   0.364   4.208   2.465
    1PMP    C16   16   0.322   4.074   2.510
    1PMP    C17   17   0.206   4.013   2.460
    1PMP    C18   18   0.167   3.886   2.502
    1PMP    C19   19   0.243   3.817   2.597
    1PMP    C20   20   0.203   3.676   2.636
    1PMP    C21   21   0.148   3.676   2.778
    1PMP    N22   22   0.310   3.578   2.619
    1PMP    C23   23   0.359   3.877   2.649
    1PMP    C24   24   0.398   4.003   2.604
    1PMP    C25   25   0.412   4.302   2.557
    1PMP    H26   26   0.449   4.698   2.542
    1PMP    H27   27   0.567   4.692   2.674
    1PMP    H28   28   0.619   4.642   2.513
    1PMP    H29   29   0.477   4.562   2.346
    1PMP    H30   30   0.302   4.604   2.175
    1PMP    H31   31   0.288   4.664   1.938
    1PMP    H32   32   0.452   4.279   1.832
    1PMP    H33   33   0.467   4.220   2.068
    1PMP    H34   34   0.321   4.172   2.257
    1PMP    H35   35   0.145   4.064   2.385
    1PMP    H36   36   0.079   3.841   2.458
    1PMP    H37   37   0.123   3.643   2.570
    1PMP    H38   38   0.225   3.707   2.852
    1PMP    H39   39   0.064   3.744   2.788
    1PMP    H40   40   0.115   3.576   2.808
    1PMP    H41   41   0.291   3.493   2.668
    1PMP    H42   42   0.422   3.822   2.718
    1PMP    H43   43   0.492   4.044   2.643
    1PMP    H44   44   0.417   4.278   2.662
    2PMP    C45   45   0.206   3.032   1.804
    2PMP    O46   46   0.240   2.917   1.878
    2PMP    C47   47   0.279   2.935   2.008
    2PMP    C48   48   0.287   3.056   2.075
    2PMP    C49   49   0.329   3.062   2.210
    2PMP    C50   50   0.339   3.189   2.282
    2PMP    C51   51   0.395   3.304   2.223
    2PMP    C52   52   0.405   3.423   2.294
    2PMP    C53   53   0.361   3.431   2.427
    2PMP    C54   54   0.366   3.566   2.493
    2PMP    O55   55   0.414   3.659   2.429
    2PMP    C56   56   0.306   3.319   2.487
    2PMP    C57   57   0.294   3.200   2.415
    2PMP    C58   58   0.362   2.941   2.274
    2PMP    C59   59   0.354   2.818   2.209
    2PMP    C60   60   0.389   2.693   2.279
    2PMP    C61   61   0.502   2.687   2.362
    2PMP    C62   62   0.536   2.569   2.429
    2PMP    C63   63   0.458   2.454   2.412
    2PMP    C64   64   0.493   2.329   2.488
    2PMP    C65   65   0.549   2.224   2.395
    2PMP    N66   66   0.381   2.277   2.568
    2PMP    C67   67   0.346   2.460   2.328
    2PMP    C68   68   0.312   2.578   2.263
    2PMP    C69   69   0.312   2.817   2.075
    2PMP    H70   70   0.292   3.100   1.796
    2PMP    H71   71   0.180   3.000   1.703
    2PMP    H72   72   0.119   3.083   1.847
    2PMP    H73   73   0.260   3.149   2.025
    2PMP    H74   74   0.430   3.300   2.121
    2PMP    H75   75   0.446   3.511   2.244
    2PMP    H76   76   0.267   3.319   2.588
    2PMP    H77   77   0.249   3.114   2.465
    2PMP    H78   78   0.394   2.944   2.378
    2PMP    H79   79   0.564   2.775   2.378
    2PMP    H80   80   0.621   2.569   2.496
    2PMP    H81   81   0.571   2.353   2.562
    2PMP    H82   82   0.476   2.193   2.319
    2PMP    H83   83   0.638   2.262   2.342
    2PMP    H84   84   0.579   2.134   2.449
    2PMP    H85   85   0.397   2.182   2.597
    2PMP    H86   86   0.281   2.372   2.318
    2PMP    H87   87   0.221   2.580   2.203
    2PMP    H88   88   0.306   2.722   2.020
    3PMP    C89   89   0.451   2.499   3.525
    3PMP    O90   90   0.413   2.366   3.557
    3PMP    C91   91   0.376   2.285   3.454
    3PMP    C92   92   0.373   2.318   3.319
    3PMP    C93   93   0.332   2.224   3.222
    3PMP    C94   94   0.330   2.259   3.079
    3PMP    C95   95   0.278   2.381   3.034
    3PMP    C96   96   0.274   2.411   2.898
    3PMP    C97   97   0.320   2.319   2.803
    3PMP    C98   98   0.323   2.362   2.661
    3PMP    O99   99   0.278   2.473   2.634
    3PMP   C100  100   0.372   2.196   2.847
    3PMP   C101  101   0.377   2.168   2.983
    3PMP   C102  102   0.293   2.097   3.265
    3PMP   C103  103   0.294   2.060   3.400
    3PMP   C104  104   0.253   1.926   3.443
    3PMP   C105  105   0.141   1.862   3.385
    3PMP   C106  106   0.104   1.735   3.424
    3PMP   C107  107   0.176   1.667   3.523
    3PMP   C108  108   0.137   1.526   3.560
    3PMP   C109  109   0.077   1.523   3.701
    3PMP   N110  110   0.247   1.429   3.548
    3PMP   C111  111   0.287   1.729   3.581
    3PMP   C112  112   0.325   1.856   3.540
    3PMP   C113  113   0.335   2.156   3.493
    3PMP   H114  114   0.367   2.553   3.479
    3PMP   H115  115   0.476   2.550   3.618
    3PMP   H116  116   0.539   2.501   3.460
    3PMP   H117  117   0.406   2.416   3.286
    3PMP   H118  118   0.240   2.454   3.105
    3PMP   H119  119   0.236   2.507   2.866
    3PMP   H120  120   0.412   2.122   2.779
    3PMP   H121  121   0.419   2.072   3.014
    3PMP   H122  122   0.261   2.024   3.191
    3PMP   H123  123   0.083   1.913   3.307
    3PMP   H124  124   0.019   1.687   3.375
    3PMP   H125  125   0.060   1.490   3.491
    3PMP   H126  126   0.149   1.554   3.777
    3PMP   H127  127  -0.010   1.591   3.707
    3PMP   H128  128   0.042   1.423   3.727
    3PMP   H129  129   0.227   1.344   3.596
    3PMP   H130  130   0.347   1.676   3.655
    3PMP   H131  131   0.415   1.899   3.584
    3PMP   H132  132   0.336   2.132   3.599
    4PMP   C133  133   0.203   0.884   2.730
    4PMP   O134  134   0.232   0.767   2.807
    4PMP   C135  135   0.265   0.786   2.938
    4PMP   C136  136   0.265   0.908   3.007
    4PMP   C137  137   0.301   0.914   3.142
    4PMP   C138  138   0.305   1.041   3.215
    4PMP   C139  139   0.361   1.157   3.159
    4PMP   C140  140   0.364   1.277   3.230
    4PMP   C141  141   0.312   1.284   3.360
    4PMP   C142  142   0.310   1.418   3.425
    4PMP   O143  143   0.359   1.514   3.365
    4PMP   C144  144   0.255   1.171   3.417
    4PMP   C145  145   0.251   1.051   3.345
    4PMP   C146  146   0.336   0.795   3.207
    4PMP   C147  147   0.336   0.671   3.141
    4PMP   C148  148   0.372   0.548   3.212
    4PMP   C149  149   0.481   0.544   3.300
    4PMP   C150  150   0.514   0.428   3.369
    4PMP   C151  151   0.438   0.311   3.350
    4PMP   C152  152   0.469   0.189   3.434
    4PMP   C153  153   0.530   0.080   3.345
    4PMP   N154  154   0.354   0.140   3.510
    4PMP   C155  155   0.331   0.313   3.261
    4PMP   C156  156   0.298   0.430   3.194
    4PMP   C157  157   0.299   0.670   3.006
    4PMP   H158  158   0.287   0.952   2.728
    4PMP   H159  159   0.182   0.851   2.628
    4PMP   H160  160   0.112   0.933   2.767
    4PMP   H161  161   0.236   1.000   2.956
    4PMP   H162  162   0.404   1.155   3.059
    4PMP   H163  163   0.407   1.366   3.183
    4PMP   H164  164   0.211   1.170   3.516
    4PMP   H165  165   0.205   0.964   3.392
    4PMP   H166  166   0.363   0.798   3.312
    4PMP   H167  167   0.540   0.634   3.318
    4PMP   H168  168   0.595   0.429   3.441
    4PMP   H169  169   0.543   0.216   3.511
    4PMP   H170  170   0.461   0.049   3.267
    4PMP   H171  171   0.620   0.119   3.295
    4PMP   H172  172   0.558  -0.007   3.403
    4PMP   H173  173   0.362   0.046   3.547
    4PMP   H174  174   0.270   0.224   3.247
    4PMP   H175  175   0.210   0.430   3.129
    4PMP   H176  176   0.299   0.576   2.951
    5CAP   C177  177   0.280   4.381   1.549
    5CAP   O178  178   0.378   4.405   1.649
    5CAP   H179  179   0.196   4.330   1.597
    5CAP   H180  180   0.322   4.312   1.475
    5CAP   H181  181   0.246   4.471   1.498
    6CAP   C182  182   0.216   0.578   3.556
    6CAP   C183  183   0.214   0.451   3.642
    6CAP   C184  184   0.302   0.475   3.766
    6CAP   C185  185   0.069   0.420   3.678
    6CAP   O186  186   0.274   0.347   3.561
    6CAP   C187  187   0.284   0.218   3.599
    6CAP   O188  188   0.236   0.170   3.700
    6CAP   H189  189   0.173   0.664   3.609
    6CAP   H190  190   0.318   0.605   3.528
    6CAP   H191  191   0.160   0.564   3.463
    6CAP   H192  192   0.406   0.490   3.736
    6CAP   H193  193   0.301   0.387   3.832
    6CAP   H194  194   0.268   0.562   3.822
    6CAP   H195  195   0.010   0.396   3.589
    6CAP   H196  196   0.060   0.335   3.746
    6CAP   H197  197   0.022   0.506   3.728
    1TCM     c1  198   4.336   0.335   2.672
    1TCM    cl1  199   4.461   0.360   2.548
    1TCM    cl2  200   4.240   0.484   2.690
    1TCM     h1  201   4.270   0.252   2.642
    1TCM    cl3  202   4.414   0.296   2.827
    1TCM     c1  203   1.693   2.480   4.344
    1TCM    cl1  204   1.602   2.328   4.353
    1TCM    cl2  205   1.626   2.596   4.461
    1TCM     h1  206   1.799   2.461   4.368
    1TCM    cl3  207   1.680   2.548   4.180
    1TCM     c1  208   1.830   2.322   1.027
    1TCM    cl1  209   1.786   2.151   1.038
    1TCM    cl2  210   1.848   2.368   0.855
    1TCM     h1  211   1.750   2.384   1.073
    1TCM    cl3  212   1.984   2.350   1.112
    1TCM     c1  213   2.699   0.600   3.780
    1TCM    cl1  214   2.769   0.729   3.678
    1TCM    cl2  215   2.826   0.532   3.884
    1TCM     h1  216   2.619   0.643   3.843
    1TCM    cl3  217   2.632   0.472   3.677
    1TCM     c1  218   2.261   1.800   2.930
    1TCM    cl1  219   2.349   1.893   3.053
    1TCM    cl2  220   2.193   1.653   3.003
    1TCM     h1  221   2.179   1.862   2.888
    1TCM    cl3  222   2.372   1.755   2.798
    1TCM     c1  223   5.035   1.289   0.555
    1TCM    cl1  224   5.172   1.234   0.456
    1TCM    cl2  225   5.082   1.290   0.727
    1TCM     h1  226   5.006   1.392   0.524
    1TCM    cl3  227   4.897   1.180   0.532
    1TCM     c1  228   2.892   0.807   2.623
    1TCM    cl1  229   2.789   0.943   2.572
    1TCM    cl2  230   2.822   0.654   2.565
    1TCM     h1  231   2.994   0.820   2.580
    1TCM    cl3  232   2.902   0.803   2.800
    1TCM     c1  233   3.858   4.072   4.705
    1TCM    cl1  234   3.788   4.058   4.542
    1TCM    cl2  235   3.746   4.162   4.811
    1TCM     h1  236   3.875   3.971   4.747
    1TCM    cl3  237   4.013   4.159   4.695
    1TCM     c1  238   0.757   4.171   3.456
    1TCM    cl1  239   0.840   4.023   3.402
    1TCM    cl2  240   0.806   4.307   3.352
    1TCM     h1  241   0.647   4.156   3.450
    1TCM    cl3  242   0.802   4.206   3.625
    1TCM     c1  243   3.885   1.313   2.572
    1TCM    cl1  244   3.864   1.376   2.737
    1TCM    cl2  245   4.059   1.307   2.533
    1TCM     h1  246   3.842   1.211   2.565
    1TCM    cl3  247   3.803   1.420   2.456
    1TCM     c1  248   4.912   3.091   4.464
    1TCM    cl1  249   4.735   3.075   4.467
    1TCM    cl2  250   4.984   2.937   4.413
    1TCM     h1  251   4.940   3.171   4.392
    1TCM    cl3  252   4.970   3.134   4.626
    1TCM     c1  253   0.562   2.835   1.444
    1TCM    cl1  254   0.543   3.010   1.472
    1TCM    cl2  255   0.401   2.760   1.435
    1TCM     h1  256   0.615   2.819   1.349
    1TCM    cl3  257   0.654   2.763   1.578
    1TCM     c1  258   1.591   1.895   2.368
    1TCM    cl1  259   1.465   2.001   2.301
    1TCM    cl2  260   1.661   1.798   2.236
    1TCM     h1  261   1.671   1.956   2.415
    1TCM    cl3  262   1.520   1.787   2.490
    1TCM     c1  263   4.263   4.438   0.713
    1TCM    cl1  264   4.426   4.410   0.778
    1TCM    cl2  265   4.220   4.306   0.601
    1TCM     h1  266   4.190   4.441   0.796
    1TCM    cl3  267   4.259   4.593   0.625
    1TCM     c1  268   2.574   5.244   3.761
    1TCM    cl1  269   2.608   5.209   3.932
    1TCM    cl2  270   2.707   5.340   3.692
    1TCM     h1  271   2.565   5.148   3.705
    1TCM    cl3  272   2.422   5.335   3.747
    1TCM     c1  273   2.855   1.888   3.038
    1TCM    cl1  274   3.019   1.832   2.999
    1TCM    cl2  275   2.778   1.773   3.150
    1TCM     h1  276   2.861   1.988   3.086
    1TCM    cl3  277   2.758   1.900   2.889
    1TCM     c1  278   0.683   3.115   5.017
    1TCM    cl1  279   0.813   3.200   4.931
    1TCM    cl2  280   0.694   2.940   4.984
    1TCM     h1  281   0.693   3.132   5.126
    1TCM    cl3  282   0.526   3.176   4.962
    1TCM     c1  283   4.596   3.537   2.145
    1TCM    cl1  284   4.539   3.649   2.020
    1TCM    cl2  285   4.457   3.456   2.220
    1TCM     h1  286   4.663   3.461   2.100
    1TCM    cl3  287   4.685   3.628   2.270
    1TCM     c1  288   5.257   3.649   4.914
    1TCM    cl1  289   5.088   3.697   4.886
    1TCM    cl2  290   5.339   3.777   5.007
    1TCM     h1  291   5.260   3.554   4.972
    1TCM    cl3  292   5.340   3.627   4.758
    1TCM     c1  293   2.181   1.182   3.480
    1TCM    cl1  294   2.335   1.243   3.545
    1TCM    cl2  295   2.207   1.117   3.317
    1TCM     h1  296   2.142   1.102   3.546
    1TCM    cl3  297   2.063   1.315   3.473
    1TCM     c1  298   1.272   1.915   2.732
    1TCM    cl1  299   1.316   2.004   2.584
    1TCM    cl2  300   1.099   1.875   2.728
    1TCM     h1  301   1.332   1.822   2.738
    1TCM    cl3  302   1.306   2.016   2.874
    1TCM     c1  303   3.130   4.691   4.843
    1TCM    cl1  304   3.211   4.756   4.699
    1TCM    cl2  305   3.189   4.526   4.874
    1TCM     h1  306   3.152   4.755   4.931
    1TCM    cl3  307   2.954   4.687   4.815
    1TCM     c1  308   2.704   2.468   2.023
    1TCM    cl1  309   2.622   2.438   1.867
    1TCM    cl2  310   2.659   2.630   2.082
    1TCM     h1  311   2.673   2.392   2.096
    1TCM    cl3  312   2.880   2.461   1.999
    1TCM     c1  313   2.730   2.027   5.067
    1TCM    cl1  314   2.832   1.934   5.178
    1TCM    cl2  315   2.826   2.078   4.926
    1TCM     h1  316   2.645   1.964   5.032
    1TCM    cl3  317   2.667   2.171   5.150
    1TCM     c1  318   4.919   0.243   1.290
    1TCM    cl1  319   4.766   0.201   1.209
    1TCM    cl2  320   4.888   0.368   1.413
    1TCM     h1  321   4.961   0.153   1.339
    1TCM    cl3  322   5.034   0.305   1.170
    1TCM     c1  323   3.035   0.851   1.254
    1TCM    cl1  324   3.113   0.694   1.226
    1TCM    cl2  325   2.863   0.841   1.209
    1TCM     h1  326   3.043   0.878   1.362
    1TCM    cl3  327   3.115   0.975   1.156
    1TCM     c1  328   3.961   3.292   1.863
    1TCM    cl1  329   3.978   3.119   1.827
    1TCM    cl2  330   3.967   3.317   2.039
    1TCM     h1  331   4.044   3.348   1.815
    1TCM    cl3  332   3.805   3.351   1.800
    1TCM     c1  333   1.089   0.928   3.675
    1TCM    cl1  334   0.959   0.819   3.622
    1TCM    cl2  335   1.024   1.046   3.791
    1TCM     h1  336   1.169   0.869   3.723
    1TCM    cl3  337   1.154   1.015   3.534
    1TCM     c1  338   2.838   3.683   3.464
    1TCM    cl1  339   2.959   3.769   3.366
    1TCM    cl2  340   2.857   3.729   3.635
    1TCM     h1  341   2.737   3.711   3.430
    1TCM    cl3  342   2.862   3.508   3.447
    1TCM     c1  343   0.364   0.898   2.439
    1TCM    cl1  344   0.516   0.880   2.530
    1TCM    cl2  345   0.401   0.924   2.267
    1TCM     h1  346   0.303   0.806   2.450
    1TCM    cl3  347   0.273   1.037   2.502
    1TCM     c1  348   4.937   2.060   2.116
    1TCM    cl1  349   4.781   2.077   2.201
    1TCM    cl2  350   4.907   2.020   1.946
    1TCM     h1  351   4.993   2.156   2.123
    1TCM    cl3  352   5.032   1.931   2.192
    1TCM     c1  353   1.251   3.570   2.280
    1TCM    cl1  354   1.361   3.579   2.420
    1TCM    cl2  355   1.261   3.722   2.188
    1TCM     h1  356   1.280   3.485   2.216
    1TCM    cl3  357   1.084   3.547   2.337
    1TCM     c1  358   3.870   1.439   2.055
    1TCM    cl1  359   3.823   1.269   2.028
    1TCM    cl2  360   3.757   1.546   1.969
    1TCM     h1  361   3.868   1.461   2.163
    1TCM    cl3  362   4.035   1.464   1.992
    1TCM     c1  363   0.894   2.232   2.100
    1TCM    cl1  364   0.728   2.239   2.037
    1TCM    cl2  365   0.903   2.324   2.252
    1TCM     h1  366   0.922   2.126   2.119
    1TCM    cl3  367   1.006   2.303   1.982
    1TCM     c1  368   2.245   3.757   1.809
    1TCM    cl1  369   2.248   3.907   1.905
    1TCM    cl2  370   2.115   3.766   1.688
    1TCM     h1  371   2.343   3.744   1.757
    1TCM    cl3  372   2.217   3.618   1.916
    1TCM     c1  373   1.032   4.553   1.175
    1TCM    cl1  374   1.205   4.517   1.153
    1TCM    cl2  375   0.955   4.572   1.016
    1TCM     h1  376   0.984   4.469   1.230
    1TCM    cl3  377   1.014   4.703   1.269
    1TCM     c1  378   0.243   1.278   4.798
    1TCM    cl1  379   0.117   1.215   4.688
    1TCM    cl2  380   0.321   1.142   4.882
    1TCM     h1  381   0.318   1.334   4.739
    1TCM    cl3  382   0.168   1.387   4.917
    1TCM     c1  383   1.334   3.882   4.785
    1TCM    cl1  384   1.171   3.953   4.799
    1TCM    cl2  385   1.456   4.009   4.811
    1TCM     h1  386   1.347   3.803   4.862
    1TCM    cl3  387   1.354   3.812   4.623
    1TCM     c1  388   0.311   0.753   4.846
    1TCM    cl1  389   0.449   0.866   4.854
    1TCM    cl2  390   0.333   0.625   4.967
    1TCM     h1  391   0.217   0.808   4.867
    1TCM    cl3  392   0.303   0.681   4.684
    1TCM     c1  393   1.094   4.295   2.236
    1TCM    cl1  394   1.102   4.244   2.406
    1TCM    cl2  395   1.128   4.156   2.131
    1TCM     h1  396   0.992   4.333   2.214
    1TCM    cl3  397   1.213   4.423   2.206
    1TCM     c1  398   3.698   4.139   0.158
    1TCM    cl1  399   3.598   4.175   0.301
    1TCM    cl2  400   3.695   4.278   0.047
    1TCM     h1  401   3.803   4.120   0.190
    1TCM    cl3  402   3.634   3.996   0.075
    1TCM     c1  403   1.560   1.534   1.346
    1TCM    cl1  404   1.688   1.438   1.269
    1TCM    cl2  405   1.612   1.582   1.509
    1TCM     h1  406   1.539   1.624   1.286
    1TCM    cl3  407   1.412   1.436   1.358
    1TCM     c1  408   3.475   0.649   2.287
    1TCM    cl1  409   3.616   0.689   2.387
    1TCM    cl2  410   3.527   0.622   2.119
    1TCM     h1  411   3.427   0.557   2.326
    1TCM    cl3  412   3.359   0.783   2.292
    1TCM     c1  413   0.171   0.659   2.007
    1TCM    cl1  414   0.186   0.514   1.905
    1TCM    cl2  415   0.262   0.636   2.158
    1TCM     h1  416   0.213   0.747   1.952
    1TCM    cl3  417   0.000   0.688   2.044
    1TCM     c1  418   3.878   2.592   1.125
    1TCM    cl1  419   3.744   2.637   1.235
    1TCM    cl2  420   3.960   2.740   1.069
    1TCM     h1  421   3.950   2.528   1.180
    1TCM    cl3  422   3.812   2.504   0.985
    1TCM     c1  423   4.943   1.743   3.389
    1TCM    cl1  424   4.965   1.605   3.498
    1TCM    cl2  425   5.041   1.718   3.242
    1TCM     h1  426   4.836   1.752   3.361
    1TCM    cl3  427   4.996   1.892   3.471
    1TCM     c1  428   2.034   3.563   2.389
    1TCM    cl1  429   2.009   3.447   2.256
    1TCM    cl2  430   2.064   3.725   2.321
    1TCM     h1  431   1.944   3.566   2.453
    1TCM    cl3  432   2.175   3.513   2.485
    1TCM     c1  433   0.579   0.242   4.872
    1TCM    cl1  434   0.467   0.325   4.761
    1TCM    cl2  435   0.492   0.197   5.021
    1TCM     h1  436   0.618   0.150   4.823
    1TCM    cl3  437   0.713   0.351   4.913
    1TCM     c1  438   4.492   0.590   4.516
    1TCM    cl1  439   4.485   0.427   4.588
    1TCM    cl2  440   4.458   0.579   4.342
    1TCM     h1  441   4.416   0.654   4.564
    1TCM    cl3  442   4.653   0.659   4.541
    1TCM     c1  443   3.851   4.680   1.616
    1TCM    cl1  444   3.749   4.670   1.761
    1TCM    cl2  445   3.816   4.543   1.509
    1TCM     h1  446   3.830   4.775   1.562
    1TCM    cl3  447   4.022   4.676   1.664
    1TCM     c1  448   4.489   4.581   4.900
    1TCM    cl1  449   4.620   4.508   4.806
    1TCM    cl2  450   4.531   4.578   5.073
    1TCM     h1  451   4.474   4.686   4.868
    1TCM    cl3  452   4.339   4.490   4.874
    1TCM     c1  453   4.005   4.301   1.753
    1TCM    cl1  454   3.998   4.469   1.812
    1TCM    cl2  455   4.081   4.298   1.592
    1TCM     h1  456   4.065   4.240   1.824
    1TCM    cl3  457   3.841   4.234   1.743
    1TCM     c1  458   3.834   4.060   3.390
    1TCM    cl1  459   3.678   4.071   3.475
    1TCM    cl2  460   3.939   3.944   3.474
    1TCM     h1  461   3.817   4.026   3.286
    1TCM    cl3  462   3.912   4.220   3.389
    1TCM     c1  463   0.519   1.007   3.461
    1TCM    cl1  464   0.499   0.969   3.289
    1TCM    cl2  465   0.627   0.886   3.536
    1TCM     h1  466   0.563   1.108   3.472
    1TCM    cl3  467   0.361   1.002   3.542
    1TCM     c1  468   3.048   2.656   2.845
    1TCM    cl1  469   2.930   2.523   2.842
    1TCM    cl2  470   3.129   2.659   3.003
    1TCM     h1  471   3.124   2.641   2.765
    1TCM    cl3  472   2.964   2.811   2.819
    1TCM     c1  473   3.690   2.359   2.434
    1TCM    cl1  474   3.570   2.491   2.427
    1TCM    cl2  475   3.703   2.301   2.602
    1TCM     h1  476   3.657   2.276   2.368
    1TCM    cl3  477   3.848   2.419   2.379
    1TCM     c1  478   4.991   0.695   2.436
    1TCM    cl1  479   5.083   0.683   2.588
    1TCM    cl2  480   4.834   0.770   2.467
    1TCM     h1  481   5.048   0.757   2.363
    1TCM    cl3  482   4.967   0.532   2.368
    1TCM     c1  483   0.592   0.236   2.899
    1TCM    cl1  484   0.471   0.353   2.958
    1TCM    cl2  485   0.597   0.095   3.007
    1TCM     h1  486   0.564   0.203   2.797
    1TCM    cl3  487   0.752   0.313   2.894
    1TCM     c1  488   5.114   3.665   1.340
    1TCM    cl1  489   5.083   3.696   1.512
    1TCM    cl2  490   5.172   3.814   1.262
    1TCM     h1  491   5.192   3.586   1.330
    1TCM    cl3  492   4.964   3.611   1.262
    1TCM     c1  493   1.535   3.299   0.921
    1TCM    cl1  494   1.663   3.220   0.826
    1TCM    cl2  495   1.376   3.255   0.855
    1TCM     h1  496   1.542   3.266   1.027
    1TCM    cl3  497   1.556   3.475   0.913
    1TCM     c1  498   2.749   4.438   4.190
    1TCM    cl1  499   2.592   4.421   4.107
    1TCM    cl2  500   2.722   4.445   4.366
    1TCM     h1  501   2.813   4.351   4.166
    1TCM    cl3  502   2.829   4.587   4.136
    1TCM     c1  503   4.663   1.680   0.368
    1TCM    cl1  504   4.650   1.854   0.403
    1TCM    cl2  505   4.757   1.656   0.219
    1TCM     h1  506   4.714   1.629   0.453
    1TCM    cl3  507   4.500   1.611   0.348
    1TCM     c1  508   2.924   4.780   4.494
    1TCM    cl1  509   2.920   4.894   4.630
    1TCM    cl2  510   2.809   4.833   4.369
    1TCM     h1  511   3.026   4.777   4.451
    1TCM    cl3  512   2.879   4.617   4.550
    1TCM     c1  513   3.825   4.129   2.068
    1TCM    cl1  514   3.672   4.061   2.007
    1TCM    cl2  515   3.812   4.307   2.075
    1TCM     h1  516   3.845   4.090   2.170
    1TCM    cl3  517   3.958   4.083   1.960
    1TCM     c1  518   0.915   0.212   3.456
    1TCM    cl1  519   0.977   0.089   3.343
    1TCM    cl2  520   0.748   0.253   3.413
    1TCM     h1  521   0.918   0.172   3.560
    1TCM    cl3  522   1.016   0.358   3.447
    1TCM     c1  523   0.957   1.378   2.643
    1TCM    cl1  524   0.860   1.401   2.496
    1TCM    cl2  525   0.857   1.303   2.769
    1TCM     h1  526   1.044   1.313   2.621
    1TCM    cl3  527   1.016   1.536   2.701
    1TCM     c1  528   1.187   0.786   2.325
    1TCM    cl1  529   1.062   0.906   2.369
    1TCM    cl2  530   1.221   0.797   2.151
    1TCM     h1  531   1.280   0.808   2.382
    1TCM    cl3  532   1.129   0.623   2.365
    1TCM     c1  533   2.917   1.208   3.920
    1TCM    cl1  534   2.854   1.371   3.884
    1TCM    cl2  535   3.022   1.215   4.063
    1TCM     h1  536   2.832   1.139   3.939
    1TCM    cl3  537   3.011   1.149   3.781
    1TCM     c1  538   4.619   5.117   1.280
    1TCM    cl1  539   4.545   5.138   1.120
    1TCM    cl2  540   4.653   5.277   1.351
    1TCM     h1  541   4.549   5.062   1.346
    1TCM    cl3  542   4.771   5.026   1.265
    1TCM     c1  543   0.535   4.433   0.329
    1TCM    cl1  544   0.396   4.444   0.439
    1TCM    cl2  545   0.479   4.454   0.161
    1TCM     h1  546   0.608   4.513   0.354
    1TCM    cl3  547   0.613   4.274   0.347
    1TCM     c1  548   2.381   3.425   2.223
    1TCM    cl1  549   2.497   3.559   2.214
    1TCM    cl2  550   2.354   3.381   2.393
    1TCM     h1  551   2.285   3.456   2.177
    1TCM    cl3  552   2.445   3.284   2.135
    1TCM     c1  553   0.403   3.176   1.112
    1TCM    cl1  554   0.261   3.275   1.152
    1TCM    cl2  555   0.409   3.151   0.936
    1TCM     h1  556   0.495   3.229   1.144
    1TCM    cl3  557   0.392   3.019   1.194
    1TCM     c1  558   3.363   3.637   1.039
    1TCM    cl1  559   3.477   3.757   0.974
    1TCM    cl2  560   3.388   3.620   1.214
    1TCM     h1  561   3.259   3.671   1.020
    1TCM    cl3  562   3.390   3.481   0.959
    1TCM     c1  563   3.244   3.070   4.999
    1TCM    cl1  564   3.363   3.182   4.928
    1TCM    cl2  565   3.170   3.146   5.142
    1TCM     h1  566   3.166   3.048   4.924
    1TCM    cl3  567   3.326   2.920   5.047
    1TCM     c1  568   1.096   1.247   1.928
    1TCM    cl1  569   1.036   1.306   2.084
    1TCM    cl2  570   1.145   1.385   1.827
    1TCM     h1  571   1.184   1.181   1.945
    1TCM    cl3  572   0.968   1.155   1.846
    1TCM     c1  573   1.970   2.661   4.785
    1TCM    cl1  574   2.125   2.662   4.699
    1TCM    cl2  575   1.994   2.722   4.951
    1TCM     h1  576   1.897   2.725   4.732
    1TCM    cl3  577   1.908   2.494   4.792
    1TCM     c1  578   2.233   4.100   4.122
    1TCM    cl1  579   2.361   4.012   4.209
    1TCM    cl2  580   2.108   4.152   4.237
    1TCM     h1  581   2.277   4.189   4.072
    1TCM    cl3  582   2.161   3.994   3.999
    1TCM     c1  583   0.797   0.347   0.171
    1TCM    cl1  584   0.763   0.312  -0.000
    1TCM    cl2  585   0.958   0.284   0.214
    1TCM     h1  586   0.794   0.456   0.188
    1TCM    cl3  587   0.674   0.268   0.273
    1TCM     c1  588   1.130   0.621   2.965
    1TCM    cl1  589   1.169   0.691   2.806
    1TCM    cl2  590   1.224   0.703   3.091
    1TCM     h1  591   1.021   0.633   2.985
    1TCM    cl3  592   1.170   0.447   2.965
    1TCM     c1  593   4.490   3.264   3.306
    1TCM    cl1  594   4.623   3.379   3.276
    1TCM    cl2  595   4.515   3.185   3.464
    1TCM     h1  596   4.394   3.318   3.307
    1TCM    cl3  597   4.488   3.140   3.179
    1TCM     c1  598   3.235   4.825   5.235
    1TCM    cl1  599   3.364   4.762   5.339
    1TCM    cl2  600   3.145   4.951   5.322
    1TCM     h1  601   3.280   4.868   5.143
    1TCM    cl3  602   3.125   4.693   5.190
    1TCM     c1  603   1.777   0.108   3.608
    1TCM    cl1  604   1.720   0.184   3.458
    1TCM    cl2  605   1.790   0.232   3.736
    1TCM     h1  606   1.705   0.030   3.640
    1TCM    cl3  607   1.937   0.035   3.581
    1TCM     c1  608   1.028   0.789   4.069
    1TCM    cl1  609   1.161   0.735   4.174
    1TCM    cl2  610   0.891   0.843   4.170
    1TCM     h1  611   1.062   0.873   4.006
    1TCM    cl3  612   0.975   0.654   3.966
    1TCM     c1  613   2.055   5.138   2.409
    1TCM    cl1  614   1.962   5.061   2.278
    1TCM    cl2  615   1.943   5.200   2.532
    1TCM     h1  616   2.123   5.064   2.455
    1TCM    cl3  617   2.150   5.273   2.342
    1TCM     c1  618   1.220   1.283   2.376
    1TCM    cl1  619   1.237   1.115   2.318
    1TCM    cl2  620   1.271   1.290   2.547
    1TCM     h1  621   1.285   1.349   2.316
    1TCM    cl3  622   1.051   1.334   2.362
    1TCM     c1  623   1.627   1.642   0.179
    1TCM    cl1  624   1.508   1.719   0.286
    1TCM    cl2  625   1.600   1.696   0.012
    1TCM     h1  626   1.729   1.670   0.211
    1TCM    cl3  627   1.608   1.465   0.188
    1TCM     c1  628   4.231   3.109   2.489
    1TCM    cl1  629   4.288   2.974   2.387
    1TCM    cl2  630   4.071   3.162   2.431
    1TCM     h1  631   4.223   3.075   2.594
    1TCM    cl3  632   4.346   3.244   2.478
    1TCM     c1  633   2.889   4.787   1.408
    1TCM    cl1  634   2.788   4.800   1.262
    1TCM    cl2  635   3.051   4.853   1.374
    1TCM     h1  636   2.842   4.845   1.490
    1TCM    cl3  637   2.903   4.617   1.456
    1TCM     c1  638   4.321   2.467   3.325
    1TCM    cl1  639   4.490   2.522   3.317
    1TCM    cl2  640   4.245   2.530   3.472
    1TCM     h1  641   4.266   2.503   3.236
    1TCM    cl3  642   4.318   2.289   3.328
    1TCM     c1  643   4.330   0.797   3.662
    1TCM    cl1  644   4.176   0.885   3.680
    1TCM    cl2  645   4.321   0.693   3.518
    1TCM     h1  646   4.413   0.870   3.649
    1TCM    cl3  647   4.359   0.698   3.806
    1TCM     c1  648   4.252   1.018   3.365
    1TCM    cl1  649   4.316   1.157   3.455
    1TCM    cl2  650   4.134   0.932   3.465
    1TCM     h1  651   4.203   1.054   3.272
    1TCM    cl3  652   4.385   0.908   3.323
    1TCM     c1  653   2.138   0.278   3.303
    1TCM    cl1  654   2.064   0.228   3.456
    1TCM    cl2  655   2.057   0.195   3.168
    1TCM     h1  656   2.127   0.388   3.290
    1TCM    cl3  657   2.311   0.236   3.303
    1TCM     c1  658   0.534   4.473   3.665
    1TCM    cl1  659   0.423   4.536   3.541
    1TCM    cl2  660   0.441   4.391   3.792
    1TCM     h1  661   0.605   4.401   3.618
    1TCM    cl3  662   0.626   4.608   3.737
    1TCM     c1  663   0.276   1.932   4.810
    1TCM    cl1  664   0.236   2.104   4.829
    1TCM    cl2  665   0.390   1.913   4.674
    1TCM     h1  666   0.323   1.894   4.903
    1TCM    cl3  667   0.128   1.840   4.776
    1TCM     c1  668   1.080   5.146   5.215
    1TCM    cl1  669   1.027   5.303   5.280
    1TCM    cl2  670   0.983   5.016   5.288
    1TCM     h1  671   1.066   5.146   5.105
    1TCM    cl3  672   1.252   5.121   5.254
    1TCM     c1  673   0.857   2.182   1.206
    1TCM    cl1  674   0.736   2.232   1.326
    1TCM    cl2  675   0.774   2.125   1.059
    1TCM     h1  676   0.922   2.269   1.180
    1TCM    cl3  677   0.957   2.052   1.273
    1TCM     c1  678   4.827   1.653   2.365
    1TCM    cl1  679   4.974   1.620   2.459
    1TCM    cl2  680   4.853   1.604   2.195
    1TCM     h1  681   4.742   1.596   2.407
    1TCM    cl3  682   4.791   1.827   2.371
    1TCM     c1  683   2.938   1.345   2.590
    1TCM    cl1  684   2.862   1.192   2.541
    1TCM    cl2  685   3.034   1.319   2.737
    1TCM     h1  686   3.004   1.381   2.509
    1TCM    cl3  687   2.812   1.467   2.622
    1TCM     c1  688   3.190   0.530   2.628
    1TCM    cl1  689   3.193   0.708   2.634
    1TCM    cl2  690   3.249   0.464   2.782
    1TCM     h1  691   3.086   0.495   2.610
    1TCM    cl3  692   3.295   0.474   2.496
    1TCM     c1  693   2.408   4.709   1.067
    1TCM    cl1  694   2.276   4.603   1.123
    1TCM    cl2  695   2.356   4.795   0.920
    1TCM     h1  696   2.432   4.784   1.146
    1TCM    cl3  697   2.552   4.612   1.031
    1TCM     c1  698   0.569   3.437   4.083
    1TCM    cl1  699   0.443   3.441   4.209
    1TCM    cl2  700   0.570   3.592   3.996
    1TCM     h1  701   0.668   3.421   4.131
    1TCM    cl3  702   0.535   3.305   3.969
    1TCM     c1  703   2.534   0.060   1.778
    1TCM    cl1  704   2.674   0.037   1.885
    1TCM    cl2  705   2.574   0.001   1.615
    1TCM     h1  706   2.448   0.002   1.818
    1TCM    cl3  707   2.493   0.232   1.770
    1TCM     c1  708   2.669   4.946   3.690
    1TCM    cl1  709   2.531   4.954   3.803
    1TCM    cl2  710   2.622   5.017   3.534
    1TCM     h1  711   2.754   5.002   3.733
    1TCM    cl3  712   2.715   4.776   3.666
    1TCM     c1  713   3.619   3.590   4.843
    1TCM    cl1  714   3.530   3.530   4.984
    1TCM    cl2  715   3.699   3.454   4.761
    1TCM     h1  716   3.549   3.640   4.773
    1TCM    cl3  717   3.742   3.707   4.896
    1TCM     c1  718   1.775   0.296   4.687
    1TCM    cl1  719   1.862   0.155   4.753
    1TCM    cl2  720   1.600   0.273   4.709
    1TCM     h1  721   1.808   0.388   4.741
    1TCM    cl3  722   1.811   0.312   4.514
    1TCM     c1  723   3.428   3.777   1.901
    1TCM    cl1  724   3.310   3.904   1.941
    1TCM    cl2  725   3.529   3.832   1.765
    1TCM     h1  726   3.492   3.757   1.989
    1TCM    cl3  727   3.341   3.629   1.854
    1TCM     c1  728   0.100   2.856   2.276
    1TCM    cl1  729  -0.002   2.967   2.370
    1TCM    cl2  730  -0.001   2.733   2.197
    1TCM     h1  731   0.156   2.913   2.200
    1TCM    cl3  732   0.215   2.775   2.386
    1TCM     c1  733   1.883   0.953   3.524
    1TCM    cl1  734   2.005   0.825   3.504
    1TCM    cl2  735   1.920   1.047   3.671
    1TCM     h1  736   1.884   1.020   3.436
    1TCM    cl3  737   1.722   0.879   3.540
    1TCM     c1  738   1.443   4.579   3.681
    1TCM    cl1  739   1.402   4.427   3.764
    1TCM    cl2  740   1.368   4.580   3.520
    1TCM     h1  741   1.405   4.665   3.740
    1TCM    cl3  742   1.620   4.592   3.664
    1TCM     c1  743   1.328   3.233   3.551
    1TCM    cl1  744   1.258   3.167   3.402
    1TCM    cl2  745   1.301   3.118   3.684
    1TCM     h1  746   1.437   3.247   3.537
    1TCM    cl3  747   1.252   3.388   3.590
    1TCM     c1  748   4.870   2.353   2.494
    1TCM    cl1  749   4.727   2.458   2.509
    1TCM    cl2  750   4.904   2.323   2.322
    1TCM     h1  751   4.957   2.402   2.541
    1TCM    cl3  752   4.838   2.198   2.576
    1TCM     c1  753   2.373   1.388   1.865
    1TCM    cl1  754   2.357   1.521   1.983
    1TCM    cl2  755   2.497   1.431   1.745
    1TCM     h1  756   2.403   1.296   1.918
    1TCM    cl3  757   2.217   1.363   1.784
    1TCM     c1  758   1.328   0.169   3.707
    1TCM    cl1  759   1.257   0.260   3.572
    1TCM    cl2  760   1.216   0.172   3.845
    1TCM     h1  761   1.346   0.064   3.676
    1TCM    cl3  762   1.482   0.244   3.754
    1TCM     c1  763   4.333   3.798   2.772
    1TCM    cl1  764   4.219   3.755   2.901
    1TCM    cl2  765   4.371   3.972   2.783
    1TCM     h1  766   4.426   3.739   2.784
    1TCM    cl3  767   4.259   3.763   2.614
    1TCM     c1  768   4.449   1.314   4.031
    1TCM    cl1  769   4.272   1.293   4.034
    1TCM    cl2  770   4.522   1.196   3.920
    1TCM     h1  771   4.473   1.417   3.997
    1TCM    cl3  772   4.513   1.289   4.195
    1TCM     c1  773   3.856   2.016   2.600
    1TCM    cl1  774   3.981   2.001   2.474
    1TCM    cl2  775   3.929   2.085   2.747
    1TCM     h1  776   3.775   2.083   2.564
    1TCM    cl3  777   3.790   1.855   2.637
    1TCM     c1  778   4.957   4.072   3.348
    1TCM    cl1  779   5.129   4.101   3.313
    1TCM    cl2  780   4.898   4.193   3.463
    1TCM     h1  781   4.899   4.079   3.254
    1TCM    cl3  782   4.938   3.909   3.418
    1TCM     c1  783   0.448   1.853   0.559
    1TCM    cl1  784   0.288   1.867   0.634
    1TCM    cl2  785   0.502   1.684   0.563
    1TCM     h1  786   0.442   1.888   0.454
    1TCM    cl3  787   0.564   1.954   0.648
    1TCM     c1  788   3.662   1.795   3.582
    1TCM    cl1  789   3.516   1.743   3.669
    1TCM    cl2  790   3.622   1.822   3.411
    1TCM     h1  791   3.700   1.889   3.626
    1TCM    cl3  792   3.786   1.668   3.595
    1TCM     c1  793   1.432   2.443   3.016
    1TCM    cl1  794   1.393   2.355   3.165
    1TCM    cl2  795   1.413   2.618   3.043
    1TCM     h1  796   1.536   2.421   2.986
    1TCM    cl3  797   1.321   2.392   2.886
    1TCM     c1  798   0.319   3.064   0.174
    1TCM    cl1  799   0.180   2.985   0.254
    1TCM    cl2  800   0.275   3.106   0.007
    1TCM     h1  801   0.346   3.155   0.230
    1TCM    cl3  802   0.457   2.952   0.172
    1TCM     c1  803   0.837   4.651   5.018
    1TCM    cl1  804   0.772   4.620   4.856
    1TCM    cl2  805   0.811   4.508   5.120
    1TCM     h1  806   0.946   4.672   5.011
    1TCM    cl3  807   0.754   4.791   5.090
    1TCM     c1  808   4.686   4.853   0.171
    1TCM    cl1  809   4.648   5.003   0.084
    1TCM    cl2  810   4.698   4.887   0.345
    1TCM     h1  811   4.605   4.778   0.154
    1TCM    cl3  812   4.840   4.788   0.113
    1TCM     c1  813   0.756   1.526   0.722
    1TCM    cl1  814   0.673   1.385   0.791
    1TCM    cl2  815   0.857   1.474   0.585
    1TCM     h1  816   0.681   1.599   0.687
    1TCM    cl3  817   0.859   1.600   0.846
    1TCM     c1  818   2.374   0.427   3.566
    1TCM    cl1  819   2.441   0.590   3.589
    1TCM    cl2  820   2.369   0.343   3.723
    1TCM     h1  821   2.271   0.434   3.525
    1TCM    cl3  822   2.477   0.335   3.454
    1TCM     c1  823   0.592   1.456   3.418
    1TCM    cl1  824   0.762   1.432   3.463
    1TCM    cl2  825   0.567   1.626   3.371
    1TCM     h1  826   0.567   1.390   3.332
    1TCM    cl3  827   0.487   1.417   3.556
    1TCM     c1  828   0.317   4.465   5.048
    1TCM    cl1  829   0.343   4.633   5.100
    1TCM    cl2  830   0.473   4.393   5.001
    1TCM     h1  831   0.273   4.407   5.131
    1TCM    cl3  832   0.207   4.463   4.908
    1TCM     c1  833   4.302   1.418   2.212
    1TCM    cl1  834   4.392   1.549   2.292
    1TCM    cl2  835   4.339   1.418   2.039
    1TCM     h1  836   4.331   1.321   2.257
    1TCM    cl3  837   4.127   1.444   2.236
    1TCM     c1  838   1.496   0.668   1.796
    1TCM    cl1  839   1.587   0.520   1.759
    1TCM    cl2  840   1.504   0.701   1.971
    1TCM     h1  841   1.540   0.754   1.740
    1TCM    cl3  842   1.326   0.648   1.747
    1TCM     c1  843   0.127   5.147   3.486
    1TCM    cl1  844   0.235   5.288   3.482
    1TCM    cl2  845   0.026   5.155   3.632
    1TCM     h1  846   0.063   5.147   3.396
    1TCM    cl3  847   0.225   4.998   3.490
    1TCM     c1  848   2.042   1.827   3.536
    1TCM    cl1  849   2.089   1.713   3.664
    1TCM    cl2  850   1.997   1.735   3.389
    1TCM     h1  851   1.955   1.887   3.570
    1TCM    cl3  852   2.178   1.935   3.499
    1TCM     c1  853   2.657   3.595   3.833
    1TCM    cl1  854   2.481   3.575   3.853
    1TCM    cl2  855   2.741   3.467   3.923
    1TCM     h1  856   2.683   3.587   3.726
    1TCM    cl3  857   2.706   3.754   3.896
    1TCM     c1  858   0.853   1.392   3.725
    1TCM    cl1  859   1.028   1.368   3.705
    1TCM    cl2  860   0.809   1.366   3.895
    1TCM     h1  861   0.827   1.496   3.696
    1TCM    cl3  862   0.765   1.277   3.623
    1TCM     c1  863   0.794   4.434   1.958
    1TCM    cl1  864   0.712   4.384   1.808
    1TCM    cl2  865   0.687   4.405   2.097
    1TCM     h1  866   0.888   4.376   1.970
    1TCM    cl3  867   0.834   4.607   1.948
    1TCM     c1  868   3.762   4.147   2.614
    1TCM    cl1  869   3.784   4.046   2.470
    1TCM    cl2  870   3.589   4.182   2.635
    1TCM     h1  871   3.800   4.093   2.703
    1TCM    cl3  872   3.852   4.299   2.595
    1TCM     c1  873   0.730   2.541   3.572
    1TCM    cl1  874   0.749   2.521   3.396
    1TCM    cl2  875   0.639   2.404   3.638
    1TCM     h1  876   0.831   2.545   3.619
    1TCM    cl3  877   0.643   2.693   3.605
    1TCM     c1  878   1.758   3.823   1.735
    1TCM    cl1  879   1.883   3.937   1.679
    1TCM    cl2  880   1.818   3.734   1.876
    1TCM     h1  881   1.667   3.880   1.763
    1TCM    cl3  882   1.719   3.709   1.604
    1TCM     c1  883   1.618   1.503   2.602
    1TCM    cl1  884   1.707   1.368   2.527
    1TCM    cl2  885   1.725   1.590   2.713
    1TCM     h1  886   1.583   1.572   2.523
    1TCM    cl3  887   1.478   1.439   2.691
    1TCM     c1  888   3.954   0.137   4.040
    1TCM    cl1  889   3.845   0.058   4.156
    1TCM    cl2  890   3.895   0.108   3.875
    1TCM     h1  891   3.957   0.246   4.060
    1TCM    cl3  892   4.118   0.069   4.057
    1TCM     c1  893   0.158   4.559   4.589
    1TCM    cl1  894   0.279   4.554   4.459
    1TCM    cl2  895   0.237   4.609   4.741
    1TCM     h1  896   0.079   4.631   4.563
    1TCM    cl3  897   0.087   4.397   4.610
    1TCM     c1  898   1.174   1.752   0.741
    1TCM    cl1  899   1.039   1.759   0.625
    1TCM    cl2  900   1.126   1.655   0.882
    1TCM     h1  901   1.262   1.706   0.692
    1TCM    cl3  902   1.215   1.917   0.794
    1TCM     c1  903   2.710   2.794   0.417
    1TCM    cl1  904   2.717   2.942   0.320
    1TCM    cl2  905   2.701   2.652   0.310
    1TCM     h1  906   2.801   2.787   0.480
    1TCM    cl3  907   2.566   2.798   0.522
    1TCM     c1  908   3.669   1.390   3.453
    1TCM    cl1  909   3.504   1.436   3.405
    1TCM    cl2  910   3.720   1.247   3.360
    1TCM     h1  911   3.739   1.474   3.432
    1TCM    cl3  912   3.671   1.352   3.626
    1TCM     c1  913   3.500   0.328   1.959
    1TCM    cl1  914   3.355   0.239   1.908
    1TCM    cl2  915   3.588   0.386   1.815
    1TCM     h1  916   3.471   0.415   2.022
    1TCM    cl3  917   3.606   0.220   2.053
    1TCM     c1  918   4.137   2.672   1.522
    1TCM    cl1  919   4.129   2.812   1.631
    1TCM    cl2  920   4.249   2.706   1.388
    1TCM     h1  921   4.173   2.583   1.579
    1TCM    cl3  922   3.975   2.638   1.457
    1TCM     c1  923   2.976   4.250   2.641
    1TCM    cl1  924   2.937   4.344   2.786
    1TCM    cl2  925   2.952   4.076   2.674
    1TCM     h1  926   2.909   4.281   2.557
    1TCM    cl3  927   3.145   4.278   2.595
    1TCM     c1  928   4.460   1.112   2.764
    1TCM    cl1  929   4.349   0.991   2.696
    1TCM    cl2  930   4.493   1.073   2.934
    1TCM     h1  931   4.555   1.112   2.707
    1TCM    cl3  932   4.385   1.273   2.754
    1TCM     c1  933   0.998   2.055   5.044
    1TCM    cl1  934   1.045   2.207   5.124
    1TCM    cl2  935   0.949   1.936   5.168
    1TCM     h1  936   0.912   2.074   4.976
    1TCM    cl3  937   1.135   1.991   4.952
    1TCM     c1  938   2.277   4.643   4.631
    1TCM    cl1  939   2.255   4.778   4.517
    1TCM    cl2  940   2.217   4.690   4.792
    1TCM     h1  941   2.220   4.555   4.595
    1TCM    cl3  942   2.449   4.602   4.642
    1TCM     c1  943   2.328   5.189   5.063
    1TCM    cl1  944   2.353   5.118   4.903
    1TCM    cl2  945   2.288   5.060   5.179
    1TCM     h1  946   2.420   5.241   5.096
    1TCM    cl3  947   2.194   5.306   5.056
    1TCM     c1  948   2.007   1.278   3.027
    1TCM    cl1  949   1.992   1.440   3.099
    1TCM    cl2  950   2.175   1.253   2.972
    1TCM     h1  951   1.981   1.201   3.102
    1TCM    cl3  952   1.897   1.265   2.888
    1TCM     c1  953   1.923   2.222   5.145
    1TCM    cl1  954   2.025   2.271   5.283
    1TCM    cl2  955   1.907   2.045   5.144
    1TCM     h1  956   1.823   2.268   5.155
    1TCM    cl3  957   1.999   2.276   4.994
    1TCM     c1  958   2.291   1.877   1.673
    1TCM    cl1  959   2.175   1.995   1.736
    1TCM    cl2  960   2.359   1.936   1.520
    1TCM     h1  961   2.373   1.862   1.746
    1TCM    cl3  962   2.208   1.722   1.645
    1TCM     c1  963   2.679   2.643   0.873
    1TCM    cl1  964   2.837   2.683   0.943
    1TCM    cl2  965   2.700   2.596   0.702
    1TCM     h1  966   2.634   2.559   0.929
    1TCM    cl3  967   2.572   2.785   0.882
    1TCM     c1  968   3.055   1.869   1.995
    1TCM    cl1  969   3.128   1.756   2.112
    1TCM    cl2  970   3.183   1.963   1.916
    1TCM     h1  971   2.998   1.812   1.919
    1TCM    cl3  972   2.944   1.979   2.081
    1TCM     c1  973   4.666   4.643   2.705
    1TCM    cl1  974   4.531   4.724   2.788
    1TCM    cl2  975   4.666   4.690   2.533
    1TCM     h1  976   4.761   4.673   2.752
    1TCM    cl3  977   4.646   4.467   2.718
    1TCM     c1  978   3.251   0.404   4.843
    1TCM    cl1  979   3.158   0.306   4.959
    1TCM    cl2  980   3.195   0.369   4.677
    1TCM     h1  981   3.236   0.512   4.864
    1TCM    cl3  982   3.423   0.363   4.856
    1TCM     c1  983   3.970   3.984   4.126
    1TCM    cl1  984   4.117   4.016   4.219
    1TCM    cl2  985   3.909   4.136   4.057
    1TCM     h1  986   3.993   3.913   4.043
    1TCM    cl3  987   3.846   3.913   4.232
    1TCM     c1  988   2.045   1.401   2.619
    1TCM    cl1  989   2.114   1.240   2.649
    1TCM    cl2  990   2.172   1.524   2.636
    1TCM     h1  991   2.003   1.405   2.516
    1TCM    cl3  992   1.915   1.434   2.737
    1TCM     c1  993   2.674   0.473   0.140
    1TCM    cl1  994   2.513   0.540   0.108
    1TCM    cl2  995   2.709   0.484   0.314
    1TCM     h1  996   2.678   0.367   0.108
    1TCM    cl3  997   2.796   0.566   0.050
    1TCM     c1  998   2.422   2.932   2.034
    1TCM    cl1  999   2.570   2.834   2.016
    1TCM    cl2 1000   2.409   2.987   2.203
    1TCM     h1 1001   2.427   3.020   1.967
    1TCM    cl3 1002   2.280   2.833   1.993
    1TCM     c1 1003   1.096   4.932   1.605
    1TCM    cl1 1004   1.001   5.041   1.708
    1TCM    cl2 1005   1.094   4.992   1.437
    1TCM     h1 1006   1.201   4.928   1.641
    1TCM    cl3 1007   1.025   4.769   1.610
    1TCM     c1 1008   4.235   2.311   4.423
    1TCM    cl1 1009   4.333   2.447   4.484
    1TCM    cl2 1010   4.343   2.179   4.372
    1TCM     h1 1011   4.168   2.274   4.503
    1TCM    cl3 1012   4.138   2.365   4.284
    1TCM     c1 1013   1.910   5.080   5.180
    1TCM    cl1 1014   1.767   5.167   5.239
    1TCM    cl2 1015   1.859   4.925   5.107
    1TCM     h1 1016   1.962   5.141   5.103
    1TCM    cl3 1017   2.021   5.048   5.315
    1TCM     c1 1018   3.494   3.875   0.526
    1TCM    cl1 1019   3.506   3.961   0.371
    1TCM    cl2 1020   3.492   3.992   0.659
    1TCM     h1 1021   3.401   3.814   0.528
    1TCM    cl3 1022   3.635   3.767   0.544
    1TCM     c1 1023   4.662   0.990   1.072
    1TCM    cl1 1024   4.580   0.860   0.983
    1TCM    cl2 1025   4.745   0.922   1.214
    1TCM     h1 1026   4.737   1.039   1.006
    1TCM    cl3 1027   4.543   1.111   1.125
    1TCM     c1 1028   4.232   1.839   1.963
    1TCM    cl1 1029   4.246   1.911   2.125
    1TCM    cl2 1030   4.124   1.939   1.863
    1TCM     h1 1031   4.333   1.834   1.915
    1TCM    cl3 1032   4.165   1.675   1.976
    1TCM     c1 1033   4.119   1.728   0.139
    1TCM    cl1 1034   4.237   1.764   0.011
    1TCM    cl2 1035   4.067   1.879   0.216
    1TCM     h1 1036   4.031   1.677   0.094
    1TCM    cl3 1037   4.193   1.622   0.261
    1TCM     c1 1038   4.002   3.255   4.815
    1TCM    cl1 1039   4.062   3.095   4.864
    1TCM    cl2 1040   3.825   3.259   4.830
    1TCM     h1 1041   4.047   3.333   4.880
    1TCM    cl3 1042   4.048   3.286   4.646
    1TCM     c1 1043   1.226   0.526   3.845
    1TCM    cl1 1044   1.158   0.646   3.733
    1TCM    cl2 1045   1.201   0.581   4.012
    1TCM     h1 1046   1.175   0.428   3.831
    1TCM    cl3 1047   1.400   0.507   3.814
    1TCM     c1 1048   3.583   0.356   1.428
    1TCM    cl1 1049   3.556   0.189   1.482
    1TCM    cl2 1050   3.688   0.441   1.544
    1TCM     h1 1051   3.631   0.356   1.328
    1TCM    cl3 1052   3.427   0.441   1.417
    1TCM     c1 1053   1.280   0.235   4.228
    1TCM    cl1 1054   1.229   0.303   4.385
    1TCM    cl2 1055   1.244   0.352   4.099
    1TCM     h1 1056   1.388   0.214   4.230
    1TCM    cl3 1057   1.191   0.084   4.197
    1TCM     c1 1058   2.241   1.116   4.225
    1TCM    cl1 1059   2.345   1.147   4.366
    1TCM    cl2 1060   2.130   0.982   4.262
    1TCM     h1 1061   2.182   1.207   4.201
    1TCM    cl3 1062   2.342   1.072   4.085
    1TCM     c1 1063   3.322   0.790   0.418
    1TCM    cl1 1064   3.379   0.814   0.251
    1TCM    cl2 1065   3.150   0.831   0.428
    1TCM     h1 1066   3.337   0.684   0.447
    1TCM    cl3 1067   3.415   0.895   0.527
    1TCM     c1 1068   1.643   2.285   2.763
    1TCM    cl1 1069   1.490   2.220   2.827
    1TCM    cl2 1070   1.651   2.256   2.588
    1TCM     h1 1071   1.648   2.394   2.783
    1TCM    cl3 1072   1.780   2.204   2.843
    1TCM     c1 1073   4.962   4.022   4.670
    1TCM    cl1 1074   5.115   4.107   4.703
    1TCM    cl2 1075   4.966   3.862   4.747
    1TCM     h1 1076   4.878   4.081   4.712
    1TCM    cl3 1077   4.941   4.004   4.495
    1TCM     c1 1078   0.866   0.969   2.741
    1TCM    cl1 1079   0.831   1.102   2.855
    1TCM    cl2 1080   0.959   0.843   2.825
    1TCM     h1 1081   0.771   0.926   2.704
    1TCM    cl3 1082   0.961   1.032   2.605
    1TCM     c1 1083   4.713   0.977   3.663
    1TCM    cl1 1084   4.793   0.859   3.557
    1TCM    cl2 1085   4.618   1.091   3.565
    1TCM     h1 1086   4.646   0.924   3.733
    1TCM    cl3 1087   4.836   1.067   3.755
    1TCM     c1 1088   5.101   4.829   0.655
    1TCM    cl1 1089   4.974   4.952   0.640
    1TCM    cl2 1090   5.060   4.689   0.554
    1TCM     h1 1091   5.198   4.872   0.621
    1TCM    cl3 1092   5.115   4.778   0.824
    1TCM     c1 1093   0.719   3.342   0.366
    1TCM    cl1 1094   0.786   3.467   0.474
    1TCM    cl2 1095   0.777   3.371   0.200
    1TCM     h1 1096   0.753   3.242   0.400
    1TCM    cl3 1097   0.542   3.350   0.369
    1TCM     c1 1098   1.226   2.448   4.730
    1TCM    cl1 1099   1.336   2.355   4.835
    1TCM    cl2 1100   1.265   2.416   4.560
    1TCM     h1 1101   1.121   2.418   4.750
    1TCM    cl3 1102   1.246   2.622   4.764
    1TCM     c1 1103   1.607   4.111   0.106
    1TCM    cl1 1104   1.714   4.225   0.190
    1TCM    cl2 1105   1.447   4.112   0.184
    1TCM     h1 1106   1.596   4.142  -0.000
    1TCM    cl3 1107   1.675   3.947   0.113
    1TCM     c1 1108   0.697   3.250   0.758
    1TCM    cl1 1109   0.627   3.130   0.869
    1TCM    cl2 1110   0.748   3.170   0.608
    1TCM     h1 1111   0.621   3.328   0.735
    1TCM    cl3 1112   0.838   3.327   0.835
    1TCM     c1 1113   4.256   1.647   2.609
    1TCM    cl1 1114   4.170   1.554   2.734
    1TCM    cl2 1115   4.201   1.595   2.448
    1TCM     h1 1116   4.235   1.755   2.622
    1TCM    cl3 1117   4.431   1.619   2.624
    1TCM     c1 1118   2.086   0.619   4.399
    1TCM    cl1 1119   2.049   0.766   4.306
    1TCM    cl2 1120   2.032   0.640   4.567
    1TCM     h1 1121   2.033   0.532   4.354
    1TCM    cl3 1122   2.262   0.590   4.397
    1TCM     c1 1123   0.444   0.142   2.578
    1TCM    cl1 1124   0.346   0.161   2.430
    1TCM    cl2 1125   0.338   0.152   2.720
    1TCM     h1 1126   0.495   0.044   2.576
    1TCM    cl3 1127   0.565   0.272   2.585
    1TCM     c1 1128   1.858   4.571   4.430
    1TCM    cl1 1129   1.908   4.426   4.519
    1TCM    cl2 1130   1.994   4.685   4.421
    1TCM     h1 1131   1.827   4.543   4.327
    1TCM    cl3 1132   1.722   4.648   4.514
    1TCM     c1 1133   4.244   4.683   1.515
    1TCM    cl1 1134   4.372   4.750   1.411
    1TCM    cl2 1135   4.266   4.744   1.681
    1TCM     h1 1136   4.145   4.715   1.477
    1TCM    cl3 1137   4.254   4.506   1.515
    1TCM     c1 1138   1.082   2.608   0.533
    1TCM    cl1 1139   0.905   2.607   0.527
    1TCM    cl2 1140   1.144   2.446   0.494
    1TCM     h1 1141   1.121   2.681   0.458
    1TCM    cl3 1142   1.137   2.655   0.695
    1TCM     c1 1143   1.364   0.995   4.248
    1TCM    cl1 1144   1.492   1.010   4.371
    1TCM    cl2 1145   1.386   1.122   4.126
    1TCM     h1 1146   1.370   0.896   4.200
    1TCM    cl3 1147   1.206   1.014   4.326
    1TCM     c1 1148   1.897   1.539   0.890
    1TCM    cl1 1149   1.851   1.420   1.014
    1TCM    cl2 1150   1.808   1.505   0.740
    1TCM     h1 1151   1.872   1.641   0.925
    1TCM    cl3 1152   2.072   1.528   0.858
    1TCM     c1 1153   1.263   4.603   1.447
    1TCM    cl1 1154   1.368   4.700   1.341
    1TCM    cl2 1155   1.262   4.673   1.610
    1TCM     h1 1156   1.160   4.603   1.406
    1TCM    cl3 1157   1.323   4.436   1.454
    1TCM     c1 1158   5.097   2.770   2.628
    1TCM    cl1 1159   4.934   2.708   2.660
    1TCM    cl2 1160   5.109   2.819   2.457
    1TCM     h1 1161   5.116   2.858   2.693
    1TCM    cl3 1162   5.217   2.643   2.662
    1TCM     c1 1163   0.921   2.459   0.232
    1TCM    cl1 1164   1.091   2.409   0.243
    1TCM    cl2 1165   0.870   2.457   0.062
    1TCM     h1 1166   0.858   2.388   0.290
    1TCM    cl3 1167   0.903   2.623   0.298
    1TCM     c1 1168   3.657   4.776   3.349
    1TCM    cl1 1169   3.531   4.754   3.225
    1TCM    cl2 1170   3.599   4.888   3.474
    1TCM     h1 1171   3.681   4.678   3.395
    1TCM    cl3 1172   3.803   4.843   3.273
    1TCM     c1 1173   2.157   1.039   2.411
    1TCM    cl1 1174   2.147   0.938   2.265
    1TCM    cl2 1175   2.146   0.936   2.555
    1TCM     h1 1176   2.253   1.094   2.411
    1TCM    cl3 1177   2.022   1.156   2.411
    1TCM     c1 1178   0.691   4.575   4.491
    1TCM    cl1 1179   0.861   4.611   4.455
    1TCM    cl2 1180   0.595   4.724   4.482
    1TCM     h1 1181   0.653   4.501   4.417
    1TCM    cl3 1182   0.678   4.506   4.655
    1TCM     c1 1183   2.055   4.860   3.924
    1TCM    cl1 1184   2.005   4.813   4.088
    1TCM    cl2 1185   1.926   4.816   3.809
    1TCM     h1 1186   2.072   4.970   3.920
    1TCM    cl3 1187   2.205   4.775   3.881
    1TCM     c1 1188   1.210   0.285   1.252
    1TCM    cl1 1189   1.355   0.383   1.284
    1TCM    cl2 1190   1.154   0.314   1.085
    1TCM     h1 1191   1.235   0.177   1.264
    1TCM    cl3 1192   1.081   0.329   1.366
    1TCM     c1 1193   2.554   3.105   1.093
    1TCM    cl1 1194   2.692   2.993   1.101
    1TCM    cl2 1195   2.476   3.114   1.252
    1TCM     h1 1196   2.590   3.206   1.063
    1TCM    cl3 1197   2.437   3.046   0.973
    1TCM     c1 1198   1.015   3.614   1.106
    1TCM    cl1 1199   0.851   3.662   1.158
    1TCM    cl2 1200   1.135   3.722   1.180
    1TCM     h1 1201   1.034   3.510   1.138
    1TCM    cl3 1202   1.026   3.625   0.929
    1TCM     c1 1203   3.765   2.387   2.049
    1TCM    cl1 1204   3.824   2.460   1.898
    1TCM    cl2 1205   3.678   2.236   2.012
    1TCM     h1 1206   3.852   2.364   2.116
    1TCM    cl3 1207   3.656   2.500   2.132
    1TCM     c1 1208   2.726   2.467   1.264
    1TCM    cl1 1209   2.811   2.604   1.188
    1TCM    cl2 1210   2.845   2.343   1.311
    1TCM     h1 1211   2.671   2.502   1.354
    1TCM    cl3 1212   2.611   2.397   1.148
    1TCM     c1 1213   2.745   3.493   4.294
    1TCM    cl1 1214   2.651   3.487   4.144
    1TCM    cl2 1215   2.753   3.660   4.353
    1TCM     h1 1216   2.697   3.429   4.371
    1TCM    cl3 1217   2.910   3.434   4.262
    1TCM     c1 1218   1.153   2.839   4.166
    1TCM    cl1 1219   1.245   2.975   4.099
    1TCM    cl2 1220   1.256   2.694   4.170
    1TCM     h1 1221   1.119   2.863   4.268
    1TCM    cl3 1222   1.011   2.807   4.063
    1TCM     c1 1223   1.529   2.981   3.474
    1TCM    cl1 1224   1.607   3.025   3.627
    1TCM    cl2 1225   1.360   2.934   3.504
    1TCM     h1 1226   1.532   3.067   3.404
    1TCM    cl3 1227   1.616   2.844   3.400
    1TCM     c1 1228   3.789   4.797   3.972
    1TCM    cl1 1229   3.781   4.624   4.016
    1TCM    cl2 1230   3.664   4.833   3.852
    1TCM     h1 1231   3.773   4.859   4.063
    1TCM    cl3 1232   3.949   4.832   3.903
    1TCM     c1 1233   0.184   3.220   0.510
    1TCM    cl1 1234   0.077   3.112   0.418
    1TCM    cl2 1235   0.189   3.168   0.680
    1TCM     h1 1236   0.287   3.215   0.468
    1TCM    cl3 1237   0.124   3.387   0.501
    1TCM     c1 1238   1.445   2.339   5.134
    1TCM    cl1 1239   1.487   2.258   5.287
    1TCM    cl2 1240   1.400   2.216   5.013
    1TCM     h1 1241   1.360   2.408   5.150
    1TCM    cl3 1242   1.586   2.431   5.075
    1TCM     c1 1243   0.491   1.515   3.026
    1TCM    cl1 1244   0.468   1.619   3.168
    1TCM    cl2 1245   0.595   1.378   3.070
    1TCM     h1 1246   0.393   1.478   2.990
    1TCM    cl3 1247   0.569   1.609   2.896
    1TCM     c1 1248   3.631   0.275   5.034
    1TCM    cl1 1249   3.609   0.169   4.893
    1TCM    cl2 1250   3.672   0.439   4.979
    1TCM     h1 1251   3.537   0.278   5.093
    1TCM    cl3 1252   3.763   0.212   5.135
    1TCM     c1 1253   1.758   2.762   2.122
    1TCM    cl1 1254   1.778   2.921   2.045
    1TCM    cl2 1255   1.590   2.707   2.100
    1TCM     h1 1256   1.827   2.689   2.074
    1TCM    cl3 1257   1.794   2.775   2.295
    1TCM     c1 1258   4.193   0.601   4.277
    1TCM    cl1 1259   4.165   0.703   4.420
    1TCM    cl2 1260   4.288   0.692   4.157
    1TCM     h1 1261   4.249   0.510   4.306
    1TCM    cl3 1262   4.037   0.554   4.205
    1TCM     c1 1263   0.342   3.823   1.611
    1TCM    cl1 1264   0.389   3.751   1.455
    1TCM    cl2 1265   0.211   3.727   1.683
    1TCM     h1 1266   0.430   3.824   1.679
    1TCM    cl3 1267   0.286   3.990   1.584
    1TCM     c1 1268   0.231   1.620   0.919
    1TCM    cl1 1269   0.334   1.738   0.834
    1TCM    cl2 1270   0.116   1.706   1.023
    1TCM     h1 1271   0.176   1.559   0.845
    1TCM    cl3 1272   0.333   1.514   1.019
    1TCM     c1 1273   3.690   2.584   2.883
    1TCM    cl1 1274   3.536   2.556   2.967
    1TCM    cl2 1275   3.798   2.678   2.987
    1TCM     h1 1276   3.737   2.486   2.859
    1TCM    cl3 1277   3.659   2.674   2.732
    1TCM     c1 1278   0.276   4.841   2.857
    1TCM    cl1 1279   0.209   5.004   2.830
    1TCM    cl2 1280   0.159   4.744   2.950
    1TCM     h1 1281   0.295   4.793   2.759
    1TCM    cl3 1282   0.428   4.854   2.948
    1TCM     c1 1283   0.100   4.629   2.481
    1TCM    cl1 1284   0.021   4.557   2.339
    1TCM    cl2 1285   0.011   4.582   2.628
    1TCM     h1 1286   0.204   4.593   2.488
    1TCM    cl3 1287   0.099   4.806   2.466
    1TCM     c1 1288   0.643   2.455   2.148
    1TCM    cl1 1289   0.526   2.321   2.139
    1TCM    cl2 1290   0.556   2.609   2.163
    1TCM     h1 1291   0.709   2.441   2.236
    1TCM    cl3 1292   0.742   2.457   2.000
    1TCM     c1 1293   0.679   4.082   2.826
    1TCM    cl1 1294   0.854   4.109   2.821
    1TCM    cl2 1295   0.623   4.085   2.994
    1TCM     h1 1296   0.628   4.163   2.768
    1TCM    cl3 1297   0.641   3.925   2.753
    1TCM     c1 1298   2.409   0.710   3.995
    1TCM    cl1 1299   2.282   0.639   4.098
    1TCM    cl2 1300   2.394   0.644   3.830
    1TCM     h1 1301   2.397   0.820   3.993
    1TCM    cl3 1302   2.569   0.668   4.061
    1TCM     c1 1303   1.830   2.085   2.185
    1TCM    cl1 1304   1.944   2.007   2.296
    1TCM    cl2 1305   1.719   2.189   2.278
    1TCM     h1 1306   1.885   2.146   2.112
    1TCM    cl3 1307   1.736   1.960   2.100
    1TCM     c1 1308   0.919   3.211   2.344
    1TCM    cl1 1309   1.049   3.310   2.274
    1TCM    cl2 1310   0.762   3.287   2.310
    1TCM     h1 1311   0.922   3.109   2.298
    1TCM    cl3 1312   0.942   3.197   2.519
    1TCM     c1 1313   4.748   3.697   3.145
    1TCM    cl1 1314   4.907   3.709   3.225
    1TCM    cl2 1315   4.685   3.860   3.112
    1TCM     h1 1316   4.759   3.641   3.050
    1TCM    cl3 1317   4.635   3.610   3.252
    1TCM     c1 1318   4.275   1.075   4.534
    1TCM    cl1 1319   4.159   1.177   4.446
    1TCM    cl2 1320   4.257   0.906   4.482
    1TCM     h1 1321   4.378   1.110   4.511
    1TCM    cl3 1322   4.246   1.088   4.708
    1TCM     c1 1323   0.149   3.128   4.655
    1TCM    cl1 1324   0.237   3.180   4.800
    1TCM    cl2 1325   0.251   3.154   4.511
    1TCM     h1 1326   0.123   3.021   4.663
    1TCM    cl3 1327   0.000   3.224   4.639
    1TCM     c1 1328   1.147   1.891   0.335
    1TCM    cl1 1329   1.218   1.768   0.227
    1TCM    cl2 1330   1.210   1.868   0.499
    1TCM     h1 1331   1.174   1.992   0.298
    1TCM    cl3 1332   0.970   1.874   0.336
    1TCM     c1 1333   1.944   2.131   1.774
    1TCM    cl1 1334   2.037   2.075   1.915
    1TCM    cl2 1335   1.974   2.304   1.748
    1TCM     h1 1336   1.975   2.074   1.684
    1TCM    cl3 1337   1.770   2.105   1.803
    1TCM     c1 1338   2.545   4.468   3.843
    1TCM    cl1 1339   2.413   4.394   3.938
    1TCM    cl2 1340   2.490   4.493   3.676
    1TCM     h1 1341   2.572   4.565   3.888
    1TCM    cl3 1342   2.686   4.360   3.844
    1TCM     c1 1343   3.297   0.556   1.753
    1TCM    cl1 1344   3.266   0.696   1.858
    1TCM    cl2 1345   3.305   0.610   1.584
    1TCM     h1 1346   3.393   0.508   1.781
    1TCM    cl3 1347   3.165   0.438   1.771
    1TCM     c1 1348   2.537   4.836   4.878
    1TCM    cl1 1349   2.526   4.670   4.942
    1TCM    cl2 1350   2.440   4.848   4.729
    1TCM     h1 1351   2.498   4.907   4.953
    1TCM    cl3 1352   2.707   4.874   4.841
    1TCM     c1 1353   2.669   1.883   3.429
    1TCM    cl1 1354   2.619   1.730   3.354
    1TCM    cl2 1355   2.814   1.945   3.347
    1TCM     h1 1356   2.587   1.957   3.420
    1TCM    cl3 1357   2.705   1.856   3.601
    1TCM     c1 1358   0.869   1.729   4.916
    1TCM    cl1 1359   1.039   1.723   4.969
    1TCM    cl2 1360   0.764   1.742   5.059
    1TCM     h1 1361   0.854   1.818   4.851
    1TCM    cl3 1362   0.830   1.581   4.827
    1TCM     c1 1363   3.147   1.156   3.115
    1TCM    cl1 1364   3.059   1.074   3.246
    1TCM    cl2 1365   3.320   1.117   3.126
    1TCM     h1 1366   3.107   1.122   3.017
    1TCM    cl3 1367   3.124   1.332   3.129
    1TCM     c1 1368   3.695   0.767   1.657
    1TCM    cl1 1369   3.777   0.708   1.804
    1TCM    cl2 1370   3.814   0.847   1.552
    1TCM     h1 1371   3.650   0.681   1.604
    1TCM    cl3 1372   3.568   0.882   1.702
    1TCM     c1 1373   0.447   0.349   0.685
    1TCM    cl1 1374   0.587   0.268   0.612
    1TCM    cl2 1375   0.452   0.522   0.647
    1TCM     h1 1376   0.353   0.305   0.645
    1TCM    cl3 1377   0.451   0.327   0.862
    1TCM     c1 1378   0.854   3.824   3.744
    1TCM    cl1 1379   1.012   3.854   3.821
    1TCM    cl2 1380   0.724   3.885   3.849
    1TCM     h1 1381   0.851   3.876   3.646
    1TCM    cl3 1382   0.833   3.649   3.719
    1TCM     c1 1383   5.220   4.235   4.444
    1TCM    cl1 1384   5.182   4.392   4.519
    1TCM    cl2 1385   5.325   4.141   4.553
    1TCM     h1 1386   5.126   4.180   4.426
    1TCM    cl3 1387   5.304   4.262   4.290
    1TCM     c1 1388   3.752   1.789   0.940
    1TCM    cl1 1389   3.863   1.845   1.068
    1TCM    cl2 1390   3.830   1.808   0.782
    1TCM     h1 1391   3.728   1.682   0.957
    1TCM    cl3 1392   3.603   1.885   0.945
    1TCM     c1 1393   3.437   4.484   3.764
    1TCM    cl1 1394   3.529   4.595   3.660
    1TCM    cl2 1395   3.521   4.466   3.920
    1TCM     h1 1396   3.336   4.525   3.781
    1TCM    cl3 1397   3.425   4.326   3.685
    1TCM     c1 1398   1.689   4.718   3.249
    1TCM    cl1 1399   1.779   4.608   3.356
    1TCM    cl2 1400   1.658   4.637   3.093
    1TCM     h1 1401   1.592   4.745   3.296
    1TCM    cl3 1402   1.785   4.865   3.221
    1TCM     c1 1403   2.563   0.546   2.615
    1TCM    cl1 1404   2.661   0.404   2.572
    1TCM    cl2 1405   2.572   0.666   2.483
    1TCM     h1 1406   2.458   0.516   2.630
    1TCM    cl3 1407   2.626   0.618   2.765
    1TCM     c1 1408   3.336   2.127   4.223
    1TCM    cl1 1409   3.428   2.218   4.345
    1TCM    cl2 1410   3.236   2.240   4.129
    1TCM     h1 1411   3.406   2.074   4.155
    1TCM    cl3 1412   3.231   2.009   4.304
    1TCM     c1 1413   2.982   2.482   0.577
    1TCM    cl1 1414   2.886   2.407   0.706
    1TCM    cl2 1415   3.097   2.598   0.648
    1TCM     h1 1416   3.037   2.403   0.522
    1TCM    cl3 1417   2.873   2.567   0.465
    1TCM     c1 1418   1.597   0.447   5.028
    1TCM    cl1 1419   1.721   0.541   4.943
    1TCM    cl2 1420   1.676   0.326   5.132
    1TCM     h1 1421   1.536   0.514   5.090
    1TCM    cl3 1422   1.494   0.364   4.910
    1TCM     c1 1423   0.753   1.621   1.672
    1TCM    cl1 1424   0.788   1.729   1.535
    1TCM    cl2 1425   0.658   1.709   1.794
    1TCM     h1 1426   0.695   1.533   1.636
    1TCM    cl3 1427   0.905   1.565   1.744
    1TCM     c1 1428   4.964   3.176   0.283
    1TCM    cl1 1429   4.883   3.215   0.436
    1TCM    cl2 1430   4.993   3.001   0.274
    1TCM     h1 1431   4.899   3.207   0.198
    1TCM    cl3 1432   5.119   3.262   0.273
    1TCM     c1 1433   0.680   1.708   4.023
    1TCM    cl1 1434   0.700   1.563   3.923
    1TCM    cl2 1435   0.510   1.721   4.075
    1TCM     h1 1436   0.746   1.702   4.112
    1TCM    cl3 1437   0.723   1.852   3.927
    1TCM     c1 1438   0.972   0.787   0.430
    1TCM    cl1 1439   1.083   0.678   0.515
    1TCM    cl2 1440   0.938   0.930   0.531
    1TCM     h1 1441   1.018   0.820   0.334
    1TCM    cl3 1442   0.819   0.702   0.396
    1TCM     c1 1443   3.487   4.919   4.874
    1TCM    cl1 1444   3.340   4.981   4.794
    1TCM    cl2 1445   3.453   4.758   4.941
    1TCM     h1 1446   3.569   4.912   4.800
    1TCM    cl3 1447   3.533   5.029   5.006
    1TCM     c1 1448   3.091   3.885   3.611
    1TCM    cl1 1449   3.004   3.844   3.760
    1TCM    cl2 1450   3.150   3.737   3.533
    1TCM     h1 1451   3.023   3.939   3.542
    1TCM    cl3 1452   3.229   3.990   3.650
    1TCM     c1 1453   2.934   4.254   3.327
    1TCM    cl1 1454   3.076   4.214   3.426
    1TCM    cl2 1455   2.954   4.186   3.164
    1TCM     h1 1456   2.843   4.210   3.374
    1TCM    cl3 1457   2.916   4.430   3.316
    1TCM     c1 1458   3.511   1.332   2.678
    1TCM    cl1 1459   3.546   1.500   2.631
    1TCM    cl2 1460   3.428   1.330   2.835
    1TCM     h1 1461   3.446   1.285   2.601
    1TCM    cl3 1462   3.664   1.241   2.691
    1TCM     c1 1463   4.563   2.089   5.146
    1TCM    cl1 1464   4.415   2.179   5.106
    1TCM    cl2 1465   4.552   2.029   5.313
    1TCM     h1 1466   4.573   2.003   5.076
    1TCM    cl3 1467   4.704   2.195   5.129
    1TCM     c1 1468   3.174   2.233   0.797
    1TCM    cl1 1469   3.196   2.254   0.972
    1TCM    cl2 1470   3.047   2.113   0.767
    1TCM     h1 1471   3.146   2.330   0.752
    1TCM    cl3 1472   3.327   2.177   0.725
    1TCM     c1 1473   4.623   4.825   1.539
    1TCM    cl1 1474   4.717   4.819   1.388
    1TCM    cl2 1475   4.720   4.903   1.666
    1TCM     h1 1476   4.530   4.883   1.523
    1TCM    cl3 1477   4.581   4.659   1.590
    1TCM     c1 1478   4.655   0.704   3.251
    1TCM    cl1 1479   4.585   0.602   3.123
    1TCM    cl2 1480   4.534   0.728   3.380
    1TCM     h1 1481   4.745   0.655   3.293
    1TCM    cl3 1482   4.700   0.862   3.182
    1TCM     c1 1483   3.555   2.215   0.446
    1TCM    cl1 1484   3.579   2.043   0.485
    1TCM    cl2 1485   3.501   2.231   0.278
    1TCM     h1 1486   3.478   2.258   0.514
    1TCM    cl3 1487   3.708   2.302   0.468
    1TCM     c1 1488   1.757   0.160   2.738
    1TCM    cl1 1489   1.874   0.293   2.727
    1TCM    cl2 1490   1.838   0.015   2.802
    1TCM     h1 1491   1.674   0.188   2.806
    1TCM    cl3 1492   1.692   0.124   2.576
    1TCM     c1 1493   1.298   4.612   5.070
    1TCM    cl1 1494   1.160   4.712   5.122
    1TCM    cl2 1495   1.449   4.700   5.099
    1TCM     h1 1496   1.299   4.517   5.128
    1TCM    cl3 1497   1.282   4.576   4.897
    1TCM     c1 1498   5.133   0.288   4.507
    1TCM    cl1 1499   5.078   0.154   4.404
    1TCM    cl2 1500   5.128   0.237   4.678
    1TCM     h1 1501   5.237   0.315   4.480
    1TCM    cl3 1502   5.026   0.428   4.484
    1TCM     c1 1503   4.339   4.883   0.268
    1TCM    cl1 1504   4.392   4.858   0.100
    1TCM    cl2 1505   4.367   4.734   0.362
    1TCM     h1 1506   4.397   4.966   0.313
    1TCM    cl3 1507   4.166   4.924   0.271
    1TCM     c1 1508   0.632   2.534   3.909
    1TCM    cl1 1509   0.540   2.656   3.817
    1TCM    cl2 1510   0.580   2.537   4.079
    1TCM     h1 1511   0.613   2.434   3.866
    1TCM    cl3 1512   0.806   2.572   3.899
    1TCM     c1 1513   4.152   1.316   1.660
    1TCM    cl1 1514   4.122   1.487   1.698
    1TCM    cl2 1515   4.176   1.225   1.810
    1TCM     h1 1516   4.065   1.274   1.605
    1TCM    cl3 1517   4.297   1.303   1.558
    1TCM     c1 1518   1.395   4.895   0.410
    1TCM    cl1 1519   1.478   4.940   0.260
    1TCM    cl2 1520   1.299   5.034   0.468
    1TCM     h1 1521   1.327   4.809   0.391
    1TCM    cl3 1522   1.515   4.851   0.534
    1TCM     c1 1523   3.305   1.053   4.033
    1TCM    cl1 1524   3.257   1.191   3.932
    1TCM    cl2 1525   3.251   1.081   4.201
    1TCM     h1 1526   3.257   0.961   3.994
    1TCM    cl3 1527   3.482   1.036   4.030
    1TCM     c1 1528   4.651   3.552   3.716
    1TCM    cl1 1529   4.532   3.642   3.619
    1TCM    cl2 1530   4.775   3.484   3.609
    1TCM     h1 1531   4.699   3.621   3.789
    1TCM    cl3 1532   4.570   3.421   3.804
    1TCM     c1 1533   1.371   0.905   0.623
    1TCM    cl1 1534   1.445   0.819   0.486
    1TCM    cl2 1535   1.274   0.790   0.719
    1TCM     h1 1536   1.450   0.948   0.686
    1TCM    cl3 1537   1.265   1.034   0.562
    1TCM     c1 1538   1.184   2.074   1.059
    1TCM    cl1 1539   1.212   2.177   1.202
    1TCM    cl2 1540   1.340   2.011   1.000
    1TCM     h1 1541   1.118   1.990   1.087
    1TCM    cl3 1542   1.107   2.170   0.931
    1TCM     c1 1543   3.468   3.066   2.417
    1TCM    cl1 1544   3.541   2.930   2.505
    1TCM    cl2 1545   3.501   3.049   2.243
    1TCM     h1 1546   3.358   3.066   2.434
    1TCM    cl3 1547   3.537   3.219   2.476
    1TCM     c1 1548   3.241   3.549   2.837
    1TCM    cl1 1549   3.331   3.671   2.743
    1TCM    cl2 1550   3.087   3.618   2.892
    1TCM     h1 1551   3.221   3.461   2.773
    1TCM    cl3 1552   3.338   3.500   2.977
    1TCM     c1 1553   1.337   1.157   0.301
    1TCM    cl1 1554   1.234   1.298   0.337
    1TCM    cl2 1555   1.235   1.013   0.282
    1TCM     h1 1556   1.393   1.176   0.208
    1TCM    cl3 1557   1.451   1.132   0.435
    1TCM     c1 1558   3.054   0.245   0.887
    1TCM    cl1 1559   3.092   0.096   0.976
    1TCM    cl2 1560   2.918   0.215   0.776
    1TCM     h1 1561   3.027   0.325   0.959
    1TCM    cl3 1562   3.197   0.296   0.793
    1TCM     c1 1563   1.929   3.364   1.060
    1TCM    cl1 1564   2.043   3.485   1.122
    1TCM    cl2 1565   1.872   3.262   1.195
    1TCM     h1 1566   1.842   3.414   1.013
    1TCM    cl3 1567   2.010   3.261   0.940
    1TCM     c1 1568   2.957   3.783   1.994
    1TCM    cl1 1569   2.866   3.930   1.957
    1TCM    cl2 1570   2.996   3.780   2.168
    1TCM     h1 1571   2.897   3.694   1.969
    1TCM    cl3 1572   3.108   3.781   1.900
    1TCM     c1 1573   4.645   0.572   4.134
    1TCM    cl1 1574   4.700   0.635   3.977
    1TCM    cl2 1575   4.680   0.690   4.262
    1TCM     h1 1576   4.536   0.553   4.129
    1TCM    cl3 1577   4.730   0.419   4.169
    1TCM     c1 1578   4.661   3.025   4.775
    1TCM    cl1 1579   4.585   2.890   4.863
    1TCM    cl2 1580   4.835   3.029   4.813
    1TCM     h1 1581   4.648   3.010   4.666
    1TCM    cl3 1582   4.587   3.178   4.824
    1TCM     c1 1583   1.084   4.692   2.384
    1TCM    cl1 1584   1.052   4.557   2.273
    1TCM    cl2 1585   1.091   4.630   2.551
    1TCM     h1 1586   1.181   4.739   2.358
    1TCM    cl3 1587   0.955   4.813   2.371
    1TCM     c1 1588   5.123   0.224   0.368
    1TCM    cl1 1589   5.035   0.331   0.257
    1TCM    cl2 1590   5.253   0.315   0.448
    1TCM     h1 1591   5.053   0.183   0.444
    1TCM    cl3 1592   5.194   0.089   0.275
    1TCM     c1 1593   4.621   0.483   3.699
    1TCM    cl1 1594   4.446   0.458   3.719
    1TCM    cl2 1595   4.656   0.525   3.530
    1TCM     h1 1596   4.654   0.565   3.765
    1TCM    cl3 1597   4.707   0.333   3.742
    1TCM     c1 1598   3.602   5.114   4.455
    1TCM    cl1 1599   3.603   5.003   4.317
    1TCM    cl2 1600   3.667   5.272   4.405
    1TCM     h1 1601   3.497   5.127   4.491
    1TCM    cl3 1602   3.702   5.047   4.586
    1TCM     c1 1603   1.472   1.905   1.641
    1TCM    cl1 1604   1.307   1.918   1.575
    1TCM    cl2 1605   1.515   2.056   1.724
    1TCM     h1 1606   1.476   1.821   1.712
    1TCM    cl3 1607   1.587   1.877   1.508
    1TCM     c1 1608   5.258   0.236   1.473
    1TCM    cl1 1609   5.340   0.254   1.316
    1TCM    cl2 1610   5.088   0.287   1.457
    1TCM     h1 1611   5.261   0.129   1.505
    1TCM    cl3 1612   5.339   0.336   1.595
    1TCM     c1 1613   3.342   1.772   2.783
    1TCM    cl1 1614   3.168   1.797   2.751
    1TCM    cl2 1615   3.423   1.724   2.632
    1TCM     h1 1616   3.386   1.867   2.821
    1TCM    cl3 1617   3.362   1.644   2.905
    1TCM     c1 1618   3.634   0.378   0.520
    1TCM    cl1 1619   3.583   0.454   0.367
    1TCM    cl2 1620   3.596   0.488   0.655
    1TCM     h1 1621   3.580   0.282   0.534
    1TCM    cl3 1622   3.809   0.348   0.517
    1TCM     c1 1623   0.710   1.391   2.021
    1TCM    cl1 1624   0.696   1.566   2.049
    1TCM    cl2 1625   0.799   1.362   1.869
    1TCM     h1 1626   0.764   1.344   2.105
    1TCM    cl3 1627   0.547   1.320   2.008
    1TCM     c1 1628   2.790   3.841   1.278
    1TCM    cl1 1629   2.731   3.973   1.175
    1TCM    cl2 1630   2.652   3.749   1.343
    1TCM     h1 1631   2.855   3.773   1.219
    1TCM    cl3 1632   2.884   3.908   1.413
    1TCM     c1 1633   2.451   2.558   4.382
    1TCM    cl1 1634   2.363   2.605   4.235
    1TCM    cl2 1635   2.342   2.569   4.522
    1TCM     h1 1636   2.487   2.453   4.372
    1TCM    cl3 1637   2.589   2.667   4.405
    1TCM     c1 1638   0.584   2.355   0.906
    1TCM    cl1 1639   0.718   2.414   0.805
    1TCM    cl2 1640   0.621   2.386   1.077
    1TCM     h1 1641   0.491   2.409   0.878
    1TCM    cl3 1642   0.562   2.181   0.880
    1TCM     c1 1643   2.579   0.501   1.625
    1TCM    cl1 1644   2.708   0.382   1.600
    1TCM    cl2 1645   2.529   0.568   1.468
    1TCM     h1 1646   2.492   0.452   1.673
    1TCM    cl3 1647   2.638   0.632   1.729
    1TCM     c1 1648   2.455   3.653   0.174
    1TCM    cl1 1649   2.613   3.579   0.209
    1TCM    cl2 1650   2.329   3.570   0.268
    1TCM     h1 1651   2.457   3.760   0.200
    1TCM    cl3 1652   2.420   3.636  -0.000
    1TCM     c1 1653   0.176   3.446   4.966
    1TCM    cl1 1654   0.134   3.398   4.800
    1TCM    cl2 1655   0.119   3.322   5.079
    1TCM     h1 1656   0.286   3.456   4.974
    1TCM    cl3 1657   0.099   3.601   5.004
    1TCM     c1 1658   3.867   1.966   1.684
    1TCM    cl1 1659   4.003   1.951   1.572
    1TCM    cl2 1660   3.831   2.138   1.712
    1TCM     h1 1661   3.777   1.916   1.641
    1TCM    cl3 1662   3.909   1.889   1.839
    1TCM     c1 1663   2.276   2.804   2.791
    1TCM    cl1 1664   2.178   2.658   2.816
    1TCM    cl2 1665   2.229   2.929   2.908
    1TCM     h1 1666   2.384   2.779   2.804
    1TCM    cl3 1667   2.250   2.865   2.626
    1TCM     c1 1668   4.470   2.822   0.737
    1TCM    cl1 1669   4.335   2.836   0.852
    1TCM    cl2 1670   4.419   2.881   0.578
    1TCM     h1 1671   4.556   2.883   0.773
    1TCM    cl3 1672   4.520   2.652   0.724
    1TCM     c1 1673   5.102   4.312   1.775
    1TCM    cl1 1674   5.268   4.285   1.717
    1TCM    cl2 1675   5.107   4.403   1.928
    1TCM     h1 1676   5.045   4.370   1.699
    1TCM    cl3 1677   5.023   4.155   1.802
    1TCM     c1 1678   3.254   1.714   3.866
    1TCM    cl1 1679   3.146   1.577   3.901
    1TCM    cl2 1680   3.225   1.771   3.700
    1TCM     h1 1681   3.234   1.797   3.937
    1TCM    cl3 1682   3.424   1.662   3.881
    1TCM     c1 1683   0.964   3.765   2.398
    1TCM    cl1 1684   0.852   3.631   2.364
    1TCM    cl2 1685   1.074   3.719   2.530
    1TCM     h1 1686   1.024   3.787   2.307
    1TCM    cl3 1687   0.872   3.910   2.444
    1TCM     c1 1688   3.025   4.158   2.310
    1TCM    cl1 1689   3.072   4.044   2.181
    1TCM    cl2 1690   3.077   4.093   2.467
    1TCM     h1 1691   3.074   4.256   2.292
    1TCM    cl3 1692   2.848   4.178   2.309
    1TCM     c1 1693   1.366   3.057   2.348
    1TCM    cl1 1694   1.322   2.976   2.196
    1TCM    cl2 1695   1.481   2.956   2.438
    1TCM     h1 1696   1.412   3.155   2.325
    1TCM    cl3 1697   1.219   3.082   2.446
    1TCM     c1 1698   4.604   0.167   5.155
    1TCM    cl1 1699   4.730   0.277   5.216
    1TCM    cl2 1700   4.462   0.174   5.262
    1TCM     h1 1701   4.574   0.197   5.052
    1TCM    cl3 1702   4.668   0.001   5.152
    1TCM     c1 1703   4.139   4.955   2.376
    1TCM    cl1 1704   4.185   5.093   2.274
    1TCM    cl2 1705   4.131   5.007   2.546
    1TCM     h1 1706   4.040   4.917   2.344
    1TCM    cl3 1707   4.261   4.826   2.360
    1TCM     c1 1708   1.415   5.058   3.107
    1TCM    cl1 1709   1.508   4.931   3.190
    1TCM    cl2 1710   1.411   5.024   2.932
    1TCM     h1 1711   1.311   5.060   3.146
    1TCM    cl3 1712   1.492   5.216   3.135
    1TCM     c1 1713   3.374   4.986   3.785
    1TCM    cl1 1714   3.372   5.161   3.753
    1TCM    cl2 1715   3.462   4.955   3.937
    1TCM     h1 1716   3.270   4.949   3.795
    1TCM    cl3 1717   3.455   4.902   3.651
    1TCM     c1 1718   3.626   2.191   4.868
    1TCM    cl1 1719   3.633   2.368   4.847
    1TCM    cl2 1720   3.687   2.149   5.030
    1TCM     h1 1721   3.521   2.157   4.858
    1TCM    cl3 1722   3.727   2.113   4.745
    1TCM     c1 1723   4.841   4.207   2.579
    1TCM    cl1 1724   4.968   4.208   2.455
    1TCM    cl2 1725   4.914   4.232   2.739
    1TCM     h1 1726   4.768   4.288   2.559
    1TCM    cl3 1727   4.757   4.050   2.576
    1TCM     c1 1728   5.038   3.112   2.471
    1TCM    cl1 1729   5.032   3.265   2.379
    1TCM    cl2 1730   4.933   2.992   2.393
    1TCM     h1 1731   5.142   3.075   2.474
    1TCM    cl3 1732   4.981   3.141   2.637
    1TCM     c1 1733   1.430   2.316   0.877
    1TCM    cl1 1734   1.494   2.429   0.755
    1TCM    cl2 1735   1.482   2.368   1.039
    1TCM     h1 1736   1.319   2.315   0.872
    1TCM    cl3 1737   1.492   2.152   0.844
    1TCM     c1 1738   1.118   1.990   4.085
    1TCM    cl1 1739   1.107   1.825   4.150
    1TCM    cl2 1740   1.064   1.991   3.916
    1TCM     h1 1741   1.053   2.057   4.145
    1TCM    cl3 1742   1.286   2.046   4.094
    1TCM     c1 1743   4.140   3.551   1.327
    1TCM    cl1 1744   4.231   3.404   1.370
    1TCM    cl2 1745   4.169   3.590   1.156
    1TCM     h1 1746   4.032   3.534   1.343
    1TCM    cl3 1747   4.195   3.686   1.428
    1TCM     c1 1748   0.267   5.159   2.134
    1TCM    cl1 1749   0.295   5.334   2.124
    1TCM    cl2 1750   0.139   5.113   2.020
    1TCM     h1 1751   0.361   5.105   2.109
    1TCM    cl3 1752   0.217   5.116   2.299
    1TCM     c1 1753   1.332   2.547   1.748
    1TCM    cl1 1754   1.383   2.391   1.679
    1TCM    cl2 1755   1.380   2.554   1.919
    1TCM     h1 1756   1.381   2.629   1.693
    1TCM    cl3 1757   1.156   2.562   1.735
    1TCM     c1 1758   0.883   2.352   4.169
    1TCM    cl1 1759   0.891   2.293   4.002
    1TCM    cl2 1760   0.914   2.217   4.281
    1TCM     h1 1761   0.960   2.430   4.184
    1TCM    cl3 1762   0.722   2.419   4.201
    1TCM     c1 1763   1.082   0.911   5.189
    1TCM    cl1 1764   1.228   1.001   5.141
    1TCM    cl2 1765   1.117   0.737   5.192
    1TCM     h1 1766   1.049   0.945   5.290
    1TCM    cl3 1767   0.951   0.943   5.072
    1TCM     c1 1768   3.684   2.967   1.004
    1TCM    cl1 1769   3.511   3.004   0.990
    1TCM    cl2 1770   3.730   2.963   1.176
    1TCM     h1 1771   3.705   2.869   0.958
    1TCM    cl3 1772   3.779   3.093   0.921
    1TCM     c1 1773   3.688   4.990   3.023
    1TCM    cl1 1774   3.589   5.071   3.146
    1TCM    cl2 1775   3.760   5.112   2.915
    1TCM     h1 1776   3.769   4.932   3.072
    1TCM    cl3 1777   3.585   4.880   2.928
    1TCM     c1 1778   4.635   3.189   5.176
    1TCM    cl1 1779   4.544   3.338   5.211
    1TCM    cl2 1780   4.702   3.197   5.011
    1TCM     h1 1781   4.718   3.178   5.249
    1TCM    cl3 1782   4.527   3.049   5.189
    1TCM     c1 1783   4.457   2.820   2.963
    1TCM    cl1 1784   4.346   2.928   2.876
    1TCM    cl2 1785   4.385   2.773   3.119
    1TCM     h1 1786   4.476   2.729   2.902
    1TCM    cl3 1787   4.611   2.904   2.993
    1TCM     c1 1788   2.295   4.587   3.535
    1TCM    cl1 1789   2.164   4.659   3.439
    1TCM    cl2 1790   2.247   4.580   3.706
    1TCM     h1 1791   2.316   4.484   3.498
    1TCM    cl3 1792   2.442   4.686   3.519
    1TCM     c1 1793   3.572   2.246   0.918
    1TCM    cl1 1794   3.603   2.405   0.844
    1TCM    cl2 1795   3.578   2.262   1.095
    1TCM     h1 1796   3.472   2.210   0.888
    1TCM    cl3 1797   3.696   2.131   0.865
    1TCM     c1 1798   2.354   2.043   2.546
    1TCM    cl1 1799   2.309   2.134   2.692
    1TCM    cl2 1800   2.305   2.134   2.401
    1TCM     h1 1801   2.464   2.027   2.545
    1TCM    cl3 1802   2.271   1.885   2.547
    1TCM     c1 1803   2.934   2.887   3.447
    1TCM    cl1 1804   2.936   3.000   3.585
    1TCM    cl2 1805   2.904   2.978   3.297
    1TCM     h1 1806   3.031   2.835   3.440
    1TCM    cl3 1807   2.804   2.768   3.470
    1TCM     c1 1808   5.035   1.892   1.644
    1TCM    cl1 1809   5.036   2.062   1.694
    1TCM    cl2 1810   4.869   1.828   1.657
    1TCM     h1 1811   5.069   1.884   1.539
    1TCM    cl3 1812   5.143   1.798   1.749
    1TCM     c1 1813   1.665   1.369   3.590
    1TCM    cl1 1814   1.537   1.399   3.470
    1TCM    cl2 1815   1.630   1.218   3.677
    1TCM     h1 1816   1.762   1.360   3.538
    1TCM    cl3 1817   1.671   1.504   3.705
    1TCM     c1 1818   3.380   4.220   2.223
    1TCM    cl1 1819   3.272   4.091   2.280
    1TCM    cl2 1820   3.501   4.256   2.349
    1TCM     h1 1821   3.431   4.187   2.131
    1TCM    cl3 1822   3.284   4.366   2.189
    1TCM     c1 1823   2.081   3.583   0.481
    1TCM    cl1 1824   2.062   3.518   0.645
    1TCM    cl2 1825   1.962   3.713   0.455
    1TCM     h1 1826   2.183   3.624   0.469
    1TCM    cl3 1827   2.054   3.454   0.362
    1TCM     c1 1828   4.619   2.144   3.231
    1TCM    cl1 1829   4.718   2.211   3.100
    1TCM    cl2 1830   4.551   2.276   3.329
    1TCM     h1 1831   4.536   2.084   3.188
    1TCM    cl3 1832   4.720   2.040   3.335
    1TCM     c1 1833   2.399   3.920   1.414
    1TCM    cl1 1834   2.433   3.965   1.245
    1TCM    cl2 1835   2.225   3.889   1.434
    1TCM     h1 1836   2.456   3.829   1.440
    1TCM    cl3 1837   2.448   4.053   1.521
    1TCM     c1 1838   0.997   4.944   4.763
    1TCM    cl1 1839   1.037   5.071   4.881
    1TCM    cl2 1840   1.125   4.821   4.762
    1TCM     h1 1841   0.900   4.896   4.791
    1TCM    cl3 1842   0.982   5.016   4.601
    1TCM     c1 1843   3.588   3.183   3.732
    1TCM    cl1 1844   3.704   3.318   3.723
    1TCM    cl2 1845   3.455   3.226   3.842
    1TCM     h1 1846   3.548   3.162   3.631
    1TCM    cl3 1847   3.671   3.038   3.794
    1TCM     c1 1848   3.765   3.879   1.293
    1TCM    cl1 1849   3.649   3.750   1.257
    1TCM    cl2 1850   3.690   4.038   1.262
    1TCM     h1 1851   3.796   3.873   1.399
    1TCM    cl3 1852   3.908   3.861   1.189
    1TCM     c1 1853   2.526   1.314   3.926
    1TCM    cl1 1854   2.464   1.173   3.837
    1TCM    cl2 1855   2.671   1.267   4.017
    1TCM     h1 1856   2.552   1.395   3.854
    1TCM    cl3 1857   2.401   1.372   4.038
    1TCM     c1 1858   2.138   3.599   4.905
    1TCM    cl1 1859   2.072   3.743   4.984
    1TCM    cl2 1860   2.169   3.634   4.734
    1TCM     h1 1861   2.233   3.570   4.955
    1TCM    cl3 1862   2.021   3.465   4.918
    1TCM     c1 1863   4.339   3.841   3.152
    1TCM    cl1 1864   4.348   3.905   3.318
    1TCM    cl2 1865   4.424   3.951   3.041
    1TCM     h1 1866   4.387   3.740   3.148
    1TCM    cl3 1867   4.168   3.827   3.103
    1TCM     c1 1868   3.088   1.571   4.986
    1TCM    cl1 1869   2.997   1.676   4.874
    1TCM    cl2 1870   2.990   1.542   5.132
    1TCM     h1 1871   3.110   1.475   4.936
    1TCM    cl3 1872   3.240   1.651   5.031
    1TCM     c1 1873   0.643   0.670   4.082
    1TCM    cl1 1874   0.635   0.817   4.182
    1TCM    cl2 1875   0.713   0.711   3.923
    1TCM     h1 1876   0.707   0.595   4.132
    1TCM    cl3 1877   0.480   0.604   4.060
    1TCM     c1 1878   3.568   0.952   2.072
    1TCM    cl1 1879   3.532   0.812   1.969
    1TCM    cl2 1880   3.476   1.093   2.014
    1TCM     h1 1881   3.539   0.929   2.177
    1TCM    cl3 1882   3.742   0.987   2.064
    1TCM     c1 1883   2.842   0.123   2.558
    1TCM    cl1 1884   2.765   0.013   2.674
    1TCM    cl2 1885   2.786   0.084   2.393
    1TCM     h1 1886   2.815   0.228   2.582
    1TCM    cl3 1887   3.019   0.103   2.566
    1TCM     c1 1888   2.740   4.530   2.493
    1TCM    cl1 1889   2.888   4.538   2.395
    1TCM    cl2 1890   2.779   4.469   2.655
    1TCM     h1 1891   2.694   4.630   2.500
    1TCM    cl3 1892   2.624   4.419   2.415
    1TCM     c1 1893   0.863   0.988   2.118
    1TCM    cl1 1894   1.000   1.070   2.195
    1TCM    cl2 1895   0.897   0.965   1.945
    1TCM     h1 1896   0.847   0.889   2.166
    1TCM    cl3 1897   0.716   1.087   2.137
    1TCM     c1 1898   2.371   4.306   3.162
    1TCM    cl1 1899   2.253   4.236   3.275
    1TCM    cl2 1900   2.301   4.312   2.999
    1TCM     h1 1901   2.397   4.409   3.194
    1TCM    cl3 1902   2.518   4.206   3.160
    1TCM     c1 1903   4.248   1.841   4.800
    1TCM    cl1 1904   4.420   1.833   4.758
    1TCM    cl2 1905   4.152   1.770   4.668
    1TCM     h1 1906   4.229   1.784   4.894
    1TCM    cl3 1907   4.200   2.011   4.823
    1TCM     c1 1908   0.395   0.617   0.297
    1TCM    cl1 1909   0.264   0.658   0.411
    1TCM    cl2 1910   0.347   0.663   0.132
    1TCM     h1 1911   0.487   0.672   0.326
    1TCM    cl3 1912   0.426   0.442   0.304
    1TCM     c1 1913   3.884   3.835   5.219
    1TCM    cl1 1914   4.030   3.848   5.118
    1TCM    cl2 1915   3.819   3.670   5.209
    1TCM     h1 1916   3.909   3.859   5.324
    1TCM    cl3 1917   3.761   3.950   5.160
    1TCM     c1 1918   1.999   2.359   2.703
    1TCM    cl1 1919   1.862   2.444   2.778
    1TCM    cl2 1920   2.116   2.312   2.828
    1TCM     h1 1921   1.963   2.269   2.650
    1TCM    cl3 1922   2.079   2.468   2.586
    1TCM     c1 1923   2.091   4.168   1.625
    1TCM    cl1 1924   2.201   4.206   1.491
    1TCM    cl2 1925   2.113   3.999   1.674
    1TCM     h1 1926   2.113   4.235   1.711
    1TCM    cl3 1927   1.923   4.193   1.572
    1TCM     c1 1928   4.090   3.619   1.873
    1TCM    cl1 1929   4.129   3.538   1.720
    1TCM    cl2 1930   4.145   3.788   1.866
    1TCM     h1 1931   3.981   3.616   1.890
    1TCM    cl3 1932   4.173   3.536   2.007
    1TCM     c1 1933   2.645   4.657   0.670
    1TCM    cl1 1934   2.634   4.771   0.534
    1TCM    cl2 1935   2.642   4.747   0.823
    1TCM     h1 1936   2.558   4.587   0.667
    1TCM    cl3 1937   2.796   4.564   0.659
    1TCM     c1 1938   2.821   2.328   4.654
    1TCM    cl1 1939   2.890   2.434   4.530
    1TCM    cl2 1940   2.658   2.385   4.697
    1TCM     h1 1941   2.814   2.224   4.615
    1TCM    cl3 1942   2.925   2.329   4.798
    1TCM     c1 1943   1.550   3.336   2.676
    1TCM    cl1 1944   1.378   3.378   2.692
    1TCM    cl2 1945   1.622   3.319   2.838
    1TCM     h1 1946   1.560   3.241   2.621
    1TCM    cl3 1947   1.633   3.465   2.587
    1TCM     c1 1948   0.687   4.145   4.886
    1TCM    cl1 1949   0.774   4.089   4.742
    1TCM    cl2 1950   0.623   4.308   4.857
    1TCM     h1 1951   0.603   4.076   4.907
    1TCM    cl3 1952   0.798   4.148   5.025
    1TCM     c1 1953   0.181   2.432   1.803
    1TCM    cl1 1954   0.338   2.350   1.822
    1TCM    cl2 1955   0.202   2.606   1.833
    1TCM     h1 1956   0.144   2.416   1.700
    1TCM    cl3 1957   0.064   2.365   1.919
    1TCM     c1 1958   4.441   1.001   4.211
    1TCM    cl1 1959   4.602   1.057   4.261
    1TCM    cl2 1960   4.437   0.983   4.034
    1TCM     h1 1961   4.419   0.903   4.259
    1TCM    cl3 1962   4.319   1.120   4.261
    1TCM     c1 1963   3.978   1.140   0.454
    1TCM    cl1 1964   3.841   1.153   0.566
    1TCM    cl2 1965   3.952   1.248   0.315
    1TCM     h1 1966   4.071   1.170   0.507
    1TCM    cl3 1967   3.994   0.973   0.398
    1TCM     c1 1968   1.896   1.844   3.919
    1TCM    cl1 1969   1.997   1.698   3.915
    1TCM    cl2 1970   1.846   1.877   4.086
    1TCM     h1 1971   1.954   1.930   3.880
    1TCM    cl3 1972   1.752   1.818   3.818
    1TCM     c1 1973   0.256   1.926   1.957
    1TCM    cl1 1974   0.373   1.791   1.957
    1TCM    cl2 1975   0.166   1.925   2.111
    1TCM     h1 1976   0.310   2.022   1.947
    1TCM    cl3 1977   0.143   1.906   1.822
    1TCM     c1 1978   1.616   0.525   3.434
    1TCM    cl1 1979   1.627   0.673   3.533
    1TCM    cl2 1980   1.706   0.548   3.283
    1TCM     h1 1981   1.659   0.440   3.490
    1TCM    cl3 1982   1.445   0.492   3.397
    1TCM     c1 1983   2.176   4.242   1.183
    1TCM    cl1 1984   2.126   4.404   1.130
    1TCM    cl2 1985   2.065   4.183   1.308
    1TCM     h1 1986   2.174   4.173   1.096
    1TCM    cl3 1987   2.341   4.250   1.249
    1TCM     c1 1988   3.459   1.759   4.388
    1TCM    cl1 1989   3.483   1.776   4.213
    1TCM    cl2 1990   3.322   1.861   4.439
    1TCM     h1 1991   3.437   1.653   4.412
    1TCM    cl3 1992   3.606   1.810   4.474
    1TCM     c1 1993   2.237   3.768   4.220
    1TCM    cl1 1994   2.239   3.793   4.044
    1TCM    cl2 1995   2.212   3.596   4.256
    1TCM     h1 1996   2.335   3.801   4.263
    1TCM    cl3 1997   2.106   3.863   4.293
    1TCM     c1 1998   3.175   0.992   4.952
    1TCM    cl1 1999   3.036   0.999   5.062
    1TCM    cl2 2000   3.119   1.010   4.785
    1TCM     h1 2001   3.246   1.074   4.977
    1TCM    cl3 2002   3.257   0.836   4.971
    1TCM     c1 2003   3.113   2.795   2.465
    1TCM    cl1 2004   3.275   2.759   2.402
    1TCM    cl2 2005   3.125   2.910   2.600
    1TCM     h1 2006   3.051   2.839   2.384
    1TCM    cl3 2007   3.036   2.645   2.522
    1TCM     c1 2008   4.755   4.225   0.879
    1TCM    cl1 2009   4.665   4.138   0.752
    1TCM    cl2 2010   4.696   4.173   1.038
    1TCM     h1 2011   4.863   4.202   0.870
    1TCM    cl3 2012   4.729   4.400   0.860
    1TCM     c1 2013   2.085   2.845   4.443
    1TCM    cl1 2014   2.169   2.971   4.536
    1TCM    cl2 2015   2.178   2.808   4.296
    1TCM     h1 2016   2.075   2.754   4.505
    1TCM    cl3 2017   1.923   2.904   4.397
    1TCM     c1 2018   2.591   4.113   4.496
    1TCM    cl1 2019   2.659   3.950   4.481
    1TCM    cl2 2020   2.720   4.234   4.477
    1TCM     h1 2021   2.514   4.128   4.417
    1TCM    cl3 2022   2.516   4.132   4.656
    1TCM     c1 2023   4.422   5.156   2.672
    1TCM    cl1 2024   4.541   5.137   2.541
    1TCM    cl2 2025   4.507   5.173   2.827
    1TCM     h1 2026   4.361   5.247   2.653
    1TCM    cl3 2027   4.317   5.013   2.677
    1TCM     c1 2028   1.801   3.826   2.159
    1TCM    cl1 2029   1.915   3.935   2.077
    1TCM    cl2 2030   1.831   3.830   2.334
    1TCM     h1 2031   1.697   3.860   2.139
    1TCM    cl3 2032   1.822   3.661   2.098
    1TCM     c1 2033   3.463   0.793   1.013
    1TCM    cl1 2034   3.477   0.949   0.929
    1TCM    cl2 2035   3.369   0.814   1.163
    1TCM     h1 2036   3.411   0.720   0.947
    1TCM    cl3 2037   3.625   0.731   1.052
    1TCM     c1 2038   0.354   3.708   3.132
    1TCM    cl1 2039   0.430   3.641   3.278
    1TCM    cl2 2040   0.219   3.813   3.179
    1TCM     h1 2041   0.429   3.767   3.075
    1TCM    cl3 2042   0.294   3.576   3.030
    1TCM     c1 2043   2.820   2.686   4.903
    1TCM    cl1 2044   2.884   2.818   5.003
    1TCM    cl2 2045   2.654   2.647   4.955
    1TCM     h1 2046   2.819   2.717   4.797
    1TCM    cl3 2047   2.923   2.542   4.922
    1TCM     c1 2048   2.280   0.669   0.680
    1TCM    cl1 2049   2.119   0.614   0.626
    1TCM    cl2 2050   2.346   0.551   0.797
    1TCM     h1 2051   2.348   0.677   0.593
    1TCM    cl3 2052   2.264   0.827   0.759
    1TCM     c1 2053   2.955   0.342   2.257
    1TCM    cl1 2054   3.020   0.216   2.365
    1TCM    cl2 2055   2.779   0.355   2.281
    1TCM     h1 2056   3.003   0.439   2.280
    1TCM    cl3 2057   2.989   0.298   2.088
    1TCM     c1 2058   1.835   3.599   4.635
    1TCM    cl1 2059   1.775   3.699   4.770
    1TCM    cl2 2060   1.818   3.690   4.483
    1TCM     h1 2061   1.942   3.575   4.652
    1TCM    cl3 2062   1.740   3.449   4.626
    1TCM     c1 2063   0.815   2.838   0.707
    1TCM    cl1 2064   0.958   2.897   0.620
    1TCM    cl2 2065   0.858   2.695   0.803
    1TCM     h1 2066   0.777   2.918   0.774
    1TCM    cl3 2067   0.688   2.794   0.590
    1TCM     c1 2068   3.010   0.208   3.368
    1TCM    cl1 2069   2.934   0.241   3.210
    1TCM    cl2 2070   2.884   0.183   3.491
    1TCM     h1 2071   3.073   0.117   3.360
    1TCM    cl3 2072   3.112   0.347   3.414
    1TCM     c1 2073   2.117   3.058   1.157
    1TCM    cl1 2074   2.104   3.151   1.308
    1TCM    cl2 2075   1.969   3.081   1.061
    1TCM     h1 2076   2.204   3.093   1.099
    1TCM    cl3 2077   2.136   2.885   1.195
    1TCM     c1 2078   3.100   5.182   4.028
    1TCM    cl1 2079   3.183   5.340   4.025
    1TCM    cl2 2080   3.192   5.069   4.129
    1TCM     h1 2081   2.998   5.195   4.071
    1TCM    cl3 2082   3.088   5.119   3.863
    1TCM     c1 2083   2.979   3.302   0.100
    1TCM    cl1 2084   3.151   3.263   0.077
    1TCM    cl2 2085   2.964   3.467   0.165
    1TCM     h1 2086   2.926   3.295   0.003
    1TCM    cl3 2087   2.907   3.187   0.215
    1TCM     c1 2088   0.217   0.453   4.292
    1TCM    cl1 2089   0.173   0.478   4.463
    1TCM    cl2 2090   0.302   0.297   4.275
    1TCM     h1 2091   0.125   0.451   4.230
    1TCM    cl3 2092   0.323   0.584   4.238
    1TCM     c1 2093   2.456   2.672   3.919
    1TCM    cl1 2094   2.497   2.553   4.045
    1TCM    cl2 2095   2.291   2.640   3.859
    1TCM     h1 2096   2.461   2.774   3.962
    1TCM    cl3 2097   2.571   2.658   3.784
    1TCM     c1 2098   0.710   1.438   0.197
    1TCM    cl1 2099   0.775   1.554   0.315
    1TCM    cl2 2100   0.765   1.484   0.034
    1TCM     h1 2101   0.747   1.336   0.221
    1TCM    cl3 2102   0.533   1.441   0.202
    1TCM     c1 2103   4.656   3.000   1.949
    1TCM    cl1 2104   4.554   2.980   1.805
    1TCM    cl2 2105   4.810   3.075   1.902
    1TCM     h1 2106   4.604   3.064   2.023
    1TCM    cl3 2107   4.688   2.840   2.021
    1TCM     c1 2108   3.130   3.252   0.588
    1TCM    cl1 2109   3.102   3.077   0.578
    1TCM    cl2 2110   3.171   3.296   0.755
    1TCM     h1 2111   3.214   3.280   0.521
    1TCM    cl3 2112   2.983   3.339   0.538
    1TCM     c1 2113   2.568   4.905   1.624
    1TCM    cl1 2114   2.467   4.964   1.490
    1TCM    cl2 2115   2.465   4.832   1.749
    1TCM     h1 2116   2.640   4.829   1.586
    1TCM    cl3 2117   2.659   5.042   1.694
    1TCM     c1 2118   2.740   3.981   4.870
    1TCM    cl1 2119   2.654   4.117   4.945
    1TCM    cl2 2120   2.730   3.996   4.693
    1TCM     h1 2121   2.846   3.983   4.901
    1TCM    cl3 2122   2.665   3.828   4.920
    1TCM     c1 2123   4.047   3.985   2.778
    1TCM    cl1 2124   4.015   4.120   2.667
    1TCM    cl2 2125   4.055   3.833   2.686
    1TCM     h1 2126   4.143   4.001   2.830
    1TCM    cl3 2127   3.915   3.974   2.898
    1TCM     c1 2128   2.340   1.536   2.456
    1TCM    cl1 2129   2.201   1.646   2.444
    1TCM    cl2 2130   2.438   1.580   2.598
    1TCM     h1 2131   2.305   1.432   2.466
    1TCM    cl3 2132   2.439   1.551   2.309
    1TCM     c1 2133   4.903   2.375   0.632
    1TCM    cl1 2134   4.843   2.268   0.761
    1TCM    cl2 2135   4.957   2.529   0.704
    1TCM     h1 2136   4.989   2.327   0.581
    1TCM    cl3 2137   4.773   2.407   0.516
    1TCM     c1 2138   4.235   0.584   3.199
    1TCM    cl1 2139   4.300   0.419   3.185
    1TCM    cl2 2140   4.115   0.590   3.330
    1TCM     h1 2141   4.318   0.654   3.222
    1TCM    cl3 2142   4.158   0.630   3.046
    1TCM     c1 2143   4.833   2.314   0.185
    1TCM    cl1 2144   4.915   2.343   0.340
    1TCM    cl2 2145   4.900   2.422   0.061
    1TCM     h1 2146   4.849   2.208   0.154
    1TCM    cl3 2147   4.659   2.345   0.203
    1TCM     c1 2148   3.397   1.227   1.087
    1TCM    cl1 2149   3.424   1.070   1.166
    1TCM    cl2 2150   3.285   1.206   0.950
    1TCM     h1 2151   3.353   1.298   1.160
    1TCM    cl3 2152   3.552   1.290   1.027
    1TCM     c1 2153   2.828   4.322   4.754
    1TCM    cl1 2154   2.876   4.205   4.630
    1TCM    cl2 2155   2.727   4.449   4.681
    1TCM     h1 2156   2.770   4.270   4.834
    1TCM    cl3 2157   2.973   4.396   4.826
    1TCM     c1 2158   1.592   5.203   0.594
    1TCM    cl1 2159   1.512   5.069   0.508
    1TCM    cl2 2160   1.491   5.254   0.731
    1TCM     h1 2161   1.691   5.170   0.631
    1TCM    cl3 2162   1.614   5.340   0.482
    1TCM     c1 2163   1.402   3.311   4.499
    1TCM    cl1 2164   1.569   3.303   4.560
    1TCM    cl2 2165   1.348   3.148   4.452
    1TCM     h1 2166   1.336   3.350   4.579
    1TCM    cl3 2167   1.395   3.419   4.358
    1TCM     c1 2168   1.238   2.334   2.403
    1TCM    cl1 2169   1.279   2.389   2.567
    1TCM    cl2 2170   1.102   2.219   2.411
    1TCM     h1 2171   1.208   2.422   2.341
    1TCM    cl3 2172   1.379   2.255   2.330
    1TCM     c1 2173   1.339   1.349   0.668
    1TCM    cl1 2174   1.333   1.485   0.782
    1TCM    cl2 2175   1.174   1.290   0.636
    1TCM     h1 2176   1.385   1.382   0.573
    1TCM    cl3 2177   1.437   1.217   0.738
    1TCM     c1 2178   0.391   5.175   3.217
    1TCM    cl1 2179   0.285   5.318   3.206
    1TCM    cl2 2180   0.500   5.171   3.077
    1TCM     h1 2181   0.451   5.181   3.311
    1TCM    cl3 2182   0.291   5.028   3.219
    1TCM     c1 2183   2.797   3.980   0.343
    1TCM    cl1 2184   2.845   4.049   0.500
    1TCM    cl2 2185   2.854   4.087   0.212
    1TCM     h1 2186   2.843   3.880   0.331
    1TCM    cl3 2187   2.620   3.966   0.335
    1TCM     c1 2188   5.044   1.809   0.932
    1TCM    cl1 2189   5.075   1.977   0.883
    1TCM    cl2 2190   5.134   1.698   0.825
    1TCM     h1 2191   5.078   1.794   1.037
    1TCM    cl3 2192   4.870   1.775   0.921
    1TCM     c1 2193   3.218   4.781   4.093
    1TCM    cl1 2194   3.294   4.886   4.214
    1TCM    cl2 2195   3.342   4.676   4.019
    1TCM     h1 2196   3.141   4.718   4.142
    1TCM    cl3 2197   3.142   4.880   3.966
    1TCM     c1 2198   0.505   3.274   3.490
    1TCM    cl1 2199   0.452   3.131   3.582
    1TCM    cl2 2200   0.459   3.255   3.319
    1TCM     h1 2201   0.456   3.365   3.532
    1TCM    cl3 2202   0.682   3.291   3.503
    1TCM     c1 2203   2.832   0.514   1.936
    1TCM    cl1 2204   2.849   0.442   1.774
    1TCM    cl2 2205   2.678   0.603   1.945
    1TCM     h1 2206   2.833   0.434   2.012
    1TCM    cl3 2207   2.967   0.627   1.965
    1TCM     c1 2208   4.826   5.011   4.347
    1TCM    cl1 2209   4.935   4.986   4.485
    1TCM    cl2 2210   4.832   4.870   4.239
    1TCM     h1 2211   4.722   5.025   4.384
    1TCM    cl3 2212   4.876   5.156   4.257
    1TCM     c1 2213   4.070   0.934   2.063
    1TCM    cl1 2214   4.101   1.074   1.958
    1TCM    cl2 2215   3.942   0.833   1.991
    1TCM     h1 2216   4.163   0.874   2.072
    1TCM    cl3 2217   4.018   0.989   2.223
    1TCM     c1 2218   2.286   4.772   2.409
    1TCM    cl1 2219   2.271   4.621   2.502
    1TCM    cl2 2220   2.327   4.733   2.240
    1TCM     h1 2221   2.189   4.826   2.412
    1TCM    cl3 2222   2.413   4.873   2.480
    1TCM     c1 2223   2.287   2.623   0.875
    1TCM    cl1 2224   2.349   2.759   0.972
    1TCM    cl2 2225   2.191   2.515   0.979
    1TCM     h1 2226   2.223   2.662   0.793
    1TCM    cl3 2227   2.424   2.533   0.806
    1TCM     c1 2228   2.214   4.759   0.454
    1TCM    cl1 2229   2.162   4.726   0.621
    1TCM    cl2 2230   2.166   4.624   0.349
    1TCM     h1 2231   2.166   4.853   0.418
    1TCM    cl3 2232   2.391   4.778   0.449
    1TCM     c1 2233   3.631   1.222   2.337
    1TCM    cl1 2234   3.656   1.105   2.468
    1TCM    cl2 2235   3.592   1.381   2.406
    1TCM     h1 2236   3.724   1.230   2.276
    1TCM    cl3 2237   3.497   1.168   2.233
    1TCM     c1 2238   3.749   4.036   0.884
    1TCM    cl1 2239   3.830   3.912   0.786
    1TCM    cl2 2240   3.789   4.012   1.055
    1TCM     h1 2241   3.782   4.136   0.852
    1TCM    cl3 2242   3.572   4.022   0.862
    1TCM     c1 2243   1.682   4.332   2.121
    1TCM    cl1 2244   1.772   4.249   1.992
    1TCM    cl2 2245   1.788   4.357   2.261
    1TCM     h1 2246   1.647   4.431   2.084
    1TCM    cl3 2247   1.542   4.234   2.169
    1TCM     c1 2248   4.972   2.791   3.017
    1TCM    cl1 2249   5.148   2.816   3.018
    1TCM    cl2 2250   4.908   2.826   2.855
    1TCM     h1 2251   4.950   2.685   3.043
    1TCM    cl3 2252   4.896   2.899   3.136
    1TCM     c1 2253   1.583   1.287   2.278
    1TCM    cl1 2254   1.671   1.149   2.349
    1TCM    cl2 2255   1.471   1.228   2.154
    1TCM     h1 2256   1.526   1.339   2.358
    1TCM    cl3 2257   1.699   1.400   2.205
    1TCM     c1 2258   1.010   4.413   0.295
    1TCM    cl1 2259   1.012   4.464   0.125
    1TCM    cl2 2260   1.075   4.249   0.309
    1TCM     h1 2261   1.072   4.483   0.355
    1TCM    cl3 2262   0.842   4.416   0.356
    1TCM     c1 2263   3.134   2.705   0.938
    1TCM    cl1 2264   3.308   2.700   0.903
    1TCM    cl2 2265   3.106   2.804   1.083
    1TCM     h1 2266   3.080   2.750   0.852
    1TCM    cl3 2267   3.074   2.540   0.966
    1TCM     c1 2268   0.642   1.924   2.618
    1TCM    cl1 2269   0.496   1.924   2.516
    1TCM    cl2 2270   0.599   1.877   2.783
    1TCM     h1 2271   0.715   1.851   2.577
    1TCM    cl3 2272   0.714   2.087   2.619
    1TCM     c1 2273   2.631   0.768   4.984
    1TCM    cl1 2274   2.731   0.886   5.071
    1TCM    cl2 2275   2.519   0.854   4.875
    1TCM     h1 2276   2.696   0.701   4.925
    1TCM    cl3 2277   2.537   0.672   5.101
    1TCM     c1 2278   0.393   4.373   4.227
    1TCM    cl1 2279   0.491   4.250   4.145
    1TCM    cl2 2280   0.448   4.390   4.395
    1TCM     h1 2281   0.403   4.470   4.175
    1TCM    cl3 2282   0.222   4.324   4.226
    1TCM     c1 2283   5.129   4.056   1.558
    1TCM    cl1 2284   5.138   3.941   1.693
    1TCM    cl2 2285   5.101   3.968   1.406
    1TCM     h1 2286   5.046   4.128   1.575
    1TCM    cl3 2287   5.283   4.146   1.547
    1TCM     c1 2288   2.608   2.271   0.460
    1TCM    cl1 2289   2.484   2.384   0.401
    1TCM    cl2 2290   2.581   2.240   0.633
    1TCM     h1 2291   2.600   2.175   0.404
    1TCM    cl3 2292   2.769   2.342   0.437
    1TCM     c1 2293   5.192   5.048   3.604
    1TCM    cl1 2294   5.201   5.100   3.434
    1TCM    cl2 2295   5.317   5.133   3.698
    1TCM     h1 2296   5.092   5.073   3.645
    1TCM    cl3 2297   5.218   4.873   3.614
    1TCM     c1 2298   3.356   2.484   2.171
    1TCM    cl1 2299   3.464   2.614   2.114
    1TCM    cl2 2300   3.194   2.505   2.101
    1TCM     h1 2301   3.398   2.386   2.141
    1TCM    cl3 2302   3.345   2.491   2.349
    1TCM     c1 2303   4.055   1.215   5.182
    1TCM    cl1 2304   4.097   1.354   5.285
    1TCM    cl2 2305   4.166   1.080   5.216
    1TCM     h1 2306   3.950   1.184   5.203
    1TCM    cl3 2307   4.069   1.262   5.011
    1TCM     c1 2308   1.175   2.134   4.459
    1TCM    cl1 2309   1.299   2.136   4.586
    1TCM    cl2 2310   1.115   1.967   4.438
    1TCM     h1 2311   1.090   2.199   4.489
    1TCM    cl3 2312   1.244   2.192   4.306
    1TCM     c1 2313   0.429   0.302   2.120
    1TCM    cl1 2314   0.478   0.242   1.960
    1TCM    cl2 2315   0.550   0.254   2.241
    1TCM     h1 2316   0.422   0.413   2.117
    1TCM    cl3 2317   0.271   0.234   2.163
    1TCM     c1 2318   3.821   0.424   1.086
    1TCM    cl1 2319   3.921   0.561   1.140
    1TCM    cl2 2320   3.649   0.471   1.092
    1TCM     h1 2321   3.848   0.397   0.982
    1TCM    cl3 2322   3.848   0.285   1.193
    1TCM     c1 2323   3.175   2.265   3.642
    1TCM    cl1 2324   3.311   2.346   3.560
    1TCM    cl2 2325   3.176   2.309   3.814
    1TCM     h1 2326   3.080   2.298   3.596
    1TCM    cl3 2327   3.193   2.089   3.625
    1TCM     c1 2328   3.754   2.851   3.538
    1TCM    cl1 2329   3.878   2.952   3.614
    1TCM    cl2 2330   3.828   2.701   3.478
    1TCM     h1 2331   3.675   2.826   3.612
    1TCM    cl3 2332   3.681   2.939   3.401
    1TCM     c1 2333   3.270   4.419   1.786
    1TCM    cl1 2334   3.430   4.480   1.834
    1TCM    cl2 2335   3.273   4.374   1.613
    1TCM     h1 2336   3.244   4.330   1.847
    1TCM    cl3 2337   3.148   4.546   1.811
    1TCM     c1 2338   0.518   1.329   4.228
    1TCM    cl1 2339   0.430   1.174   4.226
    1TCM    cl2 2340   0.514   1.402   4.065
    1TCM     h1 2341   0.469   1.398   4.300
    1TCM    cl3 2342   0.686   1.301   4.276
    1TCM     c1 2343   0.369   1.911   1.603
    1TCM    cl1 2344   0.476   1.814   1.707
    1TCM    cl2 2345   0.217   1.822   1.576
    1TCM     h1 2346   0.347   2.008   1.653
    1TCM    cl3 2347   0.448   1.941   1.447
    1TCM     c1 2348   0.066   2.888   1.298
    1TCM    cl1 2349   0.230   2.875   1.230
    1TCM    cl2 2350   0.002   3.051   1.268
    1TCM     h1 2351  -0.000   2.813   1.250
    1TCM    cl3 2352   0.072   2.858   1.473
    1TCM     c1 2353   0.814   3.735   0.089
    1TCM    cl1 2354   0.763   3.565   0.081
    1TCM    cl2 2355   0.697   3.836   0.000
    1TCM     h1 2356   0.818   3.767   0.195
    1TCM    cl3 2357   0.975   3.751   0.015
    1TCM     c1 2358   3.552   1.325   1.467
    1TCM    cl1 2359   3.526   1.171   1.383
    1TCM    cl2 2360   3.684   1.307   1.586
    1TCM     h1 2361   3.580   1.403   1.394
    1TCM    cl3 2362   3.403   1.373   1.551
    1TCM     c1 2363   3.501   1.718   4.724
    1TCM    cl1 2364   3.347   1.649   4.779
    1TCM    cl2 2365   3.627   1.686   4.846
    1TCM     h1 2366   3.531   1.672   4.628
    1TCM    cl3 2367   3.483   1.894   4.702
    1TCM     c1 2368   0.719   3.963   4.300
    1TCM    cl1 2369   0.567   4.054   4.308
    1TCM    cl2 2370   0.848   4.068   4.236
    1TCM     h1 2371   0.747   3.929   4.402
    1TCM    cl3 2372   0.699   3.822   4.193
    1TCM     c1 2373   3.624   3.218   5.182
    1TCM    cl1 2374   3.587   3.130   5.032
    1TCM    cl2 2375   3.513   3.165   5.310
    1TCM     h1 2376   3.729   3.196   5.212
    1TCM    cl3 2377   3.605   3.393   5.154
    1TCM     c1 2378   0.967   2.724   1.512
    1TCM    cl1 2379   0.910   2.572   1.585
    1TCM    cl2 2380   1.141   2.712   1.479
    1TCM     h1 2381   0.912   2.741   1.416
    1TCM    cl3 2382   0.936   2.859   1.623
    1TCM     c1 2383   4.400   5.074   5.200
    1TCM    cl1 2384   4.280   5.095   5.329
    1TCM    cl2 2385   4.561   5.118   5.261
    1TCM     h1 2386   4.401   4.969   5.166
    1TCM    cl3 2387   4.358   5.180   5.062
    1TCM     c1 2388   4.418   1.108   0.308
    1TCM    cl1 2389   4.257   1.124   0.232
    1TCM    cl2 2390   4.399   1.042   0.472
    1TCM     h1 2391   4.481   1.040   0.247
    1TCM    cl3 2392   4.495   1.268   0.317
    1TCM     c1 2393   3.086   0.843   3.487
    1TCM    cl1 2394   3.049   0.832   3.313
    1TCM    cl2 2395   3.200   0.977   3.514
    1TCM     h1 2396   2.992   0.862   3.543
    1TCM    cl3 2397   3.159   0.691   3.541
    1TCM     c1 2398   4.350   1.435   4.885
    1TCM    cl1 2399   4.484   1.537   4.829
    1TCM    cl2 2400   4.342   1.288   4.785
    1TCM     h1 2401   4.367   1.406   4.991
    1TCM    cl3 2402   4.197   1.524   4.872
    1TCM     c1 2403   4.768   2.154   3.824
    1TCM    cl1 2404   4.673   2.004   3.822
    1TCM    cl2 2405   4.685   2.278   3.727
    1TCM     h1 2406   4.780   2.190   3.928
    1TCM    cl3 2407   4.929   2.123   3.754
    1TCM     c1 2408   0.104   4.911   3.854
    1TCM    cl1 2409   0.002   4.806   3.752
    1TCM    cl2 2410   0.275   4.869   3.830
    1TCM     h1 2411   0.087   5.017   3.826
    1TCM    cl3 2412   0.060   4.887   4.025
    1TCM     c1 2413   3.363   0.740   3.807
    1TCM    cl1 2414   3.219   0.651   3.752
    1TCM    cl2 2415   3.503   0.696   3.706
    1TCM     h1 2416   3.344   0.849   3.799
    1TCM    cl3 2417   3.397   0.698   3.977
    1TCM     c1 2418   3.799   3.748   1.641
    1TCM    cl1 2419   3.943   3.823   1.570
    1TCM    cl2 2420   3.794   3.781   1.815
    1TCM     h1 2421   3.708   3.790   1.593
    1TCM    cl3 2422   3.804   3.572   1.614
    1TCM     c1 2423   0.539   0.175   1.379
    1TCM    cl1 2424   0.636   0.045   1.452
    1TCM    cl2 2425   0.395   0.105   1.301
    1TCM     h1 2426   0.507   0.246   1.458
    1TCM    cl3 2427   0.637   0.260   1.257
    1TCM     c1 2428   2.162   3.967   3.690
    1TCM    cl1 2429   2.293   3.940   3.808
    1TCM    cl2 2430   2.209   3.897   3.534
    1TCM     h1 2431   2.069   3.919   3.726
    1TCM    cl3 2432   2.135   4.142   3.671
    1TCM     c1 2433   4.520   3.948   1.340
    1TCM    cl1 2434   4.549   3.927   1.514
    1TCM    cl2 2435   4.650   4.047   1.270
    1TCM     h1 2436   4.518   3.849   1.290
    1TCM    cl3 2437   4.364   4.029   1.315
    1TCM     c1 2438   3.165   4.370   4.527
    1TCM    cl1 2439   2.999   4.409   4.476
    1TCM    cl2 2440   3.159   4.258   4.665
    1TCM     h1 2441   3.219   4.322   4.443
    1TCM    cl3 2442   3.248   4.519   4.575
    1TCM     c1 2443   2.075   1.870   4.791
    1TCM    cl1 2444   1.937   1.976   4.827
    1TCM    cl2 2445   2.047   1.787   4.636
    1TCM     h1 2446   2.168   1.930   4.785
    1TCM    cl3 2447   2.092   1.749   4.920
    1TCM     c1 2448   1.545   3.455   1.997
    1TCM    cl1 2449   1.404   3.560   2.030
    1TCM    cl2 2450   1.599   3.380   2.149
    1TCM     h1 2451   1.516   3.377   1.925
    1TCM    cl3 2452   1.677   3.553   1.929
    1TCM     c1 2453   1.820   0.112   1.507
    1TCM    cl1 2454   1.891   0.095   1.669
    1TCM    cl2 2455   1.944   0.169   1.393
    1TCM     h1 2456   1.781   0.014   1.473
    1TCM    cl3 2457   1.686   0.229   1.513
    1TCM     c1 2458   4.191   4.352   3.796
    1TCM    cl1 2459   4.095   4.423   3.664
    1TCM    cl2 2460   4.112   4.385   3.952
    1TCM     h1 2461   4.198   4.242   3.781
    1TCM    cl3 2462   4.354   4.423   3.796
    1TCM     c1 2463   0.700   1.038   3.744
    1TCM    cl1 2464   0.752   1.063   3.576
    1TCM    cl2 2465   0.636   0.873   3.763
    1TCM     h1 2466   0.787   1.052   3.812
    1TCM    cl3 2467   0.573   1.155   3.785
    1TCM     c1 2468   1.687   4.458   0.702
    1TCM    cl1 2469   1.814   4.581   0.679
    1TCM    cl2 2470   1.575   4.511   0.829
    1TCM     h1 2471   1.631   4.444   0.607
    1TCM    cl3 2472   1.762   4.304   0.749
    1TCM     c1 2473   3.245   0.394   0.150
    1TCM    cl1 2474   3.140   0.303   0.260
    1TCM    cl2 2475   3.272   0.300   0.001
    1TCM     h1 2476   3.196   0.491   0.124
    1TCM    cl3 2477   3.401   0.426   0.229
    1TCM     c1 2478   3.790   0.939   3.281
    1TCM    cl1 2479   3.778   0.957   3.105
    1TCM    cl2 2480   3.961   0.925   3.329
    1TCM     h1 2481   3.744   1.027   3.331
    1TCM    cl3 2482   3.703   0.792   3.331
    1TCM     c1 2483   0.150   4.597   4.006
    1TCM    cl1 2484   0.285   4.507   3.933
    1TCM    cl2 2485   0.213   4.703   4.134
    1TCM     h1 2486   0.101   4.659   3.928
    1TCM    cl3 2487   0.033   4.484   4.076
    1TCM     c1 2488   4.444   1.691   5.233
    1TCM    cl1 2489   4.592   1.686   5.135
    1TCM    cl2 2490   4.302   1.699   5.126
    1TCM     h1 2491   4.438   1.599   5.295
    1TCM    cl3 2492   4.447   1.833   5.339
    1TCM     c1 2493   0.494   0.664   2.771
    1TCM    cl1 2494   0.618   0.628   2.649
    1TCM    cl2 2495   0.341   0.585   2.726
    1TCM     h1 2496   0.527   0.626   2.870
    1TCM    cl3 2497   0.469   0.840   2.780
    1TCM     c1 2498   0.597   1.933   2.129
    1TCM    cl1 2499   0.770   1.893   2.117
    1TCM    cl2 2500   0.561   2.076   2.030
    1TCM     h1 2501   0.537   1.847   2.093
    1TCM    cl3 2502   0.556   1.966   2.299
    1TCM     c1 2503   3.646   2.232   1.624
    1TCM    cl1 2504   3.491   2.288   1.556
    1TCM    cl2 2505   3.731   2.132   1.504
    1TCM     h1 2506   3.708   2.320   1.651
    1TCM    cl3 2507   3.614   2.135   1.770
    1TCM     c1 2508   2.697   0.917   4.407
    1TCM    cl1 2509   2.584   0.975   4.283
    1TCM    cl2 2510   2.618   0.794   4.508
    1TCM     h1 2511   2.786   0.873   4.358
    1TCM    cl3 2512   2.748   1.053   4.510
    1TCM     c1 2513   4.633   2.544   4.915
    1TCM    cl1 2514   4.615   2.674   5.035
    1TCM    cl2 2515   4.525   2.409   4.958
    1TCM     h1 2516   4.605   2.583   4.815
    1TCM    cl3 2517   4.801   2.487   4.913
    1TCM     c1 2518   3.818   0.757   2.847
    1TCM    cl1 2519   3.712   0.762   2.704
    1TCM    cl2 2520   3.887   0.918   2.874
    1TCM     h1 2521   3.758   0.727   2.935
    1TCM    cl3 2522   3.948   0.640   2.821
    1TCM     c1 2523   3.305   2.219   3.300
    1TCM    cl1 2524   3.277   2.052   3.246
    1TCM    cl2 2525   3.295   2.329   3.160
    1TCM     h1 2526   3.228   2.247   3.375
    1TCM    cl3 2527   3.467   2.231   3.373
    1TCM     c1 2528   3.828   1.636   1.576
    1TCM    cl1 2529   3.864   1.762   1.456
    1TCM    cl2 2530   3.873   1.693   1.738
    1TCM     h1 2531   3.719   1.613   1.574
    1TCM    cl3 2532   3.921   1.489   1.538
    1TCM     c1 2533   0.419   3.446   1.597
    1TCM    cl1 2534   0.254   3.427   1.658
    1TCM    cl2 2535   0.444   3.340   1.457
    1TCM     h1 2536   0.435   3.552   1.566
    1TCM    cl3 2537   0.535   3.404   1.725
    1TCM     c1 2538   2.479   3.793   4.628
    1TCM    cl1 2539   2.414   3.656   4.721
    1TCM    cl2 2540   2.386   3.940   4.665
    1TCM     h1 2541   2.586   3.808   4.656
    1TCM    cl3 2542   2.467   3.758   4.454
    1TCM     c1 2543   1.941   1.610   1.929
    1TCM    cl1 2544   2.105   1.616   1.999
    1TCM    cl2 2545   1.952   1.574   1.756
    1TCM     h1 2546   1.882   1.532   1.980
    1TCM    cl3 2547   1.862   1.768   1.952
    1TCM     c1 2548   4.513   2.592   0.380
    1TCM    cl1 2549   4.660   2.677   0.325
    1TCM    cl2 2550   4.558   2.467   0.497
    1TCM     h1 2551   4.444   2.665   0.428
    1TCM    cl3 2552   4.433   2.517   0.240
    1TCM     c1 2553   3.109   4.600   3.586
    1TCM    cl1 2554   2.965   4.542   3.501
    1TCM    cl2 2555   3.238   4.478   3.574
    1TCM     h1 2556   3.144   4.695   3.540
    1TCM    cl3 2557   3.070   4.628   3.757
    1TCM     c1 2558   5.002   3.885   5.225
    1TCM    cl1 2559   4.869   3.794   5.300
    1TCM    cl2 2560   4.992   4.055   5.274
    1TCM     h1 2561   5.099   3.842   5.258
    1TCM    cl3 2562   4.989   3.873   5.048
    1TCM     c1 2563   1.174   2.673   3.335
    1TCM    cl1 2564   1.059   2.573   3.425
    1TCM    cl2 2565   1.148   2.650   3.160
    1TCM     h1 2566   1.159   2.780   3.361
    1TCM    cl3 2567   1.340   2.625   3.377
    1TCM     c1 2568   2.500   2.834   1.309
    1TCM    cl1 2569   2.371   2.887   1.199
    1TCM    cl2 2570   2.523   2.658   1.293
    1TCM     h1 2571   2.594   2.886   1.285
    1TCM    cl3 2572   2.453   2.872   1.477
    1TCM     c1 2573   0.134   3.562   3.581
    1TCM    cl1 2574   0.249   3.562   3.445
    1TCM    cl2 2575   0.001   3.449   3.546
    1TCM     h1 2576   0.186   3.529   3.674
    1TCM    cl3 2577   0.069   3.726   3.603
    1TCM     c1 2578   2.483   4.845   3.300
    1TCM    cl1 2579   2.597   4.815   3.433
    1TCM    cl2 2580   2.346   4.732   3.314
    1TCM     h1 2581   2.446   4.949   3.305
    1TCM    cl3 2582   2.565   4.819   3.144
    1TCM     c1 2583   4.999   2.730   4.194
    1TCM    cl1 2584   5.169   2.780   4.201
    1TCM    cl2 2585   4.895   2.875   4.189
    1TCM     h1 2586   4.982   2.669   4.103
    1TCM    cl3 2587   4.959   2.635   4.339
    1TCM     c1 2588   2.575   2.254   3.561
    1TCM    cl1 2589   2.407   2.200   3.538
    1TCM    cl2 2590   2.640   2.311   3.406
    1TCM     h1 2591   2.577   2.337   3.635
    1TCM    cl3 2592   2.674   2.119   3.620
    1TCM     c1 2593   1.978   0.899   4.004
    1TCM    cl1 2594   2.155   0.896   4.024
    1TCM    cl2 2595   1.927   1.060   3.949
    1TCM     h1 2596   1.948   0.822   3.930
    1TCM    cl3 2597   1.901   0.862   4.160
    1TCM     c1 2598   0.917   0.365   0.877
    1TCM    cl1 2599   0.962   0.513   0.965
    1TCM    cl2 2600   0.960   0.383   0.705
    1TCM     h1 2601   0.971   0.278   0.920
    1TCM    cl3 2602   0.742   0.339   0.892
    1TCM     c1 2603   4.155   1.430   3.660
    1TCM    cl1 2604   4.051   1.573   3.674
    1TCM    cl2 2605   4.190   1.366   3.823
    1TCM     h1 2606   4.103   1.352   3.601
    1TCM    cl3 2607   4.307   1.475   3.580
    1TCM     c1 2608   3.235   4.989   3.378
    1TCM    cl1 2609   3.402   5.015   3.435
    1TCM    cl2 2610   3.138   4.917   3.508
    1TCM     h1 2611   3.191   5.086   3.348
    1TCM    cl3 2612   3.237   4.879   3.238
    1TCM     c1 2613   2.221   2.558   3.105
    1TCM    cl1 2614   2.121   2.456   2.998
    1TCM    cl2 2615   2.125   2.695   3.164
    1TCM     h1 2616   2.257   2.497   3.191
    1TCM    cl3 2617   2.361   2.618   3.013
    1TCM     c1 2618   1.488   0.713   5.244
    1TCM    cl1 2619   1.520   0.877   5.304
    1TCM    cl2 2620   1.447   0.720   5.071
    1TCM     h1 2621   1.578   0.650   5.259
    1TCM    cl3 2622   1.351   0.643   5.334
    1TCM     c1 2623   2.296   4.382   4.349
    1TCM    cl1 2624   2.270   4.556   4.323
    1TCM    cl2 2625   2.240   4.338   4.512
    1TCM     h1 2626   2.239   4.325   4.273
    1TCM    cl3 2627   2.469   4.345   4.333
    1TCM     c1 2628   0.781   3.762   5.051
    1TCM    cl1 2629   0.771   3.898   4.937
    1TCM    cl2 2630   0.617   3.708   5.093
    1TCM     h1 2631   0.836   3.678   5.003
    1TCM    cl3 2632   0.866   3.814   5.198
    1TCM     c1 2633   5.094   3.052   1.871
    1TCM    cl1 2634   5.071   3.195   1.767
    1TCM    cl2 2635   5.083   3.101   2.042
    1TCM     h1 2636   5.015   2.977   1.849
    1TCM    cl3 2637   5.253   2.981   1.840
    1TCM     c1 2638   3.345   1.218   3.620
    1TCM    cl1 2639   3.377   1.364   3.716
    1TCM    cl2 2640   3.387   1.248   3.450
    1TCM     h1 2641   3.405   1.134   3.659
    1TCM    cl3 2642   3.172   1.177   3.632
    1TCM     c1 2643   0.083   1.324   1.830
    1TCM    cl1 2644   0.252   1.271   1.850
    1TCM    cl2 2645   0.000   1.320   1.987
    1TCM     h1 2646   0.081   1.427   1.789
    1TCM    cl3 2647   0.000   1.214   1.717
    1TCM     c1 2648   1.525   0.107   1.315
    1TCM    cl1 2649   1.395   0.031   1.221
    1TCM    cl2 2650   1.683   0.054   1.251
    1TCM     h1 2651   1.517   0.217   1.307
    1TCM    cl3 2652   1.511   0.058   1.485
    1TCM     c1 2653   2.756   2.942   3.916
    1TCM    cl1 2654   2.815   2.798   4.003
    1TCM    cl2 2655   2.878   3.071   3.926
    1TCM     h1 2656   2.739   2.916   3.810
    1TCM    cl3 2657   2.605   2.998   3.990
    1TCM     c1 2658   5.135   3.317   1.235
    1TCM    cl1 2659   5.228   3.439   1.146
    1TCM    cl2 2660   5.038   3.398   1.361
    1TCM     h1 2661   5.067   3.264   1.165
    1TCM    cl3 2662   5.246   3.201   1.312
    1TCM     c1 2663   1.887   0.289   0.187
    1TCM    cl1 2664   1.755   0.170   0.197
    1TCM    cl2 2665   2.013   0.229   0.076
    1TCM     h1 2666   1.847   0.385   0.150
    1TCM    cl3 2667   1.958   0.313   0.349
    1TCM     c1 2668   1.111   1.986   3.025
    1TCM    cl1 2669   1.186   1.846   2.946
    1TCM    cl2 2670   1.236   2.082   3.108
    1TCM     h1 2671   1.060   2.049   2.949
    1TCM    cl3 2672   0.991   1.930   3.144
    1TCM     c1 2673   2.704   3.868   2.465
    1TCM    cl1 2674   2.852   3.811   2.386
    1TCM    cl2 2675   2.743   4.000   2.578
    1TCM     h1 2676   2.633   3.905   2.388
    1TCM    cl3 2677   2.629   3.734   2.554
    1TCM     c1 2678   1.495   0.632   2.921
    1TCM    cl1 2679   1.393   0.748   2.833
    1TCM    cl2 2680   1.450   0.631   3.092
    1TCM     h1 2681   1.481   0.530   2.878
    1TCM    cl3 2682   1.666   0.679   2.905
    1TCM     c1 2683   5.118   5.017   2.843
    1TCM    cl1 2684   5.019   4.893   2.762
    1TCM    cl2 2685   5.133   4.977   3.016
    1TCM     h1 2686   5.219   5.019   2.797
    1TCM    cl3 2687   5.041   5.176   2.826
    1TCM     c1 2688   2.613   3.889   3.223
    1TCM    cl1 2689   2.487   3.957   3.329
    1TCM    cl2 2690   2.626   3.989   3.076
    1TCM     h1 2691   2.710   3.889   3.276
    1TCM    cl3 2692   2.569   3.723   3.178
    1TCM     c1 2693   5.090   4.984   0.205
    1TCM    cl1 2694   4.920   5.032   0.185
    1TCM    cl2 2695   5.157   4.935   0.047
    1TCM     h1 2696   5.149   5.069   0.245
    1TCM    cl3 2697   5.100   4.847   0.318
    1TCM     c1 2698   1.540   4.066   5.169
    1TCM    cl1 2699   1.390   4.052   5.075
    1TCM    cl2 2700   1.630   3.913   5.161
    1TCM     h1 2701   1.602   4.148   5.128
    1TCM    cl3 2702   1.500   4.102   5.339
    1TCM     c1 2703   0.604   2.063   3.468
    1TCM    cl1 2704   0.496   2.133   3.345
    1TCM    cl2 2705   0.595   1.885   3.459
    1TCM     h1 2706   0.708   2.096   3.449
    1TCM    cl3 2707   0.553   2.116   3.630
    1TCM     c1 2708   4.647   0.451   4.853
    1TCM    cl1 2709   4.647   0.465   5.030
    1TCM    cl2 2710   4.632   0.613   4.781
    1TCM     h1 2711   4.742   0.404   4.820
    1TCM    cl3 2712   4.510   0.350   4.801
    1TCM     c1 2713   4.340   2.424   2.464
    1TCM    cl1 2714   4.251   2.281   2.521
    1TCM    cl2 2715   4.465   2.467   2.584
    1TCM     h1 2716   4.389   2.402   2.367
    1TCM    cl3 2717   4.228   2.560   2.444
    1TCM     c1 2718   3.439   4.742   1.638
    1TCM    cl1 2719   3.371   4.578   1.624
    1TCM    cl2 2720   3.561   4.767   1.510
    1TCM     h1 2721   3.358   4.817   1.626
    1TCM    cl3 2722   3.515   4.762   1.797
    1TCM     c1 2723   5.213   5.180   0.752
    1TCM    cl1 2724   5.257   5.339   0.818
    1TCM    cl2 2725   5.036   5.171   0.734
    1TCM     h1 2726   5.261   5.166   0.653
    1TCM    cl3 2727   5.268   5.052   0.864
    1TCM     c1 2728   3.973   5.147   0.254
    1TCM    cl1 2729   4.017   5.087   0.416
    1TCM    cl2 2730   4.121   5.186   0.163
    1TCM     h1 2731   3.915   5.069   0.200
    1TCM    cl3 2732   3.873   5.294   0.270
    1TCM     c1 2733   0.716   5.278   2.449
    1TCM    cl1 2734   0.588   5.337   2.558
    1TCM    cl2 2735   0.661   5.290   2.280
    1TCM     h1 2736   0.807   5.340   2.463
    1TCM    cl3 2737   0.753   5.109   2.488
    1TCM     c1 2738   2.880   5.151   4.397
    1TCM    cl1 2739   2.818   5.247   4.261
    1TCM    cl2 2740   2.977   5.016   4.334
    1TCM     h1 2741   2.943   5.215   4.462
    1TCM    cl3 2742   2.744   5.087   4.491
    1TCM     c1 2743   4.417   4.187   1.832
    1TCM    cl1 2744   4.279   4.161   1.723
    1TCM    cl2 2745   4.358   4.207   1.999
    1TCM     h1 2746   4.485   4.100   1.827
    1TCM    cl3 2747   4.505   4.334   1.783
    1TCM     c1 2748   3.244   3.725   4.881
    1TCM    cl1 2749   3.358   3.714   5.017
    1TCM    cl2 2750   3.321   3.661   4.734
    1TCM     h1 2751   3.153   3.665   4.904
    1TCM    cl3 2752   3.198   3.895   4.854
    1TCM     c1 2753   2.763   0.531   4.343
    1TCM    cl1 2754   2.676   0.525   4.498
    1TCM    cl2 2755   2.721   0.387   4.246
    1TCM     h1 2756   2.733   0.622   4.287
    1TCM    cl3 2757   2.938   0.534   4.373
    1TCM     c1 2758   3.344   3.352   1.812
    1TCM    cl1 2759   3.487   3.436   1.748
    1TCM    cl2 2760   3.328   3.386   1.986
    1TCM     h1 2761   3.253   3.386   1.759
    1TCM    cl3 2762   3.363   3.177   1.789
    1TCM     c1 2763   0.121   3.103   3.465
    1TCM    cl1 2764   0.223   3.088   3.320
    1TCM    cl2 2765   0.223   3.099   3.611
    1TCM     h1 2766   0.065   3.199   3.461
    1TCM    cl3 2767   0.005   2.968   3.470
    1TCM     c1 2768   1.510   3.840   3.101
    1TCM    cl1 2769   1.600   3.868   3.252
    1TCM    cl2 2770   1.514   3.987   3.001
    1TCM     h1 2771   1.556   3.756   3.046
    1TCM    cl3 2772   1.341   3.800   3.140
    1TCM     c1 2773   2.839   4.216   1.749
    1TCM    cl1 2774   2.700   4.106   1.742
    1TCM    cl2 2775   2.898   4.226   1.917
    1TCM     h1 2776   2.920   4.178   1.684
    1TCM    cl3 2777   2.790   4.378   1.695
    1TCM     c1 2778   5.139   1.670   2.956
    1TCM    cl1 2779   5.084   1.645   2.789
    1TCM    cl2 2780   5.317   1.671   2.960
    1TCM     h1 2781   5.101   1.767   2.994
    1TCM    cl3 2782   5.078   1.538   3.058
    1TCM     c1 2783   4.408   3.399   2.961
    1TCM    cl1 2784   4.422   3.304   2.812
    1TCM    cl2 2785   4.337   3.299   3.090
    1TCM     h1 2786   4.509   3.433   2.992
    1TCM    cl3 2787   4.305   3.541   2.932
    1TCM     c1 2788   2.716   4.971   2.636
    1TCM    cl1 2789   2.720   4.794   2.656
    1TCM    cl2 2790   2.744   5.049   2.793
    1TCM     h1 2791   2.794   5.002   2.565
    1TCM    cl3 2792   2.556   5.019   2.575
    1TCM     c1 2793   3.023   3.273   2.425
    1TCM    cl1 2794   2.925   3.198   2.298
    1TCM    cl2 2795   3.193   3.280   2.372
    1TCM     h1 2796   2.987   3.376   2.444
    1TCM    cl3 2797   3.011   3.178   2.574
    1TCM     c1 2798   1.926   3.496   4.127
    1TCM    cl1 2799   1.902   3.642   4.029
    1TCM    cl2 2800   1.994   3.540   4.285
    1TCM     h1 2801   1.829   3.444   4.141
    1TCM    cl3 2802   2.039   3.387   4.042
    1TCM     c1 2803   4.982   1.934   0.511
    1TCM    cl1 2804   4.933   1.843   0.366
    1TCM    cl2 2805   4.929   1.847   0.656
    1TCM     h1 2806   5.092   1.945   0.512
    1TCM    cl3 2807   4.906   2.095   0.507
    1TCM     c1 2808   2.066   3.095   2.079
    1TCM    cl1 2809   2.193   3.154   2.189
    1TCM    cl2 2810   2.141   3.011   1.942
    1TCM     h1 2811   2.000   3.024   2.134
    1TCM    cl3 2812   1.970   3.232   2.020
    1TCM     c1 2813   1.991   0.950   4.968
    1TCM    cl1 2814   2.040   1.117   4.934
    1TCM    cl2 2815   2.111   0.838   4.898
    1TCM     h1 2816   1.986   0.934   5.078
    1TCM    cl3 2817   1.832   0.918   4.896
    1TCM     c1 2818   0.320   5.094   4.006
    1TCM    cl1 2819   0.442   5.164   4.114
    1TCM    cl2 2820   0.351   5.147   3.839
    1TCM     h1 2821   0.326   4.983   4.010
    1TCM    cl3 2822   0.158   5.146   4.056
    1TCM     c1 2823   1.659   4.495   1.724
    1TCM    cl1 2824   1.650   4.629   1.609
    1TCM    cl2 2825   1.826   4.478   1.783
    1TCM     h1 2826   1.592   4.515   1.810
    1TCM    cl3 2827   1.610   4.344   1.644
    1TCM     c1 2828   4.929   0.953   4.249
    1TCM    cl1 2829   4.932   0.872   4.407
    1TCM    cl2 2830   4.877   0.837   4.124
    1TCM     h1 2831   4.857   1.038   4.252
    1TCM    cl3 2832   5.091   1.014   4.209
    1TCM     c1 2833   2.350   3.237   0.255
    1TCM    cl1 2834   2.359   3.378   0.148
    1TCM    cl2 2835   2.307   3.290   0.420
    1TCM     h1 2836   2.272   3.167   0.218
    1TCM    cl3 2837   2.507   3.155   0.259
    1TCM     c1 2838   2.690   4.314   1.430
    1TCM    cl1 2839   2.749   4.468   1.364
    1TCM    cl2 2840   2.649   4.204   1.296
    1TCM     h1 2841   2.770   4.268   1.492
    1TCM    cl3 2842   2.546   4.342   1.530
    1TCM     c1 2843   1.605   0.917   4.056
    1TCM    cl1 2844   1.619   0.752   4.120
    1TCM    cl2 2845   1.738   0.947   3.941
    1TCM     h1 2846   1.508   0.928   4.003
    1TCM    cl3 2847   1.615   1.033   4.189
    1TCM     c1 2848   1.600   1.126   2.867
    1TCM    cl1 2849   1.721   1.192   2.754
    1TCM    cl2 2850   1.594   0.949   2.849
    1TCM     h1 2851   1.629   1.151   2.971
    1TCM    cl3 2852   1.441   1.195   2.830
    1TCM     c1 2853   1.990   3.193   3.478
    1TCM    cl1 2854   1.961   3.172   3.303
    1TCM    cl2 2855   2.033   3.363   3.510
    1TCM     h1 2856   1.898   3.167   3.534
    1TCM    cl3 2857   2.123   3.088   3.529
    1TCM     c1 2858   3.871   4.306   3.048
    1TCM    cl1 2859   3.793   4.449   3.120
    1TCM    cl2 2860   3.878   4.325   2.872
    1TCM     h1 2861   3.973   4.295   3.089
    1TCM    cl3 2862   3.776   4.161   3.089
    1TCM     c1 2863   2.710   5.169   0.497
    1TCM    cl1 2864   2.886   5.147   0.490
    1TCM    cl2 2865   2.674   5.329   0.565
    1TCM     h1 2866   2.668   5.161   0.395
    1TCM    cl3 2867   2.638   5.043   0.600
    1TCM     c1 2868   1.650   3.807   4.111
    1TCM    cl1 2869   1.772   3.936   4.103
    1TCM    cl2 2870   1.698   3.689   4.235
    1TCM     h1 2871   1.552   3.851   4.138
    1TCM    cl3 2872   1.639   3.726   3.953
    1TCM     c1 2873   2.362   2.237   1.326
    1TCM    cl1 2874   2.507   2.335   1.357
    1TCM    cl2 2875   2.234   2.340   1.259
    1TCM     h1 2876   2.386   2.156   1.254
    1TCM    cl3 2877   2.306   2.165   1.479
    1TCM     c1 2878   3.065   0.126   3.762
    1TCM    cl1 2879   3.189   0.059   3.871
    1TCM    cl2 2880   2.984   0.263   3.841
    1TCM     h1 2881   3.113   0.161   3.668
    1TCM    cl3 2882   2.945   0.000   3.724
    1TCM     c1 2883   2.104   1.279   2.159
    1TCM    cl1 2884   2.176   1.350   2.013
    1TCM    cl2 2885   1.928   1.301   2.155
    1TCM     h1 2886   2.128   1.171   2.163
    1TCM    cl3 2887   2.170   1.359   2.303
    1TCM     c1 2888   2.319   2.847   0.283
    1TCM    cl1 2889   2.253   2.848   0.449
    1TCM    cl2 2890   2.244   2.714   0.191
    1TCM     h1 2891   2.296   2.944   0.234
    1TCM    cl3 2892   2.495   2.824   0.289
    1TCM     c1 2893   3.601   2.499   4.370
    1TCM    cl1 2894   3.680   2.652   4.412
    1TCM    cl2 2895   3.724   2.381   4.320
    1TCM     h1 2896   3.546   2.460   4.458
    1TCM    cl3 2897   3.487   2.526   4.236
    1TCM     c1 2898   0.775   0.437   1.993
    1TCM    cl1 2899   0.635   0.396   1.891
    1TCM    cl2 2900   0.738   0.395   2.162
    1TCM     h1 2901   0.863   0.379   1.960
    1TCM    cl3 2902   0.808   0.611   1.981
    1TCM     c1 2903   0.078   2.883   3.888
    1TCM    cl1 2904   0.128   3.053   3.907
    1TCM    cl2 2905   0.011   2.823   4.041
    1TCM     h1 2906   0.001   2.876   3.808
    1TCM    cl3 2907   0.219   2.785   3.842
    1TCM     c1 2908   4.293   4.860   0.793
    1TCM    cl1 2909   4.324   4.860   0.968
    1TCM    cl2 2910   4.330   5.021   0.726
    1TCM     h1 2911   4.357   4.784   0.744
    1TCM    cl3 2912   4.122   4.822   0.763
    1TCM     c1 2913   0.286   4.317   1.089
    1TCM    cl1 2914   0.270   4.141   1.071
    1TCM    cl2 2915   0.138   4.397   1.030
    1TCM     h1 2916   0.301   4.342   1.196
    1TCM    cl3 2917   0.426   4.374   0.995
    1TCM     c1 2918   2.187   2.364   3.843
    1TCM    cl1 2919   2.280   2.419   3.701
    1TCM    cl2 2920   2.287   2.383   3.989
    1TCM     h1 2921   2.095   2.425   3.853
    1TCM    cl3 2922   2.143   2.193   3.823
    1TCM     c1 2923   0.596   4.052   1.279
    1TCM    cl1 2924   0.492   4.118   1.151
    1TCM    cl2 2925   0.536   4.107   1.438
    1TCM     h1 2926   0.593   3.941   1.275
    1TCM    cl3 2927   0.762   4.108   1.256
    1TCM     c1 2928   1.514   3.856   0.416
    1TCM    cl1 2929   1.503   3.698   0.333
    1TCM    cl2 2930   1.680   3.879   0.476
    1TCM     h1 2931   1.488   3.937   0.344
    1TCM    cl3 2932   1.400   3.859   0.553
    1TCM     c1 2933   3.154   2.131   2.562
    1TCM    cl1 2934   3.272   1.998   2.550
    1TCM    cl2 2935   3.165   2.234   2.417
    1TCM     h1 2936   3.051   2.089   2.569
    1TCM    cl3 2937   3.188   2.229   2.706
    1TCM     c1 2938   1.932   2.763   2.533
    1TCM    cl1 2939   2.007   2.711   2.686
    1TCM    cl2 2940   1.756   2.740   2.543
    1TCM     h1 2941   1.954   2.870   2.516
    1TCM    cl3 2942   1.997   2.666   2.399
    1TCM     c1 2943   3.413   5.127   2.095
    1TCM    cl1 2944   3.348   5.245   1.979
    1TCM    cl2 2945   3.278   5.042   2.174
    1TCM     h1 2946   3.476   5.054   2.041
    1TCM    cl3 2947   3.510   5.212   2.217
    1TCM     c1 2948   1.053   2.598   4.468
    1TCM    cl1 2949   1.115   2.756   4.522
    1TCM    cl2 2950   1.157   2.535   4.339
    1TCM     h1 2951   1.054   2.528   4.554
    1TCM    cl3 2952   0.887   2.617   4.408
    1TCM     c1 2953   4.590   3.907   4.941
    1TCM    cl1 2954   4.669   3.775   5.030
    1TCM    cl2 2955   4.646   3.906   4.772
    1TCM     h1 2956   4.480   3.893   4.944
    1TCM    cl3 2957   4.632   4.063   5.016
    1TCM     c1 2958   4.918   1.880   4.162
    1TCM    cl1 2959   5.085   1.822   4.184
    1TCM    cl2 2960   4.868   1.855   3.994
    1TCM     h1 2961   4.850   1.825   4.230
    1TCM    cl3 2962   4.911   2.054   4.201
    1TCM     c1 2963   4.087   2.320   2.893
    1TCM    cl1 2964   4.029   2.161   2.946
    1TCM    cl2 2965   3.951   2.414   2.828
    1TCM     h1 2966   4.131   2.374   2.979
    1TCM    cl3 2967   4.210   2.300   2.767
    1TCM     c1 2968   1.467   2.829   5.168
    1TCM    cl1 2969   1.450   2.999   5.220
    1TCM    cl2 2970   1.311   2.746   5.184
    1TCM     h1 2971   1.500   2.826   5.062
    1TCM    cl3 2972   1.588   2.748   5.270
    1TCM     c1 2973   3.663   2.149   3.134
    1TCM    cl1 2974   3.500   2.221   3.125
    1TCM    cl2 2975   3.735   2.185   3.292
    1TCM     h1 2976   3.656   2.040   3.120
    1TCM    cl3 2977   3.765   2.219   3.005
    1TCM     c1 2978   2.806   4.931   0.986
    1TCM    cl1 2979   2.774   5.105   0.969
    1TCM    cl2 2980   2.657   4.848   1.036
    1TCM     h1 2981   2.840   4.890   0.888
    1TCM    cl3 2982   2.932   4.906   1.108
    1TCM     c1 2983   1.658   3.846   0.888
    1TCM    cl1 2984   1.821   3.792   0.934
    1TCM    cl2 2985   1.618   3.785   0.726
    1TCM     h1 2986   1.584   3.807   0.961
    1TCM    cl3 2987   1.652   4.023   0.888
    1TCM     c1 2988   5.070   3.220   5.123
    1TCM    cl1 2989   5.002   3.343   5.233
    1TCM    cl2 2990   4.955   3.086   5.106
    1TCM     h1 2991   5.089   3.266   5.024
    1TCM    cl3 2992   5.223   3.159   5.190
    1TCM     c1 2993   2.927   5.029   3.111
    1TCM    cl1 2994   3.096   5.076   3.144
    1TCM    cl2 2995   2.906   5.003   2.937
    1TCM     h1 2996   2.903   4.936   3.166
    1TCM    cl3 2997   2.819   5.159   3.165
    1TCM     c1 2998   4.814   3.847   3.635
    1TCM    cl1 2999   4.709   3.848   3.779
    1TCM    cl2 3000   4.718   3.886   3.491
    1TCM     h1 3001   4.894   3.922   3.648
    1TCM    cl3 3002   4.886   3.685   3.616
    1TCM     c1 3003   1.691   0.903   3.165
    1TCM    cl1 3004   1.824   1.010   3.115
    1TCM    cl2 3005   1.540   0.996   3.175
    1TCM     h1 3006   1.679   0.821   3.091
    1TCM    cl3 3007   1.728   0.832   3.324
    1TCM     c1 3008   3.330   2.757   4.549
    1TCM    cl1 3009   3.313   2.933   4.562
    1TCM    cl2 3010   3.327   2.709   4.378
    1TCM     h1 3011   3.427   2.726   4.594
    1TCM    cl3 3012   3.197   2.678   4.635
    1TCM     c1 3013   2.369   4.280   0.562
    1TCM    cl1 3014   2.289   4.160   0.459
    1TCM    cl2 3015   2.419   4.203   0.715
    1TCM     h1 3016   2.458   4.320   0.510
    1TCM    cl3 3017   2.256   4.413   0.597
    1TCM     c1 3018   3.239   1.593   0.296
    1TCM    cl1 3019   3.354   1.687   0.199
    1TCM    cl2 3020   3.156   1.475   0.192
    1TCM     h1 3021   3.294   1.539   0.377
    1TCM    cl3 3022   3.119   1.702   0.369
    1TCM     c1 3023   2.404   1.749   4.096
    1TCM    cl1 3024   2.489   1.761   4.252
    1TCM    cl2 3025   2.231   1.720   4.125
    1TCM     h1 3026   2.417   1.844   4.040
    1TCM    cl3 3027   2.472   1.615   4.001
    1TCM     c1 3028   1.212   0.994   2.675
    1TCM    cl1 3029   1.383   0.946   2.669
    1TCM    cl2 3030   1.161   1.048   2.513
    1TCM     h1 3031   1.150   0.908   2.707
    1TCM    cl3 3032   1.192   1.128   2.791
    1TCM     c1 3033   2.820   4.350   5.143
    1TCM    cl1 3034   2.741   4.353   5.302
    1TCM    cl2 3035   2.712   4.423   5.022
    1TCM     h1 3036   2.915   4.408   5.148
    1TCM    cl3 3037   2.856   4.182   5.098
    1TCM     c1 3038   2.350   4.457   1.629
    1TCM    cl1 3039   2.416   4.331   1.735
    1TCM    cl2 3040   2.333   4.393   1.464
    1TCM     h1 3041   2.250   4.489   1.667
    1TCM    cl3 3042   2.460   4.597   1.627
    1TCM     c1 3043   0.981   2.530   5.121
    1TCM    cl1 3044   0.824   2.500   5.200
    1TCM    cl2 3045   1.010   2.404   4.999
    1TCM     h1 3046   0.979   2.629   5.072
    1TCM    cl3 3047   1.110   2.526   5.243
    1TCM     c1 3048   1.711   1.184   1.842
    1TCM    cl1 3049   1.664   1.329   1.751
    1TCM    cl2 3050   1.564   1.102   1.903
    1TCM     h1 3051   1.767   1.115   1.776
    1TCM    cl3 3052   1.813   1.230   1.980
    1TCM     c1 3053   0.529   3.620   3.665
    1TCM    cl1 3054   0.370   3.700   3.659
    1TCM    cl2 3055   0.590   3.596   3.500
    1TCM     h1 3056   0.600   3.683   3.722
    1TCM    cl3 3057   0.513   3.462   3.746
    1TCM     c1 3058   2.321   0.091   1.450
    1TCM    cl1 3059   2.265   0.258   1.480
    1TCM    cl2 3060   2.473   0.095   1.358
    1TCM     h1 3061   2.338   0.040   1.547
    1TCM    cl3 3062   2.198   0.003   1.357
    1TCM     c1 3063   0.470   0.120   3.829
    1TCM    cl1 3064   0.584   0.107   3.964
    1TCM    cl2 3065   0.510  -0.001   3.705
    1TCM     h1 3066   0.367   0.103   3.865
    1TCM    cl3 3067   0.481   0.283   3.758
    1TCM     c1 3068   3.253   4.025   1.560
    1TCM    cl1 3069   3.375   4.154   1.578
    1TCM    cl2 3070   3.297   3.887   1.663
    1TCM     h1 3071   3.154   4.064   1.590
    1TCM    cl3 3072   3.248   3.972   1.390
    1TCM     c1 3073   4.656   4.327   3.839
    1TCM    cl1 3074   4.586   4.473   3.912
    1TCM    cl2 3075   4.755   4.243   3.960
    1TCM     h1 3076   4.575   4.260   3.804
    1TCM    cl3 3077   4.759   4.373   3.701
    1TCM     c1 3078   0.980   3.710   0.389
    1TCM    cl1 3079   1.055   3.606   0.512
    1TCM    cl2 3080   0.994   3.633   0.230
    1TCM     h1 3081   0.873   3.725   0.414
    1TCM    cl3 3082   1.063   3.868   0.386
    1TCM     c1 3083   5.127   2.333   5.096
    1TCM    cl1 3084   5.061   2.266   5.247
    1TCM    cl2 3085   5.303   2.350   5.110
    1TCM     h1 3086   5.103   2.265   5.012
    1TCM    cl3 3087   5.054   2.492   5.065
    1TCM     c1 3088   0.967   5.008   2.472
    1TCM    cl1 3089   0.878   4.901   2.583
    1TCM    cl2 3090   0.879   5.019   2.318
    1TCM     h1 3091   0.976   5.109   2.517
    1TCM    cl3 3092   1.129   4.941   2.443
    1TCM     c1 3093   1.023   1.252   4.214
    1TCM    cl1 3094   0.942   1.363   4.327
    1TCM    cl2 3095   0.997   1.308   4.048
    1TCM     h1 3096   1.132   1.250   4.236
    1TCM    cl3 3097   0.955   1.089   4.233
    1TCM     c1 3098   3.912   2.700   4.212
    1TCM    cl1 3099   3.789   2.628   4.104
    1TCM    cl2 3100   3.906   2.619   4.370
    1TCM     h1 3101   4.012   2.686   4.167
    1TCM    cl3 3102   3.878   2.873   4.232
    1TCM     c1 3103   2.307   3.520   5.233
    1TCM    cl1 3104   2.432   3.473   5.115
    1TCM    cl2 3105   2.161   3.422   5.207
    1TCM     h1 3106   2.344   3.504   5.336
    1TCM    cl3 3107   2.267   3.692   5.210
    1TCM     c1 3108   1.287   0.573   1.000
    1TCM    cl1 3109   1.296   0.516   0.832
    1TCM    cl2 3110   1.270   0.750   1.002
    1TCM     h1 3111   1.199   0.526   1.050
    1TCM    cl3 3112   1.435   0.526   1.087
    1TCM     c1 3113   0.403   3.684   0.567
    1TCM    cl1 3114   0.464   3.717   0.403
    1TCM    cl2 3115   0.413   3.509   0.599
    1TCM     h1 3116   0.464   3.739   0.641
    1TCM    cl3 3117   0.234   3.737   0.578
    1TCM     c1 3118   3.215   1.633   3.494
    1TCM    cl1 3119   3.267   1.789   3.426
    1TCM    cl2 3120   3.210   1.511   3.364
    1TCM     h1 3121   3.286   1.601   3.572
    1TCM    cl3 3122   3.053   1.651   3.564
    1TCM     c1 3123   2.745   4.708   0.285
    1TCM    cl1 3124   2.698   4.875   0.244
    1TCM    cl2 3125   2.823   4.632   0.145
    1TCM     h1 3126   2.815   4.710   0.371
    1TCM    cl3 3127   2.600   4.615   0.329
    1TCM     c1 3128   3.715   3.549   3.370
    1TCM    cl1 3129   3.855   3.440   3.376
    1TCM    cl2 3130   3.737   3.666   3.238
    1TCM     h1 3131   3.623   3.490   3.352
    1TCM    cl3 3132   3.700   3.636   3.524
    1TCM     c1 3133   2.954   3.905   0.972
    1TCM    cl1 3134   2.848   4.028   0.899
    1TCM    cl2 3135   2.874   3.746   0.963
    1TCM     h1 3136   3.050   3.901   0.917
    1TCM    cl3 3137   2.984   3.946   1.142
    1TCM     c1 3138   4.473   4.358   1.211
    1TCM    cl1 3139   4.514   4.439   1.059
    1TCM    cl2 3140   4.621   4.292   1.285
    1TCM     h1 3141   4.426   4.430   1.281
    1TCM    cl3 3142   4.360   4.225   1.178
    1TCM     c1 3143   4.612   3.075   0.239
    1TCM    cl1 3144   4.611   3.139   0.405
    1TCM    cl2 3145   4.774   3.012   0.201
    1TCM     h1 3146   4.538   2.994   0.230
    1TCM    cl3 3147   4.572   3.206   0.125
    1TCM     c1 3148   2.921   1.029   2.225
    1TCM    cl1 3149   2.874   0.862   2.262
    1TCM    cl2 3150   2.806   1.099   2.109
    1TCM     h1 3151   2.921   1.089   2.318
    1TCM    cl3 3152   3.084   1.030   2.153
    1TCM     c1 3153   3.448   4.597   2.982
    1TCM    cl1 3154   3.375   4.720   2.876
    1TCM    cl2 3155   3.378   4.610   3.145
    1TCM     h1 3156   3.427   4.496   2.941
    1TCM    cl3 3157   3.624   4.622   2.991
    1TCM     c1 3158   3.764   3.510   3.966
    1TCM    cl1 3159   3.753   3.682   4.010
    1TCM    cl2 3160   3.886   3.431   4.069
    1TCM     h1 3161   3.666   3.462   3.981
    1TCM    cl3 3162   3.813   3.496   3.795
    1TCM     c1 3163   4.168   0.315   0.213
    1TCM    cl1 3164   4.317   0.303   0.310
    1TCM    cl2 3165   4.198   0.248   0.050
    1TCM     h1 3166   4.088   0.257   0.262
    1TCM    cl3 3167   4.120   0.485   0.199
    1TCM     c1 3168   3.286   3.190   3.461
    1TCM    cl1 3169   3.337   3.292   3.597
    1TCM    cl2 3170   3.348   3.258   3.309
    1TCM     h1 3171   3.325   3.087   3.474
    1TCM    cl3 3172   3.108   3.185   3.455
    1TCM     c1 3173   0.595   2.700   1.893
    1TCM    cl1 3174   0.754   2.650   1.831
    1TCM    cl2 3175   0.508   2.557   1.954
    1TCM     h1 3176   0.609   2.773   1.975
    1TCM    cl3 3177   0.501   2.774   1.762
    1TCM     c1 3178   5.191   4.297   3.021
    1TCM    cl1 3179   5.200   4.456   2.942
    1TCM    cl2 3180   5.242   4.311   3.190
    1TCM     h1 3181   5.086   4.260   3.017
    1TCM    cl3 3182   5.297   4.182   2.936
    1TCM     c1 3183   2.319   3.539   1.520
    1TCM    cl1 3184   2.362   3.400   1.418
    1TCM    cl2 3185   2.372   3.509   1.687
    1TCM     h1 3186   2.369   3.630   1.481
    1TCM    cl3 3187   2.142   3.563   1.517
    1TCM     c1 3188   5.072   1.390   2.442
    1TCM    cl1 3189   5.176   1.499   2.347
    1TCM    cl2 3190   5.148   1.230   2.453
    1TCM     h1 3191   5.058   1.431   2.544
    1TCM    cl3 3192   4.913   1.375   2.362
    1TCM     c1 3193   4.190   3.121   3.998
    1TCM    cl1 3194   4.034   3.062   4.058
    1TCM    cl2 3195   4.313   2.993   4.018
    1TCM     h1 3196   4.182   3.147   3.890
    1TCM    cl3 3197   4.239   3.265   4.090
    1TCM     c1 3198   1.604   3.552   3.467
    1TCM    cl1 3199   1.685   3.649   3.342
    1TCM    cl2 3200   1.623   3.379   3.429
    1TCM     h1 3201   1.650   3.573   3.566
    1TCM    cl3 3202   1.431   3.593   3.471
    1TCM     c1 3203   2.567   3.268   2.632
    1TCM    cl1 3204   2.441   3.205   2.740
    1TCM    cl2 3205   2.727   3.233   2.701
    1TCM     h1 3206   2.558   3.218   2.533
    1TCM    cl3 3207   2.547   3.443   2.613
    1TCM     c1 3208   1.892   2.905   0.177
    1TCM    cl1 3209   1.842   2.770   0.282
    1TCM    cl2 3210   1.907   2.846   0.010
    1TCM     h1 3211   1.816   2.985   0.181
    1TCM    cl3 3212   2.049   2.967   0.232
    1TCM     c1 3213   4.820   0.836   2.889
    1TCM    cl1 3214   4.774   0.671   2.937
    1TCM    cl2 3215   4.720   0.888   2.752
    1TCM     h1 3216   4.804   0.905   2.975
    1TCM    cl3 3217   4.991   0.839   2.843
    1TCM     c1 3218   4.886   2.048   1.275
    1TCM    cl1 3219   4.759   2.018   1.154
    1TCM    cl2 3220   4.841   2.190   1.373
    1TCM     h1 3221   4.896   1.960   1.341
    1TCM    cl3 3222   5.040   2.079   1.193
    1TCM     c1 3223   3.121   3.995   0.439
    1TCM    cl1 3224   3.098   3.819   0.437
    1TCM    cl2 3225   3.283   4.035   0.378
    1TCM     h1 3226   3.044   4.043   0.375
    1TCM    cl3 3227   3.105   4.054   0.606
    1TCM     c1 3228   2.672   4.103   3.621
    1TCM    cl1 3229   2.839   4.109   3.681
    1TCM    cl2 3230   2.671   4.050   3.451
    1TCM     h1 3231   2.613   4.031   3.682
    1TCM    cl3 3232   2.599   4.265   3.633
    1TCM     c1 3233   2.070   4.519   2.252
    1TCM    cl1 3234   2.241   4.533   2.299
    1TCM    cl2 3235   1.968   4.516   2.398
    1TCM     h1 3236   2.042   4.606   2.189
    1TCM    cl3 3237   2.046   4.369   2.159
    1TCM     c1 3238   1.600   1.768   0.677
    1TCM    cl1 3239   1.460   1.754   0.787
    1TCM    cl2 3240   1.735   1.844   0.763
    1TCM     h1 3241   1.630   1.668   0.642
    1TCM    cl3 3242   1.555   1.869   0.538
    1TCM     c1 3243   0.269   2.801   4.369
    1TCM    cl1 3244   0.374   2.878   4.248
    1TCM    cl2 3245   0.261   2.626   4.337
    1TCM     h1 3246   0.310   2.819   4.470
    1TCM    cl3 3247   0.106   2.871   4.358
    1TCM     c1 3248   0.533   1.633   4.722
    1TCM    cl1 3249   0.640   1.774   4.709
    1TCM    cl2 3250   0.591   1.527   4.853
    1TCM     h1 3251   0.430   1.666   4.745
    1TCM    cl3 3252   0.535   1.543   4.569
    1TCM     c1 3253   5.059   2.919   0.643
    1TCM    cl1 3254   4.890   2.964   0.674
    1TCM    cl2 3255   5.085   2.750   0.694
    1TCM     h1 3256   5.081   2.929   0.535
    1TCM    cl3 3257   5.166   3.026   0.737
    1TCM     c1 3258   2.192   4.284   4.816
    1TCM    cl1 3259   2.257   4.140   4.735
    1TCM    cl2 3260   2.240   4.283   4.987
    1TCM     h1 3261   2.232   4.376   4.767
    1TCM    cl3 3262   2.015   4.284   4.805
    1TCM     c1 3263   3.069   3.427   3.238
    1TCM    cl1 3264   2.980   3.316   3.131
    1TCM    cl2 3265   3.010   3.593   3.214
    1TCM     h1 3266   3.053   3.397   3.344
    1TCM    cl3 3267   3.243   3.420   3.200
    1TCM     c1 3268   2.974   4.360   0.373
    1TCM    cl1 3269   3.052   4.299   0.521
    1TCM    cl2 3270   3.096   4.438   0.270
    1TCM     h1 3271   2.928   4.276   0.318
    1TCM    cl3 3272   2.849   4.478   0.417
    1TCM     c1 3273   3.450   4.479   0.472
    1TCM    cl1 3274   3.515   4.381   0.339
    1TCM    cl2 3275   3.527   4.430   0.625
    1TCM     h1 3276   3.470   4.586   0.453
    1TCM    cl3 3277   3.274   4.453   0.484
    1TCM     c1 3278   2.415   3.746   1.048
    1TCM    cl1 3279   2.582   3.807   1.035
    1TCM    cl2 3280   2.397   3.656   1.199
    1TCM     h1 3281   2.344   3.831   1.046
    1TCM    cl3 3282   2.381   3.638   0.910
    1TCM     c1 3283   4.082   3.940   3.749
    1TCM    cl1 3284   4.193   3.909   3.613
    1TCM    cl2 3285   4.176   3.984   3.894
    1TCM     h1 3286   4.014   4.023   3.723
    1TCM    cl3 3287   3.987   3.793   3.783
    1TCM     c1 3288   5.215   4.783   4.201
    1TCM    cl1 3289   5.061   4.744   4.121
    1TCM    cl2 3290   5.184   4.841   4.365
    1TCM     h1 3291   5.278   4.691   4.205
    1TCM    cl3 3292   5.301   4.908   4.108
    1TCM     c1 3293   4.165   0.347   3.521
    1TCM    cl1 3294   4.230   0.211   3.615
    1TCM    cl2 3295   4.012   0.402   3.593
    1TCM     h1 3296   4.238   0.430   3.522
    1TCM    cl3 3297   4.137   0.295   3.353
    1TCM     c1 3298   2.441   2.664   3.449
    1TCM    cl1 3299   2.389   2.800   3.346
    1TCM    cl2 3300   2.385   2.692   3.616
    1TCM     h1 3301   2.397   2.570   3.411
    1TCM    cl3 3302   2.618   2.652   3.447
    1TCM     c1 3303   5.004   4.620   2.612
    1TCM    cl1 3304   5.021   4.790   2.562
    1TCM    cl2 3305   4.998   4.610   2.790
    1TCM     h1 3306   4.911   4.578   2.570
    1TCM    cl3 3307   5.144   4.527   2.552
    1TCM     c1 3308   2.393   0.829   2.047
    1TCM    cl1 3309   2.269   0.722   1.978
    1TCM    cl2 3310   2.402   0.803   2.223
    1TCM     h1 3311   2.492   0.805   2.001
    1TCM    cl3 3312   2.352   0.998   2.013
    1TCM     c1 3313   0.487   2.697   3.033
    1TCM    cl1 3314   0.373   2.823   2.981
    1TCM    cl2 3315   0.407   2.590   3.150
    1TCM     h1 3316   0.518   2.637   2.944
    1TCM    cl3 3317   0.629   2.772   3.108
    1TCM     c1 3318   1.098   4.057   1.113
    1TCM    cl1 3319   1.101   4.058   0.935
    1TCM    cl2 3320   1.231   3.956   1.174
    1TCM     h1 3321   1.110   4.161   1.150
    1TCM    cl3 3322   0.943   3.991   1.169
    1TCM     c1 3323   2.626   3.044   0.690
    1TCM    cl1 3324   2.686   3.096   0.531
    1TCM    cl2 3325   2.556   3.183   0.775
    1TCM     h1 3326   2.548   2.966   0.676
    1TCM    cl3 3327   2.760   2.977   0.785
    1TCM     c1 3328   0.643   0.672   0.833
    1TCM    cl1 3329   0.705   0.566   0.705
    1TCM    cl2 3330   0.551   0.575   0.951
    1TCM     h1 3331   0.727   0.722   0.885
    1TCM    cl3 3332   0.536   0.795   0.762
    1TCM     c1 3333   5.031   2.198   3.275
    1TCM    cl1 3334   4.909   2.312   3.335
    1TCM    cl2 3335   5.072   2.239   3.106
    1TCM     h1 3336   5.123   2.206   3.337
    1TCM    cl3 3337   4.967   2.033   3.282
    1TCM     c1 3338   2.514   0.980   3.459
    1TCM    cl1 3339   2.622   0.973   3.317
    1TCM    cl2 3340   2.598   1.062   3.593
    1TCM     h1 3341   2.423   1.037   3.432
    1TCM    cl3 3342   2.470   0.815   3.508
    1TCM     c1 3343   5.118   1.007   2.242
    1TCM    cl1 3344   5.134   1.180   2.201
    1TCM    cl2 3345   5.244   0.914   2.157
    1TCM     h1 3346   5.130   0.994   2.351
    1TCM    cl3 3347   4.958   0.949   2.192
    1TCM     c1 3348   3.940   0.524   4.502
    1TCM    cl1 3349   3.892   0.434   4.647
    1TCM    cl2 3350   3.960   0.696   4.543
    1TCM     h1 3351   4.036   0.484   4.463
    1TCM    cl3 3352   3.815   0.507   4.377
    1TCM     c1 3353   5.107   0.885   5.065
    1TCM    cl1 3354   5.202   0.803   4.939
    1TCM    cl2 3355   5.185   0.861   5.223
    1TCM     h1 3356   5.101   0.993   5.042
    1TCM    cl3 3357   4.942   0.817   5.069
    1TCM     c1 3358   2.947   0.548   1.475
    1TCM    cl1 3359   3.083   0.607   1.573
    1TCM    cl2 3360   2.797   0.628   1.529
    1TCM     h1 3361   2.965   0.571   1.368
    1TCM    cl3 3362   2.931   0.372   1.496
    1TCM     c1 3363   2.088   1.354   3.825
    1TCM    cl1 3364   2.029   1.401   3.986
    1TCM    cl2 3365   1.959   1.270   3.736
    1TCM     h1 3366   2.118   1.445   3.768
    1TCM    cl3 3367   2.228   1.246   3.842
   5.54000   5.54000   5.54000
