FOO
 3367
    1pom_t    C    1   2.093   3.828   3.466
    1pom_t    O    2   2.043   3.805   3.333
    1pom_t    C    3   2.054   3.678   3.280
    1pom_t    C    4   2.117   3.570   3.343
    1pom_t    C    5   2.122   3.445   3.281
    1pom_t    C    6   2.065   3.423   3.154
    1pom_t    C    7   2.068   3.287   3.098
    1pom_t    C    8   1.952   3.225   3.048
    1pom_t    C    9   1.956   3.097   2.993
    1pom_t    C   10   2.076   3.027   2.988
    1pom_t    C   11   2.194   3.085   3.039
    1pom_t    C   12   2.321   3.011   3.033
    1pom_t    O   13   2.395   3.045   2.942
    1pom_t    C   14   2.189   3.215   3.093
    1pom_t    C   15   2.002   3.533   3.089
    1pom_t    C   16   1.944   3.522   2.954
    1pom_t    C   17   1.811   3.562   2.930
    1pom_t    C   18   1.753   3.543   2.804
    1pom_t    C   19   1.827   3.488   2.698
    1pom_t    C   20   1.771   3.460   2.560
    1pom_t    C   21   1.618   3.459   2.552
    1pom_t    N   22   1.823   3.550   2.457
    1pom_t    C   23   1.961   3.454   2.722
    1pom_t    C   24   2.018   3.470   2.848
    1pom_t    C   25   1.998   3.658   3.154
    1pom_t    H   26   2.075   3.932   3.494
    1pom_t    H   27   2.041   3.763   3.538
    1pom_t    H   28   2.200   3.808   3.470
    1pom_t    H   29   2.163   3.580   3.440
    1pom_t    H   30   2.170   3.362   3.333
    1pom_t    H   31   1.857   3.279   3.052
    1pom_t    H   32   1.865   3.052   2.954
    1pom_t    H   33   2.079   2.927   2.944
    1pom_t    H   34   2.280   3.261   3.129
    1pom_t    H   35   1.752   3.605   3.010
    1pom_t    H   36   1.650   3.575   2.791
    1pom_t    H   37   1.803   3.359   2.534
    1pom_t    H   38   1.586   3.429   2.452
    1pom_t    H   39   1.576   3.557   2.573
    1pom_t    H   40   1.577   3.387   2.624
    1pom_t    H   41   1.830   3.514   2.362
    1pom_t    H   42   2.021   3.412   2.642
    1pom_t    H   43   2.122   3.441   2.864
    1pom_t    H   44   1.951   3.742   3.104
    1pom_t    C   45   1.039   4.139   2.619
    1pom_t    O   46   1.102   4.077   2.732
    1pom_t    C   47   1.232   4.036   2.719
    1pom_t    C   48   1.309   4.045   2.601
    1pom_t    C   49   1.441   3.999   2.598
    1pom_t    C   50   1.501   3.942   2.712
    1pom_t    C   51   1.641   3.896   2.701
    1pom_t    C   52   1.739   3.936   2.792
    1pom_t    C   53   1.872   3.894   2.777
    1pom_t    C   54   1.908   3.813   2.670
    1pom_t    C   55   1.812   3.772   2.577
    1pom_t    C   56   1.848   3.685   2.465
    1pom_t    O   57   1.889   3.734   2.361
    1pom_t    C   58   1.679   3.815   2.593
    1pom_t    C   59   1.424   3.931   2.830
    1pom_t    C   60   1.472   3.868   2.953
    1pom_t    C   61   1.531   3.947   3.052
    1pom_t    C   62   1.576   3.890   3.171
    1pom_t    C   63   1.558   3.753   3.196
    1pom_t    C   64   1.602   3.686   3.325
    1pom_t    C   65   1.706   3.764   3.406
    1pom_t    N   66   1.492   3.653   3.415
    1pom_t    C   67   1.496   3.675   3.097
    1pom_t    C   68   1.455   3.732   2.976
    1pom_t    C   69   1.292   3.979   2.831
    1pom_t    H   70   0.937   4.169   2.645
    1pom_t    H   71   1.094   4.229   2.587
    1pom_t    H   72   1.033   4.069   2.534
    1pom_t    H   73   1.268   4.088   2.511
    1pom_t    H   74   1.498   4.009   2.506
    1pom_t    H   75   1.714   4.002   2.874
    1pom_t    H   76   1.947   3.925   2.849
    1pom_t    H   77   2.011   3.780   2.659
    1pom_t    H   78   1.605   3.785   2.520
    1pom_t    H   79   1.542   4.053   3.036
    1pom_t    H   80   1.621   3.955   3.245
    1pom_t    H   81   1.651   3.592   3.296
    1pom_t    H   82   1.749   3.701   3.484
    1pom_t    H   83   1.660   3.852   3.453
    1pom_t    H   84   1.787   3.798   3.340
    1pom_t    H   85   1.508   3.581   3.484
    1pom_t    H   86   1.481   3.569   3.114
    1pom_t    H   87   1.407   3.669   2.901
    1pom_t    H   88   1.234   3.972   2.923
    1pom_t    C   89   1.496   4.606   3.790
    1pom_t    O   90   1.509   4.591   3.647
    1pom_t    C   91   1.472   4.471   3.591
    1pom_t    C   92   1.428   4.358   3.663
    1pom_t    C   93   1.392   4.241   3.595
    1pom_t    C   94   1.396   4.233   3.455
    1pom_t    C   95   1.351   4.106   3.392
    1pom_t    C   96   1.263   4.107   3.283
    1pom_t    C   97   1.216   3.988   3.228
    1pom_t    C   98   1.256   3.865   3.280
    1pom_t    C   99   1.344   3.860   3.389
    1pom_t    C  100   1.382   3.730   3.446
    1pom_t    O  101   1.313   3.682   3.536
    1pom_t    C  102   1.391   3.981   3.444
    1pom_t    C  103   1.440   4.347   3.383
    1pom_t    C  104   1.450   4.353   3.237
    1pom_t    C  105   1.351   4.418   3.163
    1pom_t    C  106   1.357   4.423   3.023
    1pom_t    C  107   1.467   4.368   2.955
    1pom_t    C  108   1.478   4.366   2.803
    1pom_t    C  109   1.345   4.382   2.730
    1pom_t    N  110   1.572   4.465   2.750
    1pom_t    C  111   1.569   4.308   3.030
    1pom_t    C  112   1.560   4.299   3.169
    1pom_t    C  113   1.477   4.462   3.453
    1pom_t    H  114   1.526   4.707   3.818
    1pom_t    H  115   1.392   4.591   3.821
    1pom_t    H  116   1.560   4.535   3.842
    1pom_t    H  117   1.421   4.358   3.771
    1pom_t    H  118   1.356   4.157   3.653
    1pom_t    H  119   1.226   4.200   3.242
    1pom_t    H  120   1.147   3.991   3.144
    1pom_t    H  121   1.219   3.773   3.237
    1pom_t    H  122   1.458   3.978   3.530
    1pom_t    H  123   1.268   4.464   3.215
    1pom_t    H  124   1.276   4.473   2.971
    1pom_t    H  125   1.516   4.267   2.776
    1pom_t    H  126   1.357   4.362   2.624
    1pom_t    H  127   1.306   4.483   2.742
    1pom_t    H  128   1.271   4.312   2.770
    1pom_t    H  129   1.610   4.446   2.658
    1pom_t    H  130   1.656   4.266   2.980
    1pom_t    H  131   1.639   4.250   3.225
    1pom_t    H  132   1.511   4.549   3.397
    1pom_t    C  133   0.866   5.206   2.736
    1pom_t    O  134   0.861   5.098   2.831
    1pom_t    C  135   0.978   5.031   2.857
    1pom_t    C  136   1.102   5.055   2.795
    1pom_t    C  137   1.215   4.980   2.830
    1pom_t    C  138   1.209   4.881   2.928
    1pom_t    C  139   1.332   4.808   2.963
    1pom_t    C  140   1.385   4.814   3.093
    1pom_t    C  141   1.503   4.748   3.125
    1pom_t    C  142   1.572   4.675   3.027
    1pom_t    C  143   1.521   4.668   2.896
    1pom_t    C  144   1.593   4.595   2.792
    1pom_t    O  145   1.677   4.654   2.726
    1pom_t    C  146   1.402   4.736   2.865
    1pom_t    C  147   1.085   4.857   2.991
    1pom_t    C  148   1.066   4.754   3.094
    1pom_t    C  149   1.077   4.787   3.229
    1pom_t    C  150   1.058   4.689   3.327
    1pom_t    C  151   1.023   4.558   3.292
    1pom_t    C  152   1.003   4.447   3.394
    1pom_t    C  153   1.081   4.468   3.525
    1pom_t    N  154   0.862   4.426   3.422
    1pom_t    C  155   1.009   4.527   3.156
    1pom_t    C  156   1.031   4.624   3.057
    1pom_t    C  157   0.973   4.931   2.954
    1pom_t    H  158   0.766   5.250   2.726
    1pom_t    H  159   0.935   5.283   2.769
    1pom_t    H  160   0.896   5.169   2.637
    1pom_t    H  161   1.113   5.130   2.718
    1pom_t    H  162   1.309   5.001   2.781
    1pom_t    H  163   1.334   4.872   3.169
    1pom_t    H  164   1.543   4.753   3.226
    1pom_t    H  165   1.664   4.624   3.053
    1pom_t    H  166   1.363   4.732   2.764
    1pom_t    H  167   1.102   4.888   3.258
    1pom_t    H  168   1.067   4.718   3.432
    1pom_t    H  169   1.043   4.355   3.349
    1pom_t    H  170   1.076   4.377   3.586
    1pom_t    H  171   1.039   4.550   3.584
    1pom_t    H  172   1.186   4.489   3.504
    1pom_t    H  173   0.818   4.345   3.379
    1pom_t    H  174   0.982   4.426   3.125
    1pom_t    H  175   1.020   4.598   2.952
    1pom_t    H  176   0.878   4.910   3.004
    1pom_t    C  177   2.261   2.890   3.232
    1pom_t    O  178   2.352   2.915   3.124
    1pom_t    H  179   2.244   2.981   3.291
    1pom_t    H  180   2.303   2.814   3.298
    1pom_t    H  181   2.165   2.853   3.195
    1pom_t    C  182   0.795   4.876   3.540
    1pom_t    C  183   0.712   4.749   3.518
    1pom_t    C  184   0.629   4.725   3.645
    1pom_t    C  185   0.622   4.774   3.396
    1pom_t    O  186   0.809   4.645   3.496
    1pom_t    C  187   0.770   4.521   3.459
    1pom_t    O  188   0.657   4.475   3.463
    1pom_t    H  189   0.731   4.962   3.560
    1pom_t    H  190   0.862   4.863   3.626
    1pom_t    H  191   0.855   4.898   3.452
    1pom_t    H  192   0.695   4.706   3.730
    1pom_t    H  193   0.562   4.639   3.633
    1pom_t    H  194   0.567   4.812   3.668
    1pom_t    H  195   0.683   4.782   3.305
    1pom_t    H  196   0.550   4.692   3.382
    1pom_t    H  197   0.565   4.866   3.408
    2MOL1    Cl  198   4.295   0.799   2.885
    2MOL1     C  199   4.463   0.741   2.859
    2MOL1    Cl  200   4.544   0.844   2.738
    2MOL1    Cl  201   4.553   0.748   3.013
    2MOL1     H  202   4.460   0.638   2.823
    3MOL1    Cl  203   2.335   3.234   4.972
    3MOL1     C  204   2.251   3.188   5.124
    3MOL1    Cl  205   2.093   3.114   5.084
    3MOL1    Cl  206   2.351   3.069   5.213
    3MOL1     H  207   2.236   3.277   5.185
    4MOL1    Cl  208   2.065   2.455   1.197
    4MOL1     C  209   1.976   2.301   1.213
    4MOL1    Cl  210   1.835   2.324   1.322
    4MOL1    Cl  211   1.917   2.249   1.052
    4MOL1     H  212   2.042   2.224   1.255
    5MOL1    Cl  213   2.979   0.885   3.637
    5MOL1     C  214   2.988   0.710   3.604
    5MOL1    Cl  215   2.995   0.620   3.759
    5MOL1    Cl  216   2.844   0.660   3.511
    5MOL1     H  217   3.078   0.688   3.546
    6MOL1    Cl  218   2.492   1.911   3.046
    6MOL1     C  219   2.352   2.022   3.035
    6MOL1    Cl  220   2.323   2.063   2.863
    6MOL1    Cl  221   2.205   1.943   3.101
    6MOL1     H  222   2.373   2.113   3.091
    7MOL1    Cl  223   5.153   1.670   0.529
    7MOL1     C  224   5.052   1.655   0.382
    7MOL1    Cl  225   4.880   1.674   0.425
    7MOL1    Cl  226   5.098   1.783   0.265
    7MOL1     H  227   5.068   1.557   0.336
    8MOL1    Cl  228   3.316   0.961   2.753
    8MOL1     C  229   3.216   1.103   2.798
    8MOL1    Cl  230   3.266   1.244   2.700
    8MOL1    Cl  231   3.044   1.066   2.767
    8MOL1     H  232   3.231   1.125   2.904
    9MOL1    Cl  233   3.705   3.955   4.563
    9MOL1     C  234   3.831   3.977   4.438
    9MOL1    Cl  235   3.985   3.905   4.497
    9MOL1    Cl  236   3.782   3.896   4.287
    9MOL1     H  237   3.846   4.084   4.419
   10MOL1    Cl  238   0.742   4.126   3.362
   10MOL1     C  239   0.807   4.126   3.529
   10MOL1    Cl  240   0.736   3.991   3.622
   10MOL1    Cl  241   0.985   4.108   3.522
   10MOL1     H  242   0.782   4.221   3.578
   11MOL1    Cl  243   4.178   1.448   2.735
   11MOL1     C  244   4.083   1.520   2.869
   11MOL1    Cl  245   3.999   1.667   2.811
   11MOL1    Cl  246   3.963   1.399   2.925
   11MOL1     H  247   4.151   1.546   2.951
   12MOL1    Cl  248   5.433   3.174   4.699
   12MOL1     C  249   5.396   3.002   4.734
   12MOL1    Cl  250   5.485   2.897   4.619
   12MOL1    Cl  251   5.447   2.964   4.901
   12MOL1     H  252   5.289   2.984   4.724
   13MOL1    Cl  253   0.950   2.674   1.534
   13MOL1     C  254   1.045   2.809   1.603
   13MOL1    Cl  255   1.204   2.749   1.658
   13MOL1    Cl  256   1.071   2.935   1.478
   13MOL1     H  257   0.990   2.852   1.687
   14MOL1    Cl  258   2.105   2.257   2.331
   14MOL1     C  259   2.010   2.269   2.482
   14MOL1    Cl  260   1.868   2.374   2.454
   14MOL1    Cl  261   1.953   2.106   2.528
   14MOL1     H  262   2.072   2.311   2.562
   15MOL1    Cl  263   4.343   4.577   0.955
   15MOL1     C  264   4.397   4.408   0.929
   15MOL1    Cl  265   4.313   4.301   1.046
   15MOL1    Cl  266   4.356   4.357   0.763
   15MOL1     H  267   4.505   4.401   0.944
   16MOL1    Cl  268   2.826   5.301   3.803
   16MOL1     C  269   2.937   5.370   3.681
   16MOL1    Cl  270   3.105   5.325   3.720
   16MOL1    Cl  271   2.895   5.305   3.519
   16MOL1     H  272   2.927   5.479   3.680
   17MOL1    Cl  273   2.889   1.800   3.010
   17MOL1     C  274   2.926   1.965   2.949
   17MOL1    Cl  275   2.997   1.953   2.785
   17MOL1    Cl  276   2.776   2.063   2.943
   17MOL1     H  277   2.998   2.013   3.016
   18MOL1    Cl  278   1.057   3.023   4.910
   18MOL1     C  279   1.042   3.201   4.916
   18MOL1    Cl  280   0.888   3.245   4.997
   18MOL1    Cl  281   1.180   3.269   5.008
   18MOL1     H  282   1.043   3.241   4.815
   19MOL1    Cl  283   4.773   3.611   2.365
   19MOL1     C  284   4.667   3.679   2.238
   19MOL1    Cl  285   4.668   3.569   2.096
   19MOL1    Cl  286   4.500   3.695   2.301
   19MOL1     H  287   4.705   3.777   2.209
   20MOL1    Cl  288   2.247   1.289   3.350
   20MOL1     C  289   2.406   1.206   3.341
   20MOL1    Cl  290   2.407   1.090   3.204
   20MOL1    Cl  291   2.534   1.328   3.316
   20MOL1     H  292   2.424   1.152   3.434
   21MOL1    Cl  293   1.728   1.861   2.989
   21MOL1     C  294   1.676   1.821   2.823
   21MOL1    Cl  295   1.514   1.746   2.828
   21MOL1    Cl  296   1.669   1.971   2.726
   21MOL1     H  297   1.747   1.751   2.778
   22MOL1    Cl  298   3.389   4.413   4.850
   22MOL1     C  299   3.322   4.451   4.688
   22MOL1    Cl  300   3.308   4.628   4.670
   22MOL1    Cl  301   3.431   4.386   4.562
   22MOL1     H  302   3.223   4.405   4.678
   23MOL1    Cl  303   2.887   2.711   2.285
   23MOL1     C  304   2.983   2.766   2.426
   23MOL1    Cl  305   3.125   2.859   2.369
   23MOL1    Cl  306   2.882   2.870   2.531
   23MOL1     H  307   3.017   2.679   2.483
   24MOL1    Cl  308   3.044   2.207   4.900
   24MOL1     C  309   2.903   2.212   4.790
   24MOL1    Cl  310   2.788   2.336   4.847
   24MOL1    Cl  311   2.957   2.252   4.624
   24MOL1     H  312   2.854   2.114   4.789
   25MOL1    Cl  313   0.081   0.828   1.748
   25MOL1     C  314   0.116   0.685   1.646
   25MOL1    Cl  315   0.031   0.700   1.489
   25MOL1    Cl  316   0.293   0.674   1.617
   25MOL1     H  317   0.082   0.594   1.697
   26MOL1    Cl  318   3.379   1.262   1.239
   26MOL1     C  319   3.341   1.226   1.410
   26MOL1    Cl  320   3.468   1.296   1.515
   26MOL1    Cl  321   3.183   1.300   1.452
   26MOL1     H  322   3.336   1.118   1.425
   27MOL1    Cl  323   4.227   3.203   1.711
   27MOL1     C  324   4.059   3.261   1.728
   27MOL1    Cl  325   3.945   3.135   1.672
   27MOL1    Cl  326   4.026   3.298   1.901
   27MOL1     H  327   4.045   3.351   1.668
   28MOL1    Cl  328   1.409   1.077   3.472
   28MOL1     C  329   1.530   1.208   3.486
   28MOL1    Cl  330   1.529   1.272   3.654
   28MOL1    Cl  331   1.692   1.144   3.449
   28MOL1     H  332   1.505   1.288   3.416
   29MOL1    Cl  333   1.166   4.739   4.089
   29MOL1     C  334   1.037   4.863   4.082
   29MOL1    Cl  335   0.956   4.855   3.923
   29MOL1    Cl  336   0.917   4.831   4.211
   29MOL1     H  337   1.081   4.962   4.097
   30MOL1    Cl  338   3.225   3.498   3.613
   30MOL1     C  339   3.104   3.611   3.544
   30MOL1    Cl  340   3.184   3.715   3.422
   30MOL1    Cl  341   2.973   3.518   3.464
   30MOL1     H  342   3.062   3.672   3.624
   31MOL1    Cl  343   0.884   0.805   2.435
   31MOL1     C  344   0.813   0.966   2.467
   31MOL1    Cl  345   0.854   1.076   2.332
   31MOL1    Cl  346   0.635   0.951   2.482
   31MOL1     H  347   0.854   1.007   2.560
   32MOL1    Cl  348   4.994   2.026   2.051
   32MOL1     C  349   5.029   2.004   2.225
   32MOL1    Cl  350   5.027   1.830   2.267
   32MOL1    Cl  351   5.191   2.071   2.261
   32MOL1     H  352   4.953   2.057   2.284
   33MOL1    Cl  353   1.667   3.435   2.174
   33MOL1     C  354   1.617   3.599   2.122
   33MOL1    Cl  355   1.558   3.691   2.264
   33MOL1    Cl  356   1.755   3.684   2.048
   33MOL1     H  357   1.536   3.590   2.048
   34MOL1    Cl  358   4.067   1.713   2.146
   34MOL1     C  359   3.965   1.594   2.233
   34MOL1    Cl  360   3.830   1.545   2.126
   34MOL1    Cl  361   4.064   1.450   2.274
   34MOL1     H  362   3.925   1.638   2.324
   35MOL1    Cl  363   1.121   1.963   2.069
   35MOL1     C  364   1.263   2.017   2.166
   35MOL1    Cl  365   1.409   2.017   2.063
   35MOL1    Cl  366   1.232   2.182   2.227
   35MOL1     H  367   1.278   1.948   2.250
   36MOL1    Cl  368   2.733   3.614   2.030
   36MOL1     C  369   2.562   3.575   2.061
   36MOL1    Cl  370   2.466   3.606   1.914
   36MOL1    Cl  371   2.549   3.402   2.106
   36MOL1     H  372   2.524   3.637   2.143
   37MOL1    Cl  373   1.306   4.094   1.563
   37MOL1     C  374   1.244   4.233   1.469
   37MOL1    Cl  375   1.233   4.376   1.577
   37MOL1    Cl  376   1.357   4.269   1.335
   37MOL1     H  377   1.145   4.209   1.429
   38MOL1    Cl  378   0.636   1.456   4.708
   38MOL1     C  379   0.692   1.471   4.539
   38MOL1    Cl  380   0.864   1.423   4.529
   38MOL1    Cl  381   0.594   1.364   4.434
   38MOL1     H  382   0.681   1.575   4.506
   39MOL1    Cl  383   1.452   3.821   5.044
   39MOL1     C  384   1.387   3.827   4.877
   39MOL1    Cl  385   1.213   3.785   4.880
   39MOL1    Cl  386   1.405   3.992   4.811
   39MOL1     H  387   1.441   3.755   4.814
   40MOL1    Cl  388   0.552   0.931   4.562
   40MOL1     C  389   0.697   1.018   4.503
   40MOL1    Cl  390   0.773   1.106   4.640
   40MOL1    Cl  391   0.814   0.901   4.435
   40MOL1     H  392   0.668   1.090   4.425
   41MOL1    Cl  393   1.462   4.253   2.345
   41MOL1     C  394   1.346   4.183   2.228
   41MOL1    Cl  395   1.349   4.004   2.240
   41MOL1    Cl  396   1.182   4.243   2.267
   41MOL1     H  397   1.374   4.214   2.127
   42MOL1    Cl  398   3.689   3.922   0.667
   42MOL1     C  399   3.791   3.968   0.527
   42MOL1    Cl  400   3.948   3.882   0.537
   42MOL1    Cl  401   3.708   3.923   0.375
   42MOL1     H  402   3.809   4.076   0.529
   43MOL1    Cl  403   1.888   1.825   1.587
   43MOL1     C  404   1.831   1.659   1.622
   43MOL1    Cl  405   1.968   1.546   1.606
   43MOL1    Cl  406   1.768   1.653   1.790
   43MOL1     H  407   1.751   1.632   1.552
   44MOL1    Cl  408   3.669   0.957   2.428
   44MOL1     C  409   3.491   0.977   2.436
   44MOL1    Cl  410   3.451   1.149   2.416
   44MOL1    Cl  411   3.413   0.882   2.306
   44MOL1     H  412   3.455   0.942   2.534
   45MOL1    Cl  413   0.489   0.541   2.219
   45MOL1     C  414   0.520   0.711   2.265
   45MOL1    Cl  415   0.654   0.776   2.165
   45MOL1    Cl  416   0.373   0.809   2.237
   45MOL1     H  417   0.548   0.716   2.370
   46MOL1    Cl  418   4.002   2.544   1.357
   46MOL1     C  419   4.103   2.599   1.221
   46MOL1    Cl  420   4.006   2.705   1.114
   46MOL1    Cl  421   4.243   2.692   1.284
   46MOL1     H  422   4.139   2.513   1.164
   47MOL1    Cl  423   4.987   1.798   3.270
   47MOL1     C  424   4.959   1.886   3.116
   47MOL1    Cl  425   4.785   1.881   3.076
   47MOL1    Cl  426   5.010   2.057   3.134
   47MOL1     H  427   5.017   1.839   3.036
   48MOL1    Cl  428   2.217   3.621   2.560
   48MOL1     C  429   2.335   3.691   2.675
   48MOL1    Cl  430   2.410   3.837   2.602
   48MOL1    Cl  431   2.252   3.736   2.827
   48MOL1     H  432   2.413   3.617   2.696
   49MOL1    Cl  433   0.591   0.631   4.360
   49MOL1     C  434   0.638   0.580   4.525
   49MOL1    Cl  435   0.509   0.476   4.594
   49MOL1    Cl  436   0.791   0.488   4.518
   49MOL1     H  437   0.651   0.668   4.588
   50MOL1    Cl  438   4.509   0.689   4.518
   50MOL1     C  439   4.558   0.528   4.458
   50MOL1    Cl  440   4.653   0.546   4.307
   50MOL1    Cl  441   4.657   0.446   4.583
   50MOL1     H  442   4.469   0.468   4.437
   51MOL1    Cl  443   3.942   4.459   1.543
   51MOL1     C  444   3.945   4.602   1.651
   51MOL1    Cl  445   4.044   4.565   1.796
   51MOL1    Cl  446   4.018   4.740   1.564
   51MOL1     H  447   3.843   4.627   1.682
   52MOL1    Cl  448   4.915   4.890   5.091
   52MOL1     C  449   4.890   4.737   5.181
   52MOL1    Cl  450   5.038   4.697   5.275
   52MOL1    Cl  451   4.751   4.755   5.292
   52MOL1     H  452   4.870   4.656   5.110
   53MOL1    Cl  453   4.153   4.233   1.697
   53MOL1     C  454   4.106   4.145   1.845
   53MOL1    Cl  455   4.245   4.048   1.902
   53MOL1    Cl  456   4.060   4.263   1.972
   53MOL1     H  457   4.022   4.080   1.823
   54MOL1    Cl  458   4.003   4.011   3.493
   54MOL1     C  459   3.828   4.029   3.524
   54MOL1    Cl  460   3.787   3.951   3.680
   54MOL1    Cl  461   3.787   4.202   3.532
   54MOL1     H  462   3.772   3.981   3.443
   55MOL1    Cl  463   1.052   1.022   3.359
   55MOL1     C  464   1.050   1.142   3.227
   55MOL1    Cl  465   0.916   1.257   3.255
   55MOL1    Cl  466   1.205   1.232   3.225
   55MOL1     H  467   1.036   1.091   3.131
   56MOL1    Cl  468   3.438   2.347   3.056
   56MOL1     C  469   3.264   2.349   3.099
   56MOL1    Cl  470   3.194   2.506   3.049
   56MOL1    Cl  471   3.179   2.216   3.013
   56MOL1     H  472   3.253   2.336   3.207
   57MOL1    Cl  473   3.875   2.265   2.403
   57MOL1     C  474   3.928   2.400   2.509
   57MOL1    Cl  475   3.828   2.545   2.476
   57MOL1    Cl  476   3.907   2.353   2.681
   57MOL1     H  477   4.033   2.423   2.490
   58MOL1    Cl  478   5.111   0.864   2.617
   58MOL1     C  479   5.100   0.944   2.457
   58MOL1    Cl  480   5.164   0.834   2.331
   58MOL1    Cl  481   4.929   0.981   2.422
   58MOL1     H  482   5.159   1.037   2.458
   59MOL1    Cl  483   0.800   0.013   2.795
   59MOL1     C  484   0.824   0.138   2.921
   59MOL1    Cl  485   0.956   0.248   2.872
   59MOL1    Cl  486   0.673   0.232   2.940
   59MOL1     H  487   0.849   0.090   3.016
   60MOL1    Cl  488   5.293   3.829   1.366
   60MOL1     C  489   5.153   3.726   1.323
   60MOL1    Cl  490   5.036   3.725   1.459
   60MOL1    Cl  491   5.074   3.789   1.176
   60MOL1     H  492   5.188   3.624   1.305
   61MOL1    Cl  493   1.812   3.437   0.937
   61MOL1     C  494   1.806   3.565   0.811
   61MOL1    Cl  495   1.969   3.588   0.741
   61MOL1    Cl  496   1.691   3.516   0.682
   61MOL1     H  497   1.772   3.659   0.856
   62MOL1    Cl  498   5.316   0.799   1.997
   62MOL1     C  499   5.436   0.671   2.033
   62MOL1    Cl  500   5.392   0.587   2.185
   62MOL1    Cl  501   5.439   0.553   1.898
   62MOL1     H  502   5.535   0.717   2.044
   63MOL1    Cl  503   3.247   4.317   4.127
   63MOL1     C  504   3.103   4.281   4.028
   63MOL1    Cl  505   2.961   4.261   4.136
   63MOL1    Cl  506   3.072   4.417   3.917
   63MOL1     H  507   3.119   4.189   3.971
   64MOL1    Cl  508   4.556   2.001   0.241
   64MOL1     C  509   4.713   1.915   0.239
   64MOL1    Cl  510   4.740   1.843   0.078
   64MOL1    Cl  511   4.845   2.029   0.275
   64MOL1     H  512   4.711   1.836   0.315
   65MOL1    Cl  513   3.089   4.327   4.449
   65MOL1     C  514   3.063   4.495   4.391
   65MOL1    Cl  515   2.994   4.592   4.525
   65MOL1    Cl  516   3.219   4.567   4.343
   65MOL1     H  517   2.994   4.495   4.306
   66MOL1    Cl  518   4.052   4.009   2.213
   66MOL1     C  519   3.947   3.890   2.129
   66MOL1    Cl  520   3.853   3.974   2.002
   66MOL1    Cl  521   4.050   3.765   2.053
   66MOL1     H  522   3.879   3.843   2.201
   67MOL1    Cl  523   1.208   0.637   3.343
   67MOL1     C  524   1.232   0.733   3.492
   67MOL1    Cl  525   1.144   0.656   3.626
   67MOL1    Cl  526   1.407   0.738   3.532
   67MOL1     H  527   1.195   0.835   3.477
   68MOL1    Cl  528   1.412   1.411   2.923
   68MOL1     C  529   1.293   1.394   2.790
   68MOL1    Cl  530   1.247   1.555   2.728
   68MOL1    Cl  531   1.365   1.298   2.658
   68MOL1     H  532   1.204   1.342   2.828
   69MOL1    Cl  533   1.395   0.897   2.211
   69MOL1     C  534   1.508   0.975   2.096
   69MOL1    Cl  535   1.421   1.016   1.945
   69MOL1    Cl  536   1.571   1.126   2.168
   69MOL1     H  537   1.590   0.907   2.074
   70MOL1    Cl  538   3.065   1.387   3.872
   70MOL1     C  539   3.041   1.229   3.792
   70MOL1    Cl  540   3.044   1.100   3.915
   70MOL1    Cl  541   2.882   1.227   3.711
   70MOL1     H  542   3.120   1.212   3.718
   71MOL1    Cl  543   4.742   4.974   1.114
   71MOL1     C  544   4.564   4.983   1.132
   71MOL1    Cl  545   4.493   5.039   0.978
   71MOL1    Cl  546   4.500   4.821   1.171
   71MOL1     H  547   4.539   5.053   1.212
   72MOL1    Cl  548   1.008   4.052   0.186
   72MOL1     C  549   1.066   3.946   0.319
   72MOL1    Cl  550   1.044   4.030   0.476
   72MOL1    Cl  551   0.971   3.794   0.320
   72MOL1     H  552   1.172   3.923   0.303
   73MOL1    Cl  553   2.806   3.447   2.326
   73MOL1     C  554   2.714   3.388   2.468
   73MOL1    Cl  555   2.594   3.511   2.517
   73MOL1    Cl  556   2.630   3.237   2.425
   73MOL1     H  557   2.783   3.370   2.551
   74MOL1    Cl  558   1.159   3.149   1.181
   74MOL1     C  559   1.003   3.211   1.244
   74MOL1    Cl  560   1.020   3.384   1.288
   74MOL1    Cl  561   0.877   3.194   1.118
   74MOL1     H  562   0.974   3.153   1.332
   75MOL1    Cl  563   3.248   3.655   1.257
   75MOL1     C  564   3.263   3.499   1.171
   75MOL1    Cl  565   3.423   3.427   1.206
   75MOL1    Cl  566   3.134   3.387   1.227
   75MOL1     H  567   3.253   3.515   1.064
   76MOL1    Cl  568   3.396   3.091   4.438
   76MOL1     C  569   3.308   3.014   4.573
   76MOL1    Cl  570   3.417   2.902   4.660
   76MOL1    Cl  571   3.250   3.139   4.687
   76MOL1     H  572   3.222   2.958   4.533
   77MOL1    Cl  573   1.655   1.457   2.073
   77MOL1     C  574   1.502   1.534   2.024
   77MOL1    Cl  575   1.375   1.408   2.016
   77MOL1    Cl  576   1.455   1.659   2.144
   77MOL1     H  577   1.514   1.581   1.926
   78MOL1    Cl  578   2.081   2.770   4.607
   78MOL1     C  579   2.217   2.731   4.718
   78MOL1    Cl  580   2.223   2.852   4.850
   78MOL1    Cl  581   2.190   2.568   4.787
   78MOL1     H  582   2.311   2.733   4.663
   79MOL1    Cl  583   2.324   4.257   4.029
   79MOL1     C  584   2.333   4.090   3.962
   79MOL1    Cl  585   2.385   3.978   4.091
   79MOL1    Cl  586   2.172   4.044   3.901
   79MOL1     H  587   2.406   4.087   3.880
   80MOL1    Cl  588   0.966   0.620   0.371
   80MOL1     C  589   1.113   0.720   0.390
   80MOL1    Cl  590   1.081   0.885   0.329
   80MOL1    Cl  591   1.155   0.730   0.564
   80MOL1     H  592   1.196   0.676   0.334
   81MOL1    Cl  593   1.315   0.908   3.162
   81MOL1     C  594   1.489   0.938   3.136
   81MOL1    Cl  595   1.522   1.114   3.139
   81MOL1    Cl  596   1.580   0.858   3.267
   81MOL1     H  597   1.520   0.896   3.039
   82MOL1    Cl  598   4.714   3.274   3.151
   82MOL1     C  599   4.570   3.198   3.225
   82MOL1    Cl  600   4.435   3.317   3.226
   82MOL1    Cl  601   4.521   3.055   3.130
   82MOL1     H  602   4.593   3.168   3.328
   83MOL1    Cl  603   3.451   4.657   5.120
   83MOL1     C  604   3.469   4.745   4.966
   83MOL1    Cl  605   3.330   4.858   4.945
   83MOL1    Cl  606   3.621   4.839   4.968
   83MOL1     H  607   3.471   4.674   4.883
   84MOL1    Cl  608   2.105   0.623   3.309
   84MOL1     C  609   2.059   0.490   3.419
   84MOL1    Cl  610   2.173   0.482   3.556
   84MOL1    Cl  611   1.893   0.519   3.480
   84MOL1     H  612   2.061   0.395   3.364
   85MOL1    Cl  613   1.261   0.982   4.064
   85MOL1     C  614   1.111   0.884   4.069
   85MOL1    Cl  615   0.972   0.986   4.017
   85MOL1    Cl  616   1.127   0.746   3.956
   85MOL1     H  617   1.093   0.847   4.170
   86MOL1    Cl  618   2.422   4.575   2.505
   86MOL1     C  619   2.541   4.695   2.563
   86MOL1    Cl  620   2.689   4.687   2.464
   86MOL1    Cl  621   2.469   4.859   2.551
   86MOL1     H  622   2.566   4.674   2.668
   87MOL1    Cl  623   1.541   1.423   2.390
   87MOL1     C  624   1.551   1.547   2.519
   87MOL1    Cl  625   1.674   1.498   2.639
   87MOL1    Cl  626   1.596   1.706   2.448
   87MOL1     H  627   1.454   1.556   2.567
   88MOL1    Cl  628   1.728   1.889   0.505
   88MOL1     C  629   1.650   1.730   0.478
   88MOL1    Cl  630   1.666   1.631   0.627
   88MOL1    Cl  631   1.476   1.756   0.442
   88MOL1     H  632   1.697   1.679   0.394
   89MOL1    Cl  633   4.528   3.464   2.575
   89MOL1     C  634   4.417   3.390   2.455
   89MOL1    Cl  635   4.511   3.338   2.312
   89MOL1    Cl  636   4.338   3.246   2.528
   89MOL1     H  637   4.341   3.462   2.425
   90MOL1    Cl  638   3.094   4.535   1.884
   90MOL1     C  639   3.007   4.483   1.737
   90MOL1    Cl  640   2.830   4.486   1.767
   90MOL1    Cl  641   3.048   4.593   1.601
   90MOL1     H  642   3.037   4.381   1.711
   91MOL1    Cl  643   4.488   2.740   3.295
   91MOL1     C  644   4.466   2.566   3.256
   91MOL1    Cl  645   4.294   2.522   3.276
   91MOL1    Cl  646   4.516   2.537   3.087
   91MOL1     H  647   4.528   2.506   3.323
   92MOL1    Cl  648   4.205   0.871   3.651
   92MOL1     C  649   4.291   0.999   3.743
   92MOL1    Cl  650   4.181   1.067   3.867
   92MOL1    Cl  651   4.434   0.928   3.824
   92MOL1     H  652   4.323   1.078   3.675
   93MOL1    Cl  653   4.177   1.162   3.455
   93MOL1     C  654   4.255   1.232   3.310
   93MOL1    Cl  655   4.154   1.367   3.248
   93MOL1    Cl  656   4.417   1.295   3.353
   93MOL1     H  657   4.265   1.155   3.233
   94MOL1    Cl  658   2.415   0.740   3.428
   94MOL1     C  659   2.510   0.590   3.404
   94MOL1    Cl  660   2.524   0.503   3.560
   94MOL1    Cl  661   2.427   0.485   3.285
   94MOL1     H  662   2.610   0.616   3.368
   95MOL1    Cl  663   0.883   4.528   4.034
   95MOL1     C  664   0.948   4.397   3.930
   95MOL1    Cl  665   0.844   4.381   3.785
   95MOL1    Cl  666   1.115   4.437   3.881
   95MOL1     H  667   0.948   4.303   3.986
   96MOL1    Cl  668   0.963   1.641   4.783
   96MOL1     C  669   0.816   1.737   4.815
   96MOL1    Cl  670   0.854   1.872   4.926
   96MOL1    Cl  671   0.755   1.802   4.660
   96MOL1     H  672   0.739   1.673   4.860
   97MOL1    Cl  673   1.376   4.927   4.867
   97MOL1     C  674   1.404   4.893   5.040
   97MOL1    Cl  675   1.475   5.038   5.119
   97MOL1    Cl  676   1.249   4.852   5.119
   97MOL1     H  677   1.473   4.809   5.051
   98MOL1    Cl  678   1.097   1.999   1.369
   98MOL1     C  679   1.242   2.096   1.328
   98MOL1    Cl  680   1.385   2.023   1.406
   98MOL1    Cl  681   1.264   2.097   1.151
   98MOL1     H  682   1.228   2.199   1.364
   99MOL1    Cl  683   4.698   1.956   2.359
   99MOL1     C  684   4.650   1.815   2.261
   99MOL1    Cl  685   4.708   1.836   2.093
   99MOL1    Cl  686   4.722   1.666   2.331
   99MOL1     H  687   4.541   1.806   2.261
  100MOL1    Cl  688   3.123   1.550   2.881
  100MOL1     C  689   3.104   1.567   2.704
  100MOL1    Cl  690   2.939   1.626   2.666
  100MOL1    Cl  691   3.224   1.684   2.642
  100MOL1     H  692   3.119   1.470   2.656
  101MOL1    Cl  693   3.830   0.750   2.650
  101MOL1     C  694   3.682   0.765   2.750
  101MOL1    Cl  695   3.657   0.937   2.792
  101MOL1    Cl  696   3.541   0.705   2.657
  101MOL1     H  697   3.694   0.706   2.841
  102MOL1    Cl  698   2.559   4.306   1.093
  102MOL1     C  699   2.496   4.453   1.173
  102MOL1    Cl  700   2.505   4.591   1.059
  102MOL1    Cl  701   2.326   4.426   1.220
  102MOL1     H  702   2.556   4.474   1.262
  103MOL1    Cl  703   0.964   3.584   4.371
  103MOL1     C  704   0.932   3.475   4.232
  103MOL1    Cl  705   0.945   3.305   4.286
  103MOL1    Cl  706   0.767   3.507   4.169
  103MOL1     H  707   1.005   3.494   4.153
  104MOL1    Cl  708   2.608   0.516   1.546
  104MOL1     C  709   2.575   0.476   1.717
  104MOL1    Cl  710   2.729   0.475   1.809
  104MOL1    Cl  711   2.465   0.599   1.787
  104MOL1     H  712   2.529   0.377   1.723
  105MOL1    Cl  713   2.958   4.694   3.713
  105MOL1     C  714   2.963   4.848   3.805
  105MOL1    Cl  715   2.971   4.986   3.690
  105MOL1    Cl  716   2.815   4.862   3.904
  105MOL1     H  717   3.051   4.849   3.869
  106MOL1    Cl  718   3.535   3.418   4.396
  106MOL1     C  719   3.563   3.586   4.452
  106MOL1    Cl  720   3.739   3.612   4.474
  106MOL1    Cl  721   3.499   3.701   4.330
  106MOL1     H  722   3.512   3.602   4.547
  107MOL1    Cl  723   2.306   0.472   4.536
  107MOL1     C  724   2.132   0.486   4.575
  107MOL1    Cl  725   2.113   0.549   4.742
  107MOL1    Cl  726   2.053   0.599   4.460
  107MOL1     H  727   2.085   0.388   4.568
  108MOL1    Cl  728   3.512   3.955   1.906
  108MOL1     C  729   3.480   3.812   2.009
  108MOL1    Cl  730   3.506   3.663   1.913
  108MOL1    Cl  731   3.590   3.813   2.150
  108MOL1     H  732   3.376   3.815   2.044
  109MOL1    Cl  733   0.821   2.605   2.137
  109MOL1     C  734   0.663   2.624   2.220
  109MOL1    Cl  735   0.537   2.533   2.131
  109MOL1    Cl  736   0.676   2.560   2.386
  109MOL1     H  737   0.636   2.730   2.223
  110MOL1    Cl  738   2.345   0.800   3.844
  110MOL1     C  739   2.336   0.975   3.809
  110MOL1    Cl  740   2.357   1.003   3.634
  110MOL1    Cl  741   2.176   1.037   3.860
  110MOL1     H  742   2.415   1.027   3.863
  111MOL1    Cl  743   1.935   4.272   3.628
  111MOL1     C  744   1.794   4.288   3.519
  111MOL1    Cl  745   1.840   4.387   3.377
  111MOL1    Cl  746   1.743   4.125   3.465
  111MOL1     H  747   1.711   4.336   3.572
  112MOL1    Cl  748   1.278   3.635   3.983
  112MOL1     C  749   1.253   3.554   3.825
  112MOL1    Cl  750   1.402   3.464   3.780
  112MOL1    Cl  751   1.116   3.439   3.839
  112MOL1     H  752   1.231   3.629   3.748
  113MOL1    Cl  753   4.814   2.288   2.304
  113MOL1     C  754   4.652   2.297   2.378
  113MOL1    Cl  755   4.664   2.261   2.553
  113MOL1    Cl  756   4.584   2.461   2.355
  113MOL1     H  757   4.586   2.223   2.331
  114MOL1    Cl  758   2.393   2.176   2.121
  114MOL1     C  759   2.374   2.010   2.185
  114MOL1    Cl  760   2.349   1.896   2.049
  114MOL1    Cl  761   2.523   1.965   2.273
  114MOL1     H  762   2.288   2.006   2.253
  115MOL1    Cl  763   1.393   0.398   3.598
  115MOL1     C  764   1.559   0.425   3.535
  115MOL1    Cl  765   1.654   0.274   3.555
  115MOL1    Cl  766   1.551   0.468   3.361
  115MOL1     H  767   1.606   0.506   3.591
  116MOL1    Cl  768   4.706   3.801   2.663
  116MOL1     C  769   4.562   3.822   2.767
  116MOL1    Cl  770   4.554   3.991   2.825
  116MOL1    Cl  771   4.414   3.785   2.671
  116MOL1     H  772   4.568   3.754   2.852
  117MOL1    Cl  773   4.498   1.380   3.976
  117MOL1     C  774   4.633   1.454   4.067
  117MOL1    Cl  775   4.633   1.393   4.235
  117MOL1    Cl  776   4.789   1.410   3.989
  117MOL1     H  777   4.622   1.562   4.067
  118MOL1    Cl  778   3.701   1.996   2.587
  118MOL1     C  779   3.861   1.917   2.575
  118MOL1    Cl  780   3.906   1.901   2.403
  118MOL1    Cl  781   3.983   2.017   2.660
  118MOL1     H  782   3.857   1.818   2.621
  119MOL1    Cl  783   5.014   4.022   3.508
  119MOL1     C  784   4.978   3.964   3.342
  119MOL1    Cl  785   4.870   4.082   3.261
  119MOL1    Cl  786   5.130   3.947   3.249
  119MOL1     H  787   4.928   3.867   3.348
  120MOL1    Cl  788   0.898   2.166   0.806
  120MOL1     C  789   0.828   2.010   0.754
  120MOL1    Cl  790   0.685   2.040   0.651
  120MOL1    Cl  791   0.951   1.918   0.661
  120MOL1     H  792   0.798   1.952   0.842
  121MOL1    Cl  793   3.749   1.735   3.744
  121MOL1     C  794   3.794   1.905   3.709
  121MOL1    Cl  795   3.653   1.990   3.639
  121MOL1    Cl  796   3.843   1.988   3.860
  121MOL1     H  797   3.877   1.907   3.637
  122MOL1    Cl  798   1.581   2.235   2.959
  122MOL1     C  799   1.572   2.255   3.136
  122MOL1    Cl  800   1.617   2.101   3.216
  122MOL1    Cl  801   1.685   2.384   3.186
  122MOL1     H  802   1.470   2.282   3.165
  123MOL1    Cl  803   0.999   3.274   0.279
  123MOL1     C  804   0.876   3.401   0.309
  123MOL1    Cl  805   0.851   3.496   0.159
  123MOL1    Cl  806   0.722   3.324   0.358
  123MOL1     H  807   0.910   3.468   0.389
  124MOL1    Cl  808   1.178   4.627   4.850
  124MOL1     C  809   1.140   4.453   4.862
  124MOL1    Cl  810   1.284   4.358   4.813
  124MOL1    Cl  811   1.098   4.413   5.032
  124MOL1     H  812   1.056   4.429   4.797
  125MOL1    Cl  813   4.907   4.721   0.067
  125MOL1     C  814   5.046   4.782   0.163
  125MOL1    Cl  815   5.008   4.946   0.223
  125MOL1    Cl  816   5.076   4.671   0.300
  125MOL1     H  817   5.135   4.786   0.099
  126MOL1    Cl  818   0.976   1.910   1.051
  126MOL1     C  819   0.974   1.736   1.009
  126MOL1    Cl  820   0.826   1.697   0.916
  126MOL1    Cl  821   1.118   1.699   0.909
  126MOL1     H  822   0.976   1.676   1.100
  127MOL1    Cl  823   2.801   0.355   3.931
  127MOL1     C  824   2.729   0.293   3.779
  127MOL1    Cl  825   2.838   0.330   3.642
  127MOL1    Cl  826   2.708   0.116   3.791
  127MOL1     H  827   2.632   0.341   3.763
  128MOL1    Cl  828   1.210   1.698   3.044
  128MOL1     C  829   1.148   1.547   3.117
  128MOL1    Cl  830   1.058   1.585   3.267
  128MOL1    Cl  831   1.038   1.466   3.002
  128MOL1     H  832   1.232   1.481   3.141
  129MOL1    Cl  833   0.789   4.360   4.803
  129MOL1     C  834   0.738   4.211   4.890
  129MOL1    Cl  835   0.785   4.225   5.063
  129MOL1    Cl  836   0.560   4.192   4.877
  129MOL1     H  837   0.787   4.124   4.846
  130MOL1    Cl  838   4.181   1.712   2.498
  130MOL1     C  839   4.315   1.597   2.467
  130MOL1    Cl  840   4.368   1.613   2.297
  130MOL1    Cl  841   4.453   1.635   2.575
  130MOL1     H  842   4.281   1.495   2.485
  131MOL1    Cl  843   1.718   0.732   1.889
  131MOL1     C  844   1.803   0.871   1.814
  131MOL1    Cl  845   1.818   1.002   1.935
  131MOL1    Cl  846   1.967   0.820   1.762
  131MOL1     H  847   1.747   0.906   1.728
  132MOL1    Cl  848   2.324   1.890   3.585
  132MOL1     C  849   2.432   1.882   3.442
  132MOL1    Cl  850   2.369   1.759   3.328
  132MOL1    Cl  851   2.436   2.043   3.363
  132MOL1     H  852   2.533   1.855   3.473
  133MOL1    Cl  853   3.027   3.153   3.811
  133MOL1     C  854   2.953   3.280   3.709
  133MOL1    Cl  855   2.794   3.224   3.648
  133MOL1    Cl  856   2.932   3.429   3.806
  133MOL1     H  857   3.019   3.301   3.624
  134MOL1    Cl  858   1.252   1.647   3.707
  134MOL1     C  859   1.098   1.633   3.617
  134MOL1    Cl  860   0.978   1.549   3.719
  134MOL1    Cl  861   1.038   1.797   3.577
  134MOL1     H  862   1.115   1.576   3.525
  135MOL1    Cl  863   1.434   4.462   2.034
  135MOL1     C  864   1.285   4.455   1.934
  135MOL1    Cl  865   1.240   4.284   1.906
  135MOL1    Cl  866   1.152   4.539   2.020
  135MOL1     H  867   1.303   4.503   1.838
  136MOL1    Cl  868   3.818   4.279   2.890
  136MOL1     C  869   3.772   4.255   2.718
  136MOL1    Cl  870   3.920   4.226   2.621
  136MOL1    Cl  871   3.663   4.113   2.705
  136MOL1     H  872   3.720   4.344   2.681
  137MOL1    Cl  873   1.256   2.180   3.306
  137MOL1     C  874   1.225   2.117   3.472
  137MOL1    Cl  875   1.381   2.086   3.553
  137MOL1    Cl  876   1.133   2.239   3.566
  137MOL1     H  877   1.167   2.025   3.465
  138MOL1    Cl  878   2.002   3.893   1.635
  138MOL1     C  879   1.993   3.773   1.768
  138MOL1    Cl  880   1.887   3.638   1.717
  138MOL1    Cl  881   2.157   3.710   1.803
  138MOL1     H  882   1.952   3.820   1.857
  139MOL1    Cl  883   1.904   1.761   2.561
  139MOL1     C  884   2.039   1.692   2.656
  139MOL1    Cl  885   2.168   1.815   2.670
  139MOL1    Cl  886   1.980   1.646   2.819
  139MOL1     H  887   2.078   1.603   2.605
  140MOL1    Cl  888   3.934   0.546   4.161
  140MOL1     C  889   4.032   0.415   4.088
  140MOL1    Cl  890   4.130   0.336   4.215
  140MOL1    Cl  891   3.923   0.293   4.014
  140MOL1     H  892   4.098   0.457   4.012
  141MOL1    Cl  893   0.697   4.131   4.544
  141MOL1     C  894   0.530   4.193   4.525
  141MOL1    Cl  895   0.534   4.372   4.510
  141MOL1    Cl  896   0.458   4.122   4.377
  141MOL1     H  897   0.470   4.165   4.612
  142MOL1    Cl  898   1.381   1.764   1.118
  142MOL1     C  899   1.346   1.665   1.264
  142MOL1    Cl  900   1.178   1.605   1.256
  142MOL1    Cl  901   1.459   1.527   1.270
  142MOL1     H  902   1.359   1.727   1.353
  143MOL1    Cl  903   2.968   3.106   0.573
  143MOL1     C  904   2.967   2.938   0.637
  143MOL1    Cl  905   2.942   2.823   0.502
  143MOL1    Cl  906   3.125   2.904   0.715
  143MOL1     H  907   2.887   2.927   0.710
  144MOL1    Cl  908   3.955   1.445   3.545
  144MOL1     C  909   3.853   1.557   3.451
  144MOL1    Cl  910   3.935   1.715   3.435
  144MOL1    Cl  911   3.825   1.488   3.288
  144MOL1     H  912   3.757   1.570   3.502
  145MOL1    Cl  913   3.627   0.591   2.011
  145MOL1     C  914   3.669   0.707   2.140
  145MOL1    Cl  915   3.671   0.624   2.299
  145MOL1    Cl  916   3.832   0.776   2.107
  145MOL1     H  917   3.596   0.788   2.141
  146MOL1    Cl  918   4.116   2.587   1.706
  146MOL1     C  919   4.041   2.748   1.682
  146MOL1    Cl  920   4.014   2.825   1.842
  146MOL1    Cl  921   4.149   2.851   1.584
  146MOL1     H  922   3.945   2.736   1.631
  147MOL1    Cl  923   3.130   4.229   2.932
  147MOL1     C  924   3.172   4.132   2.787
  147MOL1    Cl  925   3.026   4.044   2.732
  147MOL1    Cl  926   3.229   4.239   2.656
  147MOL1     H  927   3.250   4.060   2.813
  148MOL1    Cl  928   4.395   1.359   2.983
  148MOL1     C  929   4.459   1.205   2.918
  148MOL1    Cl  930   4.454   1.081   3.046
  148MOL1    Cl  931   4.359   1.152   2.779
  148MOL1     H  932   4.563   1.220   2.885
  149MOL1    Cl  933   1.509   1.998   5.047
  149MOL1     C  934   1.467   2.154   4.971
  149MOL1    Cl  935   1.518   2.151   4.799
  149MOL1    Cl  936   1.290   2.180   4.980
  149MOL1     H  937   1.519   2.235   5.023
  150MOL1    Cl  938   2.666   4.650   4.489
  150MOL1     C  939   2.710   4.770   4.364
  150MOL1    Cl  940   2.802   4.903   4.441
  150MOL1    Cl  941   2.812   4.692   4.239
  150MOL1     H  942   2.620   4.810   4.318
  151MOL1    Cl  943   2.489   5.244   4.618
  151MOL1     C  944   2.520   5.074   4.664
  151MOL1    Cl  945   2.427   5.035   4.812
  151MOL1    Cl  946   2.468   4.967   4.530
  151MOL1     H  947   2.627   5.060   4.683
  152MOL1    Cl  948   2.540   1.553   3.075
  152MOL1     C  949   2.363   1.532   3.063
  152MOL1    Cl  950   2.298   1.649   2.945
  152MOL1    Cl  951   2.324   1.367   3.007
  152MOL1     H  952   2.317   1.550   3.161
  153MOL1    Cl  953   2.401   2.340   4.952
  153MOL1     C  954   2.484   2.495   4.988
  153MOL1    Cl  955   2.530   2.574   4.833
  153MOL1    Cl  956   2.374   2.602   5.079
  153MOL1     H  957   2.574   2.475   5.047
  154MOL1    Cl  958   2.239   1.907   1.600
  154MOL1     C  959   2.155   2.054   1.659
  154MOL1    Cl  960   2.275   2.171   1.723
  154MOL1    Cl  961   2.065   2.129   1.523
  154MOL1     H  962   2.084   2.026   1.738
  155MOL1    Cl  963   2.963   3.037   1.226
  155MOL1     C  964   2.898   2.884   1.162
  155MOL1    Cl  965   2.880   2.896   0.984
  155MOL1    Cl  966   3.008   2.750   1.204
  155MOL1     H  967   2.800   2.865   1.206
  156MOL1    Cl  968   3.389   2.192   2.295
  156MOL1     C  969   3.552   2.123   2.269
  156MOL1    Cl  970   3.538   1.945   2.255
  156MOL1    Cl  971   3.620   2.188   2.116
  156MOL1     H  972   3.617   2.149   2.353
  157MOL1    Cl  973   4.843   4.671   2.952
  157MOL1     C  974   4.855   4.501   2.898
  157MOL1    Cl  975   4.864   4.394   3.042
  157MOL1    Cl  976   4.709   4.460   2.802
  157MOL1     H  977   4.944   4.488   2.837
  158MOL1    Cl  978   3.574   0.693   4.595
  158MOL1     C  979   3.511   0.649   4.757
  158MOL1    Cl  980   3.489   0.798   4.854
  158MOL1    Cl  981   3.353   0.567   4.738
  158MOL1     H  982   3.581   0.582   4.808
  159MOL1    Cl  983   4.126   3.876   4.173
  159MOL1     C  984   4.109   4.027   4.079
  159MOL1    Cl  985   3.992   4.136   4.159
  159MOL1    Cl  986   4.269   4.108   4.069
  159MOL1     H  987   4.074   4.003   3.978
  160MOL1    Cl  988   2.229   1.540   2.398
  160MOL1     C  989   2.338   1.429   2.485
  160MOL1    Cl  990   2.317   1.452   2.661
  160MOL1    Cl  991   2.297   1.260   2.443
  160MOL1     H  992   2.442   1.450   2.457
  161MOL1    Cl  993   3.174   0.542   0.596
  161MOL1     C  994   3.146   0.705   0.530
  161MOL1    Cl  995   3.296   0.764   0.452
  161MOL1    Cl  996   3.014   0.699   0.408
  161MOL1     H  997   3.117   0.774   0.610
  162MOL1    Cl  998   2.644   2.956   2.232
  162MOL1     C  999   2.764   3.056   2.144
  162MOL1    Cl 1000   2.898   3.101   2.253
  162MOL1    Cl 1001   2.829   2.962   2.006
  162MOL1     H 1002   2.716   3.147   2.107
  163MOL1    Cl 1003   1.368   4.664   1.444
  163MOL1     C 1004   1.359   4.737   1.607
  163MOL1    Cl 1005   1.195   4.711   1.675
  163MOL1    Cl 1006   1.480   4.661   1.714
  163MOL1     H 1007   1.379   4.845   1.600
  164MOL1    Cl 1008   4.384   2.364   4.630
  164MOL1     C 1009   4.259   2.467   4.708
  164MOL1    Cl 1010   4.148   2.362   4.801
  164MOL1    Cl 1011   4.339   2.583   4.819
  164MOL1     H 1012   4.203   2.521   4.632
  165MOL1    Cl 1013   2.184   4.812   4.673
  165MOL1     C 1014   2.255   4.672   4.759
  165MOL1    Cl 1015   2.434   4.684   4.757
  165MOL1    Cl 1016   2.198   4.671   4.929
  165MOL1     H 1017   2.224   4.580   4.710
  166MOL1    Cl 1018   4.480   5.441   5.144
  166MOL1     C 1019   4.472   5.358   5.302
  166MOL1    Cl 1020   4.588   5.433   5.415
  166MOL1    Cl 1021   4.306   5.373   5.368
  166MOL1     H 1022   4.496   5.252   5.289
  167MOL1    Cl 1023   3.254   3.712   0.876
  167MOL1     C 1024   3.421   3.776   0.870
  167MOL1    Cl 1025   3.414   3.954   0.862
  167MOL1    Cl 1026   3.510   3.724   1.016
  167MOL1     H 1027   3.472   3.737   0.781
  168MOL1    Cl 1028   4.899   1.428   0.691
  168MOL1     C 1029   4.850   1.315   0.562
  168MOL1    Cl 1030   4.694   1.367   0.492
  168MOL1    Cl 1031   4.976   1.314   0.434
  168MOL1     H 1032   4.840   1.214   0.603
  169MOL1    Cl 1033   4.236   1.993   2.265
  169MOL1     C 1034   4.314   2.013   2.106
  169MOL1    Cl 1035   4.461   2.114   2.125
  169MOL1    Cl 1036   4.361   1.853   2.040
  169MOL1     H 1037   4.245   2.063   2.037
  170MOL1    Cl 1038   4.540   1.608   5.328
  170MOL1     C 1039   4.382   1.676   5.379
  170MOL1    Cl 1040   4.266   1.543   5.405
  170MOL1    Cl 1041   4.404   1.765   5.533
  170MOL1     H 1042   4.344   1.744   5.302
  171MOL1    Cl 1043   0.424   0.326   4.279
  171MOL1     C 1044   0.498   0.163   4.286
  171MOL1    Cl 1045   0.547   0.113   4.121
  171MOL1    Cl 1046   0.642   0.169   4.393
  171MOL1     H 1047   0.426   0.092   4.326
  172MOL1    Cl 1048   4.113   3.574   4.430
  172MOL1     C 1049   4.043   3.426   4.503
  172MOL1    Cl 1050   4.001   3.309   4.373
  172MOL1    Cl 1051   4.162   3.351   4.614
  172MOL1     H 1052   3.952   3.452   4.559
  173MOL1    Cl 1053   1.505   0.936   3.785
  173MOL1     C 1054   1.657   0.901   3.698
  173MOL1    Cl 1055   1.786   1.010   3.759
  173MOL1    Cl 1056   1.706   0.731   3.725
  173MOL1     H 1057   1.642   0.918   3.591
  174MOL1    Cl 1058   3.454   0.676   1.518
  174MOL1     C 1059   3.558   0.655   1.663
  174MOL1    Cl 1060   3.651   0.503   1.648
  174MOL1    Cl 1061   3.671   0.793   1.677
  174MOL1     H 1062   3.495   0.651   1.753
  175MOL1    Cl 1063   1.390   0.656   4.183
  175MOL1     C 1064   1.486   0.701   4.039
  175MOL1    Cl 1065   1.660   0.678   4.073
  175MOL1    Cl 1066   1.439   0.598   3.900
  175MOL1     H 1067   1.467   0.806   4.014
  176MOL1    Cl 1068   3.556   5.180   3.558
  176MOL1     C 1069   3.449   5.286   3.656
  176MOL1    Cl 1070   3.540   5.345   3.798
  176MOL1    Cl 1071   3.396   5.424   3.555
  176MOL1     H 1072   3.361   5.229   3.689
  177MOL1    Cl 1073   2.727   1.179   4.041
  177MOL1     C 1074   2.755   1.353   4.070
  177MOL1    Cl 1075   2.689   1.448   3.933
  177MOL1    Cl 1076   2.672   1.402   4.221
  177MOL1     H 1077   2.863   1.372   4.080
  178MOL1    Cl 1078   3.555   0.799   0.694
  178MOL1     C 1079   3.447   0.772   0.834
  178MOL1    Cl 1080   3.296   0.866   0.811
  178MOL1    Cl 1081   3.408   0.598   0.845
  178MOL1     H 1082   3.496   0.805   0.926
  179MOL1    Cl 1083   2.058   2.257   3.045
  179MOL1     C 1084   1.929   2.194   2.939
  179MOL1    Cl 1085   1.889   2.316   2.815
  179MOL1    Cl 1086   1.985   2.044   2.859
  179MOL1     H 1087   1.840   2.172   2.999
  180MOL1    Cl 1088   5.283   4.058   4.622
  180MOL1     C 1089   5.388   3.979   4.743
  180MOL1    Cl 1090   5.536   3.917   4.662
  180MOL1    Cl 1091   5.435   4.099   4.868
  180MOL1     H 1092   5.334   3.896   4.790
  181MOL1    Cl 1093   1.081   0.931   2.692
  181MOL1     C 1094   1.240   0.970   2.763
  181MOL1    Cl 1095   1.217   1.086   2.897
  181MOL1    Cl 1096   1.315   0.820   2.826
  181MOL1     H 1097   1.304   1.014   2.686
  182MOL1    Cl 1098   4.571   1.213   3.676
  182MOL1     C 1099   4.747   1.203   3.704
  182MOL1    Cl 1100   4.812   1.057   3.623
  182MOL1    Cl 1101   4.826   1.349   3.635
  182MOL1     H 1102   4.767   1.197   3.811
  183MOL1    Cl 1103   4.922   4.522   0.668
  183MOL1     C 1104   5.036   4.638   0.742
  183MOL1    Cl 1105   5.066   4.591   0.912
  183MOL1    Cl 1106   5.191   4.634   0.651
  183MOL1     H 1107   4.994   4.739   0.738
  184MOL1    Cl 1108   1.297   3.280   0.487
  184MOL1     C 1109   1.299   3.429   0.388
  184MOL1    Cl 1110   1.169   3.539   0.443
  184MOL1    Cl 1111   1.458   3.511   0.408
  184MOL1     H 1112   1.284   3.404   0.283
  185MOL1    Cl 1113   1.374   2.479   4.825
  185MOL1     C 1114   1.543   2.522   4.783
  185MOL1    Cl 1115   1.559   2.701   4.785
  185MOL1    Cl 1116   1.655   2.452   4.903
  185MOL1     H 1117   1.566   2.484   4.683
  186MOL1    Cl 1118   1.795   4.015   0.035
  186MOL1     C 1119   1.824   4.088   0.196
  186MOL1    Cl 1120   1.983   4.171   0.196
  186MOL1    Cl 1121   1.695   4.208   0.230
  186MOL1     H 1122   1.824   4.010   0.273
  187MOL1    Cl 1123   1.332   3.504   0.750
  187MOL1     C 1124   1.273   3.355   0.831
  187MOL1    Cl 1125   1.405   3.286   0.930
  187MOL1    Cl 1126   1.134   3.397   0.936
  187MOL1     H 1127   1.242   3.282   0.756
  188MOL1    Cl 1128   4.414   1.998   2.561
  188MOL1     C 1129   4.426   1.980   2.739
  188MOL1    Cl 1130   4.287   1.885   2.799
  188MOL1    Cl 1131   4.578   1.894   2.780
  188MOL1     H 1132   4.427   2.078   2.786
  189MOL1    Cl 1133   2.347   0.695   4.267
  189MOL1     C 1134   2.514   0.680   4.329
  189MOL1    Cl 1135   2.624   0.645   4.192
  189MOL1    Cl 1136   2.563   0.834   4.407
  189MOL1     H 1137   2.519   0.598   4.402
  190MOL1    Cl 1138   0.907   0.512   2.636
  190MOL1     C 1139   0.737   0.460   2.658
  190MOL1    Cl 1140   0.628   0.580   2.581
  190MOL1    Cl 1141   0.713   0.300   2.581
  190MOL1     H 1142   0.714   0.453   2.764
  191MOL1    Cl 1143   2.105   4.520   4.447
  191MOL1     C 1144   2.278   4.507   4.404
  191MOL1    Cl 1145   2.346   4.671   4.380
  191MOL1    Cl 1146   2.366   4.424   4.536
  191MOL1     H 1147   2.289   4.450   4.311
  192MOL1    Cl 1148   4.384   4.671   1.497
  192MOL1     C 1149   4.313   4.511   1.534
  192MOL1    Cl 1150   4.258   4.433   1.383
  192MOL1    Cl 1151   4.438   4.408   1.612
  192MOL1     H 1152   4.228   4.523   1.602
  193MOL1    Cl 1153   1.196   2.363   0.725
  193MOL1     C 1154   1.317   2.495   0.728
  193MOL1    Cl 1155   1.461   2.445   0.634
  193MOL1    Cl 1156   1.246   2.642   0.655
  193MOL1     H 1157   1.347   2.516   0.831
  194MOL1    Cl 1158   1.626   1.035   4.085
  194MOL1     C 1159   1.641   1.032   4.263
  194MOL1    Cl 1160   1.488   0.973   4.334
  194MOL1    Cl 1161   1.774   0.921   4.309
  194MOL1     H 1162   1.663   1.133   4.300
  195MOL1    Cl 1163   2.062   1.670   1.291
  195MOL1     C 1164   1.920   1.625   1.193
  195MOL1    Cl 1165   1.973   1.548   1.040
  195MOL1    Cl 1166   1.817   1.510   1.285
  195MOL1     H 1167   1.862   1.715   1.170
  196MOL1    Cl 1168   1.622   4.404   1.512
  196MOL1     C 1169   1.630   4.245   1.595
  196MOL1    Cl 1170   1.794   4.176   1.576
  196MOL1    Cl 1171   1.593   4.267   1.769
  196MOL1     H 1172   1.556   4.177   1.551
  197MOL1    Cl 1173   4.644   2.691   2.629
  197MOL1     C 1174   4.803   2.702   2.549
  197MOL1    Cl 1175   4.880   2.540   2.545
  197MOL1    Cl 1176   4.782   2.763   2.382
  197MOL1     H 1177   4.868   2.771   2.605
  198MOL1    Cl 1178   1.128   2.138   0.452
  198MOL1     C 1179   1.254   2.254   0.400
  198MOL1    Cl 1180   1.348   2.183   0.265
  198MOL1    Cl 1181   1.177   2.406   0.347
  198MOL1     H 1182   1.321   2.275   0.484
  199MOL1    Cl 1183   3.724   4.809   3.325
  199MOL1     C 1184   3.809   4.669   3.397
  199MOL1    Cl 1185   3.915   4.728   3.528
  199MOL1    Cl 1186   3.689   4.554   3.463
  199MOL1     H 1187   3.869   4.619   3.321
  200MOL1    Cl 1188   2.804   1.362   2.858
  200MOL1     C 1189   2.641   1.370   2.785
  200MOL1    Cl 1190   2.655   1.409   2.611
  200MOL1    Cl 1191   2.560   1.211   2.804
  200MOL1     H 1192   2.581   1.447   2.835
  201MOL1    Cl 1193   1.127   4.418   4.295
  201MOL1     C 1194   0.984   4.499   4.367
  201MOL1    Cl 1195   0.844   4.387   4.360
  201MOL1    Cl 1196   1.017   4.540   4.538
  201MOL1     H 1197   0.961   4.590   4.311
  202MOL1    Cl 1198   2.501   4.762   4.076
  202MOL1     C 1199   2.482   4.732   3.901
  202MOL1    Cl 1200   2.393   4.579   3.876
  202MOL1    Cl 1201   2.391   4.867   3.826
  202MOL1     H 1202   2.581   4.726   3.855
  203MOL1    Cl 1203   1.312   0.596   1.537
  203MOL1     C 1204   1.398   0.749   1.501
  203MOL1    Cl 1205   1.282   0.870   1.440
  203MOL1    Cl 1206   1.476   0.810   1.650
  203MOL1     H 1207   1.475   0.730   1.425
  204MOL1    Cl 1208   2.740   3.290   1.109
  204MOL1     C 1209   2.623   3.209   1.217
  204MOL1    Cl 1210   2.601   3.040   1.163
  204MOL1    Cl 1211   2.686   3.209   1.385
  204MOL1     H 1212   2.527   3.262   1.215
  205MOL1    Cl 1213   1.265   3.711   1.016
  205MOL1     C 1214   1.393   3.652   1.127
  205MOL1    Cl 1215   1.340   3.500   1.205
  205MOL1    Cl 1216   1.543   3.622   1.034
  205MOL1     H 1217   1.413   3.728   1.204
  206MOL1    Cl 1218   4.028   2.490   2.180
  206MOL1     C 1219   3.912   2.419   2.063
  206MOL1    Cl 1220   3.822   2.549   1.980
  206MOL1    Cl 1221   4.002   2.322   1.943
  206MOL1     H 1222   3.841   2.354   2.117
  207MOL1    Cl 1223   2.710   2.364   1.306
  207MOL1     C 1224   2.781   2.497   1.403
  207MOL1    Cl 1225   2.681   2.522   1.550
  207MOL1    Cl 1226   2.949   2.455   1.450
  207MOL1     H 1227   2.782   2.588   1.343
  208MOL1    Cl 1228   2.651   3.295   3.974
  208MOL1     C 1229   2.742   3.205   4.100
  208MOL1    Cl 1230   2.778   3.040   4.040
  208MOL1    Cl 1231   2.895   3.291   4.136
  208MOL1     H 1232   2.682   3.199   4.191
  209MOL1    Cl 1233   1.821   2.272   4.651
  209MOL1     C 1234   1.909   2.426   4.624
  209MOL1    Cl 1235   2.048   2.397   4.515
  209MOL1    Cl 1236   1.798   2.545   4.550
  209MOL1     H 1237   1.945   2.464   4.720
  210MOL1    Cl 1238   2.630   2.179   4.166
  210MOL1     C 1239   2.670   2.298   4.039
  210MOL1    Cl 1240   2.769   2.220   3.913
  210MOL1    Cl 1241   2.518   2.361   3.967
  210MOL1     H 1242   2.726   2.381   4.083
  211MOL1    Cl 1243   4.122   4.441   4.007
  211MOL1     C 1244   3.951   4.469   3.960
  211MOL1    Cl 1245   3.847   4.470   4.106
  211MOL1    Cl 1246   3.939   4.628   3.877
  211MOL1     H 1247   3.918   4.390   3.892
  212MOL1    Cl 1248   0.953   3.361   0.650
  212MOL1     C 1249   0.838   3.310   0.777
  212MOL1    Cl 1250   0.736   3.450   0.825
  212MOL1    Cl 1251   0.734   3.180   0.713
  212MOL1     H 1252   0.893   3.274   0.864
  213MOL1    Cl 1253   2.155   2.335   5.202
  213MOL1     C 1254   2.043   2.417   5.089
  213MOL1    Cl 1255   2.014   2.311   4.947
  213MOL1    Cl 1256   1.887   2.447   5.172
  213MOL1     H 1257   2.086   2.511   5.056
  214MOL1    Cl 1258   0.864   1.868   2.981
  214MOL1     C 1259   0.998   1.965   3.051
  214MOL1    Cl 1260   0.965   2.139   3.029
  214MOL1    Cl 1261   1.012   1.930   3.226
  214MOL1     H 1262   1.091   1.939   3.000
  215MOL1    Cl 1263   3.714   0.365   4.686
  215MOL1     C 1264   3.873   0.448   4.689
  215MOL1    Cl 1265   3.860   0.595   4.791
  215MOL1    Cl 1266   3.997   0.339   4.759
  215MOL1     H 1267   3.902   0.476   4.587
  216MOL1    Cl 1268   2.114   2.605   1.920
  216MOL1     C 1269   2.055   2.703   2.058
  216MOL1    Cl 1270   1.952   2.602   2.163
  216MOL1    Cl 1271   2.196   2.763   2.152
  216MOL1     H 1272   1.998   2.788   2.020
  217MOL1    Cl 1273   4.328   0.630   4.196
  217MOL1     C 1274   4.263   0.768   4.102
  217MOL1    Cl 1275   4.184   0.707   3.954
  217MOL1    Cl 1276   4.142   0.855   4.202
  217MOL1     H 1277   4.344   0.836   4.075
  218MOL1    Cl 1278   0.686   3.486   1.162
  218MOL1     C 1279   0.768   3.644   1.175
  218MOL1    Cl 1280   0.812   3.674   1.346
  218MOL1    Cl 1281   0.917   3.644   1.075
  218MOL1     H 1282   0.701   3.723   1.140
  219MOL1    Cl 1283   0.626   1.963   1.062
  219MOL1     C 1284   0.655   1.945   1.238
  219MOL1    Cl 1285   0.732   1.787   1.270
  219MOL1    Cl 1286   0.762   2.077   1.294
  219MOL1     H 1287   0.559   1.950   1.291
  220MOL1    Cl 1288   3.886   2.689   2.792
  220MOL1     C 1289   3.818   2.669   2.956
  220MOL1    Cl 1290   3.695   2.796   2.984
  220MOL1    Cl 1291   3.740   2.508   2.970
  220MOL1     H 1292   3.898   2.677   3.030
  221MOL1    Cl 1293   0.484   4.804   2.740
  221MOL1     C 1294   0.635   4.844   2.829
  221MOL1    Cl 1295   0.592   4.924   2.984
  221MOL1    Cl 1296   0.725   4.693   2.864
  221MOL1     H 1297   0.697   4.911   2.769
  222MOL1    Cl 1298   0.152   4.585   2.739
  222MOL1     C 1299   0.204   4.597   2.910
  222MOL1    Cl 1300   0.090   4.704   2.998
  222MOL1    Cl 1301   0.202   4.434   2.984
  222MOL1     H 1302   0.305   4.639   2.915
  223MOL1    Cl 1303   1.245   2.398   2.507
  223MOL1     C 1304   1.073   2.351   2.514
  223MOL1    Cl 1305   0.996   2.427   2.657
  223MOL1    Cl 1306   0.991   2.407   2.366
  223MOL1     H 1307   1.065   2.242   2.522
  224MOL1    Cl 1308   1.048   3.754   2.999
  224MOL1     C 1309   0.929   3.862   2.920
  224MOL1    Cl 1310   0.777   3.771   2.894
  224MOL1    Cl 1311   0.897   4.005   3.024
  224MOL1     H 1312   0.968   3.895   2.823
  225MOL1    Cl 1313   2.664   0.664   3.829
  225MOL1     C 1314   2.687   0.823   3.908
  225MOL1    Cl 1315   2.848   0.828   3.986
  225MOL1    Cl 1316   2.676   0.953   3.785
  225MOL1     H 1317   2.609   0.838   3.983
  226MOL1    Cl 1318   2.032   1.891   2.263
  226MOL1     C 1319   1.875   1.903   2.176
  226MOL1    Cl 1320   1.819   1.740   2.129
  226MOL1    Cl 1321   1.752   1.977   2.283
  226MOL1     H 1322   1.888   1.964   2.087
  227MOL1    Cl 1323   1.157   3.303   2.395
  227MOL1     C 1324   1.320   3.355   2.342
  227MOL1    Cl 1325   1.430   3.214   2.337
  227MOL1    Cl 1326   1.309   3.428   2.179
  227MOL1     H 1327   1.358   3.429   2.413
  228MOL1    Cl 1328   4.630   3.792   3.122
  228MOL1     C 1329   4.708   3.631   3.129
  228MOL1    Cl 1330   4.746   3.577   2.963
  228MOL1    Cl 1331   4.859   3.643   3.225
  228MOL1     H 1332   4.640   3.560   3.177
  229MOL1    Cl 1333   4.397   1.271   4.462
  229MOL1     C 1334   4.424   1.118   4.551
  229MOL1    Cl 1335   4.322   0.990   4.478
  229MOL1    Cl 1336   4.596   1.072   4.537
  229MOL1     H 1337   4.398   1.131   4.656
  230MOL1    Cl 1338   0.890   3.457   4.700
  230MOL1     C 1339   0.714   3.456   4.666
  230MOL1    Cl 1340   0.685   3.398   4.500
  230MOL1    Cl 1341   0.632   3.347   4.782
  230MOL1     H 1342   0.674   3.558   4.677
  231MOL1    Cl 1343   1.439   2.079   0.628
  231MOL1     C 1344   1.326   1.960   0.700
  231MOL1    Cl 1345   1.420   1.827   0.774
  231MOL1    Cl 1346   1.227   2.039   0.826
  231MOL1     H 1347   1.261   1.919   0.622
  232MOL1    Cl 1348   1.837   2.265   2.098
  232MOL1     C 1349   1.981   2.279   1.991
  232MOL1    Cl 1350   2.077   2.129   2.003
  232MOL1    Cl 1351   1.929   2.301   1.822
  232MOL1     H 1352   2.042   2.364   2.023
  233MOL1    Cl 1353   2.801   4.351   3.710
  233MOL1     C 1354   2.681   4.384   3.838
  233MOL1    Cl 1355   2.654   4.235   3.933
  233MOL1    Cl 1356   2.745   4.512   3.945
  233MOL1     H 1357   2.587   4.416   3.793
  234MOL1    Cl 1358   3.219   0.750   1.760
  234MOL1     C 1359   3.297   0.904   1.806
  234MOL1    Cl 1360   3.430   0.869   1.921
  234MOL1    Cl 1361   3.365   0.982   1.660
  234MOL1     H 1362   3.224   0.971   1.852
  235MOL1    Cl 1363   2.745   4.843   4.791
  235MOL1     C 1364   2.835   4.693   4.826
  235MOL1    Cl 1365   3.009   4.732   4.846
  235MOL1    Cl 1366   2.773   4.618   4.976
  235MOL1     H 1367   2.823   4.622   4.743
  236MOL1    Cl 1368   3.073   1.965   3.270
  236MOL1     C 1369   2.948   1.881   3.366
  236MOL1    Cl 1370   2.982   1.905   3.540
  236MOL1    Cl 1371   2.787   1.947   3.326
  236MOL1     H 1372   2.950   1.774   3.343
  237MOL1    Cl 1373   1.107   1.964   4.696
  237MOL1     C 1374   1.249   1.888   4.773
  237MOL1    Cl 1375   1.208   1.839   4.940
  237MOL1    Cl 1376   1.297   1.743   4.679
  237MOL1     H 1377   1.332   1.960   4.775
  238MOL1    Cl 1378   3.176   1.319   3.326
  238MOL1     C 1379   3.191   1.336   3.149
  238MOL1    Cl 1380   3.345   1.262   3.095
  238MOL1    Cl 1381   3.055   1.251   3.071
  238MOL1     H 1382   3.189   1.442   3.122
  239MOL1    Cl 1383   3.778   1.124   1.593
  239MOL1     C 1384   3.939   1.063   1.639
  239MOL1    Cl 1385   3.933   0.997   1.805
  239MOL1    Cl 1386   3.988   0.933   1.526
  239MOL1     H 1387   4.012   1.145   1.634
  240MOL1    Cl 1388   0.910   0.648   1.022
  240MOL1     C 1389   0.853   0.726   0.872
  240MOL1    Cl 1390   0.952   0.871   0.839
  240MOL1    Cl 1391   0.871   0.611   0.735
  240MOL1     H 1392   0.748   0.754   0.883
  241MOL1    Cl 1393   1.019   4.064   3.851
  241MOL1     C 1394   1.172   3.997   3.915
  241MOL1    Cl 1395   1.266   3.925   3.782
  241MOL1    Cl 1396   1.267   4.129   3.991
  241MOL1     H 1397   1.150   3.920   3.990
  242MOL1    Cl 1398   0.183   4.339   4.425
  242MOL1     C 1399   0.099   4.248   4.554
  242MOL1    Cl 1400   0.216   4.205   4.683
  242MOL1    Cl 1401  -0.031   4.350   4.624
  242MOL1     H 1402   0.055   4.157   4.512
  243MOL1    Cl 1403   3.665   2.049   1.098
  243MOL1     C 1404   3.723   2.021   1.265
  243MOL1    Cl 1405   3.880   2.103   1.287
  243MOL1    Cl 1406   3.604   2.088   1.381
  243MOL1     H 1407   3.734   1.913   1.282
  244MOL1    Cl 1408   3.409   4.325   3.823
  244MOL1     C 1409   3.578   4.351   3.770
  244MOL1    Cl 1410   3.623   4.522   3.796
  244MOL1    Cl 1411   3.687   4.246   3.866
  244MOL1     H 1412   3.587   4.326   3.664
  245MOL1    Cl 1413   1.888   4.249   2.802
  245MOL1     C 1414   1.918   4.424   2.823
  245MOL1    Cl 1415   1.897   4.465   2.996
  245MOL1    Cl 1416   2.086   4.462   2.772
  245MOL1     H 1417   1.847   4.481   2.762
  246MOL1    Cl 1418   2.672   1.031   2.530
  246MOL1     C 1419   2.826   0.940   2.520
  246MOL1    Cl 1420   2.823   0.804   2.637
  246MOL1    Cl 1421   2.846   0.875   2.354
  246MOL1     H 1422   2.909   1.007   2.543
  247MOL1    Cl 1423   3.595   2.321   4.195
  247MOL1     C 1424   3.579   2.183   4.081
  247MOL1    Cl 1425   3.429   2.093   4.118
  247MOL1    Cl 1426   3.571   2.245   3.912
  247MOL1     H 1427   3.665   2.117   4.091
  248MOL1    Cl 1428   3.029   2.597   0.887
  248MOL1     C 1429   2.921   2.479   0.967
  248MOL1    Cl 1430   3.007   2.403   1.104
  248MOL1    Cl 1431   2.775   2.563   1.029
  248MOL1     H 1432   2.891   2.402   0.895
  249MOL1    Cl 1433   1.796   0.718   4.686
  249MOL1     C 1434   1.905   0.860   4.671
  249MOL1    Cl 1435   1.808   1.007   4.639
  249MOL1    Cl 1436   1.995   0.880   4.824
  249MOL1     H 1437   1.975   0.844   4.589
  250MOL1    Cl 1438   1.235   2.000   1.722
  250MOL1     C 1439   1.191   1.827   1.736
  250MOL1    Cl 1440   1.214   1.746   1.578
  250MOL1    Cl 1441   1.299   1.749   1.856
  250MOL1     H 1442   1.087   1.817   1.768
  251MOL1    Cl 1443   5.308   3.024   0.291
  251MOL1     C 1444   5.210   3.061   0.145
  251MOL1    Cl 1445   5.253   3.222   0.082
  251MOL1    Cl 1446   5.243   2.938   0.019
  251MOL1     H 1447   5.104   3.059   0.172
  252MOL1    Cl 1448   0.817   1.680   4.008
  252MOL1     C 1449   0.966   1.775   3.984
  252MOL1    Cl 1450   0.953   1.929   4.075
  252MOL1    Cl 1451   1.107   1.681   4.043
  252MOL1     H 1452   0.979   1.797   3.878
  253MOL1    Cl 1453   1.353   1.024   0.575
  253MOL1     C 1454   1.186   1.080   0.604
  253MOL1    Cl 1455   1.174   1.150   0.768
  253MOL1    Cl 1456   1.144   1.206   0.483
  253MOL1     H 1457   1.117   0.996   0.595
  254MOL1    Cl 1458   3.526   4.894   4.628
  254MOL1     C 1459   3.631   4.768   4.555
  254MOL1    Cl 1460   3.663   4.640   4.676
  254MOL1    Cl 1461   3.549   4.698   4.413
  254MOL1     H 1462   3.726   4.813   4.524
  255MOL1    Cl 1463   3.540   3.874   3.384
  255MOL1     C 1464   3.430   3.933   3.513
  255MOL1    Cl 1465   3.449   3.831   3.659
  255MOL1    Cl 1466   3.470   4.102   3.552
  255MOL1     H 1467   3.327   3.927   3.478
  256MOL1    Cl 1468   3.158   4.088   3.365
  256MOL1     C 1469   3.031   4.182   3.281
  256MOL1    Cl 1470   2.887   4.192   3.385
  256MOL1    Cl 1471   3.093   4.346   3.248
  256MOL1     H 1472   3.006   4.132   3.186
  257MOL1    Cl 1473   3.476   1.487   2.856
  257MOL1     C 1474   3.644   1.547   2.836
  257MOL1    Cl 1475   3.644   1.686   2.724
  257MOL1    Cl 1476   3.707   1.601   2.995
  257MOL1     H 1477   3.708   1.467   2.797
  258MOL1    Cl 1478   4.450   2.299   5.290
  258MOL1     C 1479   4.541   2.358   5.148
  258MOL1    Cl 1480   4.707   2.291   5.152
  258MOL1    Cl 1481   4.460   2.303   4.998
  258MOL1     H 1482   4.546   2.467   5.149
  259MOL1    Cl 1483   3.405   2.284   1.036
  259MOL1     C 1484   3.303   2.382   0.926
  259MOL1    Cl 1485   3.408   2.471   0.811
  259MOL1    Cl 1486   3.193   2.274   0.836
  259MOL1     H 1487   3.245   2.454   0.985
  260MOL1    Cl 1488   4.863   4.688   1.322
  260MOL1     C 1489   4.721   4.718   1.425
  260MOL1    Cl 1490   4.741   4.636   1.583
  260MOL1    Cl 1491   4.703   4.894   1.454
  260MOL1     H 1492   4.631   4.680   1.375
  261MOL1    Cl 1493   4.699   1.068   3.293
  261MOL1     C 1494   4.601   0.923   3.329
  261MOL1    Cl 1495   4.708   0.788   3.378
  261MOL1    Cl 1496   4.488   0.959   3.463
  261MOL1     H 1497   4.545   0.894   3.240
  262MOL1    Cl 1498   3.461   2.003   0.808
  262MOL1     C 1499   3.515   2.140   0.705
  262MOL1    Cl 1500   3.659   2.217   0.779
  262MOL1    Cl 1501   3.556   2.079   0.542
  262MOL1     H 1502   3.434   2.213   0.697
  263MOL1    Cl 1503   1.967   0.231   2.900
  263MOL1     C 1504   1.981   0.357   3.026
  263MOL1    Cl 1505   1.884   0.310   3.169
  263MOL1    Cl 1506   2.153   0.374   3.075
  263MOL1     H 1507   1.945   0.452   2.987
  264MOL1    Cl 1508   1.534   4.601   4.869
  264MOL1     C 1509   1.541   4.489   5.008
  264MOL1    Cl 1510   1.704   4.494   5.082
  264MOL1    Cl 1511   1.419   4.538   5.130
  264MOL1     H 1512   1.519   4.387   4.974
  265MOL1    Cl 1513   4.839   0.806   4.473
  265MOL1     C 1514   4.997   0.724   4.454
  265MOL1    Cl 1515   5.105   0.773   4.588
  265MOL1    Cl 1516   4.973   0.547   4.459
  265MOL1     H 1517   5.041   0.752   4.359
  266MOL1    Cl 1518   4.738   5.058   0.442
  266MOL1     C 1519   4.666   4.903   0.388
  266MOL1    Cl 1520   4.647   4.905   0.210
  266MOL1    Cl 1521   4.772   4.767   0.435
  266MOL1     H 1522   4.568   4.891   0.435
  267MOL1    Cl 1523   0.551   2.897   4.242
  267MOL1     C 1524   0.484   3.063   4.248
  267MOL1    Cl 1525   0.618   3.180   4.227
  267MOL1    Cl 1526   0.364   3.084   4.116
  267MOL1     H 1527   0.436   3.080   4.344
  268MOL1    Cl 1528   4.138   1.315   1.803
  268MOL1     C 1529   4.141   1.459   1.910
  268MOL1    Cl 1530   4.303   1.472   1.986
  268MOL1    Cl 1531   4.109   1.606   1.812
  268MOL1     H 1532   4.065   1.448   1.987
  269MOL1    Cl 1533   1.872   4.415   0.453
  269MOL1     C 1534   1.990   4.542   0.407
  269MOL1    Cl 1535   2.144   4.467   0.357
  269MOL1    Cl 1536   1.923   4.638   0.271
  269MOL1     H 1537   2.008   4.608   0.492
  270MOL1    Cl 1538   3.382   1.167   3.845
  270MOL1     C 1539   3.430   1.176   4.017
  270MOL1    Cl 1540   3.303   1.261   4.110
  270MOL1    Cl 1541   3.449   1.009   4.081
  270MOL1     H 1542   3.524   1.230   4.027
  271MOL1    Cl 1543   4.660   3.455   3.463
  271MOL1     C 1544   4.545   3.438   3.599
  271MOL1    Cl 1545   4.434   3.301   3.566
  271MOL1    Cl 1546   4.635   3.406   3.750
  271MOL1     H 1547   4.487   3.530   3.609
  272MOL1    Cl 1548   1.504   1.124   0.892
  272MOL1     C 1549   1.651   1.094   0.795
  272MOL1    Cl 1550   1.656   0.922   0.748
  272MOL1    Cl 1551   1.649   1.197   0.649
  272MOL1     H 1552   1.740   1.118   0.855
  273MOL1    Cl 1553   1.626   2.043   1.163
  273MOL1     C 1554   1.712   1.977   1.304
  273MOL1    Cl 1555   1.654   1.811   1.338
  273MOL1    Cl 1556   1.887   1.971   1.269
  273MOL1     H 1557   1.693   2.041   1.391
  274MOL1    Cl 1558   3.697   2.864   2.546
  274MOL1     C 1559   3.566   2.907   2.661
  274MOL1    Cl 1560   3.593   3.073   2.722
  274MOL1    Cl 1561   3.409   2.897   2.577
  274MOL1     H 1562   3.567   2.837   2.745
  275MOL1    Cl 1563   3.309   3.451   2.904
  275MOL1     C 1564   3.426   3.315   2.898
  275MOL1    Cl 1565   3.584   3.369   2.963
  275MOL1    Cl 1566   3.364   3.179   2.997
  275MOL1     H 1567   3.439   3.283   2.795
  276MOL1    Cl 1568   1.442   1.188   0.270
  276MOL1     C 1569   1.458   1.330   0.379
  276MOL1    Cl 1570   1.620   1.402   0.357
  276MOL1    Cl 1571   1.333   1.451   0.337
  276MOL1     H 1572   1.445   1.298   0.482
  277MOL1    Cl 1573   3.510   0.667   1.169
  277MOL1     C 1574   3.452   0.498   1.186
  277MOL1    Cl 1575   3.560   0.410   1.298
  277MOL1    Cl 1576   3.285   0.499   1.252
  277MOL1     H 1577   3.453   0.449   1.089
  278MOL1    Cl 1578   2.098   3.489   1.191
  278MOL1     C 1579   2.204   3.479   1.047
  278MOL1    Cl 1580   2.371   3.438   1.099
  278MOL1    Cl 1581   2.145   3.352   0.936
  278MOL1     H 1582   2.204   3.575   0.996
  279MOL1    Cl 1583   3.009   3.799   2.131
  279MOL1     C 1584   3.075   3.705   1.993
  279MOL1    Cl 1585   3.153   3.818   1.878
  279MOL1    Cl 1586   3.196   3.589   2.054
  279MOL1     H 1587   2.994   3.651   1.943
  280MOL1    Cl 1588   4.886   0.781   4.126
  280MOL1     C 1589   4.775   0.708   4.007
  280MOL1    Cl 1590   4.776   0.806   3.857
  280MOL1    Cl 1591   4.829   0.541   3.969
  280MOL1     H 1592   4.674   0.704   4.048
  281MOL1    Cl 1593   5.053   2.859   4.808
  281MOL1     C 1594   5.011   3.032   4.796
  281MOL1    Cl 1595   5.123   3.127   4.899
  281MOL1    Cl 1596   5.029   3.086   4.626
  281MOL1     H 1597   4.908   3.048   4.829
  282MOL1    Cl 1598   1.422   4.603   2.459
  282MOL1     C 1599   1.593   4.639   2.419
  282MOL1    Cl 1600   1.689   4.488   2.429
  282MOL1    Cl 1601   1.603   4.707   2.254
  282MOL1     H 1602   1.633   4.711   2.491
  283MOL1    Cl 1603   5.008   5.478   0.680
  283MOL1     C 1604   5.100   5.421   0.537
  283MOL1    Cl 1605   5.260   5.361   0.590
  283MOL1    Cl 1606   5.010   5.289   0.457
  283MOL1     H 1607   5.113   5.504   0.467
  284MOL1    Cl 1608   4.418   0.613   3.548
  284MOL1     C 1609   4.553   0.629   3.665
  284MOL1    Cl 1610   4.493   0.596   3.831
  284MOL1    Cl 1611   4.681   0.512   3.625
  284MOL1     H 1612   4.593   0.731   3.660
  285MOL1    Cl 1613   3.931   4.894   4.368
  285MOL1     C 1614   3.823   4.951   4.237
  285MOL1    Cl 1615   3.773   4.811   4.137
  285MOL1    Cl 1616   3.678   5.027   4.309
  285MOL1     H 1617   3.875   5.024   4.175
  286MOL1    Cl 1618   1.688   2.139   1.628
  286MOL1     C 1619   1.603   2.034   1.745
  286MOL1    Cl 1620   1.554   1.882   1.663
  286MOL1    Cl 1621   1.714   1.995   1.880
  286MOL1     H 1622   1.514   2.085   1.784
  287MOL1    Cl 1623   0.153   0.376   2.100
  287MOL1     C 1624   0.263   0.448   1.978
  287MOL1    Cl 1625   0.223   0.382   1.816
  287MOL1    Cl 1626   0.241   0.626   1.977
  287MOL1     H 1627   0.367   0.424   2.003
  288MOL1    Cl 1628   3.372   2.027   2.793
  288MOL1     C 1629   3.393   1.876   2.888
  288MOL1    Cl 1630   3.541   1.889   2.986
  288MOL1    Cl 1631   3.253   1.854   2.998
  288MOL1     H 1632   3.400   1.791   2.820
  289MOL1    Cl 1633   3.712   0.457   0.957
  289MOL1     C 1634   3.832   0.581   0.908
  289MOL1    Cl 1635   3.847   0.583   0.730
  289MOL1    Cl 1636   3.776   0.742   0.965
  289MOL1     H 1637   3.929   0.558   0.953
  290MOL1    Cl 1638   1.095   1.625   2.112
  290MOL1     C 1639   1.038   1.477   2.030
  290MOL1    Cl 1640   0.865   1.449   2.071
  290MOL1    Cl 1641   1.057   1.494   1.853
  290MOL1     H 1642   1.097   1.391   2.064
  291MOL1    Cl 1643   2.937   3.779   1.310
  291MOL1     C 1644   2.887   3.672   1.444
  291MOL1    Cl 1645   2.854   3.508   1.379
  291MOL1    Cl 1646   3.018   3.663   1.565
  291MOL1     H 1647   2.796   3.712   1.490
  292MOL1    Cl 1648   2.392   2.510   4.509
  292MOL1     C 1649   2.411   2.449   4.343
  292MOL1    Cl 1650   2.271   2.499   4.243
  292MOL1    Cl 1651   2.560   2.519   4.273
  292MOL1     H 1652   2.418   2.340   4.344
  293MOL1    Cl 1653   0.997   2.322   1.209
  293MOL1     C 1654   1.056   2.373   1.048
  293MOL1    Cl 1655   0.932   2.474   0.967
  293MOL1    Cl 1656   1.205   2.470   1.067
  293MOL1     H 1657   1.077   2.285   0.986
  294MOL1    Cl 1658   2.930   0.942   1.770
  294MOL1     C 1659   2.827   0.804   1.722
  294MOL1    Cl 1660   2.675   0.865   1.649
  294MOL1    Cl 1661   2.913   0.703   1.601
  294MOL1     H 1662   2.803   0.743   1.810
  295MOL1    Cl 1663   2.507   3.675   5.457
  295MOL1     C 1664   2.555   3.588   5.605
  295MOL1    Cl 1665   2.667   3.689   5.702
  295MOL1    Cl 1666   2.410   3.550   5.703
  295MOL1     H 1667   2.606   3.495   5.578
  296MOL1    Cl 1668   0.709   3.650   5.226
  296MOL1     C 1669   0.667   3.565   5.074
  296MOL1    Cl 1670   0.496   3.512   5.080
  296MOL1    Cl 1671   0.689   3.678   4.936
  296MOL1     H 1672   0.732   3.478   5.061
  297MOL1    Cl 1673   4.068   1.956   1.858
  297MOL1     C 1674   3.904   1.977   1.927
  297MOL1    Cl 1675   3.815   1.822   1.920
  297MOL1    Cl 1676   3.919   2.030   2.097
  297MOL1     H 1677   3.849   2.053   1.870
  298MOL1    Cl 1678   2.487   2.999   2.622
  298MOL1     C 1679   2.360   2.884   2.569
  298MOL1    Cl 1680   2.432   2.766   2.456
  298MOL1    Cl 1681   2.295   2.799   2.713
  298MOL1     H 1682   2.280   2.939   2.519
  299MOL1    Cl 1683   4.682   2.946   0.281
  299MOL1     C 1684   4.697   2.871   0.443
  299MOL1    Cl 1685   4.728   2.695   0.425
  299MOL1    Cl 1686   4.834   2.946   0.531
  299MOL1     H 1687   4.605   2.886   0.500
  300MOL1    Cl 1688   5.043   4.456   1.540
  300MOL1     C 1689   5.000   4.429   1.712
  300MOL1    Cl 1690   4.867   4.309   1.723
  300MOL1    Cl 1691   5.143   4.368   1.801
  300MOL1     H 1692   4.966   4.524   1.756
  301MOL1    Cl 1693   3.225   1.703   3.770
  301MOL1     C 1694   3.399   1.693   3.809
  301MOL1    Cl 1695   3.452   1.848   3.881
  301MOL1    Cl 1696   3.427   1.561   3.926
  301MOL1     H 1697   3.456   1.674   3.717
  302MOL1    Cl 1698   1.067   3.724   2.636
  302MOL1     C 1699   1.240   3.696   2.599
  302MOL1    Cl 1700   1.291   3.538   2.666
  302MOL1    Cl 1701   1.263   3.696   2.422
  302MOL1     H 1702   1.300   3.776   2.644
  303MOL1    Cl 1703   3.109   4.038   2.391
  303MOL1     C 1704   3.259   4.100   2.315
  303MOL1    Cl 1705   3.401   4.028   2.398
  303MOL1    Cl 1706   3.261   4.053   2.143
  303MOL1     H 1707   3.263   4.209   2.324
  304MOL1    Cl 1708   1.767   2.922   2.142
  304MOL1     C 1709   1.841   3.085   2.159
  304MOL1    Cl 1710   1.818   3.143   2.327
  304MOL1    Cl 1711   2.015   3.074   2.122
  304MOL1     H 1712   1.793   3.154   2.090
  305MOL1    Cl 1713   4.648   0.252   5.057
  305MOL1     C 1714   4.688   0.176   5.214
  305MOL1    Cl 1715   4.824   0.060   5.191
  305MOL1    Cl 1716   4.737   0.302   5.331
  305MOL1     H 1717   4.601   0.122   5.252
  306MOL1    Cl 1718   4.264   4.500   2.754
  306MOL1     C 1719   4.173   4.626   2.666
  306MOL1    Cl 1720   4.008   4.565   2.629
  306MOL1    Cl 1721   4.160   4.773   2.767
  306MOL1     H 1722   4.225   4.650   2.573
  307MOL1    Cl 1723   1.800   5.054   2.726
  307MOL1     C 1724   1.708   4.968   2.854
  307MOL1    Cl 1725   1.816   4.931   2.992
  307MOL1    Cl 1726   1.573   5.073   2.909
  307MOL1     H 1727   1.667   4.875   2.814
  308MOL1    Cl 1728   3.600   4.843   3.680
  308MOL1     C 1729   3.717   4.918   3.793
  308MOL1    Cl 1730   3.834   5.018   3.701
  308MOL1    Cl 1731   3.629   5.023   3.908
  308MOL1     H 1732   3.770   4.840   3.848
  309MOL1    Cl 1733   3.616   2.233   4.605
  309MOL1     C 1734   3.795   2.231   4.609
  309MOL1    Cl 1735   3.857   2.396   4.581
  309MOL1    Cl 1736   3.851   2.173   4.769
  309MOL1     H 1737   3.833   2.164   4.531
  310MOL1    Cl 1738   5.163   4.050   2.903
  310MOL1     C 1739   4.987   4.070   2.929
  310MOL1    Cl 1740   4.914   4.150   2.786
  310MOL1    Cl 1741   4.911   3.910   2.952
  310MOL1     H 1742   4.969   4.132   3.018
  311MOL1    Cl 1743   4.812   3.277   2.476
  311MOL1     C 1744   4.789   3.100   2.485
  311MOL1    Cl 1745   4.926   3.028   2.576
  311MOL1    Cl 1746   4.636   3.062   2.568
  311MOL1     H 1747   4.787   3.058   2.383
  312MOL1    Cl 1748   1.552   2.546   1.014
  312MOL1     C 1749   1.564   2.374   1.064
  312MOL1    Cl 1750   1.493   2.353   1.227
  312MOL1    Cl 1751   1.476   2.273   0.946
  312MOL1     H 1752   1.670   2.344   1.066
  313MOL1    Cl 1753   1.315   2.020   4.094
  313MOL1     C 1754   1.345   2.016   3.917
  313MOL1    Cl 1755   1.461   1.884   3.880
  313MOL1    Cl 1756   1.192   1.985   3.830
  313MOL1     H 1757   1.387   2.111   3.885
  314MOL1    Cl 1758   4.077   3.449   1.392
  314MOL1     C 1759   4.202   3.576   1.373
  314MOL1    Cl 1760   4.130   3.735   1.415
  314MOL1    Cl 1761   4.339   3.541   1.483
  314MOL1     H 1762   4.237   3.579   1.270
  315MOL1    Cl 1763   0.873   5.111   2.356
  315MOL1     C 1764   0.705   5.049   2.350
  315MOL1    Cl 1765   0.707   4.878   2.296
  315MOL1    Cl 1766   0.631   5.059   2.514
  315MOL1     H 1767   0.646   5.109   2.280
  316MOL1    Cl 1768   1.703   2.555   1.930
  316MOL1     C 1769   1.538   2.492   1.959
  316MOL1    Cl 1770   1.426   2.565   1.841
  316MOL1    Cl 1771   1.536   2.314   1.939
  316MOL1     H 1772   1.506   2.517   2.061
  317MOL1    Cl 1773   0.903   2.952   4.157
  317MOL1     C 1774   0.847   2.815   4.057
  317MOL1    Cl 1775   0.930   2.819   3.898
  317MOL1    Cl 1776   0.887   2.661   4.140
  317MOL1     H 1777   0.739   2.821   4.042
  318MOL1    Cl 1778   1.552   0.882   4.878
  318MOL1     C 1779   1.572   1.022   4.987
  318MOL1    Cl 1780   1.536   0.972   5.156
  318MOL1    Cl 1781   1.741   1.081   4.978
  318MOL1     H 1782   1.504   1.102   4.958
  319MOL1    Cl 1783   3.645   2.883   1.184
  319MOL1     C 1784   3.711   2.766   1.302
  319MOL1    Cl 1785   3.826   2.850   1.411
  319MOL1    Cl 1786   3.577   2.696   1.398
  319MOL1     H 1787   3.763   2.686   1.248
  320MOL1    Cl 1788   3.685   4.544   3.097
  320MOL1     C 1789   3.674   4.661   2.961
  320MOL1    Cl 1790   3.620   4.576   2.813
  320MOL1    Cl 1791   3.558   4.790   3.004
  320MOL1     H 1792   3.773   4.705   2.943
  321MOL1    Cl 1793   4.828   3.242   5.033
  321MOL1     C 1794   4.783   3.108   5.143
  321MOL1    Cl 1795   4.616   3.055   5.106
  321MOL1    Cl 1796   4.895   2.970   5.118
  321MOL1     H 1797   4.789   3.142   5.247
  322MOL1    Cl 1798   4.331   2.898   2.623
  322MOL1     C 1799   4.376   2.952   2.787
  322MOL1    Cl 1800   4.241   3.045   2.860
  322MOL1    Cl 1801   4.411   2.808   2.889
  322MOL1     H 1802   4.466   3.015   2.782
  323MOL1    Cl 1803   2.569   4.421   3.408
  323MOL1     C 1804   2.663   4.571   3.431
  323MOL1    Cl 1805   2.627   4.638   3.593
  323MOL1    Cl 1806   2.838   4.534   3.419
  323MOL1     H 1807   2.636   4.644   3.354
  324MOL1    Cl 1808   3.902   2.367   1.050
  324MOL1     C 1809   3.728   2.399   1.079
  324MOL1    Cl 1810   3.697   2.402   1.256
  324MOL1    Cl 1811   3.684   2.558   1.010
  324MOL1     H 1812   3.669   2.321   1.032
  325MOL1    Cl 1813   2.544   2.260   2.688
  325MOL1     C 1814   2.485   2.222   2.523
  325MOL1    Cl 1815   2.347   2.107   2.532
  325MOL1    Cl 1816   2.430   2.373   2.444
  325MOL1     H 1817   2.566   2.177   2.465
  326MOL1    Cl 1818   2.914   3.181   3.009
  326MOL1     C 1819   3.022   3.146   3.148
  326MOL1    Cl 1820   2.942   3.202   3.299
  326MOL1    Cl 1821   3.051   2.970   3.159
  326MOL1     H 1822   3.117   3.199   3.135
  327MOL1    Cl 1823   5.499   1.933   1.895
  327MOL1     C 1824   5.326   1.943   1.940
  327MOL1    Cl 1825   5.227   1.970   1.793
  327MOL1    Cl 1826   5.276   1.789   2.018
  327MOL1     H 1827   5.310   2.025   2.010
  328MOL1    Cl 1828   1.765   1.510   3.563
  328MOL1     C 1829   1.927   1.466   3.626
  328MOL1    Cl 1830   1.946   1.288   3.621
  328MOL1    Cl 1831   2.052   1.542   3.522
  328MOL1     H 1832   1.938   1.502   3.729
  329MOL1    Cl 1833   3.613   4.185   2.144
  329MOL1     C 1834   3.725   4.208   2.280
  329MOL1    Cl 1835   3.656   4.329   2.394
  329MOL1    Cl 1836   3.748   4.052   2.365
  329MOL1     H 1837   3.822   4.244   2.243
  330MOL1    Cl 1838   2.358   3.594   0.758
  330MOL1     C 1839   2.507   3.569   0.661
  330MOL1    Cl 1840   2.494   3.662   0.509
  330MOL1    Cl 1841   2.649   3.626   0.754
  330MOL1     H 1842   2.518   3.462   0.639
  331MOL1    Cl 1843   4.531   2.177   3.034
  331MOL1     C 1844   4.609   2.169   3.195
  331MOL1    Cl 1845   4.743   2.287   3.202
  331MOL1    Cl 1846   4.489   2.211   3.322
  331MOL1     H 1847   4.647   2.068   3.213
  332MOL1    Cl 1848   2.504   3.549   1.416
  332MOL1     C 1849   2.413   3.652   1.532
  332MOL1    Cl 1850   2.519   3.784   1.588
  332MOL1    Cl 1851   2.270   3.722   1.449
  332MOL1     H 1852   2.380   3.591   1.617
  333MOL1    Cl 1853   1.222   4.803   4.435
  333MOL1     C 1854   1.342   4.747   4.555
  333MOL1    Cl 1855   1.366   4.570   4.537
  333MOL1    Cl 1856   1.498   4.831   4.527
  333MOL1     H 1857   1.306   4.769   4.656
  334MOL1    Cl 1858   3.907   3.468   3.774
  334MOL1     C 1859   3.756   3.376   3.799
  334MOL1    Cl 1860   3.784   3.248   3.921
  334MOL1    Cl 1861   3.627   3.487   3.857
  334MOL1     H 1862   3.725   3.331   3.704
  335MOL1    Cl 1863   3.612   3.699   1.355
  335MOL1     C 1864   3.785   3.744   1.345
  335MOL1    Cl 1865   3.849   3.700   1.184
  335MOL1    Cl 1866   3.803   3.921   1.370
  335MOL1     H 1867   3.841   3.691   1.422
  336MOL1    Cl 1868   2.877   1.672   3.762
  336MOL1     C 1869   2.836   1.564   3.625
  336MOL1    Cl 1870   2.732   1.651   3.508
  336MOL1    Cl 1871   2.987   1.514   3.544
  336MOL1     H 1872   2.784   1.476   3.663
  337MOL1    Cl 1873   2.356   3.817   4.956
  337MOL1     C 1874   2.398   3.662   5.036
  337MOL1    Cl 1875   2.247   3.576   5.083
  337MOL1    Cl 1876   2.490   3.560   4.922
  337MOL1     H 1877   2.458   3.682   5.125
  338MOL1    Cl 1878   4.142   3.766   3.269
  338MOL1     C 1879   4.313   3.802   3.309
  338MOL1    Cl 1880   4.321   3.898   3.460
  338MOL1    Cl 1881   4.401   3.648   3.334
  338MOL1     H 1882   4.359   3.858   3.227
  339MOL1    Cl 1883   3.347   1.856   4.472
  339MOL1     C 1884   3.325   2.005   4.570
  339MOL1    Cl 1885   3.301   2.145   4.461
  339MOL1    Cl 1886   3.182   1.985   4.675
  339MOL1     H 1887   3.414   2.021   4.632
  340MOL1    Cl 1888   0.972   0.443   3.846
  340MOL1     C 1889   1.140   0.386   3.869
  340MOL1    Cl 1890   1.185   0.398   4.042
  340MOL1    Cl 1891   1.153   0.216   3.816
  340MOL1     H 1892   1.208   0.448   3.809
  341MOL1    Cl 1893   3.633   1.064   2.107
  341MOL1     C 1894   3.546   1.202   2.032
  341MOL1    Cl 1895   3.563   1.193   1.855
  341MOL1    Cl 1896   3.372   1.192   2.075
  341MOL1     H 1897   3.589   1.296   2.069
  342MOL1    Cl 1898   2.969   4.375   2.415
  342MOL1     C 1899   2.835   4.256   2.424
  342MOL1    Cl 1900   2.682   4.339   2.467
  342MOL1    Cl 1901   2.817   4.178   2.264
  342MOL1     H 1902   2.858   4.181   2.499
  343MOL1    Cl 1903   1.211   1.097   2.431
  343MOL1     C 1904   1.248   1.216   2.302
  343MOL1    Cl 1905   1.167   1.165   2.151
  343MOL1    Cl 1906   1.188   1.377   2.351
  343MOL1     H 1907   1.356   1.220   2.286
  344MOL1    Cl 1908   2.582   4.144   3.203
  344MOL1     C 1909   2.674   4.211   3.064
  344MOL1    Cl 1910   2.754   4.363   3.112
  344MOL1    Cl 1911   2.797   4.091   3.012
  344MOL1     H 1912   2.605   4.230   2.981
  345MOL1    Cl 1913   4.231   2.041   4.965
  345MOL1     C 1914   4.285   2.029   4.794
  345MOL1    Cl 1915   4.464   2.034   4.787
  345MOL1    Cl 1916   4.229   1.875   4.725
  345MOL1     H 1917   4.244   2.113   4.737
  346MOL1    Cl 1918   0.632   0.856   0.632
  346MOL1     C 1919   0.770   0.886   0.522
  346MOL1    Cl 1920   0.712   0.885   0.352
  346MOL1    Cl 1921   0.841   1.046   0.559
  346MOL1     H 1922   0.845   0.809   0.535
  347MOL1    Cl 1923   3.645   3.702   4.799
  347MOL1     C 1924   3.797   3.654   4.880
  347MOL1    Cl 1925   3.775   3.494   4.958
  347MOL1    Cl 1926   3.929   3.642   4.759
  347MOL1     H 1927   3.824   3.728   4.955
  348MOL1    Cl 1928   2.230   2.406   2.764
  348MOL1     C 1929   2.320   2.496   2.890
  348MOL1    Cl 1930   2.207   2.599   2.982
  348MOL1    Cl 1931   2.399   2.380   3.002
  348MOL1     H 1932   2.397   2.558   2.843
  349MOL1    Cl 1933   2.458   4.221   1.864
  349MOL1     C 1934   2.437   4.055   1.799
  349MOL1    Cl 1935   2.394   3.944   1.932
  349MOL1    Cl 1936   2.305   4.055   1.678
  349MOL1     H 1937   2.530   4.022   1.752
  350MOL1    Cl 1938   4.290   3.501   2.076
  350MOL1     C 1939   4.349   3.573   1.922
  350MOL1    Cl 1940   4.216   3.575   1.803
  350MOL1    Cl 1941   4.403   3.741   1.953
  350MOL1     H 1942   4.432   3.514   1.883
  351MOL1    Cl 1943   3.003   4.477   0.731
  351MOL1     C 1944   2.889   4.369   0.816
  351MOL1    Cl 1945   2.946   4.344   0.984
  351MOL1    Cl 1946   2.727   4.443   0.820
  351MOL1     H 1947   2.884   4.273   0.764
  352MOL1    Cl 1948   2.773   2.541   4.551
  352MOL1     C 1949   2.892   2.564   4.420
  352MOL1    Cl 1950   2.886   2.424   4.308
  352MOL1    Cl 1951   2.854   2.714   4.330
  352MOL1     H 1952   2.992   2.571   4.463
  353MOL1    Cl 1953   2.319   3.093   2.289
  353MOL1     C 1954   2.297   3.216   2.418
  353MOL1    Cl 1955   2.316   3.379   2.348
  353MOL1    Cl 1956   2.133   3.199   2.488
  353MOL1     H 1957   2.372   3.202   2.496
  354MOL1    Cl 1958   1.028   4.202   4.616
  354MOL1     C 1959   1.067   4.058   4.715
  354MOL1    Cl 1960   1.072   4.105   4.888
  354MOL1    Cl 1961   0.940   3.934   4.691
  354MOL1     H 1962   1.164   4.018   4.685
  355MOL1    Cl 1963   0.517   2.373   1.790
  355MOL1     C 1964   0.631   2.476   1.698
  355MOL1    Cl 1965   0.686   2.611   1.802
  355MOL1    Cl 1966   0.773   2.378   1.649
  355MOL1     H 1967   0.582   2.516   1.610
  356MOL1    Cl 1968   4.388   1.100   4.148
  356MOL1     C 1969   4.558   1.057   4.181
  356MOL1    Cl 1970   4.567   0.885   4.231
  356MOL1    Cl 1971   4.655   1.079   4.032
  356MOL1     H 1972   4.598   1.120   4.261
  357MOL1    Cl 1973   4.060   1.520   0.170
  357MOL1     C 1974   4.226   1.552   0.228
  357MOL1    Cl 1975   4.234   1.716   0.300
  357MOL1    Cl 1976   4.270   1.431   0.353
  357MOL1     H 1977   4.297   1.545   0.145
  358MOL1    Cl 1978   2.372   1.602   4.048
  358MOL1     C 1979   2.250   1.715   3.980
  358MOL1    Cl 1980   2.203   1.658   3.817
  358MOL1    Cl 1981   2.106   1.718   4.086
  358MOL1     H 1982   2.293   1.815   3.973
  359MOL1    Cl 1983   0.780   1.791   2.187
  359MOL1     C 1984   0.777   1.870   2.025
  359MOL1    Cl 1985   0.848   1.759   1.904
  359MOL1    Cl 1986   0.608   1.908   1.979
  359MOL1     H 1987   0.835   1.962   2.029
  360MOL1    Cl 1988   2.072   0.811   3.622
  360MOL1     C 1989   2.011   0.929   3.502
  360MOL1    Cl 1990   2.135   0.960   3.377
  360MOL1    Cl 1991   1.866   0.861   3.423
  360MOL1     H 1992   1.985   1.023   3.553
  361MOL1    Cl 1993   2.286   4.090   1.085
  361MOL1     C 1994   2.287   4.025   1.252
  361MOL1    Cl 1995   2.413   4.108   1.349
  361MOL1    Cl 1996   2.127   4.052   1.327
  361MOL1     H 1997   2.309   3.917   1.250
  362MOL1    Cl 1998   3.713   1.813   4.121
  362MOL1     C 1999   3.618   1.828   4.272
  362MOL1    Cl 2000   3.658   1.692   4.381
  362MOL1    Cl 2001   3.659   1.983   4.352
  362MOL1     H 2002   3.511   1.826   4.248
  363MOL1    Cl 2003   2.764   3.660   4.013
  363MOL1     C 2004   2.617   3.700   3.920
  363MOL1    Cl 2005   2.621   3.872   3.871
  363MOL1    Cl 2006   2.610   3.597   3.773
  363MOL1     H 2007   2.528   3.682   3.982
  364MOL1    Cl 2008   3.218   0.762   4.474
  364MOL1     C 2009   3.258   0.895   4.588
  364MOL1    Cl 2010   3.251   1.053   4.503
  364MOL1    Cl 2011   3.141   0.895   4.723
  364MOL1     H 2012   3.359   0.880   4.627
  365MOL1    Cl 2013   3.130   2.974   2.805
  365MOL1     C 2014   3.172   2.809   2.860
  365MOL1    Cl 2015   3.158   2.696   2.722
  365MOL1    Cl 2016   3.341   2.808   2.920
  365MOL1     H 2017   3.105   2.778   2.940
  366MOL1    Cl 2018   4.751   4.314   0.897
  366MOL1     C 2019   4.905   4.276   0.980
  366MOL1    Cl 2020   4.913   4.366   1.135
  366MOL1    Cl 2021   4.913   4.100   1.013
  366MOL1     H 2022   4.989   4.306   0.917
  367MOL1    Cl 2023   2.349   2.832   4.373
  367MOL1     C 2024   2.526   2.852   4.397
  367MOL1    Cl 2025   2.573   3.019   4.354
  367MOL1    Cl 2026   2.565   2.821   4.569
  367MOL1     H 2027   2.580   2.781   4.333
  368MOL1    Cl 2028   3.011   3.872   4.477
  368MOL1     C 2029   2.897   3.975   4.384
  368MOL1    Cl 2030   2.904   3.930   4.210
  368MOL1    Cl 2031   2.731   3.948   4.443
  368MOL1     H 2032   2.925   4.080   4.395
  369MOL1    Cl 2033   4.382   4.882   3.025
  369MOL1     C 2034   4.505   4.763   2.971
  369MOL1    Cl 2035   4.460   4.600   3.030
  369MOL1    Cl 2036   4.513   4.763   2.792
  369MOL1     H 2037   4.603   4.791   3.012
  370MOL1    Cl 2038   2.057   3.859   2.110
  370MOL1     C 2039   2.203   3.860   2.213
  370MOL1    Cl 2040   2.161   3.914   2.378
  370MOL1    Cl 2041   2.273   3.696   2.218
  370MOL1     H 2042   2.277   3.929   2.170
  371MOL1    Cl 2043   3.806   1.090   1.245
  371MOL1     C 2044   3.674   0.972   1.219
  371MOL1    Cl 2045   3.566   0.970   1.361
  371MOL1    Cl 2046   3.580   1.018   1.073
  371MOL1     H 2047   3.717   0.873   1.204
  372MOL1    Cl 2048   0.708   3.667   3.464
  372MOL1     C 2049   0.776   3.721   3.307
  372MOL1    Cl 2050   0.653   3.818   3.221
  372MOL1    Cl 2051   0.921   3.821   3.337
  372MOL1     H 2052   0.803   3.634   3.247
  373MOL1    Cl 2053   3.120   2.543   4.854
  373MOL1     C 2054   3.203   2.603   4.708
  373MOL1    Cl 2055   3.216   2.471   4.588
  373MOL1    Cl 2056   3.107   2.737   4.638
  373MOL1     H 2057   3.303   2.639   4.734
  374MOL1    Cl 2058   3.065   0.623   0.925
  374MOL1     C 2059   2.913   0.696   0.865
  374MOL1    Cl 2060   2.946   0.860   0.802
  374MOL1    Cl 2061   2.847   0.594   0.733
  374MOL1     H 2062   2.840   0.701   0.947
  375MOL1    Cl 2063   3.162   0.768   2.517
  375MOL1     C 2064   3.177   0.590   2.503
  375MOL1    Cl 2065   3.039   0.528   2.406
  375MOL1    Cl 2066   3.331   0.549   2.421
  375MOL1     H 2067   3.175   0.545   2.602
  376MOL1    Cl 2068   2.099   3.651   4.741
  376MOL1     C 2069   2.254   3.644   4.653
  376MOL1    Cl 2070   2.289   3.474   4.609
  376MOL1    Cl 2071   2.243   3.743   4.505
  376MOL1     H 2072   2.334   3.683   4.717
  377MOL1    Cl 2073   1.048   3.041   0.557
  377MOL1     C 2074   1.125   2.973   0.704
  377MOL1    Cl 2075   1.302   3.002   0.698
  377MOL1    Cl 2076   1.058   3.053   0.849
  377MOL1     H 2077   1.106   2.865   0.709
  378MOL1    Cl 2078   3.133   0.406   3.474
  378MOL1     C 2079   3.222   0.256   3.517
  378MOL1    Cl 2080   3.106   0.124   3.551
  378MOL1    Cl 2081   3.327   0.208   3.380
  378MOL1     H 2082   3.284   0.274   3.605
  379MOL1    Cl 2083   2.305   3.238   1.379
  379MOL1     C 2084   2.216   3.109   1.293
  379MOL1    Cl 2085   2.041   3.147   1.291
  379MOL1    Cl 2086   2.276   3.096   1.125
  379MOL1     H 2087   2.231   3.013   1.344
  380MOL1    Cl 2088   3.039   5.119   4.030
  380MOL1     C 2089   3.218   5.127   4.027
  380MOL1    Cl 2090   3.278   5.045   3.880
  380MOL1    Cl 2091   3.270   5.299   4.026
  380MOL1     H 2092   3.258   5.078   4.116
  381MOL1    Cl 2093   0.902   0.545   4.183
  381MOL1     C 2094   0.786   0.409   4.168
  381MOL1    Cl 2095   0.669   0.446   4.037
  381MOL1    Cl 2096   0.873   0.257   4.130
  381MOL1     H 2097   0.731   0.398   4.262
  382MOL1    Cl 2098   2.638   2.824   3.789
  382MOL1     C 2099   2.605   2.705   3.918
  382MOL1    Cl 2100   2.760   2.640   3.981
  382MOL1    Cl 2101   2.516   2.784   4.052
  382MOL1     H 2102   2.544   2.623   3.878
  383MOL1    Cl 2103   1.013   1.450   0.698
  383MOL1     C 2104   1.038   1.539   0.545
  383MOL1    Cl 2105   0.883   1.616   0.496
  383MOL1    Cl 2106   1.163   1.665   0.567
  383MOL1     H 2107   1.070   1.470   0.467
  384MOL1    Cl 2108   4.807   3.187   1.919
  384MOL1     C 2109   4.681   3.216   2.043
  384MOL1    Cl 2110   4.527   3.258   1.962
  384MOL1    Cl 2111   4.659   3.068   2.141
  384MOL1     H 2112   4.712   3.298   2.108
  385MOL1    Cl 2113   3.248   3.370   0.838
  385MOL1     C 2114   3.070   3.349   0.832
  385MOL1    Cl 2115   3.026   3.196   0.915
  385MOL1    Cl 2116   2.990   3.486   0.915
  385MOL1     H 2117   3.037   3.345   0.728
  386MOL1    Cl 2118   2.599   4.738   1.813
  386MOL1     C 2119   2.731   4.848   1.763
  386MOL1    Cl 2120   2.872   4.826   1.871
  386MOL1    Cl 2121   2.779   4.812   1.594
  386MOL1     H 2122   2.696   4.952   1.769
  387MOL1    Cl 2123   2.995   3.827   4.826
  387MOL1     C 2124   2.869   3.836   4.953
  387MOL1    Cl 2125   2.909   3.969   5.067
  387MOL1    Cl 2126   2.710   3.868   4.878
  387MOL1     H 2127   2.866   3.741   5.008
  388MOL1    Cl 2128   4.241   3.892   2.959
  388MOL1     C 2129   4.158   3.981   2.828
  388MOL1    Cl 2130   3.981   3.952   2.840
  388MOL1    Cl 2131   4.191   4.156   2.846
  388MOL1     H 2132   4.194   3.946   2.731
  389MOL1    Cl 2133   2.682   1.944   2.613
  389MOL1     C 2134   2.555   1.838   2.682
  389MOL1    Cl 2135   2.472   1.752   2.549
  389MOL1    Cl 2136   2.630   1.719   2.791
  389MOL1     H 2137   2.482   1.899   2.737
  390MOL1    Cl 2138   4.830   2.423   0.614
  390MOL1     C 2139   4.837   2.309   0.476
  390MOL1    Cl 2140   4.695   2.334   0.370
  390MOL1    Cl 2141   4.987   2.340   0.382
  390MOL1     H 2142   4.838   2.206   0.513
  391MOL1    Cl 2143   4.086   0.682   3.371
  391MOL1     C 2144   4.181   0.709   3.222
  391MOL1    Cl 2145   4.256   0.871   3.229
  391MOL1    Cl 2146   4.309   0.585   3.209
  391MOL1     H 2147   4.115   0.703   3.135
  392MOL1    Cl 2148   4.915   2.040   5.390
  392MOL1     C 2149   4.870   2.200   5.456
  392MOL1    Cl 2150   4.710   2.191   5.536
  392MOL1    Cl 2151   4.993   2.253   5.575
  392MOL1     H 2152   4.865   2.273   5.374
  393MOL1    Cl 2153   0.989   3.435   5.291
  393MOL1     C 2154   1.054   3.578   5.205
  393MOL1    Cl 2155   1.233   3.579   5.218
  393MOL1    Cl 2156   1.007   3.569   5.033
  393MOL1     H 2157   1.013   3.669   5.249
  394MOL1    Cl 2158   3.685   1.678   1.135
  394MOL1     C 2159   3.592   1.545   1.209
  394MOL1    Cl 2160   3.704   1.430   1.288
  394MOL1    Cl 2161   3.481   1.613   1.333
  394MOL1     H 2162   3.533   1.493   1.133
  395MOL1    Cl 2163   2.993   4.380   4.796
  395MOL1     C 2164   2.997   4.202   4.807
  395MOL1    Cl 2165   2.883   4.132   4.689
  395MOL1    Cl 2166   3.162   4.144   4.770
  395MOL1     H 2167   2.969   4.171   4.909
  396MOL1    Cl 2168   1.869   5.057   0.619
  396MOL1     C 2169   1.893   4.910   0.520
  396MOL1    Cl 2170   2.068   4.876   0.505
  396MOL1    Cl 2171   1.812   4.771   0.599
  396MOL1     H 2172   1.850   4.926   0.421
  397MOL1    Cl 2173   1.848   3.515   4.516
  397MOL1     C 2174   1.940   3.589   4.381
  397MOL1    Cl 2175   2.072   3.478   4.331
  397MOL1    Cl 2176   1.831   3.617   4.242
  397MOL1     H 2177   1.983   3.684   4.414
  398MOL1    Cl 2178   1.553   2.288   2.619
  398MOL1     C 2179   1.563   2.179   2.477
  398MOL1    Cl 2180   1.430   2.059   2.485
  398MOL1    Cl 2181   1.548   2.275   2.326
  398MOL1     H 2182   1.660   2.128   2.479
  399MOL1    Cl 2183   1.294   1.395   0.985
  399MOL1     C 2184   1.406   1.487   0.880
  399MOL1    Cl 2185   1.575   1.458   0.932
  399MOL1    Cl 2186   1.386   1.433   0.710
  399MOL1     H 2187   1.383   1.594   0.887
  400MOL1    Cl 2188   0.777   5.350   3.097
  400MOL1     C 2189   0.798   5.180   3.148
  400MOL1    Cl 2190   0.963   5.156   3.213
  400MOL1    Cl 2191   0.679   5.140   3.276
  400MOL1     H 2192   0.782   5.114   3.062
  401MOL1    Cl 2193   2.843   3.885   0.620
  401MOL1     C 2194   2.798   3.842   0.452
  401MOL1    Cl 2195   2.698   3.973   0.382
  401MOL1    Cl 2196   2.947   3.821   0.354
  401MOL1     H 2197   2.741   3.749   0.452
  402MOL1    Cl 2198   4.918   2.133   0.786
  402MOL1     C 2199   5.079   2.103   0.714
  402MOL1    Cl 2200   5.058   2.024   0.554
  402MOL1    Cl 2201   5.163   2.259   0.692
  402MOL1     H 2202   5.138   2.038   0.779
  403MOL1    Cl 2203   3.475   4.579   4.094
  403MOL1     C 2204   3.403   4.727   4.023
  403MOL1    Cl 2205   3.227   4.704   4.002
  403MOL1    Cl 2206   3.429   4.864   4.134
  403MOL1     H 2207   3.450   4.747   3.927
  404MOL1    Cl 2208   0.935   3.402   3.513
  404MOL1     C 2209   1.090   3.474   3.460
  404MOL1    Cl 2210   1.222   3.355   3.483
  404MOL1    Cl 2211   1.079   3.518   3.287
  404MOL1     H 2212   1.111   3.564   3.520
  405MOL1    Cl 2213   3.123   0.923   2.096
  405MOL1     C 2214   3.088   0.753   2.137
  405MOL1    Cl 2215   2.949   0.696   2.039
  405MOL1    Cl 2216   3.231   0.651   2.102
  405MOL1     H 2217   3.063   0.745   2.243
  406MOL1    Cl 2218   5.197   5.346   4.530
  406MOL1     C 2219   5.201   5.167   4.543
  406MOL1    Cl 2220   5.085   5.096   4.426
  406MOL1    Cl 2221   5.366   5.108   4.506
  406MOL1     H 2222   5.173   5.137   4.644
  407MOL1    Cl 2223   4.193   1.131   2.116
  407MOL1     C 2224   4.020   1.088   2.135
  407MOL1    Cl 2225   3.983   1.068   2.309
  407MOL1    Cl 2226   3.921   1.220   2.066
  407MOL1     H 2227   4.000   0.995   2.082
  408MOL1    Cl 2228   2.505   4.448   2.819
  408MOL1     C 2229   2.413   4.299   2.782
  408MOL1    Cl 2230   2.527   4.170   2.733
  408MOL1    Cl 2231   2.325   4.248   2.929
  408MOL1     H 2232   2.342   4.318   2.701
  409MOL1    Cl 2233   2.442   2.770   0.990
  409MOL1     C 2234   2.401   2.683   1.142
  409MOL1    Cl 2235   2.543   2.688   1.251
  409MOL1    Cl 2236   2.263   2.762   1.223
  409MOL1     H 2237   2.376   2.579   1.119
  410MOL1    Cl 2238   2.340   4.375   0.824
  410MOL1     C 2239   2.348   4.533   0.739
  410MOL1    Cl 2240   2.442   4.514   0.588
  410MOL1    Cl 2241   2.182   4.587   0.700
  410MOL1     H 2242   2.396   4.607   0.803
  411MOL1    Cl 2243   3.700   1.248   2.645
  411MOL1     C 2244   3.819   1.300   2.522
  411MOL1    Cl 2245   3.741   1.306   2.361
  411MOL1    Cl 2246   3.878   1.463   2.564
  411MOL1     H 2247   3.902   1.229   2.519
  412MOL1    Cl 2248   3.669   4.232   1.223
  412MOL1     C 2249   3.594   4.114   1.112
  412MOL1    Cl 2250   3.722   4.014   1.035
  412MOL1    Cl 2251   3.483   4.008   1.204
  412MOL1     H 2252   3.538   4.166   1.034
  413MOL1    Cl 2253   1.957   4.170   2.279
  413MOL1     C 2254   1.838   4.062   2.358
  413MOL1    Cl 2255   1.762   4.150   2.495
  413MOL1    Cl 2256   1.712   4.014   2.241
  413MOL1     H 2257   1.889   3.973   2.396
  414MOL1    Cl 2258   4.933   2.730   2.873
  414MOL1     C 2259   4.776   2.780   2.942
  414MOL1    Cl 2260   4.789   2.788   3.121
  414MOL1    Cl 2261   4.733   2.942   2.878
  414MOL1     H 2262   4.698   2.708   2.915
  415MOL1    Cl 2263   1.965   1.313   2.123
  415MOL1     C 2264   1.955   1.328   2.301
  415MOL1    Cl 2265   1.889   1.489   2.345
  415MOL1    Cl 2266   1.847   1.201   2.366
  415MOL1     H 2267   2.055   1.317   2.344
  416MOL1    Cl 2268   0.767   0.796   1.835
  416MOL1     C 2269   0.602   0.740   1.794
  416MOL1    Cl 2270   0.574   0.578   1.864
  416MOL1    Cl 2271   0.482   0.855   1.862
  416MOL1     H 2272   0.591   0.736   1.685
  417MOL1    Cl 2273   1.268   4.157   5.505
  417MOL1     C 2274   1.414   4.085   5.581
  417MOL1    Cl 2275   1.382   4.052   5.754
  417MOL1    Cl 2276   1.454   3.933   5.496
  417MOL1     H 2277   1.498   4.155   5.573
  418MOL1    Cl 2278   3.442   2.824   0.887
  418MOL1     C 2279   3.307   2.809   1.005
  418MOL1    Cl 2280   3.340   2.672   1.115
  418MOL1    Cl 2281   3.294   2.961   1.099
  418MOL1     H 2282   3.214   2.792   0.951
  419MOL1    Cl 2283   0.984   1.715   2.567
  419MOL1     C 2284   1.070   1.787   2.427
  419MOL1    Cl 2285   1.076   1.965   2.445
  419MOL1    Cl 2286   1.238   1.725   2.421
  419MOL1     H 2287   1.017   1.761   2.335
  420MOL1    Cl 2288   2.987   0.568   4.723
  420MOL1     C 2289   2.883   0.663   4.612
  420MOL1    Cl 2290   2.769   0.554   4.528
  420MOL1    Cl 2291   2.791   0.785   4.705
  420MOL1     H 2292   2.946   0.714   4.538
  421MOL1    Cl 2293   0.792   3.895   4.292
  421MOL1     C 2294   0.782   4.048   4.200
  421MOL1    Cl 2295   0.946   4.118   4.186
  421MOL1    Cl 2296   0.718   4.016   4.036
  421MOL1     H 2297   0.717   4.118   4.252
  422MOL1    Cl 2298   4.882   4.023   1.358
  422MOL1     C 2299   5.015   4.133   1.405
  422MOL1    Cl 2300   5.086   4.078   1.560
  422MOL1    Cl 2301   5.141   4.133   1.278
  422MOL1     H 2302   4.975   4.234   1.417
  423MOL1    Cl 2303   2.615   2.425   0.752
  423MOL1     C 2304   2.698   2.541   0.644
  423MOL1    Cl 2305   2.709   2.700   0.726
  423MOL1    Cl 2306   2.862   2.481   0.608
  423MOL1     H 2307   2.641   2.552   0.551
  424MOL1    Cl 2308   3.472   2.771   2.244
  424MOL1     C 2309   3.494   2.628   2.350
  424MOL1    Cl 2310   3.334   2.571   2.407
  424MOL1    Cl 2311   3.575   2.497   2.258
  424MOL1     H 2312   3.556   2.656   2.436
  425MOL1    Cl 2313   4.148   1.709   5.088
  425MOL1     C 2314   4.239   1.607   4.973
  425MOL1    Cl 2315   4.309   1.467   5.061
  425MOL1    Cl 2316   4.128   1.547   4.845
  425MOL1     H 2317   4.319   1.665   4.927
  426MOL1    Cl 2318   1.532   2.289   4.455
  426MOL1     C 2319   1.386   2.186   4.449
  426MOL1    Cl 2320   1.428   2.018   4.495
  426MOL1    Cl 2321   1.264   2.250   4.563
  426MOL1     H 2322   1.345   2.186   4.347
  427MOL1    Cl 2323   1.100   0.540   2.226
  427MOL1     C 2324   0.928   0.566   2.185
  427MOL1    Cl 2325   0.899   0.516   2.015
  427MOL1    Cl 2326   0.825   0.469   2.293
  427MOL1     H 2327   0.903   0.672   2.196
  428MOL1    Cl 2328   3.791   0.677   1.368
  428MOL1     C 2329   3.958   0.640   1.315
  428MOL1    Cl 2330   3.958   0.485   1.224
  428MOL1    Cl 2331   4.016   0.771   1.208
  428MOL1     H 2332   4.023   0.631   1.402
  429MOL1    Cl 2333   3.196   2.090   3.777
  429MOL1     C 2334   3.320   2.104   3.649
  429MOL1    Cl 2335   3.324   1.953   3.553
  429MOL1    Cl 2336   3.281   2.241   3.541
  429MOL1     H 2337   3.418   2.121   3.695
  430MOL1    Cl 2338   3.602   2.966   3.824
  430MOL1     C 2339   3.750   2.933   3.728
  430MOL1    Cl 2340   3.784   3.073   3.621
  430MOL1    Cl 2341   3.889   2.908   3.839
  430MOL1     H 2342   3.735   2.843   3.667
  431MOL1    Cl 2343   3.119   4.157   1.829
  431MOL1     C 2344   3.285   4.189   1.771
  431MOL1    Cl 2345   3.279   4.293   1.626
  431MOL1    Cl 2346   3.376   4.273   1.900
  431MOL1     H 2347   3.334   4.094   1.747
  432MOL1    Cl 2348   0.917   1.338   3.988
  432MOL1     C 2349   0.957   1.341   4.163
  432MOL1    Cl 2350   0.853   1.223   4.249
  432MOL1    Cl 2351   1.129   1.294   4.184
  432MOL1     H 2352   0.941   1.441   4.203
  433MOL1    Cl 2353   0.874   1.862   1.584
  433MOL1     C 2354   0.832   2.031   1.627
  433MOL1    Cl 2355   0.654   2.046   1.641
  433MOL1    Cl 2356   0.908   2.073   1.783
  433MOL1     H 2357   0.868   2.099   1.549
  434MOL1    Cl 2358   0.727   2.949   1.629
  434MOL1     C 2359   0.645   2.917   1.474
  434MOL1    Cl 2360   0.761   2.934   1.339
  434MOL1    Cl 2361   0.579   2.750   1.475
  434MOL1     H 2362   0.563   2.989   1.460
  435MOL1    Cl 2363   1.069   3.730   5.523
  435MOL1     C 2364   1.225   3.651   5.560
  435MOL1    Cl 2365   1.289   3.718   5.713
  435MOL1    Cl 2366   1.200   3.475   5.580
  435MOL1     H 2367   1.296   3.670   5.479
  436MOL1    Cl 2368   3.701   1.625   1.617
  436MOL1     C 2369   3.771   1.462   1.639
  436MOL1    Cl 2370   3.927   1.450   1.553
  436MOL1    Cl 2371   3.799   1.432   1.813
  436MOL1     H 2372   3.701   1.387   1.600
  437MOL1    Cl 2373   3.896   1.828   4.846
  437MOL1     C 2374   3.816   1.809   4.687
  437MOL1    Cl 2375   3.654   1.885   4.692
  437MOL1    Cl 2376   3.915   1.888   4.560
  437MOL1     H 2377   3.806   1.702   4.663
  438MOL1    Cl 2378   1.160   3.834   4.233
  438MOL1     C 2379   1.148   3.915   4.391
  438MOL1    Cl 2380   1.219   3.810   4.518
  438MOL1    Cl 2381   1.239   4.069   4.386
  438MOL1     H 2382   1.043   3.935   4.414
  439MOL1    Cl 2383   3.495   3.395   4.744
  439MOL1     C 2384   3.595   3.252   4.705
  439MOL1    Cl 2385   3.760   3.304   4.660
  439MOL1    Cl 2386   3.604   3.145   4.848
  439MOL1     H 2387   3.550   3.198   4.621
  440MOL1    Cl 2388   1.237   2.486   1.423
  440MOL1     C 2389   1.228   2.400   1.579
  440MOL1    Cl 2390   1.088   2.288   1.575
  440MOL1    Cl 2391   1.378   2.306   1.605
  440MOL1     H 2392   1.215   2.472   1.661
  441MOL1    Cl 2393   4.830   5.196   0.049
  441MOL1     C 2394   4.825   5.060  -0.068
  441MOL1    Cl 2395   4.727   5.108  -0.210
  441MOL1    Cl 2396   4.991   5.022  -0.121
  441MOL1     H 2397   4.780   4.972  -0.020
  442MOL1    Cl 2398   4.799   1.462   0.155
  442MOL1     C 2399   4.633   1.521   0.124
  442MOL1    Cl 2400   4.525   1.384   0.084
  442MOL1    Cl 2401   4.570   1.604   0.269
  442MOL1     H 2402   4.635   1.591   0.040
  443MOL1    Cl 2403   3.252   1.061   3.535
  443MOL1     C 2404   3.287   0.988   3.375
  443MOL1    Cl 2405   3.460   1.011   3.336
  443MOL1    Cl 2406   3.250   0.813   3.381
  443MOL1     H 2407   3.226   1.036   3.299
  444MOL1    Cl 2408   4.525   1.662   4.752
  444MOL1     C 2409   4.613   1.517   4.811
  444MOL1    Cl 2410   4.650   1.536   4.985
  444MOL1    Cl 2411   4.511   1.372   4.786
  444MOL1     H 2412   4.706   1.507   4.755
  445MOL1    Cl 2413   4.615   1.971   3.649
  445MOL1     C 2414   4.716   1.907   3.516
  445MOL1    Cl 2415   4.610   1.842   3.388
  445MOL1    Cl 2416   4.815   2.041   3.449
  445MOL1     H 2417   4.781   1.828   3.554
  446MOL1    Cl 2418   3.256   0.842   3.825
  446MOL1     C 2419   3.398   0.749   3.769
  446MOL1    Cl 2420   3.342   0.611   3.668
  446MOL1    Cl 2421   3.503   0.856   3.671
  446MOL1     H 2422   3.454   0.711   3.855
  447MOL1    Cl 2423   3.892   3.566   1.662
  447MOL1     C 2424   3.864   3.721   1.746
  447MOL1    Cl 2425   4.001   3.832   1.716
  447MOL1    Cl 2426   3.714   3.795   1.683
  447MOL1     H 2427   3.854   3.703   1.854
  448MOL1    Cl 2428   0.800   0.757   1.478
  448MOL1     C 2429   0.963   0.684   1.494
  448MOL1    Cl 2430   0.969   0.584   1.643
  448MOL1    Cl 2431   0.997   0.580   1.353
  448MOL1     H 2432   1.038   0.763   1.500
  449MOL1    Cl 2433   2.640   4.083   3.592
  449MOL1     C 2434   2.465   4.106   3.567
  449MOL1    Cl 2435   2.378   3.961   3.626
  449MOL1    Cl 2436   2.409   4.249   3.659
  449MOL1     H 2437   2.445   4.120   3.460
  450MOL1    Cl 2438   4.428   3.814   1.227
  450MOL1     C 2439   4.599   3.842   1.271
  450MOL1    Cl 2440   4.647   3.728   1.400
  450MOL1    Cl 2441   4.702   3.815   1.127
  450MOL1     H 2442   4.612   3.945   1.306
  451MOL1    Cl 2443   3.369   4.017   4.521
  451MOL1     C 2444   3.356   4.100   4.363
  451MOL1    Cl 2445   3.519   4.116   4.290
  451MOL1    Cl 2446   3.251   4.003   4.254
  451MOL1     H 2447   3.313   4.199   4.377
  452MOL1    Cl 2448   2.346   2.183   4.600
  452MOL1     C 2449   2.514   2.214   4.655
  452MOL1    Cl 2450   2.569   2.080   4.759
  452MOL1    Cl 2451   2.621   2.226   4.512
  452MOL1     H 2452   2.517   2.308   4.711
  453MOL1    Cl 2453   2.206   3.395   2.013
  453MOL1     C 2454   2.044   3.459   2.054
  453MOL1    Cl 2455   1.923   3.379   1.950
  453MOL1    Cl 2456   2.007   3.422   2.225
  453MOL1     H 2457   2.042   3.567   2.039
  454MOL1    Cl 2458   2.091   0.579   1.446
  454MOL1     C 2459   2.144   0.525   1.608
  454MOL1    Cl 2460   2.001   0.472   1.703
  454MOL1    Cl 2461   2.257   0.387   1.591
  454MOL1     H 2462   2.194   0.607   1.660
  455MOL1    Cl 2463   4.088   4.196   3.767
  455MOL1     C 2464   4.161   4.323   3.664
  455MOL1    Cl 2465   4.255   4.249   3.531
  455MOL1    Cl 2466   4.032   4.425   3.595
  455MOL1     H 2467   4.228   4.385   3.724
  456MOL1    Cl 2468   1.238   1.274   3.851
  456MOL1     C 2469   1.129   1.202   3.730
  456MOL1    Cl 2470   1.152   1.286   3.573
  456MOL1    Cl 2471   1.167   1.028   3.710
  456MOL1     H 2472   1.025   1.212   3.762
  457MOL1    Cl 2473   2.037   4.225   0.704
  457MOL1     C 2474   2.098   4.166   0.546
  457MOL1    Cl 2475   2.276   4.143   0.556
  457MOL1    Cl 2476   2.020   4.010   0.507
  457MOL1     H 2477   2.075   4.238   0.468
  458MOL1    Cl 2478   3.576   0.371   0.628
  458MOL1     C 2479   3.519   0.490   0.507
  458MOL1    Cl 2480   3.660   0.568   0.428
  458MOL1    Cl 2481   3.421   0.406   0.382
  458MOL1     H 2482   3.458   0.566   0.556
  459MOL1    Cl 2483   3.927   0.982   3.288
  459MOL1     C 2484   3.849   1.140   3.316
  459MOL1    Cl 2485   3.736   1.173   3.181
  459MOL1    Cl 2486   3.761   1.134   3.472
  459MOL1     H 2487   3.925   1.218   3.321
  460MOL1    Cl 2488   0.612   4.629   4.226
  460MOL1     C 2489   0.521   4.517   4.120
  460MOL1    Cl 2490   0.542   4.567   3.949
  460MOL1    Cl 2491   0.583   4.351   4.140
  460MOL1     H 2492   0.415   4.521   4.146
  461MOL1    Cl 2493   4.577   1.972   5.303
  461MOL1     C 2494   4.597   1.954   5.126
  461MOL1    Cl 2495   4.764   1.899   5.090
  461MOL1    Cl 2496   4.481   1.832   5.067
  461MOL1     H 2497   4.579   2.049   5.077
  462MOL1    Cl 2498   0.783   0.811   2.813
  462MOL1     C 2499   0.911   0.726   2.906
  462MOL1    Cl 2500   0.978   0.836   3.030
  462MOL1    Cl 2501   0.839   0.582   2.986
  462MOL1     H 2502   0.990   0.694   2.839
  463MOL1    Cl 2503   0.576   2.163   2.206
  463MOL1     C 2504   0.736   2.240   2.184
  463MOL1    Cl 2505   0.864   2.128   2.236
  463MOL1    Cl 2506   0.761   2.281   2.012
  463MOL1     H 2507   0.740   2.332   2.245
  464MOL1    Cl 2508   3.711   2.242   1.746
  464MOL1     C 2509   3.789   2.322   1.606
  464MOL1    Cl 2510   3.781   2.500   1.626
  464MOL1    Cl 2511   3.960   2.270   1.596
  464MOL1     H 2512   3.737   2.294   1.514
  465MOL1    Cl 2513   2.910   0.953   4.406
  465MOL1     C 2514   2.968   1.025   4.253
  465MOL1    Cl 2515   2.995   1.201   4.275
  465MOL1    Cl 2516   3.121   0.947   4.203
  465MOL1     H 2517   2.892   1.010   4.175
  466MOL1    Cl 2518   4.703   2.818   4.852
  466MOL1     C 2519   4.765   2.669   4.930
  466MOL1    Cl 2520   4.721   2.669   5.104
  466MOL1    Cl 2521   4.691   2.526   4.851
  466MOL1     H 2522   4.874   2.665   4.919
  467MOL1    Cl 2523   4.103   1.105   3.018
  467MOL1     C 2524   3.967   1.035   2.925
  467MOL1    Cl 2525   3.995   1.060   2.750
  467MOL1    Cl 2526   3.957   0.859   2.961
  467MOL1     H 2527   3.873   1.083   2.955
  468MOL1    Cl 2528   3.669   1.953   3.302
  468MOL1     C 2529   3.580   2.101   3.257
  468MOL1    Cl 2530   3.405   2.066   3.248
  468MOL1    Cl 2531   3.608   2.228   3.380
  468MOL1     H 2532   3.614   2.136   3.160
  469MOL1    Cl 2533   3.846   1.935   1.587
  469MOL1     C 2534   3.980   1.829   1.531
  469MOL1    Cl 2535   3.934   1.754   1.375
  469MOL1    Cl 2536   4.127   1.928   1.508
  469MOL1     H 2537   3.999   1.751   1.606
  470MOL1    Cl 2538   0.925   3.241   1.598
  470MOL1     C 2539   0.790   3.347   1.549
  470MOL1    Cl 2540   0.688   3.263   1.429
  470MOL1    Cl 2541   0.690   3.387   1.693
  470MOL1     H 2542   0.830   3.440   1.506
  471MOL1    Cl 2543   2.828   3.577   4.459
  471MOL1     C 2544   2.764   3.649   4.610
  471MOL1    Cl 2545   2.586   3.666   4.598
  471MOL1    Cl 2546   2.803   3.542   4.749
  471MOL1     H 2547   2.809   3.747   4.625
  472MOL1    Cl 2548   2.135   1.609   2.085
  472MOL1     C 2549   2.108   1.637   1.911
  472MOL1    Cl 2550   2.056   1.806   1.886
  472MOL1    Cl 2551   2.261   1.608   1.822
  472MOL1     H 2552   2.031   1.568   1.874
  473MOL1    Cl 2553   4.566   2.658   0.117
  473MOL1     C 2554   4.671   2.525   0.061
  473MOL1    Cl 2555   4.676   2.526  -0.118
  473MOL1    Cl 2556   4.837   2.549   0.124
  473MOL1     H 2557   4.632   2.429   0.096
  474MOL1    Cl 2558   3.370   4.422   3.450
  474MOL1     C 2559   3.233   4.505   3.530
  474MOL1    Cl 2560   3.121   4.382   3.593
  474MOL1    Cl 2561   3.294   4.608   3.664
  474MOL1     H 2562   3.181   4.568   3.457
  475MOL1    Cl 2563   5.389   3.613   5.182
  475MOL1     C 2564   5.407   3.784   5.134
  475MOL1    Cl 2565   5.546   3.800   5.022
  475MOL1    Cl 2566   5.258   3.840   5.052
  475MOL1     H 2567   5.425   3.845   5.223
  476MOL1    Cl 2568   1.282   2.387   4.175
  476MOL1     C 2569   1.109   2.346   4.153
  476MOL1    Cl 2570   1.083   2.284   3.987
  476MOL1    Cl 2571   1.064   2.219   4.272
  476MOL1     H 2572   1.048   2.435   4.169
  477MOL1    Cl 2573   2.749   2.852   1.467
  477MOL1     C 2574   2.613   2.888   1.578
  477MOL1    Cl 2575   2.668   3.008   1.698
  477MOL1    Cl 2576   2.475   2.954   1.486
  477MOL1     H 2577   2.582   2.796   1.630
  478MOL1    Cl 2578   2.957   4.986   3.181
  478MOL1     C 2579   2.937   4.943   3.353
  478MOL1    Cl 2580   2.767   4.900   3.385
  478MOL1    Cl 2581   3.041   4.802   3.390
  478MOL1     H 2582   2.966   5.028   3.416
  479MOL1    Cl 2583   0.304   2.949   4.540
  479MOL1     C 2584   0.219   3.107   4.541
  479MOL1    Cl 2585   0.339   3.239   4.547
  479MOL1    Cl 2586   0.122   3.122   4.391
  479MOL1     H 2587   0.153   3.112   4.628
  480MOL1    Cl 2588   2.913   2.236   3.594
  480MOL1     C 2589   2.880   2.329   3.444
  480MOL1    Cl 2590   3.008   2.296   3.324
  480MOL1    Cl 2591   2.721   2.280   3.377
  480MOL1     H 2592   2.879   2.436   3.468
  481MOL1    Cl 2593   2.429   1.004   4.138
  481MOL1     C 2594   2.338   1.158   4.147
  481MOL1    Cl 2595   2.371   1.238   4.303
  481MOL1    Cl 2596   2.392   1.264   4.013
  481MOL1     H 2597   2.231   1.139   4.137
  482MOL1    Cl 2598   1.296   0.840   0.891
  482MOL1     C 2599   1.313   0.678   0.964
  482MOL1    Cl 2600   1.254   0.683   1.133
  482MOL1    Cl 2601   1.215   0.560   0.870
  482MOL1     H 2602   1.418   0.648   0.963
  483MOL1    Cl 2603   4.280   1.401   3.698
  483MOL1     C 2604   4.351   1.539   3.608
  483MOL1    Cl 2605   4.252   1.685   3.635
  483MOL1    Cl 2606   4.518   1.568   3.667
  483MOL1     H 2607   4.354   1.515   3.501
  484MOL1    Cl 2608   3.388   4.750   3.350
  484MOL1     C 2609   3.389   4.924   3.392
  484MOL1    Cl 2610   3.311   5.017   3.261
  484MOL1    Cl 2611   3.299   4.950   3.545
  484MOL1     H 2612   3.493   4.958   3.404
  485MOL1    Cl 2613   2.569   2.709   3.023
  485MOL1     C 2614   2.636   2.802   2.885
  485MOL1    Cl 2615   2.805   2.848   2.920
  485MOL1    Cl 2616   2.633   2.698   2.740
  485MOL1     H 2617   2.575   2.892   2.869
  486MOL1    Cl 2618   1.872   0.824   5.181
  486MOL1     C 2619   1.802   0.706   5.066
  486MOL1    Cl 2620   1.920   0.574   5.039
  486MOL1    Cl 2621   1.651   0.639   5.133
  486MOL1     H 2622   1.782   0.756   4.971
  487MOL1    Cl 2623   2.564   4.432   4.221
  487MOL1     C 2624   2.628   4.276   4.281
  487MOL1    Cl 2625   2.747   4.307   4.411
  487MOL1    Cl 2626   2.493   4.178   4.345
  487MOL1     H 2627   2.676   4.222   4.199
  488MOL1    Cl 2628   1.180   3.918   5.249
  488MOL1     C 2629   1.024   4.000   5.219
  488MOL1    Cl 2630   0.925   3.900   5.109
  488MOL1    Cl 2631   0.937   4.020   5.374
  488MOL1     H 2632   1.041   4.099   5.175
  489MOL1    Cl 2633   4.977   3.355   2.183
  489MOL1     C 2634   5.092   3.218   2.176
  489MOL1    Cl 2635   5.005   3.066   2.215
  489MOL1    Cl 2636   5.161   3.206   2.012
  489MOL1     H 2637   5.172   3.234   2.249
  490MOL1    Cl 2638   3.323   1.410   3.609
  490MOL1     C 2639   3.478   1.330   3.567
  490MOL1    Cl 2640   3.512   1.351   3.393
  490MOL1    Cl 2641   3.609   1.405   3.663
  490MOL1     H 2642   3.471   1.223   3.591
  491MOL1    Cl 2643   0.562   1.704   1.690
  491MOL1     C 2644   0.564   1.544   1.772
  491MOL1    Cl 2645   0.717   1.460   1.736
  491MOL1    Cl 2646   0.548   1.567   1.949
  491MOL1     H 2647   0.480   1.484   1.736
  492MOL1    Cl 2648   1.768   0.706   1.495
  492MOL1     C 2649   1.725   0.532   1.488
  492MOL1    Cl 2650   1.640   0.486   1.639
  492MOL1    Cl 2651   1.617   0.505   1.348
  492MOL1     H 2652   1.815   0.472   1.477
  493MOL1    Cl 2653   2.898   2.915   3.530
  493MOL1     C 2654   2.966   2.827   3.671
  493MOL1    Cl 2655   2.930   2.652   3.656
  493MOL1    Cl 2656   3.143   2.850   3.675
  493MOL1     H 2657   2.922   2.866   3.763
  494MOL1    Cl 2658   5.375   3.560   1.103
  494MOL1     C 2659   5.387   3.391   1.160
  494MOL1    Cl 2660   5.556   3.357   1.210
  494MOL1    Cl 2661   5.278   3.369   1.301
  494MOL1     H 2662   5.358   3.323   1.080
  495MOL1    Cl 2663   1.690   0.725   5.490
  495MOL1     C 2664   1.850   0.646   5.482
  495MOL1    Cl 2665   1.914   0.625   5.649
  495MOL1    Cl 2666   1.835   0.486   5.404
  495MOL1     H 2667   1.919   0.708   5.425
  496MOL1    Cl 2668   1.242   2.198   2.806
  496MOL1     C 2669   1.320   2.038   2.828
  496MOL1    Cl 2670   1.343   2.006   3.003
  496MOL1    Cl 2671   1.215   1.911   2.758
  496MOL1     H 2672   1.417   2.038   2.777
  497MOL1    Cl 2673   2.907   3.728   2.488
  497MOL1     C 2674   2.801   3.855   2.419
  497MOL1    Cl 2675   2.667   3.780   2.327
  497MOL1    Cl 2676   2.734   3.954   2.551
  497MOL1     H 2677   2.860   3.918   2.351
  498MOL1    Cl 2678   2.038   0.740   2.965
  498MOL1     C 2679   1.913   0.794   3.081
  498MOL1    Cl 2680   1.813   0.922   3.005
  498MOL1    Cl 2681   1.809   0.655   3.124
  498MOL1     H 2682   1.961   0.833   3.171
  499MOL1    Cl 2683   5.210   4.702   2.986
  499MOL1     C 2684   5.212   4.789   2.829
  499MOL1    Cl 2685   5.378   4.786   2.762
  499MOL1    Cl 2686   5.100   4.709   2.715
  499MOL1     H 2687   5.180   4.893   2.845
  500MOL1    Cl 2688   3.098   3.877   3.052
  500MOL1     C 2689   2.951   3.785   3.097
  500MOL1    Cl 2690   2.991   3.611   3.110
  500MOL1    Cl 2691   2.891   3.845   3.255
  500MOL1     H 2692   2.875   3.799   3.021
  501MOL1    Cl 2693   5.310   4.987   0.694
  501MOL1     C 2694   5.217   5.003   0.542
  501MOL1    Cl 2695   5.300   4.911   0.413
  501MOL1    Cl 2696   5.052   4.939   0.567
  501MOL1     H 2697   5.211   5.109   0.514
  502MOL1    Cl 2698   1.637   4.135   5.052
  502MOL1     C 2699   1.518   4.130   5.185
  502MOL1    Cl 2700   1.570   4.243   5.315
  502MOL1    Cl 2701   1.358   4.182   5.123
  502MOL1     H 2702   1.511   4.029   5.225
  503MOL1    Cl 2703   0.711   1.246   2.658
  503MOL1     C 2704   0.856   1.290   2.752
  503MOL1    Cl 2705   0.876   1.175   2.887
  503MOL1    Cl 2706   1.000   1.281   2.645
  503MOL1     H 2707   0.845   1.392   2.791
  504MOL1    Cl 2708   4.830   0.669   4.809
  504MOL1     C 2709   4.850   0.506   4.879
  504MOL1    Cl 2710   4.979   0.419   4.789
  504MOL1    Cl 2711   4.897   0.519   5.051
  504MOL1     H 2712   4.756   0.450   4.871
  505MOL1    Cl 2713   4.300   2.340   2.521
  505MOL1     C 2714   4.350   2.485   2.614
  505MOL1    Cl 2715   4.203   2.570   2.672
  505MOL1    Cl 2716   4.447   2.434   2.756
  505MOL1     H 2717   4.409   2.551   2.551
  506MOL1    Cl 2718   3.813   4.127   1.660
  506MOL1     C 2719   3.682   4.234   1.719
  506MOL1    Cl 2720   3.748   4.342   1.846
  506MOL1    Cl 2721   3.620   4.332   1.583
  506MOL1     H 2722   3.601   4.173   1.761
  507MOL1    Cl 2723   5.158   5.220   0.908
  507MOL1     C 2724   5.007   5.126   0.926
  507MOL1    Cl 2725   4.896   5.165   0.791
  507MOL1    Cl 2726   5.044   4.951   0.924
  507MOL1     H 2727   4.959   5.151   1.021
  508MOL1    Cl 2728   4.569   5.338   0.229
  508MOL1     C 2729   4.428   5.238   0.183
  508MOL1    Cl 2730   4.468   5.141   0.038
  508MOL1    Cl 2731   4.387   5.129   0.319
  508MOL1     H 2732   4.343   5.303   0.161
  509MOL1    Cl 2733   1.112   4.660   2.644
  509MOL1     C 2734   1.044   4.772   2.521
  509MOL1    Cl 2735   0.893   4.842   2.585
  509MOL1    Cl 2736   1.162   4.902   2.486
  509MOL1     H 2737   1.023   4.717   2.429
  510MOL1    Cl 2738   3.133   4.927   4.577
  510MOL1     C 2739   3.227   4.914   4.425
  510MOL1    Cl 2740   3.116   4.885   4.288
  510MOL1    Cl 2741   3.316   5.068   4.396
  510MOL1     H 2742   3.299   4.832   4.434
  511MOL1    Cl 2743   4.379   3.866   1.621
  511MOL1     C 2744   4.424   4.036   1.588
  511MOL1    Cl 2745   4.602   4.049   1.574
  511MOL1    Cl 2746   4.349   4.088   1.433
  511MOL1     H 2747   4.389   4.099   1.669
  512MOL1    Cl 2748   3.144   3.478   4.792
  512MOL1     C 2749   3.157   3.560   4.633
  512MOL1    Cl 2750   3.280   3.690   4.643
  512MOL1    Cl 2751   3.206   3.441   4.508
  512MOL1     H 2752   3.061   3.603   4.606
  513MOL1    Cl 2753   3.199   0.612   4.078
  513MOL1     C 2754   3.040   0.541   4.121
  513MOL1    Cl 2755   3.064   0.373   4.177
  513MOL1    Cl 2756   2.967   0.637   4.253
  513MOL1     H 2757   2.975   0.543   4.034
  514MOL1    Cl 2758   3.675   3.361   1.855
  514MOL1     C 2759   3.705   3.379   2.031
  514MOL1    Cl 2760   3.800   3.528   2.060
  514MOL1    Cl 2761   3.549   3.390   2.118
  514MOL1     H 2762   3.761   3.292   2.067
  515MOL1    Cl 2763   0.839   3.234   3.952
  515MOL1     C 2764   0.689   3.204   3.859
  515MOL1    Cl 2765   0.636   3.035   3.885
  515MOL1    Cl 2766   0.561   3.316   3.914
  515MOL1     H 2767   0.709   3.221   3.753
  516MOL1    Cl 2768   2.136   3.987   3.058
  516MOL1     C 2769   2.048   4.126   3.129
  516MOL1    Cl 2770   1.872   4.090   3.131
  516MOL1    Cl 2771   2.106   4.154   3.296
  516MOL1     H 2772   2.066   4.215   3.068
  517MOL1    Cl 2773   2.709   3.961   2.035
  517MOL1     C 2774   2.825   3.992   1.903
  517MOL1    Cl 2775   2.818   3.856   1.786
  517MOL1    Cl 2776   2.781   4.144   1.819
  517MOL1     H 2777   2.926   4.000   1.943
  518MOL1    Cl 2778   4.985   2.078   2.552
  518MOL1     C 2779   5.028   1.918   2.621
  518MOL1    Cl 2780   5.096   1.940   2.785
  518MOL1    Cl 2781   4.881   1.816   2.630
  518MOL1     H 2782   5.102   1.870   2.557
  519MOL1    Cl 2783   4.231   3.449   2.776
  519MOL1     C 2784   4.335   3.416   2.918
  519MOL1    Cl 2785   4.473   3.312   2.870
  519MOL1    Cl 2786   4.396   3.571   2.982
  519MOL1     H 2787   4.276   3.365   2.995
  520MOL1    Cl 2788   2.843   4.351   2.769
  520MOL1     C 2789   2.893   4.516   2.718
  520MOL1    Cl 2790   2.800   4.638   2.811
  520MOL1    Cl 2791   3.068   4.536   2.750
  520MOL1     H 2792   2.874   4.529   2.612
  521MOL1    Cl 2793   3.280   3.221   2.593
  521MOL1     C 2794   3.136   3.207   2.488
  521MOL1    Cl 2795   2.988   3.211   2.588
  521MOL1    Cl 2796   3.134   3.346   2.374
  521MOL1     H 2797   3.140   3.114   2.432
  522MOL1    Cl 2798   2.553   3.406   4.331
  522MOL1     C 2799   2.436   3.528   4.272
  522MOL1    Cl 2800   2.516   3.688   4.260
  522MOL1    Cl 2801   2.377   3.480   4.110
  522MOL1     H 2802   2.352   3.535   4.342
  523MOL1    Cl 2803   4.886   1.783   0.755
  523MOL1     C 2804   4.715   1.825   0.723
  523MOL1    Cl 2805   4.705   1.945   0.590
  523MOL1    Cl 2806   4.625   1.677   0.674
  523MOL1     H 2807   4.670   1.867   0.813
  524MOL1    Cl 2808   2.383   2.851   1.864
  524MOL1     C 2809   2.330   3.010   1.927
  524MOL1    Cl 2810   2.474   3.110   1.964
  524MOL1    Cl 2811   2.230   3.093   1.804
  524MOL1     H 2812   2.272   2.996   2.019
  525MOL1    Cl 2813   2.173   1.113   4.606
  525MOL1     C 2814   2.246   0.986   4.503
  525MOL1    Cl 2815   2.267   0.836   4.599
  525MOL1    Cl 2816   2.137   0.954   4.365
  525MOL1     H 2817   2.344   1.019   4.467
  526MOL1    Cl 2818   0.651   5.056   4.155
  526MOL1     C 2819   0.618   4.941   4.022
  526MOL1    Cl 2820   0.445   4.894   4.027
  526MOL1    Cl 2821   0.654   5.019   3.865
  526MOL1     H 2822   0.680   4.852   4.034
  527MOL1    Cl 2823   1.873   4.080   1.912
  527MOL1     C 2824   2.013   4.178   1.859
  527MOL1    Cl 2825   1.962   4.348   1.837
  527MOL1    Cl 2826   2.141   4.171   1.984
  527MOL1     H 2827   2.052   4.139   1.765
  528MOL1    Cl 2828   5.130   0.997   4.262
  528MOL1     C 2829   5.028   1.134   4.208
  528MOL1    Cl 2830   4.994   1.118   4.033
  528MOL1    Cl 2831   4.874   1.132   4.300
  528MOL1     H 2832   5.081   1.228   4.227
  529MOL1    Cl 2833   2.582   3.345   0.395
  529MOL1     C 2834   2.760   3.349   0.379
  529MOL1    Cl 2835   2.803   3.367   0.206
  529MOL1    Cl 2836   2.825   3.488   0.471
  529MOL1     H 2837   2.802   3.256   0.418
  530MOL1    Cl 2838   2.759   4.017   1.493
  530MOL1     C 2839   2.891   4.104   1.409
  530MOL1    Cl 2840   2.828   4.174   1.257
  530MOL1    Cl 2841   2.952   4.235   1.514
  530MOL1     H 2842   2.972   4.034   1.387
  531MOL1    Cl 2843   1.774   1.324   3.955
  531MOL1     C 2844   1.936   1.251   3.978
  531MOL1    Cl 2845   2.060   1.379   3.963
  531MOL1    Cl 2846   1.949   1.177   4.141
  531MOL1     H 2847   1.952   1.174   3.902
  532MOL1    Cl 2848   2.063   1.136   2.869
  532MOL1     C 2849   1.991   1.296   2.835
  532MOL1    Cl 2850   1.995   1.328   2.659
  532MOL1    Cl 2851   1.821   1.299   2.891
  532MOL1     H 2852   2.048   1.374   2.887
  533MOL1    Cl 2853   1.521   1.673   3.197
  533MOL1     C 2854   1.451   1.678   3.361
  533MOL1    Cl 2855   1.322   1.802   3.366
  533MOL1    Cl 2856   1.380   1.518   3.399
  533MOL1     H 2857   1.529   1.703   3.434
  534MOL1    Cl 2858   3.950   4.314   3.260
  534MOL1     C 2859   4.010   4.181   3.156
  534MOL1    Cl 2860   4.174   4.133   3.209
  534MOL1    Cl 2861   3.898   4.041   3.169
  534MOL1     H 2862   4.014   4.215   3.052
  535MOL1    Cl 2863   2.708   4.806   0.493
  535MOL1     C 2864   2.758   4.746   0.654
  535MOL1    Cl 2865   2.905   4.834   0.708
  535MOL1    Cl 2866   2.625   4.773   0.771
  535MOL1     H 2867   2.780   4.639   0.648
  536MOL1    Cl 2868   2.262   3.706   3.869
  536MOL1     C 2869   2.118   3.673   3.971
  536MOL1    Cl 2870   2.139   3.751   4.131
  536MOL1    Cl 2871   1.972   3.739   3.891
  536MOL1     H 2872   2.107   3.565   3.985
  537MOL1    Cl 2873   2.352   2.406   1.393
  537MOL1     C 2874   2.295   2.476   1.548
  537MOL1    Cl 2875   2.347   2.647   1.558
  537MOL1    Cl 2876   2.116   2.469   1.555
  537MOL1     H 2877   2.337   2.420   1.631
  538MOL1    Cl 2878   3.323   0.083   3.834
  538MOL1     C 2879   3.195   0.172   3.922
  538MOL1    Cl 2880   3.177   0.335   3.849
  538MOL1    Cl 2881   3.041   0.083   3.909
  538MOL1     H 2882   3.223   0.182   4.027
  539MOL1    Cl 2883   2.544   1.608   2.249
  539MOL1     C 2884   2.485   1.544   2.092
  539MOL1    Cl 2885   2.626   1.510   1.986
  539MOL1    Cl 2886   2.395   1.392   2.120
  539MOL1     H 2887   2.420   1.618   2.045
  540MOL1    Cl 2888   2.714   3.020   0.302
  540MOL1     C 2889   2.559   2.931   0.301
  540MOL1    Cl 2890   2.578   2.780   0.396
  540MOL1    Cl 2891   2.431   3.032   0.376
  540MOL1     H 2892   2.531   2.906   0.198
  541MOL1    Cl 2893   3.675   2.670   4.052
  541MOL1     C 2894   3.839   2.615   4.101
  541MOL1    Cl 2895   3.839   2.581   4.277
  541MOL1    Cl 2896   3.881   2.465   4.013
  541MOL1     H 2897   3.912   2.693   4.078
  542MOL1    Cl 2898   1.284   0.693   1.928
  542MOL1     C 2899   1.122   0.766   1.902
  542MOL1    Cl 2900   1.069   0.852   2.050
  542MOL1    Cl 2901   1.130   0.882   1.765
  542MOL1     H 2902   1.050   0.687   1.878
  543MOL1    Cl 2903   4.737   4.866   0.764
  543MOL1     C 2904   4.634   4.738   0.834
  543MOL1    Cl 2905   4.586   4.624   0.705
  543MOL1    Cl 2906   4.726   4.651   0.961
  543MOL1     H 2907   4.544   4.783   0.878
  544MOL1    Cl 2908   0.799   3.995   1.124
  544MOL1     C 2909   0.924   4.087   1.035
  544MOL1    Cl 2910   1.013   4.194   1.149
  544MOL1    Cl 2911   1.038   3.972   0.960
  544MOL1     H 2912   0.877   4.148   0.957
  545MOL1    Cl 2913   2.650   2.465   3.667
  545MOL1     C 2914   2.493   2.445   3.583
  545MOL1    Cl 2915   2.423   2.286   3.626
  545MOL1    Cl 2916   2.384   2.577   3.634
  545MOL1     H 2917   2.508   2.450   3.475
  546MOL1    Cl 2918   1.248   3.954   1.248
  546MOL1     C 2919   1.110   3.858   1.312
  546MOL1    Cl 2920   1.173   3.725   1.414
  546MOL1    Cl 2921   1.006   3.964   1.411
  546MOL1     H 2922   1.053   3.817   1.228
  547MOL1    Cl 2923   1.666   3.970   0.492
  547MOL1     C 2924   1.668   3.801   0.431
  547MOL1    Cl 2925   1.617   3.800   0.259
  547MOL1    Cl 2926   1.834   3.735   0.442
  547MOL1     H 2927   1.600   3.739   0.490
  548MOL1    Cl 2928   3.535   2.573   2.703
  548MOL1     C 2929   3.499   2.398   2.713
  548MOL1    Cl 2930   3.322   2.375   2.716
  548MOL1    Cl 2931   3.568   2.315   2.570
  548MOL1     H 2932   3.543   2.356   2.804
  549MOL1    Cl 2933   2.139   2.594   2.463
  549MOL1     C 2934   1.994   2.694   2.496
  549MOL1    Cl 2935   1.956   2.686   2.671
  549MOL1    Cl 2936   2.028   2.864   2.449
  549MOL1     H 2937   1.909   2.657   2.438
  550MOL1    Cl 2938   3.538   4.527   2.072
  550MOL1     C 2939   3.542   4.650   1.941
  550MOL1    Cl 2940   3.712   4.698   1.910
  550MOL1    Cl 2941   3.472   4.581   1.791
  550MOL1     H 2942   3.484   4.737   1.972
  551MOL1    Cl 2943   1.076   2.570   4.425
  551MOL1     C 2944   1.195   2.609   4.552
  551MOL1    Cl 2945   1.360   2.590   4.486
  551MOL1    Cl 2946   1.172   2.779   4.606
  551MOL1     H 2947   1.181   2.542   4.637
  552MOL1    Cl 2948   5.124   3.492   4.973
  552MOL1     C 2949   5.242   3.453   4.845
  552MOL1    Cl 2950   5.154   3.413   4.694
  552MOL1    Cl 2951   5.348   3.594   4.814
  552MOL1     H 2952   5.303   3.367   4.876
  553MOL1    Cl 2953   4.810   1.721   3.812
  553MOL1     C 2954   4.735   1.816   3.945
  553MOL1    Cl 2955   4.558   1.786   3.947
  553MOL1    Cl 2956   4.805   1.765   4.101
  553MOL1     H 2957   4.753   1.923   3.929
  554MOL1    Cl 2958   4.196   2.225   2.839
  554MOL1     C 2959   4.218   2.322   2.987
  554MOL1    Cl 2960   4.094   2.452   2.992
  554MOL1    Cl 2961   4.198   2.215   3.129
  554MOL1     H 2962   4.318   2.367   2.988
  555MOL1    Cl 2963   1.741   2.762   5.137
  555MOL1     C 2964   1.890   2.798   5.044
  555MOL1    Cl 2965   2.034   2.768   5.147
  555MOL1    Cl 2966   1.897   2.692   4.900
  555MOL1     H 2967   1.889   2.903   5.012
  556MOL1    Cl 2968   3.887   1.961   3.003
  556MOL1     C 2969   3.865   2.136   2.975
  556MOL1    Cl 2970   3.708   2.164   2.894
  556MOL1    Cl 2971   3.865   2.223   3.132
  556MOL1     H 2972   3.946   2.174   2.912
  557MOL1    Cl 2973   2.699   4.797   1.257
  557MOL1     C 2974   2.843   4.695   1.227
  557MOL1    Cl 2975   2.819   4.533   1.300
  557MOL1    Cl 2976   2.867   4.678   1.051
  557MOL1     H 2977   2.931   4.742   1.272
  558MOL1    Cl 2978   1.858   3.918   0.813
  558MOL1     C 2979   2.007   3.927   0.911
  558MOL1    Cl 2980   1.999   3.806   1.043
  558MOL1    Cl 2981   2.150   3.892   0.809
  558MOL1     H 2982   2.016   4.027   0.954
  559MOL1    Cl 2983   5.238   2.975   5.201
  559MOL1     C 2984   5.257   3.144   5.259
  559MOL1    Cl 2985   5.348   3.240   5.139
  559MOL1    Cl 2986   5.095   3.216   5.283
  559MOL1     H 2987   5.311   3.143   5.354
  560MOL1    Cl 2988   3.181   4.811   2.931
  560MOL1     C 2989   3.172   4.702   3.073
  560MOL1    Cl 2990   3.006   4.637   3.088
  560MOL1    Cl 2991   3.287   4.566   3.053
  560MOL1     H 2992   3.197   4.759   3.163
  561MOL1    Cl 2993   4.869   3.704   3.601
  561MOL1     C 2994   4.737   3.822   3.620
  561MOL1    Cl 2995   4.667   3.858   3.459
  561MOL1    Cl 2996   4.610   3.754   3.725
  561MOL1     H 2997   4.776   3.914   3.664
  562MOL1    Cl 2998   1.734   1.400   3.223
  562MOL1     C 2999   1.906   1.357   3.249
  562MOL1    Cl 3000   1.933   1.186   3.202
  562MOL1    Cl 3001   2.010   1.464   3.149
  562MOL1     H 3002   1.932   1.370   3.355
  563MOL1    Cl 3003   3.611   2.819   4.375
  563MOL1     C 3004   3.515   2.668   4.381
  563MOL1    Cl 3005   3.543   2.587   4.539
  563MOL1    Cl 3006   3.341   2.708   4.363
  563MOL1     H 3007   3.546   2.601   4.300
  564MOL1    Cl 3008   2.706   4.079   0.892
  564MOL1     C 3009   2.565   4.101   0.784
  564MOL1    Cl 3010   2.618   4.184   0.635
  564MOL1    Cl 3011   2.497   3.941   0.744
  564MOL1     H 3012   2.489   4.161   0.835
  565MOL1    Cl 3013   3.037   2.244   0.391
  565MOL1     C 3014   3.205   2.193   0.430
  565MOL1    Cl 3015   3.296   2.333   0.495
  565MOL1    Cl 3016   3.200   2.063   0.552
  565MOL1     H 3017   3.254   2.157   0.339
  566MOL1    Cl 3018   2.557   1.749   3.797
  566MOL1     C 3019   2.612   1.918   3.824
  566MOL1    Cl 3020   2.660   1.991   3.668
  566MOL1    Cl 3021   2.476   2.011   3.895
  566MOL1     H 3022   2.697   1.918   3.893
  567MOL1    Cl 3023   1.810   0.990   2.655
  567MOL1     C 3024   1.664   1.094   2.651
  567MOL1    Cl 3025   1.559   1.047   2.514
  567MOL1    Cl 3026   1.572   1.073   2.803
  567MOL1     H 3027   1.694   1.199   2.640
  568MOL1    Cl 3028   3.129   4.516   5.088
  568MOL1     C 3029   3.090   4.362   5.172
  568MOL1    Cl 3030   2.918   4.321   5.142
  568MOL1    Cl 3031   3.194   4.231   5.107
  568MOL1     H 3032   3.107   4.374   5.279
  569MOL1    Cl 3033   2.515   4.604   1.493
  569MOL1     C 3034   2.502   4.456   1.593
  569MOL1    Cl 3035   2.333   4.395   1.585
  569MOL1    Cl 3036   2.613   4.332   1.529
  569MOL1     H 3037   2.528   4.479   1.697
  570MOL1    Cl 3038   1.437   2.470   5.177
  570MOL1     C 3039   1.553   2.425   5.306
  570MOL1    Cl 3040   1.471   2.429   5.465
  570MOL1    Cl 3041   1.614   2.260   5.275
  570MOL1     H 3042   1.637   2.496   5.306
  571MOL1    Cl 3043   1.793   1.314   1.794
  571MOL1     C 3044   1.618   1.280   1.773
  571MOL1    Cl 3045   1.539   1.418   1.691
  571MOL1    Cl 3046   1.599   1.133   1.673
  571MOL1     H 3047   1.572   1.263   1.871
  572MOL1    Cl 3048   0.938   3.740   3.969
  572MOL1     C 3049   0.861   3.720   3.809
  572MOL1    Cl 3050   0.985   3.740   3.681
  572MOL1    Cl 3051   0.790   3.556   3.797
  572MOL1     H 3052   0.783   3.795   3.796
  573MOL1    Cl 3053   0.779   5.401   4.209
  573MOL1     C 3054   0.823   5.386   4.036
  573MOL1    Cl 3055   0.929   5.243   4.014
  573MOL1    Cl 3056   0.674   5.365   3.939
  573MOL1     H 3057   0.875   5.477   4.004
  574MOL1    Cl 3058   3.991   4.798   3.096
  574MOL1     C 3059   4.103   4.659   3.089
  574MOL1    Cl 3060   4.143   4.607   3.256
  574MOL1    Cl 3061   4.025   4.525   3.001
  574MOL1     H 3062   4.195   4.688   3.037
  575MOL1    Cl 3063   3.362   3.742   1.610
  575MOL1     C 3064   3.353   3.884   1.501
  575MOL1    Cl 3065   3.193   3.961   1.518
  575MOL1    Cl 3066   3.480   4.002   1.547
  575MOL1     H 3067   3.368   3.851   1.398
  576MOL1    Cl 3068   4.414   4.038   3.762
  576MOL1     C 3069   4.529   4.152   3.840
  576MOL1    Cl 3070   4.684   4.150   3.750
  576MOL1    Cl 3071   4.460   4.317   3.837
  576MOL1     H 3072   4.546   4.121   3.943
  577MOL1    Cl 3073   1.511   3.805   0.747
  577MOL1     C 3074   1.344   3.845   0.695
  577MOL1    Cl 3075   1.305   4.012   0.744
  577MOL1    Cl 3076   1.333   3.831   0.517
  577MOL1     H 3077   1.274   3.775   0.742
  578MOL1    Cl 3078   4.994   2.473   5.280
  578MOL1     C 3079   5.087   2.499   5.130
  578MOL1    Cl 3080   5.006   2.415   4.994
  578MOL1    Cl 3081   5.095   2.674   5.094
  578MOL1     H 3082   5.188   2.459   5.142
  579MOL1    Cl 3083   1.473   5.063   2.332
  579MOL1     C 3084   1.512   5.081   2.506
  579MOL1    Cl 3085   1.396   5.195   2.582
  579MOL1    Cl 3086   1.500   4.922   2.586
  579MOL1     H 3087   1.614   5.120   2.517
  580MOL1    Cl 3088   1.494   1.520   3.922
  580MOL1     C 3089   1.413   1.499   4.080
  580MOL1    Cl 3090   1.486   1.360   4.166
  580MOL1    Cl 3091   1.433   1.647   4.177
  580MOL1     H 3092   1.306   1.479   4.064
  581MOL1    Cl 3093   3.949   2.929   4.459
  581MOL1     C 3094   4.008   2.958   4.292
  581MOL1    Cl 3095   4.106   2.818   4.238
  581MOL1    Cl 3096   3.867   2.978   4.183
  581MOL1     H 3097   4.069   3.049   4.290
  582MOL1    Cl 3098   2.526   3.394   5.242
  582MOL1     C 3099   2.701   3.429   5.230
  582MOL1    Cl 3100   2.725   3.599   5.180
  582MOL1    Cl 3101   2.777   3.404   5.391
  582MOL1     H 3102   2.747   3.362   5.157
  583MOL1    Cl 3103   1.770   1.034   1.120
  583MOL1     C 3104   1.612   0.987   1.190
  583MOL1    Cl 3105   1.573   0.819   1.143
  583MOL1    Cl 3106   1.621   0.996   1.369
  583MOL1     H 3107   1.534   1.055   1.154
  584MOL1    Cl 3108   1.013   3.704   0.715
  584MOL1     C 3109   0.857   3.772   0.658
  584MOL1    Cl 3110   0.771   3.651   0.557
  584MOL1    Cl 3111   0.756   3.814   0.800
  584MOL1     H 3112   0.875   3.862   0.599
  585MOL1    Cl 3113   3.511   1.684   3.445
  585MOL1     C 3114   3.391   1.709   3.315
  585MOL1    Cl 3115   3.427   1.601   3.177
  585MOL1    Cl 3116   3.228   1.670   3.377
  585MOL1     H 3117   3.393   1.813   3.282
  586MOL1    Cl 3118   2.811   4.608   0.202
  586MOL1     C 3119   2.892   4.508   0.326
  586MOL1    Cl 3120   3.017   4.606   0.409
  586MOL1    Cl 3121   2.771   4.453   0.446
  586MOL1     H 3122   2.939   4.422   0.278
  587MOL1    Cl 3123   3.850   3.388   3.433
  587MOL1     C 3124   3.786   3.555   3.427
  587MOL1    Cl 3125   3.635   3.564   3.521
  587MOL1    Cl 3126   3.906   3.668   3.498
  587MOL1     H 3127   3.767   3.583   3.323
  588MOL1    Cl 3128   3.145   3.979   1.124
  588MOL1     C 3129   3.013   3.994   1.004
  588MOL1    Cl 3130   3.079   4.059   0.851
  588MOL1    Cl 3131   2.939   3.834   0.973
  588MOL1     H 3132   2.937   4.063   1.042
  589MOL1    Cl 3133   4.610   4.186   1.190
  589MOL1     C 3134   4.584   4.321   1.304
  589MOL1    Cl 3135   4.722   4.332   1.417
  589MOL1    Cl 3136   4.572   4.475   1.214
  589MOL1     H 3137   4.492   4.304   1.360
  590MOL1    Cl 3138   4.887   3.043   5.525
  590MOL1     C 3139   4.830   2.875   5.499
  590MOL1    Cl 3140   4.680   2.879   5.400
  590MOL1    Cl 3141   4.956   2.783   5.413
  590MOL1     H 3142   4.809   2.828   5.595
  591MOL1    Cl 3143   2.957   1.290   2.516
  591MOL1     C 3144   3.049   1.246   2.369
  591MOL1    Cl 3145   3.175   1.370   2.340
  591MOL1    Cl 3146   3.125   1.087   2.396
  591MOL1     H 3147   2.981   1.241   2.283
  592MOL1    Cl 3148   3.388   4.055   3.115
  592MOL1     C 3149   3.443   4.225   3.126
  592MOL1    Cl 3150   3.592   4.232   3.225
  592MOL1    Cl 3151   3.478   4.285   2.961
  592MOL1     H 3152   3.366   4.287   3.172
  593MOL1    Cl 3153   4.060   3.521   4.093
  593MOL1     C 3154   3.910   3.608   4.136
  593MOL1    Cl 3155   3.866   3.719   4.002
  593MOL1    Cl 3156   3.779   3.489   4.161
  593MOL1     H 3157   3.926   3.666   4.228
  594MOL1    Cl 3158   4.575   0.167   0.096
  594MOL1     C 3159   4.402   0.179   0.053
  594MOL1    Cl 3160   4.385   0.185  -0.126
  594MOL1    Cl 3161   4.314   0.035   0.115
  594MOL1     H 3162   4.359   0.269   0.097
  595MOL1    Cl 3163   3.466   3.247   3.638
  595MOL1     C 3164   3.361   3.108   3.596
  595MOL1    Cl 3165   3.221   3.165   3.500
  595MOL1    Cl 3166   3.454   2.990   3.499
  595MOL1     H 3167   3.325   3.060   3.688
  596MOL1    Cl 3168   1.203   2.517   2.097
  596MOL1     C 3169   1.092   2.424   1.990
  596MOL1    Cl 3170   1.028   2.532   1.863
  596MOL1    Cl 3171   1.183   2.291   1.913
  596MOL1     H 3172   1.010   2.384   2.050
  597MOL1    Cl 3173   5.420   4.446   3.129
  597MOL1     C 3174   5.360   4.280   3.158
  597MOL1    Cl 3175   5.428   4.218   3.312
  597MOL1    Cl 3176   5.181   4.283   3.169
  597MOL1     H 3177   5.390   4.214   3.076
  598MOL1    Cl 3178   2.726   3.533   1.700
  598MOL1     C 3179   2.696   3.357   1.709
  598MOL1    Cl 3180   2.762   3.295   1.864
  598MOL1    Cl 3181   2.520   3.327   1.700
  598MOL1     H 3182   2.746   3.307   1.625
  599MOL1    Cl 3183   5.073   1.310   2.437
  599MOL1     C 3184   4.999   1.472   2.462
  599MOL1    Cl 3185   4.879   1.463   2.595
  599MOL1    Cl 3186   5.128   1.589   2.507
  599MOL1     H 3187   4.950   1.505   2.370
  600MOL1    Cl 3188   4.290   3.341   3.894
  600MOL1     C 3189   4.144   3.237   3.897
  600MOL1    Cl 3190   4.110   3.178   3.731
  600MOL1    Cl 3191   4.172   3.098   4.006
  600MOL1     H 3192   4.059   3.295   3.933
  601MOL1    Cl 3193   2.683   2.983   3.215
  601MOL1     C 3194   2.615   3.063   3.360
  601MOL1    Cl 3195   2.497   3.188   3.309
  601MOL1    Cl 3196   2.533   2.941   3.463
  601MOL1     H 3197   2.696   3.110   3.417
  602MOL1    Cl 3198   2.372   3.331   2.740
  602MOL1     C 3199   2.507   3.329   2.858
  602MOL1    Cl 3200   2.655   3.266   2.780
  602MOL1    Cl 3201   2.537   3.496   2.916
  602MOL1     H 3202   2.481   3.265   2.943
  603MOL1    Cl 3203   2.519   3.226   0.047
  603MOL1     C 3204   2.341   3.219   0.057
  603MOL1    Cl 3205   2.269   3.316  -0.076
  603MOL1    Cl 3206   2.289   3.049   0.042
  603MOL1     H 3207   2.308   3.260   0.153
  604MOL1    Cl 3208   4.780   1.039   2.919
  604MOL1     C 3209   4.833   1.066   2.750
  604MOL1    Cl 3210   4.706   1.156   2.662
  604MOL1    Cl 3211   4.984   1.162   2.750
  604MOL1     H 3212   4.851   0.970   2.702
  605MOL1    Cl 3213   4.817   1.942   1.070
  605MOL1     C 3214   4.983   1.978   1.126
  605MOL1    Cl 3215   5.101   1.899   1.016
  605MOL1    Cl 3216   5.011   2.155   1.124
  605MOL1     H 3217   4.997   1.940   1.228
  606MOL1    Cl 3218   3.431   3.729   0.514
  606MOL1     C 3219   3.364   3.895   0.505
  606MOL1    Cl 3220   3.353   3.946   0.333
  606MOL1    Cl 3221   3.201   3.897   0.578
  606MOL1     H 3222   3.430   3.964   0.559
  607MOL1    Cl 3223   2.952   3.912   3.603
  607MOL1     C 3224   2.996   4.053   3.704
  607MOL1    Cl 3225   2.921   4.036   3.865
  607MOL1    Cl 3226   3.173   4.061   3.723
  607MOL1     H 3227   2.960   4.145   3.655
  608MOL1    Cl 3228   2.474   4.072   2.286
  608MOL1     C 3229   2.359   4.209   2.278
  608MOL1    Cl 3230   2.301   4.246   2.444
  608MOL1    Cl 3231   2.441   4.352   2.210
  608MOL1     H 3232   2.273   4.183   2.215
  609MOL1    Cl 3233   1.962   1.901   0.935
  609MOL1     C 3234   1.801   1.877   0.859
  609MOL1    Cl 3235   1.700   1.776   0.967
  609MOL1    Cl 3236   1.722   2.036   0.835
  609MOL1     H 3237   1.813   1.827   0.763
  610MOL1    Cl 3238   0.643   3.052   4.566
  610MOL1     C 3239   0.805   3.032   4.493
  610MOL1    Cl 3240   0.927   3.117   4.594
  610MOL1    Cl 3241   0.844   2.857   4.486
  610MOL1     H 3242   0.806   3.074   4.392
  611MOL1    Cl 3243   0.895   1.712   4.350
  611MOL1     C 3244   1.058   1.725   4.424
  611MOL1    Cl 3245   1.151   1.576   4.388
  611MOL1    Cl 3246   1.144   1.867   4.358
  611MOL1     H 3247   1.047   1.736   4.533
  612MOL1    Cl 3248   5.202   2.605   0.236
  612MOL1     C 3249   5.077   2.680   0.340
  612MOL1    Cl 3250   5.151   2.738   0.492
  612MOL1    Cl 3251   5.004   2.818   0.253
  612MOL1     H 3252   4.999   2.606   0.363
  613MOL1    Cl 3253   2.650   4.211   4.950
  613MOL1     C 3254   2.560   4.272   4.808
  613MOL1    Cl 3255   2.656   4.399   4.728
  613MOL1    Cl 3256   2.531   4.137   4.694
  613MOL1     H 3257   2.464   4.314   4.840
  614MOL1    Cl 3258   3.235   3.407   3.245
  614MOL1     C 3259   3.397   3.454   3.307
  614MOL1    Cl 3260   3.506   3.313   3.301
  614MOL1    Cl 3261   3.463   3.586   3.205
  614MOL1     H 3262   3.387   3.489   3.410
  615MOL1    Cl 3263   3.192   4.275   0.340
  615MOL1     C 3264   3.063   4.153   0.365
  615MOL1    Cl 3265   2.980   4.187   0.519
  615MOL1    Cl 3266   2.946   4.164   0.230
  615MOL1     H 3267   3.106   4.053   0.368
  616MOL1    Cl 3268   3.313   4.232   0.664
  616MOL1     C 3269   3.477   4.295   0.630
  616MOL1    Cl 3270   3.586   4.253   0.766
  616MOL1    Cl 3271   3.538   4.220   0.479
  616MOL1     H 3272   3.473   4.403   0.618
  617MOL1    Cl 3273   2.413   3.768   1.053
  617MOL1     C 3274   2.591   3.782   1.063
  617MOL1    Cl 3275   2.633   3.900   1.191
  617MOL1    Cl 3276   2.662   3.623   1.105
  617MOL1     H 3277   2.631   3.816   0.967
  618MOL1    Cl 3278   4.323   3.705   3.916
  618MOL1     C 3279   4.183   3.686   3.805
  618MOL1    Cl 3280   4.114   3.847   3.770
  618MOL1    Cl 3281   4.237   3.609   3.653
  618MOL1     H 3282   4.107   3.624   3.853
  619MOL1    Cl 3283   3.955   0.535   3.745
  619MOL1     C 3284   4.108   0.487   3.664
  619MOL1    Cl 3285   4.213   0.401   3.782
  619MOL1    Cl 3286   4.072   0.377   3.527
  619MOL1     H 3287   4.159   0.576   3.627
  620MOL1    Cl 3288   2.843   2.529   3.118
  620MOL1     C 3289   2.852   2.662   3.238
  620MOL1    Cl 3290   2.720   2.643   3.358
  620MOL1    Cl 3291   3.010   2.655   3.321
  620MOL1     H 3292   2.841   2.759   3.187
  621MOL1    Cl 3293   5.361   4.464   2.606
  621MOL1     C 3294   5.362   4.426   2.781
  621MOL1    Cl 3295   5.195   4.391   2.835
  621MOL1    Cl 3296   5.465   4.282   2.810
  621MOL1     H 3297   5.402   4.511   2.837
  622MOL1    Cl 3298   2.826   1.112   2.088
  622MOL1     C 3299   2.670   1.180   2.142
  622MOL1    Cl 3300   2.561   1.047   2.192
  622MOL1    Cl 3301   2.698   1.289   2.281
  622MOL1     H 3302   2.624   1.236   2.060
  623MOL1    Cl 3303   0.894   2.086   2.697
  623MOL1     C 3304   0.732   2.086   2.620
  623MOL1    Cl 3305   0.708   2.241   2.533
  623MOL1    Cl 3306   0.720   1.950   2.504
  623MOL1     H 3307   0.655   2.075   2.697
  624MOL1    Cl 3308   1.589   3.988   1.337
  624MOL1     C 3309   1.620   4.071   1.182
  624MOL1    Cl 3310   1.797   4.084   1.155
  624MOL1    Cl 3311   1.545   3.978   1.049
  624MOL1     H 3312   1.576   4.172   1.185
  625MOL1    Cl 3313   2.627   3.031   0.680
  625MOL1     C 3314   2.637   3.158   0.806
  625MOL1    Cl 3315   2.736   3.293   0.744
  625MOL1    Cl 3316   2.473   3.218   0.844
  625MOL1     H 3317   2.683   3.117   0.896
  626MOL1    Cl 3318   1.273   1.086   1.170
  626MOL1     C 3319   1.108   1.064   1.105
  626MOL1    Cl 3320   1.022   0.939   1.201
  626MOL1    Cl 3321   1.017   1.218   1.115
  626MOL1     H 3322   1.114   1.032   1.001
  627MOL1    Cl 3323   5.032   2.329   2.787
  627MOL1     C 3324   4.890   2.297   2.891
  627MOL1    Cl 3325   4.770   2.428   2.871
  627MOL1    Cl 3326   4.815   2.141   2.845
  627MOL1     H 3327   4.923   2.292   2.995
  628MOL1    Cl 3328   2.850   1.244   3.375
  628MOL1     C 3329   2.799   1.083   3.316
  628MOL1    Cl 3330   2.944   0.979   3.296
  628MOL1    Cl 3331   2.688   1.009   3.436
  628MOL1     H 3332   2.748   1.094   3.220
  629MOL1    Cl 3333   5.451   0.982   2.505
  629MOL1     C 3334   5.503   1.046   2.346
  629MOL1    Cl 3335   5.563   0.911   2.244
  629MOL1    Cl 3336   5.363   1.124   2.265
  629MOL1     H 3337   5.583   1.119   2.360
  630MOL1    Cl 3338   4.199   0.507   4.513
  630MOL1     C 3339   4.158   0.681   4.525
  630MOL1    Cl 3340   3.987   0.706   4.476
  630MOL1    Cl 3341   4.181   0.736   4.693
  630MOL1     H 3342   4.224   0.739   4.458
  631MOL1    Cl 3343   5.405   0.696   4.835
  631MOL1     C 3344   5.244   0.635   4.884
  631MOL1    Cl 3345   5.265   0.506   5.007
  631MOL1    Cl 3346   5.148   0.769   4.954
  631MOL1     H 3347   5.192   0.594   4.797
  632MOL1    Cl 3348   3.254   0.891   1.194
  632MOL1     C 3349   3.151   0.819   1.321
  632MOL1    Cl 3350   3.105   0.947   1.438
  632MOL1    Cl 3351   3.003   0.751   1.246
  632MOL1     H 3352   3.206   0.740   1.373
  633MOL1    Cl 3353   2.422   1.532   3.566
  633MOL1     C 3354   2.428   1.411   3.697
  633MOL1    Cl 3355   2.270   1.327   3.703
  633MOL1    Cl 3356   2.556   1.291   3.662
  633MOL1     H 3357   2.448   1.460   3.793
  634MOL1    Cl 3358   3.462   1.478   2.505
  634MOL1     C 3359   3.493   1.591   2.370
  634MOL1    Cl 3360   3.656   1.662   2.391
  634MOL1    Cl 3361   3.487   1.502   2.215
  634MOL1     H 3362   3.418   1.670   2.370
  635MOL1    Cl 3363   4.135   2.415   4.348
  635MOL1     C 3364   4.100   2.240   4.331
  635MOL1    Cl 3365   4.125   2.160   4.490
  635MOL1    Cl 3366   3.931   2.216   4.278
  635MOL1     H 3367   4.168   2.196   4.257
   5.54000   5.54000   5.54000
