Generated by Interchange
 3367
    1pom_t    C    1   1.947   4.040   3.437
    1pom_t    O    2   1.970   3.999   3.302
    1pom_t    C    3   1.988   3.864   3.280
    1pom_t    C    4   1.992   3.766   3.379
    1pom_t    C    5   1.986   3.630   3.343
    1pom_t    C    6   1.980   3.590   3.209
    1pom_t    C    7   1.969   3.446   3.177
    1pom_t    C    8   1.864   3.397   3.096
    1pom_t    C    9   1.868   3.268   3.043
    1pom_t    C   10   1.975   3.186   3.073
    1pom_t    C   11   2.071   3.224   3.168
    1pom_t    C   12   2.181   3.131   3.213
    1pom_t    O   13   2.277   3.170   3.273
    1pom_t    C   14   2.069   3.356   3.217
    1pom_t    C   15   1.983   3.690   3.107
    1pom_t    C   16   1.979   3.654   2.964
    1pom_t    C   17   1.867   3.680   2.886
    1pom_t    C   18   1.860   3.637   2.753
    1pom_t    C   19   1.971   3.581   2.690
    1pom_t    C   20   1.974   3.558   2.540
    1pom_t    C   21   1.867   3.459   2.496
    1pom_t    N   22   1.973   3.682   2.459
    1pom_t    C   23   2.083   3.551   2.769
    1pom_t    C   24   2.085   3.584   2.905
    1pom_t    C   25   1.987   3.826   3.145
    1pom_t    H   26   1.930   4.149   3.436
    1pom_t    H   27   1.858   3.994   3.481
    1pom_t    H   28   2.035   4.021   3.498
    1pom_t    H   29   1.987   3.791   3.485
    1pom_t    H   30   1.980   3.556   3.422
    1pom_t    H   31   1.782   3.462   3.066
    1pom_t    H   32   1.791   3.234   2.975
    1pom_t    H   33   1.983   3.090   3.022
    1pom_t    H   34   2.149   3.390   3.283
    1pom_t    H   35   1.783   3.737   2.926
    1pom_t    H   36   1.769   3.657   2.697
    1pom_t    H   37   2.071   3.513   2.515
    1pom_t    H   38   1.879   3.434   2.390
    1pom_t    H   39   1.766   3.499   2.509
    1pom_t    H   40   1.873   3.366   2.554
    1pom_t    H   41   2.000   3.656   2.365
    1pom_t    H   42   2.169   3.500   2.726
    1pom_t    H   43   2.171   3.556   2.965
    1pom_t    H   44   1.977   3.903   3.069
    1pom_t    C   45   1.089   4.314   2.556
    1pom_t    O   46   1.129   4.224   2.660
    1pom_t    C   47   1.248   4.158   2.644
    1pom_t    C   48   1.331   4.165   2.532
    1pom_t    C   49   1.460   4.111   2.537
    1pom_t    C   50   1.511   4.047   2.651
    1pom_t    C   51   1.651   3.999   2.649
    1pom_t    C   52   1.746   4.037   2.746
    1pom_t    C   53   1.878   3.990   2.741
    1pom_t    C   54   1.918   3.907   2.637
    1pom_t    C   55   1.825   3.863   2.543
    1pom_t    C   56   1.857   3.756   2.444
    1pom_t    O   57   1.783   3.736   2.347
    1pom_t    C   58   1.693   3.911   2.548
    1pom_t    C   59   1.425   4.033   2.763
    1pom_t    C   60   1.468   3.965   2.886
    1pom_t    C   61   1.491   4.037   3.004
    1pom_t    C   62   1.536   3.970   3.118
    1pom_t    C   63   1.536   3.831   3.124
    1pom_t    C   64   1.563   3.755   3.253
    1pom_t    C   65   1.694   3.798   3.311
    1pom_t    N   66   1.459   3.761   3.355
    1pom_t    C   67   1.522   3.760   3.003
    1pom_t    C   68   1.490   3.828   2.887
    1pom_t    C   69   1.295   4.090   2.758
    1pom_t    H   70   0.994   4.360   2.587
    1pom_t    H   71   1.161   4.395   2.541
    1pom_t    H   72   1.071   4.259   2.463
    1pom_t    H   73   1.303   4.223   2.444
    1pom_t    H   74   1.526   4.127   2.450
    1pom_t    H   75   1.718   4.101   2.830
    1pom_t    H   76   1.948   4.014   2.821
    1pom_t    H   77   2.020   3.868   2.637
    1pom_t    H   78   1.621   3.876   2.475
    1pom_t    H   79   1.472   4.143   3.009
    1pom_t    H   80   1.558   4.030   3.206
    1pom_t    H   81   1.573   3.648   3.228
    1pom_t    H   82   1.721   3.737   3.398
    1pom_t    H   83   1.696   3.903   3.341
    1pom_t    H   84   1.765   3.785   3.231
    1pom_t    H   85   1.483   3.691   3.423
    1pom_t    H   86   1.539   3.652   3.000
    1pom_t    H   87   1.482   3.772   2.793
    1pom_t    H   88   1.232   4.091   2.847
    1pom_t    C   89   1.224   4.754   3.729
    1pom_t    O   90   1.283   4.736   3.601
    1pom_t    C   91   1.300   4.608   3.556
    1pom_t    C   92   1.270   4.492   3.628
    1pom_t    C   93   1.270   4.368   3.563
    1pom_t    C   94   1.303   4.354   3.427
    1pom_t    C   95   1.294   4.219   3.366
    1pom_t    C   96   1.216   4.192   3.251
    1pom_t    C   97   1.208   4.064   3.198
    1pom_t    C   98   1.274   3.959   3.260
    1pom_t    C   99   1.356   3.984   3.370
    1pom_t    C  100   1.443   3.878   3.427
    1pom_t    O  101   1.501   3.893   3.534
    1pom_t    C  102   1.366   4.113   3.423
    1pom_t    C  103   1.339   4.471   3.355
    1pom_t    C  104   1.377   4.466   3.213
    1pom_t    C  105   1.295   4.518   3.113
    1pom_t    C  106   1.332   4.508   2.979
    1pom_t    C  107   1.459   4.462   2.943
    1pom_t    C  108   1.512   4.474   2.801
    1pom_t    C  109   1.421   4.399   2.709
    1pom_t    N  110   1.536   4.608   2.748
    1pom_t    C  111   1.537   4.402   3.042
    1pom_t    C  112   1.496   4.402   3.175
    1pom_t    C  113   1.337   4.596   3.422
    1pom_t    H  114   1.212   4.861   3.746
    1pom_t    H  115   1.124   4.709   3.735
    1pom_t    H  116   1.289   4.714   3.807
    1pom_t    H  117   1.234   4.495   3.730
    1pom_t    H  118   1.237   4.280   3.619
    1pom_t    H  119   1.162   4.272   3.201
    1pom_t    H  120   1.155   4.046   3.105
    1pom_t    H  121   1.271   3.860   3.215
    1pom_t    H  122   1.432   4.132   3.507
    1pom_t    H  123   1.203   4.569   3.139
    1pom_t    H  124   1.262   4.544   2.904
    1pom_t    H  125   1.610   4.424   2.797
    1pom_t    H  126   1.462   4.393   2.607
    1pom_t    H  127   1.320   4.442   2.702
    1pom_t    H  128   1.413   4.300   2.752
    1pom_t    H  129   1.587   4.595   2.661
    1pom_t    H  130   1.630   4.351   3.017
    1pom_t    H  131   1.556   4.351   3.250
    1pom_t    H  132   1.355   4.687   3.365
    1pom_t    C  133   0.681   5.283   2.723
    1pom_t    O  134   0.693   5.186   2.826
    1pom_t    C  135   0.811   5.117   2.832
    1pom_t    C  136   0.922   5.136   2.752
    1pom_t    C  137   1.038   5.061   2.774
    1pom_t    C  138   1.046   4.962   2.874
    1pom_t    C  139   1.176   4.898   2.901
    1pom_t    C  140   1.238   4.904   3.027
    1pom_t    C  141   1.363   4.847   3.050
    1pom_t    C  142   1.431   4.785   2.945
    1pom_t    C  143   1.368   4.771   2.821
    1pom_t    C  144   1.428   4.687   2.714
    1pom_t    O  145   1.384   4.687   2.600
    1pom_t    C  146   1.242   4.828   2.799
    1pom_t    C  147   0.929   4.937   2.950
    1pom_t    C  148   0.926   4.835   3.055
    1pom_t    C  149   0.916   4.877   3.187
    1pom_t    C  150   0.922   4.784   3.289
    1pom_t    C  151   0.913   4.647   3.267
    1pom_t    C  152   0.895   4.552   3.384
    1pom_t    C  153   1.006   4.568   3.483
    1pom_t    N  154   0.768   4.558   3.458
    1pom_t    C  155   0.933   4.604   3.136
    1pom_t    C  156   0.942   4.697   3.031
    1pom_t    C  157   0.815   5.017   2.930
    1pom_t    H  158   0.582   5.329   2.731
    1pom_t    H  159   0.756   5.363   2.734
    1pom_t    H  160   0.688   5.236   2.624
    1pom_t    H  161   0.925   5.211   2.673
    1pom_t    H  162   1.126   5.081   2.712
    1pom_t    H  163   1.188   4.953   3.111
    1pom_t    H  164   1.407   4.847   3.149
    1pom_t    H  165   1.526   4.737   2.965
    1pom_t    H  166   1.193   4.814   2.702
    1pom_t    H  167   0.907   4.982   3.210
    1pom_t    H  168   0.934   4.822   3.390
    1pom_t    H  169   0.901   4.449   3.345
    1pom_t    H  170   1.005   4.488   3.559
    1pom_t    H  171   1.005   4.663   3.537
    1pom_t    H  172   1.097   4.563   3.426
    1pom_t    H  173   0.752   4.471   3.506
    1pom_t    H  174   0.946   4.498   3.114
    1pom_t    H  175   0.963   4.662   2.931
    1pom_t    H  176   0.728   5.004   2.993
    1pom_t    C  177   2.052   2.927   3.223
    1pom_t    O  178   2.164   3.003   3.172
    1pom_t    H  179   2.035   2.948   3.329
    1pom_t    H  180   2.075   2.822   3.208
    1pom_t    H  181   1.961   2.948   3.167
    1pom_t    C  182   0.767   5.022   3.463
    1pom_t    C  183   0.745   4.907   3.565
    1pom_t    C  184   0.858   4.917   3.667
    1pom_t    C  185   0.606   4.924   3.625
    1pom_t    O  186   0.749   4.782   3.491
    1pom_t    C  187   0.741   4.660   3.547
    1pom_t    O  188   0.717   4.636   3.664
    1pom_t    H  189   0.749   5.120   3.508
    1pom_t    H  190   0.871   5.024   3.428
    1pom_t    H  191   0.703   5.011   3.375
    1pom_t    H  192   0.956   4.900   3.620
    1pom_t    H  193   0.849   4.842   3.746
    1pom_t    H  194   0.861   5.016   3.714
    1pom_t    H  195   0.530   4.905   3.548
    1pom_t    H  196   0.589   4.852   3.705
    1pom_t    H  197   0.592   5.024   3.665
    2MOL1    Cl  198   4.410   0.418   2.713
    2MOL1     C  199   4.579   0.367   2.704
    2MOL1    Cl  200   4.623   0.325   2.538
    2MOL1    Cl  201   4.685   0.494   2.767
    2MOL1     H  202   4.591   0.278   2.767
    2MOL1    Cl  203   2.073   3.296   5.357
    2MOL1     C  204   1.921   3.235   5.292
    2MOL1    Cl  205   1.926   3.230   5.115
    2MOL1    Cl  206   1.885   3.074   5.358
    2MOL1     H  207   1.841   3.303   5.322
    2MOL1    Cl  208   2.027   2.573   1.034
    2MOL1     C  209   2.081   2.419   0.965
    2MOL1    Cl  210   2.116   2.302   1.093
    2MOL1    Cl  211   1.960   2.355   0.854
    2MOL1     H  212   2.173   2.437   0.909
    2MOL1    Cl  213   2.865   0.869   3.826
    2MOL1     C  214   2.833   0.696   3.805
    2MOL1    Cl  215   2.929   0.601   3.920
    2MOL1    Cl  216   2.660   0.662   3.826
    2MOL1     H  217   2.862   0.668   3.704
    2MOL1    Cl  218   2.573   1.754   2.755
    2MOL1     C  219   2.468   1.836   2.871
    2MOL1    Cl  220   2.309   1.757   2.878
    2MOL1    Cl  221   2.543   1.839   3.032
    2MOL1     H  222   2.454   1.939   2.838
    2MOL1    Cl  223   5.346   1.242   0.722
    2MOL1     C  224   5.277   1.300   0.570
    2MOL1    Cl  225   5.102   1.273   0.567
    2MOL1    Cl  226   5.313   1.472   0.547
    2MOL1     H  227   5.322   1.244   0.488
    2MOL1    Cl  228   3.040   0.783   2.436
    2MOL1     C  229   3.128   0.850   2.575
    2MOL1    Cl  230   3.288   0.907   2.526
    2MOL1    Cl  231   3.035   0.980   2.651
    2MOL1     H  232   3.141   0.770   2.649
    2MOL1    Cl  233   4.106   3.935   4.841
    2MOL1     C  234   3.997   4.062   4.780
    2MOL1    Cl  235   4.084   4.215   4.761
    2MOL1    Cl  236   3.924   4.012   4.626
    2MOL1     H  237   3.917   4.076   4.853
    2MOL1    Cl  238   1.052   4.283   3.394
    2MOL1     C  239   0.997   4.157   3.505
    2MOL1    Cl  240   0.941   4.015   3.416
    2MOL1    Cl  241   1.127   4.112   3.617
    2MOL1     H  242   0.914   4.196   3.564
    2MOL1    Cl  243   4.250   1.280   2.502
    2MOL1     C  244   4.153   1.388   2.604
    2MOL1    Cl  245   4.056   1.498   2.504
    2MOL1    Cl  246   4.048   1.293   2.711
    2MOL1     H  247   4.221   1.447   2.665
    2MOL1    Cl  248   5.219   3.211   4.372
    2MOL1     C  249   5.128   3.122   4.496
    2MOL1    Cl  250   5.060   2.973   4.428
    2MOL1    Cl  251   5.231   3.085   4.635
    2MOL1     H  252   5.045   3.185   4.530
    2MOL1    Cl  253   0.732   2.775   1.563
    2MOL1     C  254   0.799   2.901   1.459
    2MOL1    Cl  255   0.918   2.832   1.347
    2MOL1    Cl  256   0.670   2.984   1.370
    2MOL1     H  257   0.850   2.974   1.522
    2MOL1    Cl  258   1.944   2.176   2.395
    2MOL1     C  259   1.787   2.102   2.429
    2MOL1    Cl  260   1.672   2.223   2.488
    2MOL1    Cl  261   1.724   2.022   2.284
    2MOL1     H  262   1.801   2.026   2.506
    2MOL1    Cl  263   4.628   4.489   0.844
    2MOL1     C  264   4.518   4.464   0.708
    2MOL1    Cl  265   4.487   4.291   0.683
    2MOL1    Cl  266   4.366   4.551   0.735
    2MOL1     H  267   4.564   4.504   0.618
    2MOL1    Cl  268   2.801   5.140   3.891
    2MOL1     C  269   2.856   5.290   3.815
    2MOL1    Cl  270   2.998   5.259   3.713
    2MOL1    Cl  271   2.726   5.364   3.720
    2MOL1     H  272   2.886   5.359   3.894
    2MOL1    Cl  273   3.179   1.755   3.189
    2MOL1     C  274   3.102   1.897   3.116
    2MOL1    Cl  275   3.177   1.934   2.960
    2MOL1    Cl  276   2.928   1.870   3.096
    2MOL1     H  277   3.116   1.982   3.182
    2MOL1    Cl  278   0.851   2.990   5.113
    2MOL1     C  279   0.908   3.127   5.016
    2MOL1    Cl  280   0.854   3.280   5.087
    2MOL1    Cl  281   1.085   3.124   5.002
    2MOL1     H  282   0.865   3.118   4.916
    2MOL1    Cl  283   4.858   3.413   2.232
    2MOL1     C  284   4.823   3.579   2.182
    2MOL1    Cl  285   4.935   3.631   2.055
    2MOL1    Cl  286   4.655   3.593   2.126
    2MOL1     H  287   4.836   3.644   2.268
    2MOL1    Cl  288   2.291   1.275   3.634
    2MOL1     C  289   2.378   1.179   3.513
    2MOL1    Cl  290   2.266   1.117   3.391
    2MOL1    Cl  291   2.506   1.275   3.438
    2MOL1     H  292   2.424   1.093   3.564
    2MOL1    Cl  293   1.663   2.157   2.980
    2MOL1     C  294   1.647   2.016   2.874
    2MOL1    Cl  295   1.656   1.866   2.967
    2MOL1    Cl  296   1.495   2.024   2.783
    2MOL1     H  297   1.730   2.017   2.802
    2MOL1    Cl  298   3.356   4.620   5.001
    2MOL1     C  299   3.370   4.706   4.846
    2MOL1    Cl  300   3.292   4.865   4.857
    2MOL1    Cl  301   3.540   4.723   4.800
    2MOL1     H  302   3.319   4.648   4.770
    2MOL1    Cl  303   2.843   2.387   1.952
    2MOL1     C  304   2.941   2.501   2.046
    2MOL1    Cl  305   3.106   2.510   1.981
    2MOL1    Cl  306   2.866   2.662   2.047
    2MOL1     H  307   2.947   2.465   2.149
    2MOL1    Cl  308   3.077   1.985   5.211
    2MOL1     C  309   2.970   2.054   5.088
    2MOL1    Cl  310   2.824   2.121   5.163
    2MOL1    Cl  311   3.054   2.178   4.994
    2MOL1     H  312   2.940   1.974   5.020
    2MOL1    Cl  313   5.125   0.312   1.468
    2MOL1     C  314   5.117   0.326   1.291
    2MOL1    Cl  315   4.987   0.225   1.227
    2MOL1    Cl  316   5.093   0.495   1.244
    2MOL1     H  317   5.212   0.292   1.249
    2MOL1    Cl  318   3.390   1.020   1.215
    2MOL1     C  319   3.273   0.907   1.283
    2MOL1    Cl  320   3.287   0.900   1.459
    2MOL1    Cl  321   3.108   0.952   1.236
    2MOL1     H  322   3.294   0.807   1.243
    2MOL1    Cl  323   4.291   3.318   1.835
    2MOL1     C  324   4.137   3.267   1.905
    2MOL1    Cl  325   4.144   3.098   1.956
    2MOL1    Cl  326   4.094   3.371   2.042
    2MOL1     H  327   4.060   3.277   1.829
    2MOL1    Cl  328   1.177   0.784   3.643
    2MOL1     C  329   1.308   0.901   3.669
    2MOL1    Cl  330   1.256   1.030   3.778
    2MOL1    Cl  331   1.452   0.819   3.732
    2MOL1     H  332   1.333   0.945   3.572
    2MOL1    Cl  333   0.760   5.134   4.211
    2MOL1     C  334   0.923   5.194   4.172
    2MOL1    Cl  335   1.011   5.076   4.074
    2MOL1    Cl  336   0.914   5.350   4.089
    2MOL1     H  337   0.977   5.208   4.266
    2MOL1    Cl  338   3.224   3.560   3.523
    2MOL1     C  339   3.077   3.657   3.503
    2MOL1    Cl  340   3.102   3.783   3.381
    2MOL1    Cl  341   2.940   3.553   3.460
    2MOL1     H  342   3.055   3.706   3.598
    2MOL1    Cl  343   0.682   0.822   2.391
    2MOL1     C  344   0.602   0.945   2.491
    2MOL1    Cl  345   0.657   1.108   2.446
    2MOL1    Cl  346   0.426   0.933   2.475
    2MOL1     H  347   0.628   0.927   2.595
    2MOL1    Cl  348   5.065   2.083   2.219
    2MOL1     C  349   5.218   2.016   2.163
    2MOL1    Cl  350   5.190   1.891   2.040
    2MOL1    Cl  351   5.323   2.144   2.099
    2MOL1     H  352   5.269   1.969   2.248
    2MOL1    Cl  353   1.656   3.581   2.343
    2MOL1     C  354   1.484   3.567   2.304
    2MOL1    Cl  355   1.385   3.578   2.450
    2MOL1    Cl  356   1.436   3.690   2.186
    2MOL1     H  357   1.467   3.468   2.259
    2MOL1    Cl  358   4.300   1.533   1.988
    2MOL1     C  359   4.156   1.449   2.047
    2MOL1    Cl  360   4.014   1.493   1.950
    2MOL1    Cl  361   4.180   1.274   2.046
    2MOL1     H  362   4.138   1.481   2.150
    2MOL1    Cl  363   1.007   2.080   2.244
    2MOL1     C  364   1.059   2.247   2.218
    2MOL1    Cl  365   1.200   2.253   2.111
    2MOL1    Cl  366   0.926   2.343   2.151
    2MOL1     H  367   1.087   2.290   2.315
    2MOL1    Cl  368   2.535   3.895   1.865
    2MOL1     C  369   2.374   3.829   1.829
    2MOL1    Cl  370   2.367   3.772   1.661
    2MOL1    Cl  371   2.334   3.698   1.941
    2MOL1     H  372   2.301   3.909   1.841
    2MOL1    Cl  373   1.195   4.427   1.286
    2MOL1     C  374   1.235   4.560   1.177
    2MOL1    Cl  375   1.275   4.706   1.269
    2MOL1    Cl  376   1.368   4.515   1.070
    2MOL1     H  377   1.147   4.581   1.115
    2MOL1    Cl  378   0.344   1.396   4.910
    2MOL1     C  379   0.479   1.320   4.824
    2MOL1    Cl  380   0.609   1.279   4.936
    2MOL1    Cl  381   0.423   1.176   4.737
    2MOL1     H  382   0.517   1.391   4.750
    2MOL1    Cl  383   1.410   3.839   4.812
    2MOL1     C  384   1.567   3.920   4.811
    2MOL1    Cl  385   1.695   3.808   4.762
    2MOL1    Cl  386   1.564   4.061   4.704
    2MOL1     H  387   1.589   3.955   4.912
    2MOL1    Cl  388   0.712   0.817   4.930
    2MOL1     C  389   0.551   0.768   4.875
    2MOL1    Cl  390   0.437   0.904   4.887
    2MOL1    Cl  391   0.559   0.708   4.708
    2MOL1     H  392   0.516   0.687   4.939
    2MOL1    Cl  393   1.434   4.462   2.261
    2MOL1     C  394   1.329   4.324   2.227
    2MOL1    Cl  395   1.405   4.173   2.279
    2MOL1    Cl  396   1.172   4.345   2.307
    2MOL1     H  397   1.312   4.319   2.119
    2MOL1    Cl  398   3.965   3.981   0.231
    2MOL1     C  399   3.918   4.150   0.202
    2MOL1    Cl  400   4.037   4.230   0.098
    2MOL1    Cl  401   3.757   4.159   0.129
    2MOL1     H  402   3.916   4.202   0.298
    2MOL1    Cl  403   1.868   1.681   1.379
    2MOL1     C  404   1.828   1.533   1.468
    2MOL1    Cl  405   1.973   1.434   1.493
    2MOL1    Cl  406   1.751   1.572   1.623
    2MOL1     H  407   1.757   1.475   1.408
    2MOL1    Cl  408   3.789   0.555   2.299
    2MOL1     C  409   3.676   0.689   2.318
    2MOL1    Cl  410   3.759   0.832   2.383
    2MOL1    Cl  411   3.597   0.727   2.164
    2MOL1     H  412   3.599   0.659   2.390
    2MOL1    Cl  413   0.336   0.567   1.877
    2MOL1     C  414   0.382   0.648   2.028
    2MOL1    Cl  415   0.553   0.695   2.024
    2MOL1    Cl  416   0.280   0.790   2.056
    2MOL1     H  417   0.367   0.578   2.110
    2MOL1    Cl  418   3.966   2.715   1.181
    2MOL1     C  419   4.113   2.628   1.137
    2MOL1    Cl  420   4.126   2.610   0.961
    2MOL1    Cl  421   4.256   2.710   1.202
    2MOL1     H  422   4.109   2.528   1.181
    2MOL1    Cl  423   5.218   1.649   3.402
    2MOL1     C  424   5.157   1.814   3.420
    2MOL1    Cl  425   5.024   1.819   3.536
    2MOL1    Cl  426   5.288   1.923   3.471
    2MOL1     H  427   5.120   1.848   3.323
    2MOL1    Cl  428   2.132   3.511   2.325
    2MOL1     C  429   2.249   3.638   2.360
    2MOL1    Cl  430   2.320   3.701   2.210
    2MOL1    Cl  431   2.174   3.769   2.453
    2MOL1     H  432   2.330   3.595   2.420
    2MOL1    Cl  433   0.731   0.352   4.761
    2MOL1     C  434   0.804   0.292   4.911
    2MOL1    Cl  435   0.737   0.133   4.954
    2MOL1    Cl  436   0.980   0.282   4.895
    2MOL1     H  437   0.780   0.362   4.991
    2MOL1    Cl  438   4.727   0.739   4.413
    2MOL1     C  439   4.755   0.580   4.485
    2MOL1    Cl  440   4.919   0.568   4.549
    2MOL1    Cl  441   4.636   0.547   4.613
    2MOL1     H  442   4.742   0.504   4.407
    2MOL1    Cl  443   4.163   4.644   1.681
    2MOL1     C  444   4.096   4.750   1.556
    2MOL1    Cl  445   4.214   4.776   1.427
    2MOL1    Cl  446   3.946   4.682   1.491
    2MOL1     H  447   4.073   4.846   1.602
    2MOL1    Cl  448   4.729   4.556   4.758
    2MOL1     C  449   4.714   4.596   4.930
    2MOL1    Cl  450   4.730   4.451   5.030
    2MOL1    Cl  451   4.834   4.718   4.977
    2MOL1     H  452   4.614   4.639   4.947
    2MOL1    Cl  453   4.348   4.527   1.761
    2MOL1     C  454   4.258   4.380   1.801
    2MOL1    Cl  455   4.368   4.252   1.855
    2MOL1    Cl  456   4.136   4.414   1.925
    2MOL1     H  457   4.207   4.345   1.711
    2MOL1    Cl  458   4.144   3.929   3.359
    2MOL1     C  459   4.076   4.088   3.395
    2MOL1    Cl  460   3.966   4.080   3.533
    2MOL1    Cl  461   4.206   4.206   3.425
    2MOL1     H  462   4.019   4.122   3.307
    2MOL1    Cl  463   0.489   0.809   3.424
    2MOL1     C  464   0.603   0.945   3.422
    2MOL1    Cl  465   0.603   1.028   3.578
    2MOL1    Cl  466   0.766   0.889   3.381
    2MOL1     H  467   0.571   1.016   3.345
    2MOL1    Cl  468   3.423   2.695   2.791
    2MOL1     C  469   3.275   2.679   2.886
    2MOL1    Cl  470   3.217   2.838   2.939
    2MOL1    Cl  471   3.150   2.594   2.793
    2MOL1     H  472   3.297   2.620   2.975
    2MOL1    Cl  473   3.894   2.269   2.397
    2MOL1     C  474   3.964   2.407   2.484
    2MOL1    Cl  475   3.865   2.552   2.462
    2MOL1    Cl  476   3.981   2.369   2.657
    2MOL1     H  477   4.064   2.426   2.444
    2MOL1    Cl  478   5.168   0.590   2.394
    2MOL1     C  479   5.259   0.731   2.453
    2MOL1    Cl  480   5.427   0.723   2.399
    2MOL1    Cl  481   5.183   0.881   2.397
    2MOL1     H  482   5.257   0.730   2.562
    2MOL1    Cl  483   0.526   0.035   3.179
    2MOL1     C  484   0.635   0.140   3.087
    2MOL1    Cl  485   0.703   0.053   2.948
    2MOL1    Cl  486   0.551   0.286   3.033
    2MOL1     H  487   0.718   0.170   3.152
    2MOL1    Cl  488   5.544   3.670   1.386
    2MOL1     C  489   5.380   3.729   1.358
    2MOL1    Cl  490   5.288   3.731   1.509
    2MOL1    Cl  491   5.383   3.891   1.285
    2MOL1     H  492   5.330   3.661   1.288
    2MOL1    Cl  493   1.847   3.287   1.102
    2MOL1     C  494   1.758   3.332   0.956
    2MOL1    Cl  495   1.867   3.403   0.836
    2MOL1    Cl  496   1.673   3.192   0.889
    2MOL1     H  497   1.683   3.407   0.984
    2MOL1    Cl  498   5.079   0.302   2.231
    2MOL1     C  499   5.101   0.130   2.197
    2MOL1    Cl  500   4.981   0.074   2.079
    2MOL1    Cl  501   5.266   0.099   2.138
    2MOL1     H  502   5.087   0.075   2.290
    2MOL1    Cl  503   3.166   4.404   4.264
    2MOL1     C  504   3.007   4.438   4.194
    2MOL1    Cl  505   2.917   4.551   4.297
    2MOL1    Cl  506   3.024   4.504   4.030
    2MOL1     H  507   2.951   4.345   4.188
    2MOL1    Cl  508   4.771   1.708   0.454
    2MOL1     C  509   4.910   1.747   0.351
    2MOL1    Cl  510   4.893   1.672   0.192
    2MOL1    Cl  511   4.928   1.923   0.336
    2MOL1     H  512   5.000   1.708   0.399
    2MOL1    Cl  513   3.090   4.634   4.424
    2MOL1     C  514   3.158   4.789   4.473
    2MOL1    Cl  515   3.034   4.893   4.545
    2MOL1    Cl  516   3.293   4.766   4.586
    2MOL1     H  517   3.197   4.839   4.383
    2MOL1    Cl  518   4.187   4.279   2.091
    2MOL1     C  519   4.042   4.180   2.064
    2MOL1    Cl  520   3.931   4.262   1.954
    2MOL1    Cl  521   4.087   4.021   2.001
    2MOL1     H  522   3.992   4.166   2.160
    2MOL1    Cl  523   1.171   0.115   3.402
    2MOL1     C  524   1.200   0.288   3.426
    2MOL1    Cl  525   1.082   0.356   3.539
    2MOL1    Cl  526   1.365   0.316   3.485
    2MOL1     H  527   1.189   0.338   3.330
    2MOL1    Cl  528   1.037   1.385   2.712
    2MOL1     C  529   1.196   1.375   2.636
    2MOL1    Cl  530   1.253   1.535   2.588
    2MOL1    Cl  531   1.312   1.298   2.746
    2MOL1     H  532   1.187   1.313   2.547
    2MOL1    Cl  533   1.255   0.812   2.533
    2MOL1     C  534   1.361   0.739   2.410
    2MOL1    Cl  535   1.273   0.718   2.258
    2MOL1    Cl  536   1.505   0.838   2.386
    2MOL1     H  537   1.392   0.641   2.446
    2MOL1    Cl  538   3.037   1.312   4.002
    2MOL1     C  539   3.102   1.150   3.971
    2MOL1    Cl  540   3.152   1.073   4.122
    2MOL1    Cl  541   2.982   1.050   3.887
    2MOL1     H  542   3.190   1.160   3.906
    2MOL1    Cl  543   4.994   5.257   1.309
    2MOL1     C  544   4.854   5.149   1.302
    2MOL1    Cl  545   4.758   5.179   1.156
    2MOL1    Cl  546   4.907   4.980   1.308
    2MOL1     H  547   4.791   5.168   1.390
    2MOL1    Cl  548   0.605   4.529   0.355
    2MOL1     C  549   0.763   4.451   0.336
    2MOL1    Cl  550   0.871   4.495   0.469
    2MOL1    Cl  551   0.745   4.275   0.325
    2MOL1     H  552   0.808   4.487   0.243
    2MOL1    Cl  553   2.550   3.521   2.167
    2MOL1     C  554   2.663   3.443   2.279
    2MOL1    Cl  555   2.699   3.551   2.416
    2MOL1    Cl  556   2.597   3.289   2.337
    2MOL1     H  557   2.757   3.423   2.226
    2MOL1    Cl  558   0.753   3.226   1.211
    2MOL1     C  559   0.607   3.164   1.132
    2MOL1    Cl  560   0.466   3.261   1.178
    2MOL1    Cl  561   0.627   3.163   0.956
    2MOL1     H  562   0.591   3.061   1.165
    2MOL1    Cl  563   3.529   3.805   1.066
    2MOL1     C  564   3.603   3.644   1.062
    2MOL1    Cl  565   3.755   3.643   1.152
    2MOL1    Cl  566   3.491   3.523   1.127
    2MOL1     H  567   3.624   3.618   0.958
    2MOL1    Cl  568   3.506   3.226   4.940
    2MOL1     C  569   3.422   3.074   4.973
    2MOL1    Cl  570   3.496   2.992   5.112
    2MOL1    Cl  571   3.250   3.102   5.003
    2MOL1     H  572   3.432   3.009   4.886
    2MOL1    Cl  573   1.465   1.374   1.833
    2MOL1     C  574   1.304   1.318   1.879
    2MOL1    Cl  575   1.313   1.158   1.956
    2MOL1    Cl  576   1.226   1.434   1.988
    2MOL1     H  577   1.243   1.309   1.789
    2MOL1    Cl  578   2.072   2.791   4.775
    2MOL1     C  579   2.213   2.685   4.759
    2MOL1    Cl  580   2.357   2.761   4.829
    2MOL1    Cl  581   2.181   2.528   4.837
    2MOL1     H  582   2.231   2.667   4.653
    2MOL1    Cl  583   2.312   4.287   4.277
    2MOL1     C  584   2.419   4.151   4.240
    2MOL1    Cl  585   2.529   4.120   4.375
    2MOL1    Cl  586   2.325   4.006   4.202
    2MOL1     H  587   2.479   4.177   4.153
    2MOL1    Cl  588   0.919   0.397   0.025
    2MOL1     C  589   1.024   0.376   0.166
    2MOL1    Cl  590   1.010   0.515   0.276
    2MOL1    Cl  591   0.985   0.225   0.251
    2MOL1     H  592   1.127   0.370   0.132
    2MOL1    Cl  593   1.189   0.697   3.033
    2MOL1     C  594   1.357   0.662   2.989
    2MOL1    Cl  595   1.452   0.811   2.982
    2MOL1    Cl  596   1.429   0.548   3.103
    2MOL1     H  597   1.357   0.616   2.890
    2MOL1    Cl  598   4.837   3.363   3.327
    2MOL1     C  599   4.738   3.219   3.295
    2MOL1    Cl  600   4.573   3.266   3.250
    2MOL1    Cl  601   4.811   3.119   3.168
    2MOL1     H  602   4.733   3.160   3.387
    2MOL1    Cl  603   3.434   4.651   5.248
    2MOL1     C  604   3.412   4.816   5.190
    2MOL1    Cl  605   3.253   4.879   5.237
    2MOL1    Cl  606   3.541   4.921   5.252
    2MOL1     H  607   3.418   4.816   5.081
    2MOL1    Cl  608   2.206   0.179   3.463
    2MOL1     C  609   2.075   0.128   3.572
    2MOL1    Cl  610   2.127   0.140   3.741
    2MOL1    Cl  611   1.930   0.227   3.544
    2MOL1     H  612   2.051   0.024   3.550
    2MOL1    Cl  613   1.330   0.903   4.001
    2MOL1     C  614   1.212   0.837   4.114
    2MOL1    Cl  615   1.054   0.914   4.092
    2MOL1    Cl  616   1.199   0.661   4.095
    2MOL1     H  617   1.246   0.858   4.216
    2MOL1    Cl  618   2.225   5.097   2.573
    2MOL1     C  619   2.289   5.164   2.422
    2MOL1    Cl  620   2.171   5.147   2.291
    2MOL1    Cl  621   2.334   5.334   2.444
    2MOL1     H  622   2.379   5.108   2.395
    2MOL1    Cl  623   1.526   1.226   2.400
    2MOL1     C  624   1.458   1.389   2.397
    2MOL1    Cl  625   1.586   1.510   2.413
    2MOL1    Cl  626   1.366   1.415   2.247
    2MOL1     H  627   1.389   1.399   2.481
    2MOL1    Cl  628   1.760   1.767   0.082
    2MOL1     C  629   1.857   1.665   0.190
    2MOL1    Cl  630   1.888   1.749   0.343
    2MOL1    Cl  631   1.776   1.510   0.219
    2MOL1     H  632   1.953   1.645   0.141
    2MOL1    Cl  633   4.578   3.236   2.408
    2MOL1     C  634   4.459   3.146   2.504
    2MOL1    Cl  635   4.350   3.055   2.398
    2MOL1    Cl  636   4.540   3.038   2.619
    2MOL1     H  637   4.400   3.218   2.560
    2MOL1    Cl  638   3.110   5.051   1.505
    2MOL1     C  639   3.177   4.890   1.472
    2MOL1    Cl  640   3.170   4.790   1.618
    2MOL1    Cl  641   3.091   4.813   1.339
    2MOL1     H  642   3.282   4.902   1.444
    2MOL1    Cl  643   4.419   2.613   3.411
    2MOL1     C  644   4.541   2.490   3.374
    2MOL1    Cl  645   4.479   2.376   3.253
    2MOL1    Cl  646   4.691   2.566   3.317
    2MOL1     H  647   4.563   2.435   3.466
    2MOL1    Cl  648   4.638   0.705   3.600
    2MOL1     C  649   4.559   0.811   3.717
    2MOL1    Cl  650   4.384   0.783   3.720
    2MOL1    Cl  651   4.629   0.788   3.879
    2MOL1     H  652   4.577   0.915   3.687
    2MOL1    Cl  653   4.483   1.177   3.414
    2MOL1     C  654   4.422   1.034   3.329
    2MOL1    Cl  655   4.389   1.071   3.160
    2MOL1    Cl  656   4.539   0.900   3.342
    2MOL1     H  657   4.329   1.002   3.377
    2MOL1    Cl  658   2.219   0.389   3.275
    2MOL1     C  659   2.342   0.375   3.401
    2MOL1    Cl  660   2.272   0.409   3.560
    2MOL1    Cl  661   2.417   0.215   3.399
    2MOL1     H  662   2.420   0.450   3.382
    2MOL1    Cl  663   0.617   4.567   3.823
    2MOL1     C  664   0.750   4.459   3.777
    2MOL1    Cl  665   0.698   4.345   3.652
    2MOL1    Cl  666   0.890   4.553   3.721
    2MOL1     H  667   0.780   4.402   3.866
    2MOL1    Cl  668   0.706   1.636   5.024
    2MOL1     C  669   0.589   1.704   5.137
    2MOL1    Cl  670   0.638   1.672   5.304
    2MOL1    Cl  671   0.569   1.878   5.109
    2MOL1     H  672   0.492   1.655   5.120
    2MOL1    Cl  673   1.401   5.227   5.091
    2MOL1     C  674   1.307   5.105   5.178
    2MOL1    Cl  675   1.413   5.009   5.283
    2MOL1    Cl  676   1.178   5.181   5.272
    2MOL1     H  677   1.262   5.038   5.104
    2MOL1    Cl  678   1.008   2.214   1.301
    2MOL1     C  679   1.090   2.301   1.170
    2MOL1    Cl  680   1.253   2.349   1.219
    2MOL1    Cl  681   1.096   2.200   1.024
    2MOL1     H  682   1.033   2.391   1.147
    2MOL1    Cl  683   5.109   1.869   2.418
    2MOL1     C  684   5.046   1.718   2.349
    2MOL1    Cl  685   4.915   1.752   2.235
    2MOL1    Cl  686   5.176   1.627   2.270
    2MOL1     H  687   5.006   1.658   2.431
    2MOL1    Cl  688   3.300   1.405   2.731
    2MOL1     C  689   3.155   1.377   2.635
    2MOL1    Cl  690   3.049   1.519   2.639
    2MOL1    Cl  691   3.197   1.336   2.468
    2MOL1     H  692   3.100   1.292   2.678
    2MOL1    Cl  693   3.619   0.527   2.741
    2MOL1     C  694   3.451   0.575   2.708
    2MOL1    Cl  695   3.446   0.714   2.599
    2MOL1    Cl  696   3.360   0.439   2.640
    2MOL1     H  697   3.404   0.604   2.803
    2MOL1    Cl  698   2.770   4.654   1.201
    2MOL1     C  699   2.612   4.704   1.139
    2MOL1    Cl  700   2.611   4.701   0.962
    2MOL1    Cl  701   2.484   4.599   1.204
    2MOL1     H  702   2.593   4.806   1.172
    2MOL1    Cl  703   0.647   3.472   4.002
    2MOL1     C  704   0.792   3.476   4.103
    2MOL1    Cl  705   0.762   3.397   4.259
    2MOL1    Cl  706   0.928   3.400   4.020
    2MOL1     H  707   0.817   3.580   4.122
    2MOL1    Cl  708   2.803   0.279   1.656
    2MOL1     C  709   2.680   0.162   1.707
    2MOL1    Cl  710   2.755   0.025   1.791
    2MOL1    Cl  711   2.559   0.240   1.811
    2MOL1     H  712   2.630   0.124   1.618
    2MOL1    Cl  713   2.971   4.852   3.617
    2MOL1     C  714   2.838   4.937   3.697
    2MOL1    Cl  715   2.816   5.098   3.628
    2MOL1    Cl  716   2.688   4.843   3.686
    2MOL1     H  717   2.863   4.948   3.803
    2MOL1    Cl  718   3.936   3.528   4.813
    2MOL1     C  719   3.916   3.703   4.795
    2MOL1    Cl  720   4.046   3.769   4.694
    2MOL1    Cl  721   3.758   3.740   4.725
    2MOL1     H  722   3.922   3.749   4.893
    2MOL1    Cl  723   2.055   0.200   4.652
    2MOL1     C  724   1.987   0.247   4.808
    2MOL1    Cl  725   2.114   0.255   4.932
    2MOL1    Cl  726   1.904   0.403   4.795
    2MOL1     H  727   1.915   0.172   4.839
    2MOL1    Cl  728   3.631   3.958   2.017
    2MOL1     C  729   3.641   3.817   1.911
    2MOL1    Cl  730   3.499   3.807   1.805
    2MOL1    Cl  731   3.790   3.823   1.814
    2MOL1     H  732   3.644   3.727   1.973
    2MOL1    Cl  733   0.625   2.769   2.118
    2MOL1     C  734   0.451   2.738   2.130
    2MOL1    Cl  735   0.421   2.580   2.204
    2MOL1    Cl  736   0.371   2.866   2.222
    2MOL1     H  737   0.410   2.737   2.029
    2MOL1    Cl  738   2.246   1.014   3.709
    2MOL1     C  739   2.095   0.937   3.658
    2MOL1    Cl  740   2.058   0.976   3.489
    2MOL1    Cl  741   2.104   0.761   3.681
    2MOL1     H  742   2.014   0.975   3.721
    2MOL1    Cl  743   1.771   4.462   3.753
    2MOL1     C  744   1.672   4.600   3.704
    2MOL1    Cl  745   1.771   4.724   3.625
    2MOL1    Cl  746   1.541   4.548   3.597
    2MOL1     H  747   1.627   4.644   3.794
    2MOL1    Cl  748   1.156   3.389   3.930
    2MOL1     C  749   1.202   3.298   3.785
    2MOL1    Cl  750   1.356   3.215   3.810
    2MOL1    Cl  751   1.075   3.182   3.741
    2MOL1     H  752   1.214   3.369   3.702
    2MOL1    Cl  753   5.241   2.296   2.555
    2MOL1     C  754   5.084   2.366   2.511
    2MOL1    Cl  755   5.039   2.494   2.624
    2MOL1    Cl  756   5.088   2.427   2.345
    2MOL1     H  757   5.009   2.287   2.516
    2MOL1    Cl  758   2.530   1.644   1.831
    2MOL1     C  759   2.592   1.496   1.907
    2MOL1    Cl  760   2.623   1.372   1.784
    2MOL1    Cl  761   2.739   1.531   1.999
    2MOL1     H  762   2.516   1.458   1.976
    2MOL1    Cl  763   1.336   0.115   3.731
    2MOL1     C  764   1.497   0.164   3.784
    2MOL1    Cl  765   1.496   0.206   3.956
    2MOL1    Cl  766   1.615   0.035   3.752
    2MOL1     H  767   1.527   0.252   3.727
    2MOL1    Cl  768   4.644   3.832   2.628
    2MOL1     C  769   4.573   3.822   2.789
    2MOL1    Cl  770   4.623   3.961   2.888
    2MOL1    Cl  771   4.396   3.813   2.779
    2MOL1     H  772   4.609   3.731   2.837
    2MOL1    Cl  773   4.594   1.260   3.970
    2MOL1     C  774   4.651   1.340   4.117
    2MOL1    Cl  775   4.570   1.273   4.260
    2MOL1    Cl  776   4.827   1.323   4.133
    2MOL1     H  777   4.627   1.446   4.110
    2MOL1    Cl  778   3.856   2.123   2.639
    2MOL1     C  779   4.026   2.076   2.656
    2MOL1    Cl  780   4.092   2.023   2.500
    2MOL1    Cl  781   4.121   2.210   2.721
    2MOL1     H  782   4.032   1.992   2.726
    2MOL1    Cl  783   5.358   4.019   3.460
    2MOL1     C  784   5.208   3.995   3.370
    2MOL1    Cl  785   5.087   4.116   3.417
    2MOL1    Cl  786   5.238   4.002   3.195
    2MOL1     H  787   5.168   3.896   3.394
    2MOL1    Cl  788   0.576   1.987   0.615
    2MOL1     C  789   0.694   1.857   0.587
    2MOL1    Cl  790   0.628   1.735   0.477
    2MOL1    Cl  791   0.845   1.924   0.523
    2MOL1     H  792   0.715   1.809   0.683
    2MOL1    Cl  793   3.846   1.611   3.657
    2MOL1     C  794   3.866   1.785   3.677
    2MOL1    Cl  795   3.746   1.849   3.792
    2MOL1    Cl  796   4.030   1.824   3.731
    2MOL1     H  797   3.849   1.833   3.580
    2MOL1    Cl  798   1.514   2.389   2.986
    2MOL1     C  799   1.664   2.483   2.975
    2MOL1    Cl  800   1.755   2.472   3.126
    2MOL1    Cl  801   1.762   2.427   2.839
    2MOL1     H  802   1.638   2.587   2.958
    2MOL1    Cl  803   0.701   3.131   0.202
    2MOL1     C  804   0.542   3.074   0.148
    2MOL1    Cl  805   0.444   3.209   0.088
    2MOL1    Cl  806   0.560   2.950   0.023
    2MOL1     H  807   0.491   3.030   0.233
    2MOL1    Cl  808   1.070   4.836   5.075
    2MOL1     C  809   1.050   4.670   5.016
    2MOL1    Cl  810   1.132   4.556   5.123
    2MOL1    Cl  811   0.878   4.630   5.002
    2MOL1     H  812   1.095   4.663   4.917
    2MOL1    Cl  813   4.941   4.674   0.066
    2MOL1     C  814   4.948   4.801   0.190
    2MOL1    Cl  815   4.960   4.961   0.115
    2MOL1    Cl  816   4.805   4.793   0.295
    2MOL1     H  817   5.037   4.785   0.251
    2MOL1    Cl  818   0.923   1.743   0.726
    2MOL1     C  819   1.046   1.617   0.709
    2MOL1    Cl  820   0.974   1.466   0.651
    2MOL1    Cl  821   1.175   1.670   0.599
    2MOL1     H  822   1.091   1.598   0.807
    2MOL1    Cl  823   2.809   0.231   3.621
    2MOL1     C  824   2.697   0.365   3.594
    2MOL1    Cl  825   2.751   0.465   3.457
    2MOL1    Cl  826   2.533   0.305   3.567
    2MOL1     H  827   2.696   0.428   3.684
    2MOL1    Cl  828   0.779   1.681   3.204
    2MOL1     C  829   0.746   1.550   3.319
    2MOL1    Cl  830   0.791   1.597   3.483
    2MOL1    Cl  831   0.575   1.503   3.312
    2MOL1     H  832   0.806   1.463   3.290
    2MOL1    Cl  833   0.511   4.561   4.929
    2MOL1     C  834   0.595   4.462   5.050
    2MOL1    Cl  835   0.593   4.542   5.208
    2MOL1    Cl  836   0.521   4.301   5.061
    2MOL1     H  837   0.699   4.450   5.019
    2MOL1    Cl  838   4.418   1.586   2.262
    2MOL1     C  839   4.535   1.455   2.239
    2MOL1    Cl  840   4.462   1.321   2.149
    2MOL1    Cl  841   4.680   1.515   2.156
    2MOL1     H  842   4.564   1.418   2.338
    2MOL1    Cl  843   1.575   0.607   1.784
    2MOL1     C  844   1.727   0.693   1.814
    2MOL1    Cl  845   1.702   0.823   1.933
    2MOL1    Cl  846   1.852   0.581   1.869
    2MOL1     H  847   1.760   0.739   1.720
    2MOL1    Cl  848   2.373   1.928   3.724
    2MOL1     C  849   2.322   1.838   3.580
    2MOL1    Cl  850   2.274   1.674   3.623
    2MOL1    Cl  851   2.190   1.922   3.496
    2MOL1     H  852   2.408   1.833   3.511
    2MOL1    Cl  853   3.087   3.562   3.830
    2MOL1     C  854   2.915   3.575   3.789
    2MOL1    Cl  855   2.822   3.446   3.865
    2MOL1    Cl  856   2.852   3.734   3.836
    2MOL1     H  857   2.906   3.565   3.680
    2MOL1    Cl  858   1.197   1.284   3.739
    2MOL1     C  859   1.114   1.439   3.723
    2MOL1    Cl  860   0.955   1.434   3.801
    2MOL1    Cl  861   1.212   1.570   3.791
    2MOL1     H  862   1.099   1.460   3.616
    2MOL1    Cl  863   1.102   4.439   2.103
    2MOL1     C  864   1.022   4.457   1.945
    2MOL1    Cl  865   1.020   4.302   1.859
    2MOL1    Cl  866   0.857   4.519   1.966
    2MOL1     H  867   1.079   4.529   1.886
    2MOL1    Cl  868   3.996   4.277   2.765
    2MOL1     C  869   3.967   4.193   2.611
    2MOL1    Cl  870   4.118   4.124   2.549
    2MOL1    Cl  871   3.845   4.067   2.632
    2MOL1     H  872   3.930   4.266   2.539
    2MOL1    Cl  873   0.980   2.311   3.427
    2MOL1     C  874   1.080   2.330   3.572
    2MOL1    Cl  875   1.252   2.315   3.531
    2MOL1    Cl  876   1.049   2.486   3.649
    2MOL1     H  877   1.054   2.251   3.642
    2MOL1    Cl  878   2.077   4.030   1.706
    2MOL1     C  879   2.011   3.946   1.847
    2MOL1    Cl  880   1.843   3.896   1.817
    2MOL1    Cl  881   2.111   3.805   1.888
    2MOL1     H  882   2.012   4.014   1.932
    2MOL1    Cl  883   1.783   1.777   2.608
    2MOL1     C  884   1.940   1.695   2.615
    2MOL1    Cl  885   2.061   1.798   2.693
    2MOL1    Cl  886   1.926   1.540   2.700
    2MOL1     H  887   1.973   1.675   2.513
    2MOL1    Cl  888   4.102   0.087   3.920
    2MOL1     C  889   4.198   0.140   4.059
    2MOL1    Cl  890   4.177   0.313   4.087
    2MOL1    Cl  891   4.154   0.047   4.203
    2MOL1     H  892   4.304   0.121   4.037
    2MOL1    Cl  893   0.560   4.533   4.624
    2MOL1     C  894   0.394   4.587   4.594
    2MOL1    Cl  895   0.349   4.559   4.424
    2MOL1    Cl  896   0.281   4.505   4.702
    2MOL1     H  897   0.389   4.694   4.613
    2MOL1    Cl  898   1.462   1.687   0.741
    2MOL1     C  899   1.381   1.637   0.891
    2MOL1    Cl  900   1.331   1.468   0.881
    2MOL1    Cl  901   1.486   1.664   1.030
    2MOL1     H  902   1.291   1.699   0.903
    2MOL1    Cl  903   2.902   2.970   0.437
    2MOL1     C  904   2.975   2.814   0.396
    2MOL1    Cl  905   2.925   2.762   0.234
    2MOL1    Cl  906   3.152   2.823   0.406
    2MOL1     H  907   2.940   2.739   0.468
    2MOL1    Cl  908   3.993   1.370   3.601
    2MOL1     C  909   3.880   1.430   3.479
    2MOL1    Cl  910   3.931   1.589   3.419
    2MOL1    Cl  911   3.866   1.315   3.345
    2MOL1     H  912   3.782   1.441   3.525
    2MOL1    Cl  913   3.607   0.311   1.944
    2MOL1     C  914   3.765   0.353   2.012
    2MOL1    Cl  915   3.802   0.251   2.152
    2MOL1    Cl  916   3.891   0.337   1.889
    2MOL1     H  917   3.762   0.457   2.045
    2MOL1    Cl  918   4.523   2.668   1.474
    2MOL1     C  919   4.359   2.707   1.527
    2MOL1    Cl  920   4.311   2.603   1.662
    2MOL1    Cl  921   4.347   2.878   1.573
    2MOL1     H  922   4.291   2.689   1.444
    2MOL1    Cl  923   3.036   4.315   2.717
    2MOL1     C  924   3.203   4.257   2.714
    2MOL1    Cl  925   3.211   4.089   2.659
    2MOL1    Cl  926   3.304   4.361   2.612
    2MOL1     H  927   3.243   4.262   2.816
    2MOL1    Cl  928   4.537   1.273   2.780
    2MOL1     C  929   4.673   1.158   2.784
    2MOL1    Cl  930   4.783   1.196   2.917
    2MOL1    Cl  931   4.613   0.992   2.798
    2MOL1     H  932   4.728   1.167   2.690
    2MOL1    Cl  933   1.220   2.180   5.105
    2MOL1     C  934   1.303   2.131   4.956
    2MOL1    Cl  935   1.400   1.985   4.985
    2MOL1    Cl  936   1.187   2.104   4.826
    2MOL1     H  937   1.370   2.212   4.926
    2MOL1    Cl  938   2.683   4.549   4.699
    2MOL1     C  939   2.616   4.683   4.605
    2MOL1    Cl  940   2.686   4.837   4.658
    2MOL1    Cl  941   2.645   4.658   4.432
    2MOL1     H  942   2.508   4.687   4.621
    2MOL1    Cl  943   2.507   5.285   5.220
    2MOL1     C  944   2.561   5.156   5.111
    2MOL1    Cl  945   2.561   5.000   5.194
    2MOL1    Cl  946   2.458   5.150   4.967
    2MOL1     H  947   2.663   5.179   5.080
    2MOL1    Cl  948   2.405   1.370   3.071
    2MOL1     C  949   2.233   1.350   3.031
    2MOL1    Cl  950   2.179   1.475   2.919
    2MOL1    Cl  951   2.204   1.189   2.964
    2MOL1     H  952   2.175   1.359   3.124
    2MOL1    Cl  953   2.120   2.089   5.107
    2MOL1     C  954   2.165   2.244   5.180
    2MOL1    Cl  955   2.341   2.264   5.180
    2MOL1    Cl  956   2.086   2.378   5.094
    2MOL1     H  957   2.130   2.245   5.283
    2MOL1    Cl  958   2.510   1.728   1.607
    2MOL1     C  959   2.540   1.884   1.686
    2MOL1    Cl  960   2.698   1.948   1.638
    2MOL1    Cl  961   2.411   1.999   1.646
    2MOL1     H  962   2.540   1.868   1.794
    2MOL1    Cl  963   3.024   2.893   0.956
    2MOL1     C  964   2.926   2.748   0.930
    2MOL1    Cl  965   2.880   2.733   0.760
    2MOL1    Cl  966   3.013   2.603   0.984
    2MOL1     H  967   2.835   2.757   0.990
    2MOL1    Cl  968   3.168   1.883   1.909
    2MOL1     C  969   3.290   1.910   2.035
    2MOL1    Cl  970   3.349   1.756   2.097
    2MOL1    Cl  971   3.424   2.008   1.972
    2MOL1     H  972   3.243   1.965   2.117
    2MOL1    Cl  973   4.846   4.791   2.698
    2MOL1     C  974   4.922   4.652   2.776
    2MOL1    Cl  975   4.948   4.684   2.949
    2MOL1    Cl  976   4.824   4.506   2.755
    2MOL1     H  977   5.019   4.635   2.730
    2MOL1    Cl  978   3.613   0.449   4.815
    2MOL1     C  979   3.487   0.441   4.939
    2MOL1    Cl  980   3.559   0.433   5.101
    2MOL1    Cl  981   3.378   0.581   4.927
    2MOL1     H  982   3.428   0.350   4.923
    2MOL1    Cl  983   4.182   3.846   4.159
    2MOL1     C  984   4.191   4.023   4.158
    2MOL1    Cl  985   4.141   4.089   4.314
    2MOL1    Cl  986   4.355   4.077   4.116
    2MOL1     H  987   4.122   4.060   4.081
    2MOL1    Cl  988   2.251   1.593   2.642
    2MOL1     C  989   2.255   1.418   2.668
    2MOL1    Cl  990   2.390   1.374   2.775
    2MOL1    Cl  991   2.102   1.361   2.734
    2MOL1     H  992   2.271   1.370   2.571
    2MOL1    Cl  993   3.077   0.529   0.197
    2MOL1     C  994   2.902   0.518   0.174
    2MOL1    Cl  995   2.845   0.645   0.065
    2MOL1    Cl  996   2.858   0.358   0.112
    2MOL1     H  997   2.854   0.532   0.271
    2MOL1    Cl  998   2.583   2.874   2.205
    2MOL1     C  999   2.647   2.964   2.066
    2MOL1    Cl 1000   2.816   2.921   2.036
    2MOL1    Cl 1001   2.548   2.934   1.922
    2MOL1     H 1002   2.642   3.071   2.089
    2MOL1    Cl 1003   1.282   4.960   1.449
    2MOL1     C 1004   1.314   4.960   1.623
    2MOL1    Cl 1005   1.255   4.810   1.697
    2MOL1    Cl 1006   1.487   4.982   1.655
    2MOL1     H 1007   1.260   5.044   1.667
    2MOL1    Cl 1008   4.488   2.171   4.461
    2MOL1     C 1009   4.476   2.344   4.426
    2MOL1    Cl 1010   4.333   2.414   4.503
    2MOL1    Cl 1011   4.623   2.428   4.478
    2MOL1     H 1012   4.466   2.356   4.317
    2MOL1    Cl 1013   2.173   5.208   4.994
    2MOL1     C 1014   2.166   5.095   5.130
    2MOL1    Cl 1015   2.305   4.985   5.127
    2MOL1    Cl 1016   2.160   5.183   5.284
    2MOL1     H 1017   2.075   5.035   5.121
    2MOL1    Cl 1018   4.394   5.364   5.202
    2MOL1     C 1019   4.289   5.247   5.285
    2MOL1    Cl 1020   4.153   5.330   5.362
    2MOL1    Cl 1021   4.232   5.124   5.172
    2MOL1     H 1022   4.348   5.198   5.362
    2MOL1    Cl 1023   3.482   3.945   0.583
    2MOL1     C 1024   3.618   3.876   0.672
    2MOL1    Cl 1025   3.747   3.997   0.693
    2MOL1    Cl 1026   3.565   3.814   0.829
    2MOL1     H 1027   3.659   3.792   0.614
    2MOL1    Cl 1028   4.923   1.120   1.234
    2MOL1     C 1029   4.896   1.007   1.100
    2MOL1    Cl 1030   4.753   0.908   1.129
    2MOL1    Cl 1031   4.881   1.095   0.946
    2MOL1     H 1032   4.983   0.941   1.093
    2MOL1    Cl 1033   4.301   1.934   2.076
    2MOL1     C 1034   4.399   1.907   1.930
    2MOL1    Cl 1035   4.563   1.970   1.952
    2MOL1    Cl 1036   4.403   1.734   1.891
    2MOL1     H 1037   4.352   1.960   1.847
    2MOL1    Cl 1038   4.489   1.745   0.028
    2MOL1     C 1039   4.356   1.754   0.144
    2MOL1    Cl 1040   4.416   1.737   0.310
    2MOL1    Cl 1041   4.267   1.906   0.125
    2MOL1     H 1042   4.287   1.671   0.124
    2MOL1    Cl 1043   0.375   0.286   4.495
    2MOL1     C 1044   0.360   0.111   4.473
    2MOL1    Cl 1045   0.274   0.074   4.322
    2MOL1    Cl 1046   0.520   0.034   4.473
    2MOL1     H 1047   0.302   0.070   4.556
    2MOL1    Cl 1048   4.155   3.322   4.683
    2MOL1     C 1049   4.240   3.278   4.832
    2MOL1    Cl 1050   4.134   3.302   4.973
    2MOL1    Cl 1051   4.297   3.111   4.825
    2MOL1     H 1052   4.326   3.344   4.843
    2MOL1    Cl 1053   1.372   0.611   3.747
    2MOL1     C 1054   1.536   0.558   3.787
    2MOL1    Cl 1055   1.626   0.689   3.867
    2MOL1    Cl 1056   1.532   0.414   3.890
    2MOL1     H 1057   1.588   0.533   3.695
    2MOL1    Cl 1058   3.652   0.445   1.408
    2MOL1     C 1059   3.798   0.377   1.482
    2MOL1    Cl 1060   3.925   0.355   1.361
    2MOL1    Cl 1061   3.855   0.481   1.614
    2MOL1     H 1062   3.773   0.279   1.524
    2MOL1    Cl 1063   1.400   0.551   4.350
    2MOL1     C 1064   1.439   0.437   4.220
    2MOL1    Cl 1065   1.511   0.289   4.285
    2MOL1    Cl 1066   1.295   0.399   4.125
    2MOL1     H 1067   1.512   0.485   4.154
    2MOL1    Cl 1068   3.357   5.135   3.700
    2MOL1     C 1069   3.395   5.303   3.659
    2MOL1    Cl 1070   3.525   5.364   3.764
    2MOL1    Cl 1071   3.442   5.317   3.489
    2MOL1     H 1072   3.306   5.364   3.676
    2MOL1    Cl 1073   2.440   1.011   4.297
    2MOL1     C 1074   2.577   1.101   4.230
    2MOL1    Cl 1075   2.526   1.198   4.091
    2MOL1    Cl 1076   2.652   1.203   4.354
    2MOL1     H 1077   2.652   1.029   4.196
    2MOL1    Cl 1078   3.698   0.690   0.303
    2MOL1     C 1079   3.561   0.762   0.389
    2MOL1    Cl 1080   3.424   0.786   0.280
    2MOL1    Cl 1081   3.513   0.660   0.526
    2MOL1     H 1082   3.592   0.859   0.428
    2MOL1    Cl 1083   2.040   2.376   2.785
    2MOL1     C 1084   1.920   2.247   2.759
    2MOL1    Cl 1085   1.788   2.305   2.656
    2MOL1    Cl 1086   1.997   2.104   2.688
    2MOL1     H 1087   1.879   2.219   2.856
    2MOL1    Cl 1088   5.147   3.913   4.752
    2MOL1     C 1089   5.268   4.041   4.733
    2MOL1    Cl 1090   5.398   3.989   4.624
    2MOL1    Cl 1091   5.192   4.189   4.672
    2MOL1     H 1092   5.311   4.062   4.831
    2MOL1    Cl 1093   1.106   1.065   2.614
    2MOL1     C 1094   1.133   0.989   2.772
    2MOL1    Cl 1095   0.997   1.021   2.880
    2MOL1    Cl 1096   1.158   0.815   2.753
    2MOL1     H 1097   1.223   1.032   2.816
    2MOL1    Cl 1098   4.891   1.158   3.604
    2MOL1     C 1099   4.948   1.012   3.687
    2MOL1    Cl 1100   4.934   0.871   3.581
    2MOL1    Cl 1101   5.116   1.032   3.741
    2MOL1     H 1102   4.886   0.995   3.775
    2MOL1    Cl 1103   5.137   4.868   0.669
    2MOL1     C 1104   5.308   4.826   0.682
    2MOL1    Cl 1105   5.338   4.664   0.615
    2MOL1    Cl 1106   5.409   4.947   0.600
    2MOL1     H 1107   5.335   4.825   0.788
    2MOL1    Cl 1108   0.817   3.331   0.320
    2MOL1     C 1109   0.969   3.406   0.369
    2MOL1    Cl 1110   0.942   3.523   0.500
    2MOL1    Cl 1111   1.087   3.283   0.419
    2MOL1     H 1112   1.010   3.460   0.283
    2MOL1    Cl 1113   1.287   2.584   4.793
    2MOL1     C 1114   1.448   2.511   4.796
    2MOL1    Cl 1115   1.567   2.619   4.720
    2MOL1    Cl 1116   1.496   2.473   4.962
    2MOL1     H 1117   1.445   2.418   4.739
    2MOL1    Cl 1118   1.928   4.034   0.023
    2MOL1     C 1119   1.830   4.122   0.141
    2MOL1    Cl 1120   1.933   4.190   0.268
    2MOL1    Cl 1121   1.736   4.249   0.061
    2MOL1     H 1122   1.760   4.051   0.187
    2MOL1    Cl 1123   0.989   3.411   0.727
    2MOL1     C 1124   0.953   3.238   0.742
    2MOL1    Cl 1125   1.060   3.163   0.862
    2MOL1    Cl 1126   0.783   3.213   0.785
    2MOL1     H 1127   0.972   3.191   0.645
    2MOL1    Cl 1128   4.398   1.804   2.592
    2MOL1     C 1129   4.487   1.658   2.638
    2MOL1    Cl 1130   4.491   1.542   2.504
    2MOL1    Cl 1131   4.651   1.699   2.691
    2MOL1     H 1132   4.435   1.612   2.722
    2MOL1    Cl 1133   2.339   0.552   4.547
    2MOL1     C 1134   2.395   0.648   4.410
    2MOL1    Cl 1135   2.502   0.552   4.306
    2MOL1    Cl 1136   2.257   0.710   4.317
    2MOL1     H 1137   2.451   0.733   4.448
    2MOL1    Cl 1138   0.723   0.374   2.630
    2MOL1     C 1139   0.637   0.220   2.640
    2MOL1    Cl 1140   0.462   0.245   2.620
    2MOL1    Cl 1141   0.697   0.106   2.518
    2MOL1     H 1142   0.654   0.177   2.739
    2MOL1    Cl 1143   1.949   4.650   4.479
    2MOL1     C 1144   2.090   4.546   4.499
    2MOL1    Cl 1145   2.206   4.618   4.612
    2MOL1    Cl 1146   2.041   4.385   4.555
    2MOL1     H 1147   2.139   4.535   4.402
    2MOL1    Cl 1148   4.420   4.786   1.636
    2MOL1     C 1149   4.488   4.645   1.553
    2MOL1    Cl 1150   4.565   4.694   1.401
    2MOL1    Cl 1151   4.603   4.561   1.657
    2MOL1     H 1152   4.406   4.577   1.529
    2MOL1    Cl 1153   1.231   2.469   0.632
    2MOL1     C 1154   1.330   2.614   0.611
    2MOL1    Cl 1155   1.490   2.572   0.549
    2MOL1    Cl 1156   1.249   2.729   0.502
    2MOL1     H 1157   1.342   2.662   0.709
    2MOL1    Cl 1158   1.469   0.834   4.306
    2MOL1     C 1159   1.569   0.980   4.306
    2MOL1    Cl 1160   1.491   1.109   4.400
    2MOL1    Cl 1161   1.730   0.945   4.371
    2MOL1     H 1162   1.580   1.014   4.203
    2MOL1    Cl 1163   2.270   1.620   0.986
    2MOL1     C 1164   2.127   1.555   0.904
    2MOL1    Cl 1165   2.148   1.382   0.871
    2MOL1    Cl 1166   1.981   1.583   1.001
    2MOL1     H 1167   2.115   1.607   0.808
    2MOL1    Cl 1168   1.528   4.666   1.308
    2MOL1     C 1169   1.535   4.648   1.484
    2MOL1    Cl 1170   1.634   4.777   1.555
    2MOL1    Cl 1171   1.372   4.650   1.553
    2MOL1     H 1172   1.582   4.552   1.507
    2MOL1    Cl 1173   5.204   2.901   2.671
    2MOL1     C 1174   5.307   2.756   2.670
    2MOL1    Cl 1175   5.217   2.615   2.727
    2MOL1    Cl 1176   5.371   2.727   2.508
    2MOL1     H 1177   5.391   2.773   2.738
    2MOL1    Cl 1178   1.033   2.395   0.248
    2MOL1     C 1179   1.174   2.499   0.224
    2MOL1    Cl 1180   1.322   2.402   0.208
    2MOL1    Cl 1181   1.152   2.602   0.081
    2MOL1     H 1182   1.185   2.563   0.312
    2MOL1    Cl 1183   3.873   4.884   3.417
    2MOL1     C 1184   3.894   4.710   3.442
    2MOL1    Cl 1185   3.974   4.678   3.597
    2MOL1    Cl 1186   3.738   4.627   3.434
    2MOL1     H 1187   3.957   4.671   3.362
    2MOL1    Cl 1188   2.383   0.950   2.557
    2MOL1     C 1189   2.393   1.064   2.421
    2MOL1    Cl 1190   2.512   1.191   2.454
    2MOL1    Cl 1191   2.434   0.978   2.271
    2MOL1     H 1192   2.295   1.111   2.408
    2MOL1    Cl 1193   1.064   4.508   4.549
    2MOL1     C 1194   0.924   4.614   4.521
    2MOL1    Cl 1195   0.837   4.564   4.375
    2MOL1    Cl 1196   0.816   4.612   4.662
    2MOL1     H 1197   0.960   4.716   4.507
    2MOL1    Cl 1198   2.142   4.905   4.040
    2MOL1     C 1199   2.289   4.880   3.945
    2MOL1    Cl 1200   2.412   4.796   4.041
    2MOL1    Cl 1201   2.253   4.789   3.797
    2MOL1     H 1202   2.329   4.978   3.916
    2MOL1    Cl 1203   1.334   0.268   1.386
    2MOL1     C 1204   1.423   0.380   1.282
    2MOL1    Cl 1205   1.326   0.523   1.247
    2MOL1    Cl 1206   1.577   0.426   1.358
    2MOL1     H 1207   1.446   0.329   1.188
    2MOL1    Cl 1208   2.901   3.125   1.125
    2MOL1     C 1209   2.737   3.183   1.158
    2MOL1    Cl 1210   2.619   3.054   1.134
    2MOL1    Cl 1211   2.726   3.249   1.322
    2MOL1     H 1212   2.715   3.264   1.087
    2MOL1    Cl 1213   1.252   3.802   1.035
    2MOL1     C 1214   1.256   3.650   1.126
    2MOL1    Cl 1215   1.160   3.663   1.274
    2MOL1    Cl 1216   1.196   3.516   1.026
    2MOL1     H 1217   1.359   3.629   1.153
    2MOL1    Cl 1218   4.005   2.586   2.147
    2MOL1     C 1219   4.020   2.420   2.085
    2MOL1    Cl 1220   3.882   2.379   1.982
    2MOL1    Cl 1221   4.172   2.401   1.996
    2MOL1     H 1222   4.021   2.352   2.170
    2MOL1    Cl 1223   3.013   2.326   1.240
    2MOL1     C 1224   2.973   2.497   1.256
    2MOL1    Cl 1225   2.873   2.525   1.399
    2MOL1    Cl 1226   3.121   2.595   1.264
    2MOL1     H 1227   2.916   2.528   1.168
    2MOL1    Cl 1228   2.818   3.560   4.333
    2MOL1     C 1229   2.992   3.535   4.315
    2MOL1    Cl 1230   3.037   3.369   4.358
    2MOL1    Cl 1231   3.043   3.573   4.149
    2MOL1     H 1232   3.044   3.604   4.383
    2MOL1    Cl 1233   1.675   2.578   4.550
    2MOL1     C 1234   1.832   2.656   4.524
    2MOL1    Cl 1235   1.929   2.562   4.409
    2MOL1    Cl 1236   1.811   2.822   4.467
    2MOL1     H 1237   1.885   2.659   4.620
    2MOL1    Cl 1238   2.888   2.510   4.183
    2MOL1     C 1239   2.737   2.451   4.112
    2MOL1    Cl 1240   2.739   2.274   4.100
    2MOL1    Cl 1241   2.598   2.505   4.208
    2MOL1     H 1242   2.728   2.492   4.012
    2MOL1    Cl 1243   4.209   4.779   3.903
    2MOL1     C 1244   4.037   4.788   3.943
    2MOL1    Cl 1245   3.979   4.631   4.001
    2MOL1    Cl 1246   4.007   4.914   4.064
    2MOL1     H 1247   3.982   4.814   3.852
    2MOL1    Cl 1248   0.558   3.281   0.609
    2MOL1     C 1249   0.397   3.244   0.544
    2MOL1    Cl 1250   0.329   3.384   0.460
    2MOL1    Cl 1251   0.406   3.104   0.435
    2MOL1     H 1252   0.331   3.218   0.627
    2MOL1    Cl 1253   1.816   2.208   5.175
    2MOL1     C 1254   1.692   2.302   5.089
    2MOL1    Cl 1255   1.553   2.199   5.051
    2MOL1    Cl 1256   1.643   2.442   5.184
    2MOL1     H 1257   1.735   2.337   4.995
    2MOL1    Cl 1258   0.425   2.066   3.021
    2MOL1     C 1259   0.543   1.968   3.109
    2MOL1    Cl 1260   0.633   2.068   3.224
    2MOL1    Cl 1261   0.463   1.834   3.192
    2MOL1     H 1262   0.614   1.927   3.037
    2MOL1    Cl 1263   3.933   0.115   4.980
    2MOL1     C 1264   3.860   0.275   4.967
    2MOL1    Cl 1265   3.803   0.332   5.125
    2MOL1    Cl 1266   3.975   0.390   4.897
    2MOL1     H 1267   3.774   0.268   4.900
    2MOL1    Cl 1268   2.036   2.924   1.993
    2MOL1     C 1269   2.037   2.866   2.161
    2MOL1    Cl 1270   1.882   2.789   2.201
    2MOL1    Cl 1271   2.171   2.755   2.188
    2MOL1     H 1272   2.050   2.953   2.227
    2MOL1    Cl 1273   4.375   0.630   4.410
    2MOL1     C 1274   4.383   0.706   4.250
    2MOL1    Cl 1275   4.303   0.604   4.129
    2MOL1    Cl 1276   4.311   0.867   4.254
    2MOL1     H 1277   4.488   0.716   4.222
    2MOL1    Cl 1278   0.411   3.767   1.468
    2MOL1     C 1279   0.486   3.864   1.596
    2MOL1    Cl 1280   0.650   3.806   1.630
    2MOL1    Cl 1281   0.489   4.036   1.550
    2MOL1     H 1282   0.426   3.854   1.687
    2MOL1    Cl 1283   0.547   1.796   0.897
    2MOL1     C 1284   0.479   1.639   0.942
    2MOL1    Cl 1285   0.605   1.514   0.943
    2MOL1    Cl 1286   0.400   1.649   1.100
    2MOL1     H 1287   0.404   1.612   0.868
    2MOL1    Cl 1288   4.098   2.635   2.930
    2MOL1     C 1289   3.926   2.604   2.902
    2MOL1    Cl 1290   3.890   2.602   2.729
    2MOL1    Cl 1291   3.877   2.451   2.977
    2MOL1     H 1292   3.868   2.684   2.948
    2MOL1    Cl 1293   0.559   5.040   2.803
    2MOL1     C 1294   0.521   4.878   2.863
    2MOL1    Cl 1295   0.346   4.851   2.868
    2MOL1    Cl 1296   0.600   4.754   2.764
    2MOL1     H 1297   0.560   4.869   2.965
    2MOL1    Cl 1298   0.299   4.531   2.410
    2MOL1     C 1299   0.348   4.652   2.529
    2MOL1    Cl 1300   0.261   4.805   2.501
    2MOL1    Cl 1301   0.320   4.594   2.694
    2MOL1     H 1302   0.455   4.671   2.517
    2MOL1    Cl 1303   0.919   2.654   2.319
    2MOL1     C 1304   0.784   2.566   2.393
    2MOL1    Cl 1305   0.670   2.678   2.469
    2MOL1    Cl 1306   0.701   2.466   2.272
    2MOL1     H 1307   0.824   2.500   2.470
    2MOL1    Cl 1308   1.012   4.108   2.775
    2MOL1     C 1309   0.879   4.060   2.881
    2MOL1    Cl 1310   0.814   3.902   2.832
    2MOL1    Cl 1311   0.932   4.054   3.050
    2MOL1     H 1312   0.799   4.134   2.873
    2MOL1    Cl 1313   2.522   0.631   4.004
    2MOL1     C 1314   2.607   0.776   4.061
    2MOL1    Cl 1315   2.782   0.757   4.041
    2MOL1    Cl 1316   2.549   0.919   3.974
    2MOL1     H 1317   2.585   0.789   4.167
    2MOL1    Cl 1318   2.120   1.919   2.189
    2MOL1     C 1319   1.955   1.857   2.173
    2MOL1    Cl 1320   1.894   1.804   2.331
    2MOL1    Cl 1321   1.849   1.980   2.103
    2MOL1     H 1322   1.957   1.771   2.106
    2MOL1    Cl 1323   1.205   3.141   2.234
    2MOL1     C 1324   1.202   3.247   2.377
    2MOL1    Cl 1325   1.319   3.379   2.360
    2MOL1    Cl 1326   1.039   3.311   2.403
    2MOL1     H 1327   1.230   3.187   2.464
    2MOL1    Cl 1328   4.941   3.911   3.248
    2MOL1     C 1329   4.988   3.760   3.167
    2MOL1    Cl 1330   4.888   3.732   3.024
    2MOL1    Cl 1331   5.160   3.764   3.123
    2MOL1     H 1332   4.973   3.677   3.237
    2MOL1    Cl 1333   4.563   1.196   4.614
    2MOL1     C 1334   4.561   1.025   4.569
    2MOL1    Cl 1335   4.438   0.994   4.445
    2MOL1    Cl 1336   4.721   0.973   4.512
    2MOL1     H 1337   4.536   0.966   4.657
    2MOL1    Cl 1338   0.554   3.023   4.672
    2MOL1     C 1339   0.406   3.119   4.657
    2MOL1    Cl 1340   0.383   3.172   4.489
    2MOL1    Cl 1341   0.266   3.027   4.714
    2MOL1     H 1342   0.417   3.208   4.719
    2MOL1    Cl 1343   1.141   1.853   0.228
    2MOL1     C 1344   1.274   1.867   0.343
    2MOL1    Cl 1345   1.430   1.870   0.259
    2MOL1    Cl 1346   1.255   2.012   0.443
    2MOL1     H 1347   1.272   1.780   0.409
    2MOL1    Cl 1348   2.022   2.244   1.817
    2MOL1     C 1349   2.182   2.170   1.810
    2MOL1    Cl 1350   2.175   2.001   1.863
    2MOL1    Cl 1351   2.249   2.181   1.646
    2MOL1     H 1352   2.248   2.224   1.878
    2MOL1    Cl 1353   2.709   4.475   3.739
    2MOL1     C 1354   2.744   4.489   3.912
    2MOL1    Cl 1355   2.861   4.365   3.962
    2MOL1    Cl 1356   2.806   4.651   3.949
    2MOL1     H 1357   2.651   4.474   3.967
    2MOL1    Cl 1358   3.318   0.483   1.723
    2MOL1     C 1359   3.434   0.595   1.798
    2MOL1    Cl 1360   3.597   0.569   1.733
    2MOL1    Cl 1361   3.383   0.763   1.773
    2MOL1     H 1362   3.436   0.575   1.905
    2MOL1    Cl 1363   2.649   4.963   4.847
    2MOL1     C 1364   2.721   4.838   4.949
    2MOL1    Cl 1365   2.873   4.895   5.021
    2MOL1    Cl 1366   2.608   4.788   5.076
    2MOL1     H 1367   2.743   4.751   4.887
    2MOL1    Cl 1368   2.971   2.079   3.471
    2MOL1     C 1369   2.927   1.914   3.517
    2MOL1    Cl 1370   2.844   1.912   3.674
    2MOL1    Cl 1371   2.825   1.839   3.392
    2MOL1     H 1372   3.019   1.855   3.526
    2MOL1    Cl 1373   0.944   1.859   4.985
    2MOL1     C 1374   1.112   1.853   5.041
    2MOL1    Cl 1375   1.130   1.733   5.171
    2MOL1    Cl 1376   1.221   1.816   4.907
    2MOL1     H 1377   1.138   1.951   5.081
    2MOL1    Cl 1378   3.391   1.016   3.155
    2MOL1     C 1379   3.385   1.193   3.160
    2MOL1    Cl 1380   3.525   1.263   3.077
    2MOL1    Cl 1381   3.234   1.252   3.088
    2MOL1     H 1382   3.388   1.224   3.265
    2MOL1    Cl 1383   3.828   0.838   1.734
    2MOL1     C 1384   3.986   0.826   1.657
    2MOL1    Cl 1385   4.110   0.905   1.756
    2MOL1    Cl 1386   4.029   0.656   1.628
    2MOL1     H 1387   3.982   0.876   1.560
    2MOL1    Cl 1388   0.739   0.317   0.726
    2MOL1     C 1389   0.701   0.479   0.667
    2MOL1    Cl 1390   0.820   0.531   0.547
    2MOL1    Cl 1391   0.538   0.484   0.598
    2MOL1     H 1392   0.704   0.549   0.751
    2MOL1    Cl 1393   0.944   3.889   3.667
    2MOL1     C 1394   1.086   3.843   3.763
    2MOL1    Cl 1395   1.235   3.873   3.673
    2MOL1    Cl 1396   1.087   3.931   3.917
    2MOL1     H 1397   1.079   3.736   3.784
    2MOL1    Cl 1398   5.553   4.238   4.374
    2MOL1     C 1399   5.403   4.262   4.464
    2MOL1    Cl 1400   5.343   4.428   4.443
    2MOL1    Cl 1401   5.280   4.145   4.412
    2MOL1     H 1402   5.423   4.246   4.570
    2MOL1    Cl 1403   4.039   1.739   0.818
    2MOL1     C 1404   3.984   1.821   0.965
    2MOL1    Cl 1405   4.122   1.883   1.058
    2MOL1    Cl 1406   3.872   1.953   0.925
    2MOL1     H 1407   3.931   1.749   1.027
    2MOL1    Cl 1408   3.516   4.579   3.868
    2MOL1     C 1409   3.651   4.630   3.764
    2MOL1    Cl 1410   3.768   4.725   3.857
    2MOL1    Cl 1411   3.729   4.490   3.690
    2MOL1     H 1412   3.610   4.693   3.685
    2MOL1    Cl 1413   1.770   4.712   3.231
    2MOL1     C 1414   1.936   4.771   3.249
    2MOL1    Cl 1415   1.944   4.901   3.369
    2MOL1    Cl 1416   2.045   4.639   3.294
    2MOL1     H 1417   1.969   4.812   3.153
    2MOL1    Cl 1418   2.666   0.612   2.591
    2MOL1     C 1419   2.836   0.585   2.630
    2MOL1    Cl 1420   2.851   0.506   2.788
    2MOL1    Cl 1421   2.915   0.487   2.505
    2MOL1     H 1422   2.886   0.681   2.635
    2MOL1    Cl 1423   3.621   2.229   4.406
    2MOL1     C 1424   3.567   2.175   4.246
    2MOL1    Cl 1425   3.408   2.096   4.258
    2MOL1    Cl 1426   3.561   2.311   4.133
    2MOL1     H 1427   3.638   2.101   4.209
    2MOL1    Cl 1428   3.108   2.512   0.532
    2MOL1     C 1429   3.110   2.381   0.651
    2MOL1    Cl 1430   3.185   2.436   0.803
    2MOL1    Cl 1431   2.946   2.321   0.681
    2MOL1     H 1432   3.170   2.299   0.611
    2MOL1    Cl 1433   1.693   0.490   4.913
    2MOL1     C 1434   1.808   0.624   4.914
    2MOL1    Cl 1435   1.745   0.760   5.008
    2MOL1    Cl 1436   1.965   0.571   4.978
    2MOL1     H 1437   1.823   0.657   4.811
    2MOL1    Cl 1438   0.894   1.758   1.635
    2MOL1     C 1439   1.015   1.662   1.721
    2MOL1    Cl 1440   0.992   1.490   1.689
    2MOL1    Cl 1441   1.179   1.713   1.675
    2MOL1     H 1442   1.003   1.679   1.828
    2MOL1    Cl 1443   5.351   3.307   0.407
    2MOL1     C 1444   5.216   3.225   0.327
    2MOL1    Cl 1445   5.217   3.259   0.153
    2MOL1    Cl 1446   5.223   3.051   0.357
    2MOL1     H 1447   5.123   3.264   0.370
    2MOL1    Cl 1448   0.745   1.671   3.951
    2MOL1     C 1449   0.893   1.729   4.029
    2MOL1    Cl 1450   0.854   1.835   4.165
    2MOL1    Cl 1451   0.992   1.592   4.084
    2MOL1     H 1452   0.951   1.786   3.956
    2MOL1    Cl 1453   1.269   0.731   0.349
    2MOL1     C 1454   1.192   0.842   0.465
    2MOL1    Cl 1455   1.149   0.757   0.614
    2MOL1    Cl 1456   1.299   0.979   0.500
    2MOL1     H 1457   1.101   0.881   0.419
    2MOL1    Cl 1458   3.623   5.078   4.925
    2MOL1     C 1459   3.732   4.941   4.950
    2MOL1    Cl 1460   3.683   4.847   5.092
    2MOL1    Cl 1461   3.736   4.838   4.805
    2MOL1     H 1462   3.833   4.979   4.967
    2MOL1    Cl 1463   3.524   3.994   3.640
    2MOL1     C 1464   3.358   3.947   3.679
    2MOL1    Cl 1465   3.357   3.800   3.779
    2MOL1    Cl 1466   3.274   4.079   3.762
    2MOL1     H 1467   3.305   3.925   3.586
    2MOL1    Cl 1468   3.197   4.244   3.410
    2MOL1     C 1469   3.081   4.319   3.300
    2MOL1    Cl 1470   2.916   4.265   3.338
    2MOL1    Cl 1471   3.092   4.495   3.307
    2MOL1     H 1472   3.105   4.287   3.198
    2MOL1    Cl 1473   3.593   1.386   2.827
    2MOL1     C 1474   3.751   1.377   2.748
    2MOL1    Cl 1475   3.733   1.337   2.576
    2MOL1    Cl 1476   3.839   1.529   2.767
    2MOL1     H 1477   3.809   1.298   2.796
    2MOL1    Cl 1478   4.699   2.132   5.314
    2MOL1     C 1479   4.797   2.108   5.168
    2MOL1    Cl 1480   4.955   2.039   5.209
    2MOL1    Cl 1481   4.712   2.004   5.052
    2MOL1     H 1482   4.813   2.206   5.121
    2MOL1    Cl 1483   3.531   2.159   0.927
    2MOL1     C 1484   3.443   2.240   0.797
    2MOL1    Cl 1485   3.421   2.412   0.834
    2MOL1    Cl 1486   3.529   2.220   0.643
    2MOL1     H 1487   3.345   2.194   0.787
    2MOL1    Cl 1488   4.960   4.905   1.551
    2MOL1     C 1489   4.805   4.820   1.560
    2MOL1    Cl 1490   4.815   4.684   1.674
    2MOL1    Cl 1491   4.675   4.931   1.606
    2MOL1     H 1492   4.782   4.779   1.461
    2MOL1    Cl 1493   4.990   0.865   3.313
    2MOL1     C 1494   4.876   0.738   3.265
    2MOL1    Cl 1495   4.937   0.578   3.312
    2MOL1    Cl 1496   4.716   0.767   3.337
    2MOL1     H 1497   4.865   0.740   3.156
    2MOL1    Cl 1498   3.782   2.075   0.410
    2MOL1     C 1499   3.789   2.250   0.433
    2MOL1    Cl 1500   3.807   2.289   0.605
    2MOL1    Cl 1501   3.923   2.320   0.340
    2MOL1     H 1502   3.696   2.294   0.398
    2MOL1    Cl 1503   1.889   0.065   2.697
    2MOL1     C 1504   1.999   0.195   2.744
    2MOL1    Cl 1505   1.950   0.267   2.898
    2MOL1    Cl 1506   2.166   0.136   2.753
    2MOL1     H 1507   1.995   0.273   2.667
    2MOL1    Cl 1508   1.510   4.856   5.057
    2MOL1     C 1509   1.517   4.722   5.173
    2MOL1    Cl 1510   1.684   4.693   5.224
    2MOL1    Cl 1511   1.414   4.756   5.313
    2MOL1     H 1512   1.480   4.632   5.123
    2MOL1    Cl 1513   5.321   0.486   4.526
    2MOL1     C 1514   5.359   0.313   4.524
    2MOL1    Cl 1515   5.479   0.274   4.648
    2MOL1    Cl 1516   5.212   0.216   4.547
    2MOL1     H 1517   5.401   0.288   4.426
    2MOL1    Cl 1518   4.712   5.004   0.354
    2MOL1     C 1519   4.597   4.897   0.273
    2MOL1    Cl 1520   4.649   4.865   0.106
    2MOL1    Cl 1521   4.579   4.745   0.362
    2MOL1     H 1522   4.500   4.947   0.269
    2MOL1    Cl 1523   0.242   2.778   4.222
    2MOL1     C 1524   0.286   2.948   4.204
    2MOL1    Cl 1525   0.461   2.970   4.225
    2MOL1    Cl 1526   0.234   3.011   4.047
    2MOL1     H 1527   0.235   3.005   4.282
    2MOL1    Cl 1528   4.176   1.243   1.753
    2MOL1     C 1529   4.269   1.386   1.708
    2MOL1    Cl 1530   4.413   1.401   1.810
    2MOL1    Cl 1531   4.314   1.381   1.537
    2MOL1     H 1532   4.206   1.474   1.724
    2MOL1    Cl 1533   1.560   4.969   0.508
    2MOL1     C 1534   1.713   4.950   0.421
    2MOL1    Cl 1535   1.730   4.785   0.360
    2MOL1    Cl 1536   1.725   5.067   0.289
    2MOL1     H 1537   1.795   4.969   0.491
    2MOL1    Cl 1538   3.420   1.102   3.927
    2MOL1     C 1539   3.554   1.165   4.026
    2MOL1    Cl 1540   3.540   1.340   4.046
    2MOL1    Cl 1541   3.558   1.084   4.183
    2MOL1     H 1542   3.648   1.143   3.973
    2MOL1    Cl 1543   4.935   3.548   3.567
    2MOL1     C 1544   4.878   3.582   3.731
    2MOL1    Cl 1545   4.723   3.502   3.761
    2MOL1    Cl 1546   4.999   3.531   3.851
    2MOL1     H 1547   4.864   3.690   3.741
    2MOL1    Cl 1548   1.493   0.953   0.746
    2MOL1     C 1549   1.603   0.842   0.663
    2MOL1    Cl 1550   1.513   0.705   0.595
    2MOL1    Cl 1551   1.692   0.927   0.536
    2MOL1     H 1552   1.674   0.803   0.735
    2MOL1    Cl 1553   1.370   2.090   0.957
    2MOL1     C 1554   1.447   2.039   1.108
    2MOL1    Cl 1555   1.325   1.997   1.229
    2MOL1    Cl 1556   1.557   1.903   1.080
    2MOL1     H 1557   1.505   2.123   1.146
    2MOL1    Cl 1558   3.807   2.962   2.362
    2MOL1     C 1559   3.720   3.108   2.413
    2MOL1    Cl 1560   3.656   3.087   2.577
    2MOL1    Cl 1561   3.826   3.250   2.405
    2MOL1     H 1562   3.636   3.123   2.345
    2MOL1    Cl 1563   3.370   3.716   2.827
    2MOL1     C 1564   3.485   3.586   2.859
    2MOL1    Cl 1565   3.557   3.604   3.020
    2MOL1    Cl 1566   3.407   3.427   2.843
    2MOL1     H 1567   3.565   3.592   2.785
    2MOL1    Cl 1568   1.571   1.145   0.179
    2MOL1     C 1569   1.554   1.220   0.338
    2MOL1    Cl 1570   1.710   1.222   0.423
    2MOL1    Cl 1571   1.490   1.385   0.324
    2MOL1     H 1572   1.484   1.161   0.397
    2MOL1    Cl 1573   3.281   0.439   0.920
    2MOL1     C 1574   3.295   0.265   0.888
    2MOL1    Cl 1575   3.402   0.189   1.007
    2MOL1    Cl 1576   3.136   0.189   0.889
    2MOL1     H 1577   3.339   0.252   0.789
    2MOL1    Cl 1578   2.128   3.369   1.213
    2MOL1     C 1579   2.143   3.392   1.038
    2MOL1    Cl 1580   2.259   3.521   1.002
    2MOL1    Cl 1581   2.191   3.241   0.959
    2MOL1     H 1582   2.045   3.422   0.999
    2MOL1    Cl 1583   3.130   3.945   2.075
    2MOL1     C 1584   3.177   3.786   2.013
    2MOL1    Cl 1585   3.173   3.784   1.836
    2MOL1    Cl 1586   3.338   3.741   2.072
    2MOL1     H 1587   3.106   3.712   2.050
    2MOL1    Cl 1588   5.003   0.714   4.228
    2MOL1     C 1589   4.942   0.565   4.154
    2MOL1    Cl 1590   4.839   0.602   4.014
    2MOL1    Cl 1591   5.077   0.460   4.106
    2MOL1     H 1592   4.882   0.512   4.228
    2MOL1    Cl 1593   4.869   2.900   4.904
    2MOL1     C 1594   4.883   3.055   4.820
    2MOL1    Cl 1595   5.038   3.133   4.856
    2MOL1    Cl 1596   4.863   3.034   4.645
    2MOL1     H 1597   4.803   3.121   4.856
    2MOL1    Cl 1598   1.284   4.551   2.377
    2MOL1     C 1599   1.330   4.722   2.378
    2MOL1    Cl 1600   1.295   4.797   2.222
    2MOL1    Cl 1601   1.246   4.808   2.509
    2MOL1     H 1602   1.437   4.728   2.396
    2MOL1    Cl 1603   5.418   0.423   0.407
    2MOL1     C 1604   5.359   0.257   0.387
    2MOL1    Cl 1605   5.261   0.243   0.240
    2MOL1    Cl 1606   5.494   0.143   0.384
    2MOL1     H 1607   5.296   0.233   0.473
    2MOL1    Cl 1608   4.797   0.347   3.637
    2MOL1     C 1609   4.835   0.516   3.674
    2MOL1    Cl 1610   4.716   0.582   3.788
    2MOL1    Cl 1611   4.999   0.530   3.740
    2MOL1     H 1612   4.830   0.574   3.582
    2MOL1    Cl 1613   3.902   5.058   4.621
    2MOL1     C 1614   3.849   5.146   4.477
    2MOL1    Cl 1615   3.952   5.109   4.338
    2MOL1    Cl 1616   3.679   5.108   4.440
    2MOL1     H 1617   3.856   5.253   4.497
    2MOL1    Cl 1618   1.718   1.995   1.393
    2MOL1     C 1619   1.659   1.966   1.557
    2MOL1    Cl 1620   1.527   1.848   1.557
    2MOL1    Cl 1621   1.791   1.911   1.662
    2MOL1     H 1622   1.621   2.060   1.597
    2MOL1    Cl 1623   5.573   0.375   1.579
    2MOL1     C 1624   5.511   0.235   1.489
    2MOL1    Cl 1625   5.558   0.084   1.569
    2MOL1    Cl 1626   5.335   0.245   1.471
    2MOL1     H 1627   5.556   0.236   1.389
    2MOL1    Cl 1628   3.638   1.955   2.913
    2MOL1     C 1629   3.560   1.844   2.798
    2MOL1    Cl 1630   3.629   1.682   2.812
    2MOL1    Cl 1631   3.385   1.841   2.824
    2MOL1     H 1632   3.579   1.881   2.697
    2MOL1    Cl 1633   3.813   0.276   0.544
    2MOL1     C 1634   3.860   0.447   0.552
    2MOL1    Cl 1635   3.854   0.521   0.391
    2MOL1    Cl 1636   3.756   0.535   0.665
    2MOL1     H 1637   3.963   0.453   0.588
    2MOL1    Cl 1638   0.831   1.572   2.032
    2MOL1     C 1639   0.902   1.410   2.021
    2MOL1    Cl 1640   0.829   1.302   2.141
    2MOL1    Cl 1641   0.883   1.345   1.858
    2MOL1     H 1642   1.009   1.418   2.043
    2MOL1    Cl 1643   3.181   3.822   1.363
    2MOL1     C 1644   3.008   3.859   1.352
    2MOL1    Cl 1645   2.917   3.716   1.298
    2MOL1    Cl 1646   2.946   3.916   1.508
    2MOL1     H 1647   2.994   3.938   1.278
    2MOL1    Cl 1648   2.497   2.479   4.488
    2MOL1     C 1649   2.650   2.567   4.470
    2MOL1    Cl 1650   2.755   2.486   4.352
    2MOL1    Cl 1651   2.620   2.734   4.421
    2MOL1     H 1652   2.701   2.567   4.566
    2MOL1    Cl 1653   0.779   2.245   1.065
    2MOL1     C 1654   0.812   2.359   0.933
    2MOL1    Cl 1655   0.757   2.522   0.976
    2MOL1    Cl 1656   0.985   2.361   0.895
    2MOL1     H 1657   0.758   2.327   0.845
    2MOL1    Cl 1658   2.817   0.686   1.670
    2MOL1     C 1659   2.786   0.511   1.666
    2MOL1    Cl 1660   2.840   0.442   1.512
    2MOL1    Cl 1661   2.867   0.431   1.802
    2MOL1     H 1662   2.679   0.495   1.676
    2MOL1    Cl 1663   2.618   3.753   0.092
    2MOL1     C 1664   2.683   3.602   0.157
    2MOL1    Cl 1665   2.806   3.636   0.281
    2MOL1    Cl 1666   2.553   3.502   0.223
    2MOL1     H 1667   2.731   3.547   0.075
    2MOL1    Cl 1668   0.350   3.623   5.058
    2MOL1     C 1669   0.392   3.462   4.997
    2MOL1    Cl 1670   0.296   3.422   4.854
    2MOL1    Cl 1671   0.565   3.453   4.960
    2MOL1     H 1672   0.370   3.389   5.075
    2MOL1    Cl 1673   4.168   1.880   1.707
    2MOL1     C 1674   4.058   1.876   1.846
    2MOL1    Cl 1675   4.088   1.732   1.946
    2MOL1    Cl 1676   4.076   2.023   1.943
    2MOL1     H 1677   3.956   1.871   1.809
    2MOL1    Cl 1678   2.549   3.008   2.805
    2MOL1     C 1679   2.482   2.847   2.781
    2MOL1    Cl 1680   2.593   2.723   2.842
    2MOL1    Cl 1681   2.324   2.832   2.858
    2MOL1     H 1682   2.470   2.831   2.673
    2MOL1    Cl 1683   4.808   3.014   0.795
    2MOL1     C 1684   4.763   2.843   0.805
    2MOL1    Cl 1685   4.891   2.749   0.883
    2MOL1    Cl 1686   4.609   2.825   0.891
    2MOL1     H 1687   4.750   2.805   0.703
    2MOL1    Cl 1688   5.240   4.365   1.684
    2MOL1     C 1689   5.333   4.298   1.819
    2MOL1    Cl 1690   5.329   4.407   1.959
    2MOL1    Cl 1691   5.272   4.137   1.863
    2MOL1     H 1692   5.437   4.287   1.787
    2MOL1    Cl 1693   3.352   1.670   3.777
    2MOL1     C 1694   3.521   1.717   3.796
    2MOL1    Cl 1695   3.535   1.854   3.908
    2MOL1    Cl 1696   3.618   1.580   3.853
    2MOL1     H 1697   3.560   1.748   3.699
    2MOL1    Cl 1698   1.103   3.952   2.505
    2MOL1     C 1699   1.157   3.793   2.449
    2MOL1    Cl 1700   1.068   3.743   2.304
    2MOL1    Cl 1701   1.331   3.794   2.417
    2MOL1     H 1702   1.137   3.720   2.528
    2MOL1    Cl 1703   3.258   4.068   2.402
    2MOL1     C 1704   3.289   4.218   2.314
    2MOL1    Cl 1705   3.430   4.302   2.382
    2MOL1    Cl 1706   3.314   4.184   2.141
    2MOL1     H 1707   3.202   4.283   2.324
    2MOL1    Cl 1708   1.366   3.029   2.359
    2MOL1     C 1709   1.523   3.111   2.361
    2MOL1    Cl 1710   1.553   3.183   2.520
    2MOL1    Cl 1711   1.653   2.998   2.319
    2MOL1     H 1712   1.521   3.191   2.287
    2MOL1    Cl 1713   4.729   0.309   5.163
    2MOL1     C 1714   4.839   0.175   5.201
    2MOL1    Cl 1715   4.963   0.226   5.317
    2MOL1    Cl 1716   4.749   0.036   5.264
    2MOL1     H 1717   4.889   0.144   5.109
    2MOL1    Cl 1718   4.509   4.866   2.467
    2MOL1     C 1719   4.377   4.978   2.432
    2MOL1    Cl 1720   4.291   4.930   2.284
    2MOL1    Cl 1721   4.264   4.988   2.568
    2MOL1     H 1722   4.420   5.078   2.416
    2MOL1    Cl 1723   1.753   5.224   3.058
    2MOL1     C 1724   1.680   5.073   3.113
    2MOL1    Cl 1725   1.764   5.012   3.257
    2MOL1    Cl 1726   1.507   5.097   3.148
    2MOL1     H 1727   1.689   4.999   3.034
    2MOL1    Cl 1728   3.536   4.914   3.832
    2MOL1     C 1729   3.675   5.014   3.788
    2MOL1    Cl 1730   3.692   5.022   3.611
    2MOL1    Cl 1731   3.660   5.176   3.857
    2MOL1     H 1732   3.765   4.967   3.828
    2MOL1    Cl 1733   3.744   2.207   4.778
    2MOL1     C 1734   3.873   2.213   4.899
    2MOL1    Cl 1735   4.029   2.245   4.822
    2MOL1    Cl 1736   3.837   2.335   5.022
    2MOL1     H 1737   3.878   2.115   4.948
    2MOL1    Cl 1738   5.177   4.109   2.496
    2MOL1     C 1739   5.089   4.224   2.598
    2MOL1    Cl 1740   4.973   4.317   2.501
    2MOL1    Cl 1741   5.005   4.138   2.729
    2MOL1     H 1742   5.160   4.293   2.643
    2MOL1    Cl 1743   5.433   3.260   2.406
    2MOL1     C 1744   5.292   3.168   2.461
    2MOL1    Cl 1745   5.332   3.070   2.603
    2MOL1    Cl 1746   5.157   3.276   2.495
    2MOL1     H 1747   5.262   3.100   2.380
    2MOL1    Cl 1748   1.750   2.413   0.900
    2MOL1     C 1749   1.661   2.283   0.981
    2MOL1    Cl 1750   1.730   2.251   1.141
    2MOL1    Cl 1751   1.489   2.324   0.993
    2MOL1     H 1752   1.671   2.192   0.921
    2MOL1    Cl 1753   1.401   1.908   4.038
    2MOL1     C 1754   1.271   1.801   3.983
    2MOL1    Cl 1755   1.328   1.634   3.971
    2MOL1    Cl 1756   1.132   1.811   4.092
    2MOL1     H 1757   1.239   1.834   3.883
    2MOL1    Cl 1758   4.253   3.511   1.345
    2MOL1     C 1759   4.348   3.657   1.313
    2MOL1    Cl 1760   4.337   3.769   1.450
    2MOL1    Cl 1761   4.517   3.616   1.280
    2MOL1     H 1762   4.306   3.706   1.225
    2MOL1    Cl 1763   0.635   5.141   2.239
    2MOL1     C 1764   0.480   5.186   2.166
    2MOL1    Cl 1765   0.478   5.358   2.123
    2MOL1    Cl 1766   0.446   5.086   2.024
    2MOL1     H 1767   0.401   5.168   2.240
    2MOL1    Cl 1768   1.710   2.580   1.861
    2MOL1     C 1769   1.551   2.568   1.783
    2MOL1    Cl 1770   1.548   2.661   1.632
    2MOL1    Cl 1771   1.509   2.399   1.754
    2MOL1     H 1772   1.477   2.611   1.851
    2MOL1    Cl 1773   0.396   2.867   4.058
    2MOL1     C 1774   0.437   2.697   4.031
    2MOL1    Cl 1775   0.319   2.621   3.922
    2MOL1    Cl 1776   0.601   2.682   3.966
    2MOL1     H 1777   0.433   2.645   4.127
    2MOL1    Cl 1778   1.387   0.775   5.161
    2MOL1     C 1779   1.332   0.940   5.195
    2MOL1    Cl 1780   1.161   0.940   5.244
    2MOL1    Cl 1781   1.432   1.015   5.321
    2MOL1     H 1782   1.341   0.999   5.104
    2MOL1    Cl 1783   3.778   3.096   1.102
    2MOL1     C 1784   3.907   3.000   1.027
    2MOL1    Cl 1785   4.045   2.984   1.137
    2MOL1    Cl 1786   3.846   2.840   0.980
    2MOL1     H 1787   3.941   3.051   0.937
    2MOL1    Cl 1788   4.069   4.954   3.009
    2MOL1     C 1789   3.910   5.019   3.050
    2MOL1    Cl 1790   3.901   5.191   3.010
    2MOL1    Cl 1791   3.782   4.928   2.968
    2MOL1     H 1792   3.896   5.008   3.158
    2MOL1    Cl 1793   4.893   3.382   5.144
    2MOL1     C 1794   4.834   3.222   5.189
    2MOL1    Cl 1795   4.657   3.220   5.200
    2MOL1    Cl 1796   4.890   3.100   5.073
    2MOL1     H 1797   4.875   3.196   5.287
    2MOL1    Cl 1798   4.781   2.799   2.854
    2MOL1     C 1799   4.694   2.867   2.992
    2MOL1    Cl 1800   4.526   2.903   2.947
    2MOL1    Cl 1801   4.699   2.757   3.131
    2MOL1     H 1802   4.743   2.961   3.020
    2MOL1    Cl 1803   2.640   4.364   3.554
    2MOL1     C 1804   2.595   4.535   3.547
    2MOL1    Cl 1805   2.470   4.572   3.667
    2MOL1    Cl 1806   2.738   4.638   3.574
    2MOL1     H 1807   2.556   4.557   3.448
    2MOL1    Cl 1808   3.761   2.145   0.885
    2MOL1     C 1809   3.769   2.275   1.004
    2MOL1    Cl 1810   3.913   2.256   1.107
    2MOL1    Cl 1811   3.771   2.433   0.924
    2MOL1     H 1812   3.681   2.270   1.068
    2MOL1    Cl 1813   2.591   2.112   2.801
    2MOL1     C 1814   2.607   2.102   2.625
    2MOL1    Cl 1815   2.571   1.938   2.568
    2MOL1    Cl 1816   2.501   2.220   2.546
    2MOL1     H 1817   2.710   2.125   2.599
    2MOL1    Cl 1818   3.032   2.851   3.421
    2MOL1     C 1819   3.155   2.952   3.499
    2MOL1    Cl 1820   3.112   3.124   3.486
    2MOL1    Cl 1821   3.174   2.905   3.669
    2MOL1     H 1822   3.250   2.936   3.448
    2MOL1    Cl 1823   5.286   1.776   1.741
    2MOL1     C 1824   5.249   1.946   1.711
    2MOL1    Cl 1825   5.177   1.966   1.550
    2MOL1    Cl 1826   5.140   2.010   1.835
    2MOL1     H 1827   5.342   2.003   1.714
    2MOL1    Cl 1828   1.728   1.334   3.653
    2MOL1     C 1829   1.888   1.405   3.629
    2MOL1    Cl 1830   2.009   1.278   3.600
    2MOL1    Cl 1831   1.886   1.520   3.494
    2MOL1     H 1832   1.916   1.459   3.719
    2MOL1    Cl 1833   3.621   4.330   2.141
    2MOL1     C 1834   3.663   4.209   2.262
    2MOL1    Cl 1835   3.654   4.278   2.425
    2MOL1    Cl 1836   3.557   4.068   2.249
    2MOL1     H 1837   3.766   4.177   2.245
    2MOL1    Cl 1838   2.340   3.751   0.582
    2MOL1     C 1839   2.303   3.595   0.506
    2MOL1    Cl 1840   2.165   3.609   0.397
    2MOL1    Cl 1841   2.445   3.533   0.420
    2MOL1     H 1842   2.277   3.524   0.585
    2MOL1    Cl 1843   4.780   2.307   3.237
    2MOL1     C 1844   4.828   2.139   3.265
    2MOL1    Cl 1845   4.970   2.131   3.371
    2MOL1    Cl 1846   4.693   2.047   3.334
    2MOL1     H 1847   4.854   2.094   3.169
    2MOL1    Cl 1848   2.693   3.785   1.435
    2MOL1     C 1849   2.559   3.900   1.442
    2MOL1    Cl 1850   2.605   4.054   1.366
    2MOL1    Cl 1851   2.415   3.832   1.363
    2MOL1     H 1852   2.535   3.919   1.547
    2MOL1    Cl 1853   1.203   4.882   4.637
    2MOL1     C 1854   1.256   4.956   4.789
    2MOL1    Cl 1855   1.414   4.892   4.838
    2MOL1    Cl 1856   1.263   5.133   4.773
    2MOL1     H 1857   1.183   4.932   4.867
    2MOL1    Cl 1858   4.107   3.259   3.656
    2MOL1     C 1859   3.933   3.243   3.683
    2MOL1    Cl 1860   3.899   3.110   3.795
    2MOL1    Cl 1861   3.866   3.395   3.745
    2MOL1     H 1862   3.885   3.221   3.587
    2MOL1    Cl 1863   3.896   3.748   1.321
    2MOL1     C 1864   4.047   3.836   1.295
    2MOL1    Cl 1865   4.078   3.856   1.121
    2MOL1    Cl 1866   4.043   3.993   1.376
    2MOL1     H 1867   4.129   3.778   1.338
    2MOL1    Cl 1868   2.858   1.306   4.139
    2MOL1     C 1869   2.785   1.316   3.978
    2MOL1    Cl 1870   2.619   1.377   3.988
    2MOL1    Cl 1871   2.882   1.419   3.872
    2MOL1     H 1872   2.782   1.215   3.935
    2MOL1    Cl 1873   2.305   3.809   4.841
    2MOL1     C 1874   2.380   3.674   4.929
    2MOL1    Cl 1875   2.286   3.525   4.906
    2MOL1    Cl 1876   2.548   3.651   4.876
    2MOL1     H 1877   2.380   3.699   5.035
    2MOL1    Cl 1878   4.384   3.847   3.114
    2MOL1     C 1879   4.540   3.886   3.190
    2MOL1    Cl 1880   4.555   4.060   3.215
    2MOL1    Cl 1881   4.558   3.798   3.343
    2MOL1     H 1882   4.620   3.854   3.122
    2MOL1    Cl 1883   3.340   1.450   5.075
    2MOL1     C 1884   3.323   1.618   5.024
    2MOL1    Cl 1885   3.412   1.649   4.875
    2MOL1    Cl 1886   3.152   1.660   5.004
    2MOL1     H 1887   3.364   1.682   5.103
    2MOL1    Cl 1888   0.760   0.761   4.141
    2MOL1     C 1889   0.893   0.645   4.153
    2MOL1    Cl 1890   0.831   0.480   4.174
    2MOL1    Cl 1891   0.996   0.654   4.009
    2MOL1     H 1892   0.954   0.670   4.240
    2MOL1    Cl 1893   3.894   0.870   2.192
    2MOL1     C 1894   3.787   0.950   2.075
    2MOL1    Cl 1895   3.720   0.832   1.961
    2MOL1    Cl 1896   3.658   1.037   2.159
    2MOL1     H 1897   3.847   1.023   2.019
    2MOL1    Cl 1898   3.102   4.540   2.545
    2MOL1     C 1899   2.933   4.579   2.510
    2MOL1    Cl 1900   2.923   4.718   2.400
    2MOL1    Cl 1901   2.850   4.439   2.441
    2MOL1     H 1902   2.883   4.606   2.604
    2MOL1    Cl 1903   1.114   1.029   2.345
    2MOL1     C 1904   1.206   1.088   2.206
    2MOL1    Cl 1905   1.147   1.015   2.055
    2MOL1    Cl 1906   1.197   1.265   2.196
    2MOL1     H 1907   1.311   1.060   2.219
    2MOL1    Cl 1908   2.607   4.278   3.318
    2MOL1     C 1909   2.609   4.402   3.192
    2MOL1    Cl 1910   2.713   4.538   3.239
    2MOL1    Cl 1911   2.662   4.334   3.037
    2MOL1     H 1912   2.507   4.440   3.180
    2MOL1    Cl 1913   4.564   2.032   4.861
    2MOL1     C 1914   4.489   1.891   4.786
    2MOL1    Cl 1915   4.578   1.743   4.828
    2MOL1    Cl 1916   4.319   1.877   4.833
    2MOL1     H 1917   4.493   1.903   4.677
    2MOL1    Cl 1918   0.408   0.511   0.359
    2MOL1     C 1919   0.568   0.565   0.305
    2MOL1    Cl 1920   0.572   0.582   0.129
    2MOL1    Cl 1921   0.613   0.717   0.383
    2MOL1     H 1922   0.641   0.489   0.334
    2MOL1    Cl 1923   3.985   3.792   5.295
    2MOL1     C 1924   4.132   3.863   5.228
    2MOL1    Cl 1925   4.122   4.040   5.229
    2MOL1    Cl 1926   4.275   3.809   5.318
    2MOL1     H 1927   4.143   3.830   5.124
    2MOL1    Cl 1928   2.202   2.254   2.633
    2MOL1     C 1929   2.270   2.360   2.757
    2MOL1    Cl 1930   2.226   2.529   2.726
    2MOL1    Cl 1931   2.215   2.309   2.918
    2MOL1     H 1932   2.379   2.352   2.754
    2MOL1    Cl 1933   2.268   4.277   1.579
    2MOL1     C 1934   2.400   4.159   1.593
    2MOL1    Cl 1935   2.524   4.217   1.706
    2MOL1    Cl 1936   2.338   4.001   1.643
    2MOL1     H 1937   2.447   4.148   1.494
    2MOL1    Cl 1938   4.177   3.625   1.901
    2MOL1     C 1939   4.348   3.661   1.873
    2MOL1    Cl 1940   4.376   3.702   1.703
    2MOL1    Cl 1941   4.403   3.792   1.978
    2MOL1     H 1942   4.407   3.571   1.897
    2MOL1    Cl 1943   2.957   4.772   0.661
    2MOL1     C 1944   2.847   4.633   0.659
    2MOL1    Cl 1945   2.917   4.497   0.750
    2MOL1    Cl 1946   2.689   4.677   0.724
    2MOL1     H 1947   2.834   4.601   0.555
    2MOL1    Cl 1948   2.901   2.262   4.812
    2MOL1     C 1949   3.010   2.399   4.786
    2MOL1    Cl 1950   3.139   2.354   4.673
    2MOL1    Cl 1951   2.921   2.540   4.726
    2MOL1     H 1952   3.056   2.425   4.882
    2MOL1    Cl 1953   2.226   3.070   2.394
    2MOL1     C 1954   2.203   3.243   2.367
    2MOL1    Cl 1955   2.307   3.300   2.236
    2MOL1    Cl 1956   2.033   3.278   2.330
    2MOL1     H 1957   2.230   3.296   2.458
    2MOL1    Cl 1958   0.854   4.367   4.880
    2MOL1     C 1959   0.911   4.207   4.929
    2MOL1    Cl 1960   0.964   4.208   5.098
    2MOL1    Cl 1961   0.785   4.085   4.904
    2MOL1     H 1962   0.997   4.180   4.867
    2MOL1    Cl 1963   0.370   2.302   1.886
    2MOL1     C 1964   0.418   2.463   1.828
    2MOL1    Cl 1965   0.306   2.587   1.886
    2MOL1    Cl 1966   0.584   2.500   1.879
    2MOL1     H 1967   0.415   2.462   1.719
    2MOL1    Cl 1968   4.473   1.077   4.182
    2MOL1     C 1969   4.643   1.032   4.202
    2MOL1    Cl 1970   4.658   0.856   4.217
    2MOL1    Cl 1971   4.740   1.092   4.067
    2MOL1     H 1972   4.680   1.077   4.295
    2MOL1    Cl 1973   4.091   1.113   0.376
    2MOL1     C 1974   4.244   1.157   0.454
    2MOL1    Cl 1975   4.215   1.265   0.591
    2MOL1    Cl 1976   4.332   1.013   0.505
    2MOL1     H 1977   4.305   1.211   0.380
    2MOL1    Cl 1978   2.221   1.685   4.015
    2MOL1     C 1979   2.160   1.842   3.961
    2MOL1    Cl 1980   1.983   1.841   3.951
    2MOL1    Cl 1981   2.215   1.972   4.069
    2MOL1     H 1982   2.200   1.862   3.861
    2MOL1    Cl 1983   0.645   1.779   2.223
    2MOL1     C 1984   0.606   1.916   2.119
    2MOL1    Cl 1985   0.674   1.893   1.957
    2MOL1    Cl 1986   0.430   1.940   2.109
    2MOL1     H 1987   0.650   2.006   2.162
    2MOL1    Cl 1988   2.066   0.550   3.493
    2MOL1     C 1989   1.919   0.634   3.441
    2MOL1    Cl 1990   1.960   0.782   3.354
    2MOL1    Cl 1991   1.819   0.528   3.341
    2MOL1     H 1992   1.862   0.661   3.531
    2MOL1    Cl 1993   2.513   4.365   1.048
    2MOL1     C 1994   2.536   4.243   1.174
    2MOL1    Cl 1995   2.663   4.294   1.287
    2MOL1    Cl 1996   2.385   4.213   1.260
    2MOL1     H 1997   2.568   4.150   1.127
    2MOL1    Cl 1998   3.884   1.780   4.372
    2MOL1     C 1999   3.708   1.772   4.386
    2MOL1    Cl 2000   3.660   1.638   4.492
    2MOL1    Cl 2001   3.643   1.926   4.446
    2MOL1     H 2002   3.667   1.754   4.287
    2MOL1    Cl 2003   2.645   3.791   4.297
    2MOL1     C 2004   2.502   3.784   4.193
    2MOL1    Cl 2005   2.513   3.905   4.064
    2MOL1    Cl 2006   2.481   3.622   4.126
    2MOL1     H 2007   2.414   3.808   4.254
    2MOL1    Cl 2008   3.253   1.082   4.912
    2MOL1     C 2009   3.402   1.003   4.967
    2MOL1    Cl 2010   3.540   1.114   4.954
    2MOL1    Cl 2011   3.384   0.945   5.133
    2MOL1     H 2012   3.421   0.917   4.903
    2MOL1    Cl 2013   3.314   2.982   2.621
    2MOL1     C 2014   3.335   2.846   2.510
    2MOL1    Cl 2015   3.506   2.806   2.492
    2MOL1    Cl 2016   3.243   2.705   2.567
    2MOL1     H 2017   3.296   2.875   2.412
    2MOL1    Cl 2018   4.791   4.303   0.885
    2MOL1     C 2019   4.965   4.268   0.874
    2MOL1    Cl 2020   5.055   4.362   0.994
    2MOL1    Cl 2021   4.995   4.095   0.895
    2MOL1     H 2022   4.999   4.297   0.774
    2MOL1    Cl 2023   2.247   2.801   4.450
    2MOL1     C 2024   2.359   2.908   4.535
    2MOL1    Cl 2025   2.269   3.029   4.629
    2MOL1    Cl 2026   2.467   2.815   4.640
    2MOL1     H 2027   2.419   2.961   4.461
    2MOL1    Cl 2028   2.995   4.284   4.441
    2MOL1     C 2029   2.866   4.164   4.448
    2MOL1    Cl 2030   2.919   4.010   4.378
    2MOL1    Cl 2031   2.811   4.140   4.615
    2MOL1     H 2032   2.781   4.201   4.389
    2MOL1    Cl 2033   4.591   5.298   2.566
    2MOL1     C 2034   4.682   5.189   2.672
    2MOL1    Cl 2035   4.571   5.082   2.761
    2MOL1    Cl 2036   4.799   5.094   2.579
    2MOL1     H 2037   4.736   5.250   2.745
    2MOL1    Cl 2038   1.815   3.912   2.147
    2MOL1     C 2039   1.947   3.795   2.169
    2MOL1    Cl 2040   2.056   3.849   2.297
    2MOL1    Cl 2041   1.882   3.634   2.206
    2MOL1     H 2042   2.003   3.789   2.076
    2MOL1    Cl 2043   3.873   0.952   1.042
    2MOL1     C 2044   3.751   0.824   1.055
    2MOL1    Cl 2045   3.613   0.880   1.150
    2MOL1    Cl 2046   3.699   0.772   0.894
    2MOL1     H 2047   3.796   0.739   1.105
    2MOL1    Cl 2048   0.667   3.848   3.082
    2MOL1     C 2049   0.508   3.770   3.075
    2MOL1    Cl 2050   0.388   3.879   3.002
    2MOL1    Cl 2051   0.517   3.619   2.984
    2MOL1     H 2052   0.476   3.747   3.177
    2MOL1    Cl 2053   3.195   2.655   5.006
    2MOL1     C 2054   3.223   2.708   4.840
    2MOL1    Cl 2055   3.291   2.576   4.743
    2MOL1    Cl 2056   3.073   2.768   4.767
    2MOL1     H 2057   3.296   2.790   4.841
    2MOL1    Cl 2058   2.536   0.528   0.696
    2MOL1     C 2059   2.509   0.703   0.702
    2MOL1    Cl 2060   2.336   0.740   0.695
    2MOL1    Cl 2061   2.582   0.772   0.848
    2MOL1     H 2062   2.557   0.748   0.615
    2MOL1    Cl 2063   3.311   0.489   2.281
    2MOL1     C 2064   3.195   0.363   2.324
    2MOL1    Cl 2065   3.029   0.422   2.305
    2MOL1    Cl 2066   3.221   0.218   2.225
    2MOL1     H 2067   3.210   0.336   2.429
    2MOL1    Cl 2068   1.908   3.572   4.787
    2MOL1     C 2069   2.044   3.573   4.674
    2MOL1    Cl 2070   2.164   3.451   4.720
    2MOL1    Cl 2071   1.987   3.546   4.508
    2MOL1     H 2072   2.091   3.671   4.678
    2MOL1    Cl 2073   0.932   2.962   0.563
    2MOL1     C 2074   1.026   2.922   0.708
    2MOL1    Cl 2075   1.178   3.012   0.711
    2MOL1    Cl 2076   0.931   2.954   0.854
    2MOL1     H 2077   1.049   2.815   0.705
    2MOL1    Cl 2078   3.159   0.287   3.231
    2MOL1     C 2079   3.230   0.239   3.386
    2MOL1    Cl 2080   3.147   0.097   3.451
    2MOL1    Cl 2081   3.403   0.209   3.369
    2MOL1     H 2082   3.217   0.322   3.457
    2MOL1    Cl 2083   2.340   3.210   1.207
    2MOL1     C 2084   2.309   3.040   1.168
    2MOL1    Cl 2085   2.200   2.968   1.288
    2MOL1    Cl 2086   2.241   3.025   1.005
    2MOL1     H 2087   2.404   2.986   1.171
    2MOL1    Cl 2088   3.201   5.216   4.153
    2MOL1     C 2089   3.350   5.203   4.058
    2MOL1    Cl 2090   3.354   5.050   3.970
    2MOL1    Cl 2091   3.366   5.340   3.947
    2MOL1     H 2092   3.435   5.205   4.127
    2MOL1    Cl 2093   0.487   0.547   4.342
    2MOL1     C 2094   0.474   0.460   4.188
    2MOL1    Cl 2095   0.572   0.540   4.063
    2MOL1    Cl 2096   0.524   0.291   4.208
    2MOL1     H 2097   0.370   0.462   4.156
    2MOL1    Cl 2098   2.707   2.852   3.878
    2MOL1     C 2099   2.726   2.684   3.931
    2MOL1    Cl 2100   2.850   2.672   4.057
    2MOL1    Cl 2101   2.571   2.620   3.990
    2MOL1     H 2102   2.757   2.624   3.845
    2MOL1    Cl 2103   1.019   1.363   0.179
    2MOL1     C 2104   0.949   1.519   0.226
    2MOL1    Cl 2105   0.794   1.496   0.309
    2MOL1    Cl 2106   1.062   1.609   0.330
    2MOL1     H 2107   0.932   1.578   0.136
    2MOL1    Cl 2108   4.978   3.167   1.925
    2MOL1     C 2109   4.893   3.019   1.971
    2MOL1    Cl 2110   4.767   2.981   1.853
    2MOL1    Cl 2111   5.007   2.884   1.986
    2MOL1     H 2112   4.846   3.035   2.068
    2MOL1    Cl 2113   3.467   3.202   0.725
    2MOL1     C 2114   3.359   3.283   0.610
    2MOL1    Cl 2115   3.294   3.166   0.494
    2MOL1    Cl 2116   3.228   3.365   0.696
    2MOL1     H 2117   3.417   3.358   0.555
    2MOL1    Cl 2118   2.703   4.798   1.687
    2MOL1     C 2119   2.777   4.925   1.588
    2MOL1    Cl 2120   2.941   4.961   1.645
    2MOL1    Cl 2121   2.780   4.878   1.417
    2MOL1     H 2122   2.717   5.016   1.598
    2MOL1    Cl 2123   2.990   4.036   4.765
    2MOL1     C 2124   2.882   4.036   4.905
    2MOL1    Cl 2125   2.914   4.176   5.009
    2MOL1    Cl 2126   2.712   4.035   4.853
    2MOL1     H 2127   2.900   3.945   4.963
    2MOL1    Cl 2128   4.322   3.988   2.937
    2MOL1     C 2129   4.204   4.031   2.812
    2MOL1    Cl 2130   4.042   3.976   2.857
    2MOL1    Cl 2131   4.204   4.206   2.784
    2MOL1     H 2132   4.233   3.982   2.719
    2MOL1    Cl 2133   2.727   1.530   2.480
    2MOL1     C 2134   2.551   1.529   2.503
    2MOL1    Cl 2135   2.487   1.694   2.495
    2MOL1    Cl 2136   2.473   1.426   2.383
    2MOL1     H 2137   2.530   1.489   2.603
    2MOL1    Cl 2138   5.054   2.487   0.795
    2MOL1     C 2139   5.134   2.401   0.663
    2MOL1    Cl 2140   5.017   2.309   0.568
    2MOL1    Cl 2141   5.222   2.515   0.559
    2MOL1     H 2142   5.207   2.331   0.706
    2MOL1    Cl 2143   4.495   0.664   3.380
    2MOL1     C 2144   4.461   0.617   3.213
    2MOL1    Cl 2145   4.469   0.757   3.106
    2MOL1    Cl 2146   4.574   0.491   3.160
    2MOL1     H 2147   4.360   0.576   3.209
    2MOL1    Cl 2148   5.152   2.215   0.165
    2MOL1     C 2149   5.066   2.367   0.193
    2MOL1    Cl 2150   4.928   2.342   0.302
    2MOL1    Cl 2151   5.176   2.490   0.258
    2MOL1     H 2152   5.027   2.403   0.097
    2MOL1    Cl 2153   0.851   3.707   5.323
    2MOL1     C 2154   0.957   3.582   5.257
    2MOL1    Cl 2155   0.960   3.439   5.363
    2MOL1    Cl 2156   0.906   3.537   5.093
    2MOL1     H 2157   1.059   3.622   5.251
    2MOL1    Cl 2158   3.503   1.375   1.035
    2MOL1     C 2159   3.633   1.263   1.080
    2MOL1    Cl 2160   3.573   1.141   1.193
    2MOL1    Cl 2161   3.701   1.186   0.936
    2MOL1     H 2162   3.711   1.320   1.129
    2MOL1    Cl 2163   2.916   4.645   4.673
    2MOL1     C 2164   2.968   4.520   4.787
    2MOL1    Cl 2165   2.875   4.372   4.764
    2MOL1    Cl 2166   3.142   4.488   4.770
    2MOL1     H 2167   2.950   4.557   4.889
    2MOL1    Cl 2168   1.864   5.234   0.750
    2MOL1     C 2169   1.738   5.269   0.631
    2MOL1    Cl 2170   1.808   5.283   0.468
    2MOL1    Cl 2171   1.613   5.143   0.634
    2MOL1     H 2172   1.691   5.364   0.656
    2MOL1    Cl 2173   1.699   3.193   4.499
    2MOL1     C 2174   1.631   3.354   4.527
    2MOL1    Cl 2175   1.735   3.479   4.457
    2MOL1    Cl 2176   1.467   3.365   4.460
    2MOL1     H 2177   1.625   3.371   4.635
    2MOL1    Cl 2178   1.246   2.368   2.472
    2MOL1     C 2179   1.405   2.302   2.431
    2MOL1    Cl 2180   1.388   2.149   2.342
    2MOL1    Cl 2181   1.498   2.419   2.336
    2MOL1     H 2182   1.459   2.282   2.524
    2MOL1    Cl 2183   1.432   1.453   0.630
    2MOL1     C 2184   1.608   1.463   0.618
    2MOL1    Cl 2185   1.681   1.301   0.627
    2MOL1    Cl 2186   1.655   1.544   0.467
    2MOL1     H 2187   1.646   1.522   0.702
    2MOL1    Cl 2188   0.511   5.363   3.275
    2MOL1     C 2189   0.548   5.190   3.274
    2MOL1    Cl 2190   0.709   5.161   3.204
    2MOL1    Cl 2191   0.538   5.124   3.438
    2MOL1     H 2192   0.474   5.139   3.212
    2MOL1    Cl 2193   3.048   4.075   0.494
    2MOL1     C 2194   3.043   4.002   0.332
    2MOL1    Cl 2195   2.926   4.086   0.229
    2MOL1    Cl 2196   3.204   4.004   0.258
    2MOL1     H 2197   3.011   3.898   0.342
    2MOL1    Cl 2198   5.249   1.960   0.825
    2MOL1     C 2199   5.424   1.986   0.822
    2MOL1    Cl 2200   5.488   1.963   0.658
    2MOL1    Cl 2201   5.464   2.148   0.882
    2MOL1     H 2202   5.471   1.913   0.888
    2MOL1    Cl 2203   3.623   4.693   4.182
    2MOL1     C 2204   3.503   4.811   4.128
    2MOL1    Cl 2205   3.398   4.741   4.004
    2MOL1    Cl 2206   3.406   4.868   4.266
    2MOL1     H 2207   3.555   4.897   4.085
    2MOL1    Cl 2208   0.476   3.380   3.449
    2MOL1     C 2209   0.617   3.274   3.449
    2MOL1    Cl 2210   0.596   3.141   3.333
    2MOL1    Cl 2211   0.765   3.365   3.412
    2MOL1     H 2212   0.628   3.231   3.549
    2MOL1    Cl 2213   3.050   0.555   1.806
    2MOL1     C 2214   3.134   0.497   1.950
    2MOL1    Cl 2215   3.020   0.479   2.085
    2MOL1    Cl 2216   3.216   0.344   1.917
    2MOL1     H 2217   3.209   0.571   1.978
    2MOL1    Cl 2218   5.050   5.185   4.287
    2MOL1     C 2219   5.073   5.035   4.377
    2MOL1    Cl 2220   4.934   4.927   4.356
    2MOL1    Cl 2221   5.223   4.955   4.328
    2MOL1     H 2222   5.081   5.060   4.484
    2MOL1    Cl 2223   4.422   1.081   2.017
    2MOL1     C 2224   4.271   1.009   2.078
    2MOL1    Cl 2225   4.243   1.056   2.246
    2MOL1    Cl 2226   4.134   1.056   1.976
    2MOL1     H 2227   4.281   0.900   2.073
    2MOL1    Cl 2228   2.661   4.943   2.466
    2MOL1     C 2229   2.593   4.782   2.436
    2MOL1    Cl 2230   2.626   4.674   2.573
    2MOL1    Cl 2231   2.419   4.792   2.406
    2MOL1     H 2232   2.641   4.740   2.348
    2MOL1    Cl 2233   2.587   2.816   0.903
    2MOL1     C 2234   2.516   2.655   0.914
    2MOL1    Cl 2235   2.596   2.560   1.040
    2MOL1    Cl 2236   2.342   2.666   0.945
    2MOL1     H 2237   2.530   2.604   0.818
    2MOL1    Cl 2238   2.440   4.567   0.467
    2MOL1     C 2239   2.478   4.740   0.469
    2MOL1    Cl 2240   2.548   4.791   0.315
    2MOL1    Cl 2241   2.334   4.835   0.506
    2MOL1     H 2242   2.552   4.758   0.548
    2MOL1    Cl 2243   3.678   1.149   2.415
    2MOL1     C 2244   3.854   1.170   2.426
    2MOL1    Cl 2245   3.938   1.046   2.333
    2MOL1    Cl 2246   3.901   1.332   2.371
    2MOL1     H 2247   3.883   1.160   2.531
    2MOL1    Cl 2248   4.149   4.138   0.933
    2MOL1     C 2249   3.989   4.097   0.868
    2MOL1    Cl 2250   4.004   4.009   0.716
    2MOL1    Cl 2251   3.896   4.003   0.986
    2MOL1     H 2252   3.935   4.190   0.849
    2MOL1    Cl 2253   1.949   4.275   2.041
    2MOL1     C 2254   1.958   4.314   2.214
    2MOL1    Cl 2255   1.848   4.446   2.255
    2MOL1    Cl 2256   1.922   4.170   2.311
    2MOL1     H 2257   2.060   4.346   2.236
    2MOL1    Cl 2258   5.307   2.708   2.974
    2MOL1     C 2259   5.198   2.835   3.030
    2MOL1    Cl 2260   5.071   2.768   3.134
    2MOL1    Cl 2261   5.289   2.961   3.117
    2MOL1     H 2262   5.151   2.881   2.943
    2MOL1    Cl 2263   1.950   1.274   2.148
    2MOL1     C 2264   1.864   1.279   2.303
    2MOL1    Cl 2265   1.760   1.422   2.312
    2MOL1    Cl 2266   1.769   1.131   2.326
    2MOL1     H 2267   1.938   1.285   2.383
    2MOL1    Cl 2268   0.509   0.676   1.522
    2MOL1     C 2269   0.385   0.552   1.496
    2MOL1    Cl 2270   0.449   0.392   1.535
    2MOL1    Cl 2271   0.241   0.587   1.593
    2MOL1     H 2272   0.357   0.554   1.391
    2MOL1    Cl 2273   1.202   4.414   0.201
    2MOL1     C 2274   1.324   4.288   0.227
    2MOL1    Cl 2275   1.247   4.131   0.256
    2MOL1    Cl 2276   1.434   4.278   0.089
    2MOL1     H 2277   1.382   4.314   0.315
    2MOL1    Cl 2278   3.549   2.603   0.886
    2MOL1     C 2279   3.400   2.698   0.896
    2MOL1    Cl 2280   3.324   2.679   1.055
    2MOL1    Cl 2281   3.433   2.869   0.862
    2MOL1     H 2282   3.330   2.661   0.820
    2MOL1    Cl 2283   0.717   2.115   2.628
    2MOL1     C 2284   0.820   2.000   2.541
    2MOL1    Cl 2285   0.965   2.081   2.479
    2MOL1    Cl 2286   0.864   1.865   2.646
    2MOL1     H 2287   0.764   1.961   2.456
    2MOL1    Cl 2288   2.837   0.699   4.880
    2MOL1     C 2289   2.867   0.810   5.015
    2MOL1    Cl 2290   2.755   0.948   5.007
    2MOL1    Cl 2291   2.851   0.726   5.170
    2MOL1     H 2292   2.969   0.848   5.007
    2MOL1    Cl 2293   0.480   4.329   4.203
    2MOL1     C 2294   0.639   4.377   4.263
    2MOL1    Cl 2295   0.698   4.260   4.383
    2MOL1    Cl 2296   0.754   4.393   4.130
    2MOL1     H 2297   0.629   4.474   4.312
    2MOL1    Cl 2298   5.253   3.941   1.632
    2MOL1     C 2299   5.380   4.033   1.550
    2MOL1    Cl 2300   5.504   3.924   1.484
    2MOL1    Cl 2301   5.311   4.133   1.421
    2MOL1     H 2302   5.428   4.098   1.623
    2MOL1    Cl 2303   2.780   2.254   0.514
    2MOL1     C 2304   2.882   2.368   0.424
    2MOL1    Cl 2305   2.885   2.526   0.505
    2MOL1    Cl 2306   3.046   2.304   0.407
    2MOL1     H 2307   2.840   2.381   0.325
    2MOL1    Cl 2308   3.610   2.500   2.024
    2MOL1     C 2309   3.561   2.508   2.194
    2MOL1    Cl 2310   3.430   2.625   2.216
    2MOL1    Cl 2311   3.511   2.348   2.252
    2MOL1     H 2312   3.646   2.540   2.253
    2MOL1    Cl 2313   4.265   1.479   5.179
    2MOL1     C 2314   4.321   1.315   5.215
    2MOL1    Cl 2315   4.493   1.316   5.257
    2MOL1    Cl 2316   4.226   1.245   5.347
    2MOL1     H 2317   4.307   1.254   5.126
    2MOL1    Cl 2318   1.420   2.128   4.727
    2MOL1     C 2319   1.423   2.132   4.550
    2MOL1    Cl 2320   1.494   1.984   4.485
    2MOL1    Cl 2321   1.260   2.157   4.486
    2MOL1     H 2322   1.485   2.217   4.519
    2MOL1    Cl 2323   0.813   0.367   2.233
    2MOL1     C 2324   0.645   0.409   2.196
    2MOL1    Cl 2325   0.627   0.451   2.025
    2MOL1    Cl 2326   0.537   0.275   2.239
    2MOL1     H 2327   0.617   0.496   2.256
    2MOL1    Cl 2328   3.939   0.559   1.185
    2MOL1     C 2329   4.056   0.455   1.104
    2MOL1    Cl 2330   4.036   0.463   0.928
    2MOL1    Cl 2331   4.222   0.500   1.150
    2MOL1     H 2332   4.039   0.352   1.136
    2MOL1    Cl 2333   3.294   2.353   3.786
    2MOL1     C 2334   3.432   2.320   3.679
    2MOL1    Cl 2335   3.488   2.153   3.699
    2MOL1    Cl 2336   3.390   2.353   3.511
    2MOL1     H 2337   3.514   2.387   3.708
    2MOL1    Cl 2338   3.821   2.933   3.469
    2MOL1     C 2339   3.949   2.869   3.574
    2MOL1    Cl 2340   4.094   2.970   3.563
    2MOL1    Cl 2341   3.893   2.859   3.742
    2MOL1     H 2342   3.974   2.768   3.540
    2MOL1    Cl 2343   3.293   4.438   1.777
    2MOL1     C 2344   3.451   4.516   1.801
    2MOL1    Cl 2345   3.582   4.410   1.746
    2MOL1    Cl 2346   3.457   4.671   1.717
    2MOL1     H 2347   3.464   4.534   1.908
    2MOL1    Cl 2348   0.789   1.299   4.073
    2MOL1     C 2349   0.755   1.364   4.235
    2MOL1    Cl 2350   0.742   1.232   4.352
    2MOL1    Cl 2351   0.881   1.479   4.283
    2MOL1     H 2352   0.660   1.416   4.231
    2MOL1    Cl 2353   0.693   1.822   1.553
    2MOL1     C 2354   0.530   1.880   1.592
    2MOL1    Cl 2355   0.451   1.771   1.707
    2MOL1    Cl 2356   0.537   2.045   1.657
    2MOL1     H 2357   0.472   1.882   1.500
    2MOL1    Cl 2358   0.425   2.971   1.544
    2MOL1     C 2359   0.334   2.965   1.393
    2MOL1    Cl 2360   0.322   3.126   1.321
    2MOL1    Cl 2361   0.409   2.852   1.279
    2MOL1     H 2362   0.233   2.929   1.415
    2MOL1    Cl 2363   1.133   3.950   0.144
    2MOL1     C 2364   1.155   3.777   0.113
    2MOL1    Cl 2365   1.238   3.699   0.249
    2MOL1    Cl 2366   0.999   3.698   0.082
    2MOL1     H 2367   1.218   3.765   0.024
    2MOL1    Cl 2368   4.056   1.420   1.545
    2MOL1     C 2369   3.913   1.322   1.509
    2MOL1    Cl 2370   3.883   1.316   1.334
    2MOL1    Cl 2371   3.931   1.158   1.574
    2MOL1     H 2372   3.826   1.368   1.557
    2MOL1    Cl 2373   3.759   1.608   4.700
    2MOL1     C 2374   3.703   1.756   4.779
    2MOL1    Cl 2375   3.787   1.781   4.933
    2MOL1    Cl 2376   3.727   1.896   4.672
    2MOL1     H 2377   3.596   1.746   4.799
    2MOL1    Cl 2378   0.978   3.865   4.232
    2MOL1     C 2379   0.935   4.021   4.304
    2MOL1    Cl 2380   0.820   3.999   4.437
    2MOL1    Cl 2381   1.080   4.106   4.360
    2MOL1     H 2382   0.887   4.082   4.227
    2MOL1    Cl 2383   3.694   3.317   5.253
    2MOL1     C 2384   3.843   3.242   5.192
    2MOL1    Cl 2385   3.970   3.363   5.172
    2MOL1    Cl 2386   3.896   3.113   5.301
    2MOL1     H 2387   3.821   3.197   5.095
    2MOL1    Cl 2388   1.357   2.792   1.558
    2MOL1     C 2389   1.195   2.725   1.578
    2MOL1    Cl 2390   1.120   2.693   1.421
    2MOL1    Cl 2391   1.200   2.578   1.676
    2MOL1     H 2392   1.134   2.799   1.631
    2MOL1    Cl 2393   4.621   5.199   5.280
    2MOL1     C 2394   4.715   5.080   5.189
    2MOL1    Cl 2395   4.624   5.025   5.047
    2MOL1    Cl 2396   4.872   5.147   5.141
    2MOL1     H 2397   4.733   4.994   5.254
    2MOL1    Cl 2398   4.744   1.198   0.241
    2MOL1     C 2399   4.599   1.167   0.337
    2MOL1    Cl 2400   4.547   0.999   0.320
    2MOL1    Cl 2401   4.627   1.208   0.507
    2MOL1     H 2402   4.518   1.232   0.300
    2MOL1    Cl 2403   3.410   1.005   3.525
    2MOL1     C 2404   3.320   0.852   3.521
    2MOL1    Cl 2405   3.348   0.767   3.369
    2MOL1    Cl 2406   3.364   0.750   3.659
    2MOL1     H 2407   3.213   0.875   3.528
    2MOL1    Cl 2408   4.466   1.423   4.907
    2MOL1     C 2409   4.633   1.392   4.956
    2MOL1    Cl 2410   4.663   1.454   5.119
    2MOL1    Cl 2411   4.670   1.219   4.948
    2MOL1     H 2412   4.699   1.444   4.886
    2MOL1    Cl 2413   4.918   2.254   3.966
    2MOL1     C 2414   5.011   2.175   3.838
    2MOL1    Cl 2415   4.934   2.023   3.790
    2MOL1    Cl 2416   5.029   2.283   3.699
    2MOL1     H 2417   5.111   2.153   3.877
    2MOL1    Cl 2418   3.477   0.679   3.868
    2MOL1     C 2419   3.605   0.798   3.839
    2MOL1    Cl 2420   3.739   0.726   3.749
    2MOL1    Cl 2421   3.539   0.939   3.752
    2MOL1     H 2422   3.642   0.832   3.936
    2MOL1    Cl 2423   4.092   3.610   1.639
    2MOL1     C 2424   4.071   3.782   1.675
    2MOL1    Cl 2425   4.218   3.872   1.637
    2MOL1    Cl 2426   3.932   3.847   1.586
    2MOL1     H 2427   4.051   3.792   1.782
    2MOL1    Cl 2428   0.764   0.132   1.229
    2MOL1     C 2429   0.768   0.207   1.390
    2MOL1    Cl 2430   0.704   0.096   1.512
    2MOL1    Cl 2431   0.933   0.257   1.431
    2MOL1     H 2432   0.705   0.296   1.388
    2MOL1    Cl 2433   2.511   4.098   3.629
    2MOL1     C 2434   2.374   4.093   3.741
    2MOL1    Cl 2435   2.233   4.019   3.663
    2MOL1    Cl 2436   2.416   4.005   3.889
    2MOL1     H 2437   2.348   4.196   3.768
    2MOL1    Cl 2438   4.598   3.860   1.328
    2MOL1     C 2439   4.731   3.971   1.368
    2MOL1    Cl 2440   4.749   3.985   1.544
    2MOL1    Cl 2441   4.882   3.915   1.295
    2MOL1     H 2442   4.707   4.069   1.328
    2MOL1    Cl 2443   3.513   4.253   4.619
    2MOL1     C 2444   3.388   4.378   4.629
    2MOL1    Cl 2445   3.455   4.536   4.583
    2MOL1    Cl 2446   3.249   4.337   4.528
    2MOL1     H 2447   3.355   4.385   4.733
    2MOL1    Cl 2448   2.349   1.825   4.664
    2MOL1     C 2449   2.286   1.896   4.814
    2MOL1    Cl 2450   2.258   1.770   4.935
    2MOL1    Cl 2451   2.398   2.018   4.876
    2MOL1     H 2452   2.191   1.945   4.792
    2MOL1    Cl 2453   2.025   3.349   2.022
    2MOL1     C 2454   1.872   3.411   1.958
    2MOL1    Cl 2455   1.799   3.294   1.846
    2MOL1    Cl 2456   1.760   3.448   2.090
    2MOL1     H 2457   1.892   3.503   1.903
    2MOL1    Cl 2458   2.060   0.116   1.363
    2MOL1     C 2459   2.079   0.175   1.529
    2MOL1    Cl 2460   1.936   0.268   1.579
    2MOL1    Cl 2461   2.107   0.040   1.640
    2MOL1     H 2462   2.166   0.241   1.532
    2MOL1    Cl 2463   4.340   4.393   3.807
    2MOL1     C 2464   4.479   4.475   3.879
    2MOL1    Cl 2465   4.630   4.396   3.829
    2MOL1    Cl 2466   4.481   4.646   3.834
    2MOL1     H 2467   4.471   4.468   3.988
    2MOL1    Cl 2468   0.898   1.145   3.951
    2MOL1     C 2469   0.935   1.052   3.806
    2MOL1    Cl 2470   1.003   1.157   3.680
    2MOL1    Cl 2471   1.047   0.920   3.843
    2MOL1     H 2472   0.842   1.008   3.768
    2MOL1    Cl 2473   1.953   4.617   0.626
    2MOL1     C 2474   1.926   4.474   0.726
    2MOL1    Cl 2475   2.060   4.452   0.841
    2MOL1    Cl 2476   1.772   4.487   0.813
    2MOL1     H 2477   1.922   4.387   0.661
    2MOL1    Cl 2478   3.669   0.419   0.154
    2MOL1     C 2479   3.501   0.473   0.140
    2MOL1    Cl 2480   3.488   0.606   0.023
    2MOL1    Cl 2481   3.396   0.339   0.093
    2MOL1     H 2482   3.469   0.510   0.237
    2MOL1    Cl 2483   4.139   0.801   3.272
    2MOL1     C 2484   4.067   0.961   3.291
    2MOL1    Cl 2485   3.899   0.961   3.237
    2MOL1    Cl 2486   4.078   1.015   3.460
    2MOL1     H 2487   4.123   1.032   3.230
    2MOL1    Cl 2488   0.483   4.724   4.143
    2MOL1     C 2489   0.393   4.644   4.013
    2MOL1    Cl 2490   0.382   4.751   3.871
    2MOL1    Cl 2491   0.470   4.491   3.969
    2MOL1     H 2492   0.292   4.624   4.048
    2MOL1    Cl 2493   4.628   1.895   5.307
    2MOL1     C 2494   4.596   1.755   5.204
    2MOL1    Cl 2495   4.721   1.740   5.079
    2MOL1    Cl 2496   4.586   1.607   5.301
    2MOL1     H 2497   4.499   1.770   5.155
    2MOL1    Cl 2498   0.595   0.626   2.674
    2MOL1     C 2499   0.699   0.717   2.785
    2MOL1    Cl 2500   0.603   0.829   2.883
    2MOL1    Cl 2501   0.791   0.606   2.889
    2MOL1     H 2502   0.770   0.775   2.726
    2MOL1    Cl 2503   0.571   2.127   1.945
    2MOL1     C 2504   0.703   2.210   2.030
    2MOL1    Cl 2505   0.665   2.227   2.202
    2MOL1    Cl 2506   0.856   2.124   2.007
    2MOL1     H 2507   0.713   2.310   1.987
    2MOL1    Cl 2508   3.878   2.208   1.820
    2MOL1     C 2509   3.941   2.208   1.655
    2MOL1    Cl 2510   3.920   2.368   1.581
    2MOL1    Cl 2511   4.111   2.160   1.652
    2MOL1     H 2512   3.884   2.136   1.596
    2MOL1    Cl 2513   2.715   0.966   4.421
    2MOL1     C 2514   2.873   0.915   4.359
    2MOL1    Cl 2515   2.947   1.045   4.263
    2MOL1    Cl 2516   2.980   0.868   4.491
    2MOL1     H 2517   2.858   0.829   4.294
    2MOL1    Cl 2518   4.770   2.672   4.903
    2MOL1     C 2519   4.898   2.560   4.953
    2MOL1    Cl 2520   5.005   2.638   5.072
    2MOL1    Cl 2521   4.829   2.411   5.019
    2MOL1     H 2522   4.958   2.535   4.865
    2MOL1    Cl 2523   4.179   0.915   2.807
    2MOL1     C 2524   4.055   0.815   2.882
    2MOL1    Cl 2525   3.934   0.764   2.763
    2MOL1    Cl 2526   4.128   0.673   2.961
    2MOL1     H 2527   4.004   0.874   2.959
    2MOL1    Cl 2528   3.645   2.199   3.309
    2MOL1     C 2529   3.494   2.118   3.264
    2MOL1    Cl 2530   3.381   2.115   3.400
    2MOL1    Cl 2531   3.420   2.197   3.124
    2MOL1     H 2532   3.517   2.015   3.236
    2MOL1    Cl 2533   3.897   1.857   1.560
    2MOL1     C 2534   4.035   1.761   1.505
    2MOL1    Cl 2535   3.983   1.640   1.385
    2MOL1    Cl 2536   4.161   1.865   1.437
    2MOL1     H 2537   4.077   1.708   1.591
    2MOL1    Cl 2538   0.893   3.432   1.641
    2MOL1     C 2539   0.717   3.441   1.648
    2MOL1    Cl 2540   0.651   3.306   1.742
    2MOL1    Cl 2541   0.665   3.596   1.717
    2MOL1     H 2542   0.678   3.434   1.546
    2MOL1    Cl 2543   2.841   3.919   4.611
    2MOL1     C 2544   2.711   3.815   4.671
    2MOL1    Cl 2545   2.668   3.693   4.551
    2MOL1    Cl 2546   2.759   3.739   4.824
    2MOL1     H 2547   2.623   3.878   4.690
    2MOL1    Cl 2548   2.305   1.708   2.062
    2MOL1     C 2549   2.173   1.619   1.986
    2MOL1    Cl 2550   2.058   1.731   1.910
    2MOL1    Cl 2551   2.235   1.504   1.866
    2MOL1     H 2552   2.120   1.562   2.063
    2MOL1    Cl 2553   4.721   2.760   0.350
    2MOL1     C 2554   4.785   2.596   0.327
    2MOL1    Cl 2555   4.682   2.504   0.216
    2MOL1    Cl 2556   4.951   2.604   0.266
    2MOL1     H 2557   4.787   2.546   0.424
    2MOL1    Cl 2558   3.469   4.577   3.485
    2MOL1     C 2559   3.310   4.583   3.561
    2MOL1    Cl 2560   3.208   4.450   3.502
    2MOL1    Cl 2561   3.325   4.576   3.737
    2MOL1     H 2562   3.262   4.677   3.534
    2MOL1    Cl 2563   5.340   3.769   5.335
    2MOL1     C 2564   5.296   3.881   5.204
    2MOL1    Cl 2565   5.233   3.792   5.065
    2MOL1    Cl 2566   5.178   4.000   5.261
    2MOL1     H 2567   5.386   3.934   5.173
    2MOL1    Cl 2568   1.236   2.447   4.010
    2MOL1     C 2569   1.065   2.401   4.015
    2MOL1    Cl 2570   1.011   2.343   3.857
    2MOL1    Cl 2571   1.039   2.277   4.140
    2MOL1     H 2572   1.007   2.489   4.042
    2MOL1    Cl 2573   2.937   2.805   1.179
    2MOL1     C 2574   2.843   2.830   1.327
    2MOL1    Cl 2575   2.794   2.999   1.342
    2MOL1    Cl 2576   2.701   2.724   1.329
    2MOL1     H 2577   2.906   2.804   1.413
    2MOL1    Cl 2578   2.780   4.991   3.433
    2MOL1     C 2579   2.710   4.843   3.365
    2MOL1    Cl 2580   2.628   4.879   3.211
    2MOL1    Cl 2581   2.835   4.720   3.341
    2MOL1     H 2582   2.636   4.804   3.435
    2MOL1    Cl 2583   5.346   2.740   4.089
    2MOL1     C 2584   5.245   2.751   4.234
    2MOL1    Cl 2585   5.320   2.856   4.355
    2MOL1    Cl 2586   5.083   2.810   4.192
    2MOL1     H 2587   5.235   2.651   4.277
    2MOL1    Cl 2588   2.981   2.293   3.587
    2MOL1     C 2589   2.806   2.317   3.571
    2MOL1    Cl 2590   2.767   2.390   3.415
    2MOL1    Cl 2591   2.721   2.163   3.591
    2MOL1     H 2592   2.774   2.385   3.650
    2MOL1    Cl 2593   2.243   0.818   3.987
    2MOL1     C 2594   2.184   0.977   4.037
    2MOL1    Cl 2595   2.073   0.962   4.174
    2MOL1    Cl 2596   2.320   1.084   4.079
    2MOL1     H 2597   2.130   1.022   3.953
    2MOL1    Cl 2598   1.192   0.547   0.952
    2MOL1     C 2599   1.157   0.389   0.881
    2MOL1    Cl 2600   1.036   0.303   0.977
    2MOL1    Cl 2601   1.103   0.406   0.713
    2MOL1     H 2602   1.250   0.330   0.882
    2MOL1    Cl 2603   4.417   1.382   3.840
    2MOL1     C 2604   4.396   1.460   3.682
    2MOL1    Cl 2605   4.234   1.531   3.669
    2MOL1    Cl 2606   4.521   1.583   3.657
    2MOL1     H 2607   4.407   1.384   3.605
    2MOL1    Cl 2608   3.471   4.860   3.279
    2MOL1     C 2609   3.458   4.983   3.406
    2MOL1    Cl 2610   3.358   5.119   3.351
    2MOL1    Cl 2611   3.390   4.913   3.554
    2MOL1     H 2612   3.558   5.020   3.428
    2MOL1    Cl 2613   2.269   2.553   3.084
    2MOL1     C 2614   2.444   2.570   3.106
    2MOL1    Cl 2615   2.482   2.710   3.207
    2MOL1    Cl 2616   2.512   2.422   3.176
    2MOL1     H 2617   2.490   2.585   3.008
    2MOL1    Cl 2618   1.835   0.555   5.360
    2MOL1     C 2619   1.744   0.672   5.263
    2MOL1    Cl 2620   1.664   0.591   5.127
    2MOL1    Cl 2621   1.625   0.756   5.363
    2MOL1     H 2622   1.814   0.745   5.223
    2MOL1    Cl 2623   2.430   4.573   4.413
    2MOL1     C 2624   2.502   4.411   4.414
    2MOL1    Cl 2625   2.655   4.411   4.504
    2MOL1    Cl 2626   2.389   4.294   4.484
    2MOL1     H 2627   2.523   4.382   4.311
    2MOL1    Cl 2628   1.175   3.807   5.075
    2MOL1     C 2629   1.023   3.897   5.064
    2MOL1    Cl 2630   1.001   3.963   4.901
    2MOL1    Cl 2631   0.886   3.794   5.108
    2MOL1     H 2632   1.027   3.981   5.134
    2MOL1    Cl 2633   5.343   3.262   1.884
    2MOL1     C 2634   5.345   3.085   1.891
    2MOL1    Cl 2635   5.336   3.029   2.059
    2MOL1    Cl 2636   5.212   3.017   1.795
    2MOL1     H 2637   5.439   3.050   1.848
    2MOL1    Cl 2638   3.542   1.420   3.540
    2MOL1     C 2639   3.568   1.255   3.601
    2MOL1    Cl 2640   3.681   1.167   3.497
    2MOL1    Cl 2641   3.629   1.260   3.768
    2MOL1     H 2642   3.473   1.203   3.601
    2MOL1    Cl 2643   0.242   1.259   1.718
    2MOL1     C 2644   0.309   1.334   1.865
    2MOL1    Cl 2645   0.485   1.348   1.853
    2MOL1    Cl 2646   0.235   1.492   1.893
    2MOL1     H 2647   0.285   1.269   1.950
    2MOL1    Cl 2648   1.812   0.276   1.266
    2MOL1     C 2649   1.755   0.111   1.296
    2MOL1    Cl 2650   1.863   0.026   1.408
    2MOL1    Cl 2651   1.590   0.114   1.360
    2MOL1     H 2652   1.754   0.057   1.201
    2MOL1    Cl 2653   2.942   3.099   3.823
    2MOL1     C 2654   2.995   2.974   3.936
    2MOL1    Cl 2655   3.027   2.822   3.850
    2MOL1    Cl 2656   3.139   3.027   4.025
    2MOL1     H 2657   2.915   2.956   4.008
    2MOL1    Cl 2658   5.368   3.491   1.140
    2MOL1     C 2659   5.342   3.380   1.276
    2MOL1    Cl 2660   5.497   3.313   1.331
    2MOL1    Cl 2661   5.259   3.462   1.409
    2MOL1     H 2662   5.279   3.298   1.241
    2MOL1    Cl 2663   1.984   0.369   0.130
    2MOL1     C 2664   2.131   0.304   0.203
    2MOL1    Cl 2665   2.222   0.431   0.285
    2MOL1    Cl 2666   2.092   0.173   0.315
    2MOL1     H 2667   2.194   0.263   0.123
    2MOL1    Cl 2668   1.118   1.840   3.002
    2MOL1     C 2669   1.281   1.903   2.977
    2MOL1    Cl 2670   1.348   1.966   3.128
    2MOL1    Cl 2671   1.387   1.777   2.910
    2MOL1     H 2672   1.276   1.985   2.905
    2MOL1    Cl 2673   3.072   3.785   2.477
    2MOL1     C 2674   2.942   3.905   2.491
    2MOL1    Cl 2675   2.786   3.833   2.449
    2MOL1    Cl 2676   2.938   3.973   2.654
    2MOL1     H 2677   2.963   3.986   2.421
    2MOL1    Cl 2678   1.850   0.730   2.835
    2MOL1     C 2679   1.735   0.612   2.900
    2MOL1    Cl 2680   1.592   0.600   2.797
    2MOL1    Cl 2681   1.813   0.453   2.917
    2MOL1     H 2682   1.704   0.645   3.000
    2MOL1    Cl 2683   5.453   4.950   2.813
    2MOL1     C 2684   5.296   5.027   2.785
    2MOL1    Cl 2685   5.287   5.090   2.619
    2MOL1    Cl 2686   5.164   4.912   2.815
    2MOL1     H 2687   5.285   5.111   2.854
    2MOL1    Cl 2688   2.988   4.077   3.212
    2MOL1     C 2689   2.877   3.944   3.250
    2MOL1    Cl 2690   2.952   3.788   3.215
    2MOL1    Cl 2691   2.826   3.952   3.419
    2MOL1     H 2692   2.788   3.954   3.187
    2MOL1    Cl 2693   5.430   5.081   0.271
    2MOL1     C 2694   5.255   5.098   0.259
    2MOL1    Cl 2695   5.182   4.950   0.194
    2MOL1    Cl 2696   5.185   5.137   0.417
    2MOL1     H 2697   5.232   5.180   0.190
    2MOL1    Cl 2698   1.938   4.101   5.208
    2MOL1     C 2699   1.762   4.078   5.214
    2MOL1    Cl 2700   1.678   4.227   5.169
    2MOL1    Cl 2701   1.713   3.945   5.108
    2MOL1     H 2702   1.734   4.052   5.316
    2MOL1    Cl 2703   0.518   1.144   2.919
    2MOL1     C 2704   0.633   1.189   3.046
    2MOL1    Cl 2705   0.784   1.098   3.029
    2MOL1    Cl 2706   0.664   1.364   3.042
    2MOL1     H 2707   0.588   1.164   3.143
    2MOL1    Cl 2708   4.715   0.622   4.886
    2MOL1     C 2709   4.842   0.499   4.893
    2MOL1    Cl 2710   4.967   0.533   4.772
    2MOL1    Cl 2711   4.913   0.492   5.055
    2MOL1     H 2712   4.798   0.402   4.871
    2MOL1    Cl 2713   4.574   2.410   2.380
    2MOL1     C 2714   4.552   2.506   2.526
    2MOL1    Cl 2715   4.421   2.624   2.505
    2MOL1    Cl 2716   4.519   2.401   2.665
    2MOL1     H 2717   4.644   2.561   2.546
    2MOL1    Cl 2718   3.772   4.535   1.648
    2MOL1     C 2719   3.733   4.685   1.734
    2MOL1    Cl 2720   3.879   4.757   1.804
    2MOL1    Cl 2721   3.653   4.801   1.626
    2MOL1     H 2722   3.664   4.661   1.815
    2MOL1    Cl 2723   5.557   5.356   0.814
    2MOL1     C 2724   5.451   5.219   0.775
    2MOL1    Cl 2725   5.321   5.270   0.666
    2MOL1    Cl 2726   5.545   5.087   0.704
    2MOL1     H 2727   5.406   5.183   0.868
    2MOL1    Cl 2728   4.357   5.256   0.341
    2MOL1     C 2729   4.206   5.188   0.277
    2MOL1    Cl 2730   4.238   5.089   0.134
    2MOL1    Cl 2731   4.124   5.092   0.402
    2MOL1     H 2732   4.141   5.270   0.248
    2MOL1    Cl 2733   0.953   4.935   2.416
    2MOL1     C 2734   0.887   5.090   2.363
    2MOL1    Cl 2735   0.747   5.136   2.461
    2MOL1    Cl 2736   1.012   5.216   2.370
    2MOL1     H 2737   0.855   5.080   2.259
    2MOL1    Cl 2738   2.933   5.224   4.470
    2MOL1     C 2739   3.094   5.157   4.437
    2MOL1    Cl 2740   3.083   5.021   4.323
    2MOL1    Cl 2741   3.202   5.282   4.374
    2MOL1     H 2742   3.136   5.119   4.531
    2MOL1    Cl 2743   4.548   4.058   1.892
    2MOL1     C 2744   4.643   4.207   1.885
    2MOL1    Cl 2745   4.815   4.170   1.866
    2MOL1    Cl 2746   4.586   4.310   1.753
    2MOL1     H 2747   4.629   4.261   1.979
    2MOL1    Cl 2748   3.347   3.736   4.861
    2MOL1     C 2749   3.507   3.712   4.930
    2MOL1    Cl 2750   3.523   3.800   5.083
    2MOL1    Cl 2751   3.539   3.539   4.955
    2MOL1     H 2752   3.582   3.751   4.860
    2MOL1    Cl 2753   3.069   0.736   4.330
    2MOL1     C 2754   2.978   0.590   4.372
    2MOL1    Cl 2755   3.048   0.513   4.515
    2MOL1    Cl 2756   2.807   0.628   4.398
    2MOL1     H 2757   2.986   0.520   4.288
    2MOL1    Cl 2758   3.652   3.236   1.728
    2MOL1     C 2759   3.599   3.345   1.857
    2MOL1    Cl 2760   3.700   3.490   1.861
    2MOL1    Cl 2761   3.429   3.388   1.836
    2MOL1     H 2762   3.610   3.292   1.953
    2MOL1    Cl 2763   0.483   2.931   3.655
    2MOL1     C 2764   0.337   3.028   3.686
    2MOL1    Cl 2765   0.233   2.948   3.804
    2MOL1    Cl 2766   0.381   3.191   3.741
    2MOL1     H 2767   0.282   3.038   3.592
    2MOL1    Cl 2768   2.002   4.160   3.093
    2MOL1     C 2769   1.853   4.254   3.114
    2MOL1    Cl 2770   1.712   4.161   3.060
    2MOL1    Cl 2771   1.834   4.304   3.283
    2MOL1     H 2772   1.861   4.344   3.052
    2MOL1    Cl 2773   3.149   4.241   1.950
    2MOL1     C 2774   3.068   4.243   1.793
    2MOL1    Cl 2775   2.908   4.168   1.805
    2MOL1    Cl 2776   3.055   4.409   1.732
    2MOL1     H 2777   3.128   4.185   1.723
    2MOL1    Cl 2778   5.347   1.850   2.911
    2MOL1     C 2779   5.380   1.686   2.971
    2MOL1    Cl 2780   5.502   1.690   3.100
    2MOL1    Cl 2781   5.231   1.610   3.028
    2MOL1     H 2782   5.420   1.627   2.888
    2MOL1    Cl 2783   4.514   3.527   2.951
    2MOL1     C 2784   4.656   3.464   3.034
    2MOL1    Cl 2785   4.800   3.474   2.931
    2MOL1    Cl 2786   4.683   3.551   3.186
    2MOL1     H 2787   4.639   3.359   3.058
    2MOL1    Cl 2788   2.839   4.860   2.708
    2MOL1     C 2789   2.988   4.955   2.694
    2MOL1    Cl 2790   2.983   5.094   2.803
    2MOL1    Cl 2791   3.130   4.854   2.728
    2MOL1     H 2792   2.996   4.991   2.591
    2MOL1    Cl 2793   3.347   3.221   2.586
    2MOL1     C 2794   3.270   3.249   2.429
    2MOL1    Cl 2795   3.193   3.101   2.370
    2MOL1    Cl 2796   3.151   3.380   2.442
    2MOL1     H 2797   3.346   3.279   2.358
    2MOL1    Cl 2798   2.255   3.449   4.212
    2MOL1     C 2799   2.109   3.548   4.198
    2MOL1    Cl 2800   2.137   3.686   4.091
    2MOL1    Cl 2801   1.973   3.450   4.139
    2MOL1     H 2802   2.083   3.586   4.297
    2MOL1    Cl 2803   5.021   1.776   0.858
    2MOL1     C 2804   5.042   1.779   0.683
    2MOL1    Cl 2805   5.214   1.770   0.641
    2MOL1    Cl 2806   4.953   1.646   0.607
    2MOL1     H 2807   5.003   1.873   0.645
    2MOL1    Cl 2808   2.320   2.898   2.126
    2MOL1     C 2809   2.332   3.074   2.134
    2MOL1    Cl 2810   2.456   3.133   2.023
    2MOL1    Cl 2811   2.175   3.149   2.098
    2MOL1     H 2812   2.360   3.102   2.236
    2MOL1    Cl 2813   2.156   1.042   5.127
    2MOL1     C 2814   2.218   0.986   4.971
    2MOL1    Cl 2815   2.385   1.041   4.946
    2MOL1    Cl 2816   2.209   0.809   4.960
    2MOL1     H 2817   2.156   1.028   4.892
    2MOL1    Cl 2818   0.465   5.274   4.030
    2MOL1     C 2819   0.535   5.114   4.003
    2MOL1    Cl 2820   0.432   5.019   3.894
    2MOL1    Cl 2821   0.699   5.127   3.938
    2MOL1     H 2822   0.540   5.062   4.099
    2MOL1    Cl 2823   1.731   4.523   1.686
    2MOL1     C 2824   1.905   4.514   1.719
    2MOL1    Cl 2825   1.958   4.655   1.813
    2MOL1    Cl 2826   1.945   4.364   1.805
    2MOL1     H 2827   1.958   4.515   1.624
    2MOL1    Cl 2828   5.305   1.022   4.267
    2MOL1     C 2829   5.128   1.026   4.272
    2MOL1    Cl 2830   5.059   0.931   4.139
    2MOL1    Cl 2831   5.069   0.965   4.429
    2MOL1     H 2832   5.095   1.129   4.261
    2MOL1    Cl 2833   2.427   3.302   0.313
    2MOL1     C 2834   2.603   3.301   0.298
    2MOL1    Cl 2835   2.651   3.322   0.129
    2MOL1    Cl 2836   2.676   3.427   0.400
    2MOL1     H 2837   2.640   3.204   0.332
    2MOL1    Cl 2838   2.975   4.213   1.552
    2MOL1     C 2839   2.975   4.312   1.405
    2MOL1    Cl 2840   2.892   4.228   1.273
    2MOL1    Cl 2841   2.898   4.469   1.436
    2MOL1     H 2842   3.078   4.330   1.375
    2MOL1    Cl 2843   1.653   0.880   4.034
    2MOL1     C 2844   1.815   0.898   3.966
    2MOL1    Cl 2845   1.870   1.066   3.979
    2MOL1    Cl 2846   1.929   0.789   4.048
    2MOL1     H 2847   1.812   0.871   3.860
    2MOL1    Cl 2848   1.936   1.043   2.973
    2MOL1     C 2849   1.829   1.175   2.922
    2MOL1    Cl 2850   1.875   1.235   2.762
    2MOL1    Cl 2851   1.660   1.121   2.922
    2MOL1     H 2852   1.839   1.256   2.994
    2MOL1    Cl 2853   1.224   1.624   3.214
    2MOL1     C 2854   1.138   1.763   3.283
    2MOL1    Cl 2855   0.963   1.747   3.259
    2MOL1    Cl 2856   1.176   1.780   3.455
    2MOL1     H 2857   1.172   1.854   3.231
    2MOL1    Cl 2858   3.938   4.348   3.137
    2MOL1     C 2859   4.082   4.320   3.038
    2MOL1    Cl 2860   4.229   4.361   3.128
    2MOL1    Cl 2861   4.088   4.151   2.983
    2MOL1     H 2862   4.076   4.384   2.950
    2MOL1    Cl 2863   2.880   5.141   0.344
    2MOL1     C 2864   2.919   5.152   0.516
    2MOL1    Cl 2865   2.888   5.316   0.576
    2MOL1    Cl 2866   2.825   5.033   0.609
    2MOL1     H 2867   3.025   5.130   0.529
    2MOL1    Cl 2868   1.990   3.874   3.997
    2MOL1     C 2869   1.881   3.839   4.132
    2MOL1    Cl 2870   1.812   3.988   4.197
    2MOL1    Cl 2871   1.753   3.728   4.080
    2MOL1     H 2872   1.939   3.790   4.211
    2MOL1    Cl 2873   2.478   2.187   1.264
    2MOL1     C 2874   2.606   2.277   1.349
    2MOL1    Cl 2875   2.542   2.428   1.416
    2MOL1    Cl 2876   2.677   2.177   1.477
    2MOL1     H 2877   2.684   2.301   1.276
    2MOL1    Cl 2878   3.352   0.242   3.651
    2MOL1     C 2879   3.305   0.199   3.816
    2MOL1    Cl 2880   3.140   0.254   3.849
    2MOL1    Cl 2881   3.318   0.024   3.840
    2MOL1     H 2882   3.372   0.249   3.885
    2MOL1    Cl 2883   2.188   1.346   2.273
    2MOL1     C 2884   2.292   1.301   2.138
    2MOL1    Cl 2885   2.455   1.260   2.195
    2MOL1    Cl 2886   2.222   1.165   2.048
    2MOL1     H 2887   2.300   1.386   2.070
    2MOL1    Cl 2888   2.657   2.897   0.302
    2MOL1     C 2889   2.482   2.890   0.329
    2MOL1    Cl 2890   2.441   2.757   0.438
    2MOL1    Cl 2891   2.424   3.044   0.394
    2MOL1     H 2892   2.433   2.873   0.233
    2MOL1    Cl 2893   3.672   2.652   4.332
    2MOL1     C 2894   3.817   2.560   4.376
    2MOL1    Cl 2895   3.790   2.472   4.527
    2MOL1    Cl 2896   3.862   2.449   4.245
    2MOL1     H 2897   3.899   2.631   4.391
    2MOL1    Cl 2898   1.173   0.409   1.945
    2MOL1     C 2899   1.003   0.410   1.995
    2MOL1    Cl 2900   0.960   0.567   2.066
    2MOL1    Cl 2901   0.897   0.373   1.858
    2MOL1     H 2902   0.989   0.333   2.071
    2MOL1    Cl 2903   4.599   4.991   0.937
    2MOL1     C 2904   4.514   4.883   0.825
    2MOL1    Cl 2905   4.381   4.968   0.744
    2MOL1    Cl 2906   4.627   4.816   0.705
    2MOL1     H 2907   4.472   4.800   0.883
    2MOL1    Cl 2908   0.403   4.491   1.158
    2MOL1     C 2909   0.510   4.355   1.121
    2MOL1    Cl 2910   0.677   4.395   1.161
    2MOL1    Cl 2911   0.458   4.210   1.207
    2MOL1     H 2912   0.504   4.335   1.013
    2MOL1    Cl 2913   2.587   2.449   3.758
    2MOL1     C 2914   2.430   2.366   3.757
    2MOL1    Cl 2915   2.422   2.247   3.888
    2MOL1    Cl 2916   2.298   2.484   3.772
    2MOL1     H 2917   2.419   2.314   3.662
    2MOL1    Cl 2918   0.914   4.118   1.138
    2MOL1     C 2919   0.818   4.092   1.284
    2MOL1    Cl 2920   0.916   4.016   1.411
    2MOL1    Cl 2921   0.750   4.246   1.342
    2MOL1     H 2922   0.735   4.025   1.260
    2MOL1    Cl 2923   1.551   4.036   0.527
    2MOL1     C 2924   1.609   3.905   0.424
    2MOL1    Cl 2925   1.554   3.926   0.257
    2MOL1    Cl 2926   1.786   3.895   0.430
    2MOL1     H 2927   1.569   3.810   0.462
    2MOL1    Cl 2928   3.427   2.291   2.583
    2MOL1     C 2929   3.415   2.114   2.579
    2MOL1    Cl 2930   3.298   2.057   2.699
    2MOL1    Cl 2931   3.370   2.059   2.417
    2MOL1     H 2932   3.513   2.073   2.603
    2MOL1    Cl 2933   2.261   2.642   2.429
    2MOL1     C 2934   2.148   2.772   2.470
    2MOL1    Cl 2935   1.983   2.709   2.482
    2MOL1    Cl 2936   2.195   2.850   2.622
    2MOL1     H 2937   2.151   2.847   2.391
    2MOL1    Cl 2938   3.558   5.006   2.147
    2MOL1     C 2939   3.642   5.161   2.133
    2MOL1    Cl 2940   3.778   5.148   2.020
    2MOL1    Cl 2941   3.531   5.288   2.082
    2MOL1     H 2942   3.682   5.187   2.232
    2MOL1    Cl 2943   1.055   2.584   4.444
    2MOL1     C 2944   1.214   2.551   4.515
    2MOL1    Cl 2945   1.325   2.486   4.392
    2MOL1    Cl 2946   1.282   2.698   4.587
    2MOL1     H 2947   1.202   2.476   4.593
    2MOL1    Cl 2948   4.747   3.824   5.052
    2MOL1     C 2949   4.867   3.923   4.967
    2MOL1    Cl 2950   4.886   3.869   4.800
    2MOL1    Cl 2951   4.821   4.094   4.973
    2MOL1     H 2952   4.963   3.911   5.019
    2MOL1    Cl 2953   5.248   2.061   4.139
    2MOL1     C 2954   5.154   1.918   4.187
    2MOL1    Cl 2955   5.042   1.871   4.058
    2MOL1    Cl 2956   5.262   1.784   4.228
    2MOL1     H 2957   5.096   1.944   4.276
    2MOL1    Cl 2958   4.342   2.249   2.677
    2MOL1     C 2959   4.357   2.288   2.849
    2MOL1    Cl 2960   4.199   2.280   2.929
    2MOL1    Cl 2961   4.472   2.179   2.928
    2MOL1     H 2962   4.395   2.390   2.858
    2MOL1    Cl 2963   1.637   2.709   5.248
    2MOL1     C 2964   1.689   2.872   5.201
    2MOL1    Cl 2965   1.678   2.983   5.339
    2MOL1    Cl 2966   1.854   2.868   5.137
    2MOL1     H 2967   1.622   2.908   5.122
    2MOL1    Cl 2968   4.079   2.102   3.082
    2MOL1     C 2969   3.943   2.198   3.143
    2MOL1    Cl 2970   3.815   2.209   3.021
    2MOL1    Cl 2971   3.880   2.128   3.293
    2MOL1     H 2972   3.979   2.299   3.165
    2MOL1    Cl 2973   2.919   4.812   1.150
    2MOL1     C 2974   3.018   4.894   1.028
    2MOL1    Cl 2975   3.032   4.795   0.881
    2MOL1    Cl 2976   2.950   5.053   0.989
    2MOL1     H 2977   3.118   4.909   1.069
    2MOL1    Cl 2978   1.880   3.940   0.740
    2MOL1     C 2979   1.902   3.884   0.906
    2MOL1    Cl 2980   1.752   3.816   0.970
    2MOL1    Cl 2981   2.033   3.765   0.915
    2MOL1     H 2982   1.930   3.970   0.968
    2MOL1    Cl 2983   5.419   3.083   5.167
    2MOL1     C 2984   5.338   3.241   5.176
    2MOL1    Cl 2985   5.278   3.290   5.017
    2MOL1    Cl 2986   5.206   3.236   5.294
    2MOL1     H 2987   5.411   3.315   5.210
    2MOL1    Cl 2988   3.225   5.212   3.092
    2MOL1     C 2989   3.164   5.047   3.114
    2MOL1    Cl 2990   2.989   5.042   3.090
    2MOL1    Cl 2991   3.246   4.936   3.004
    2MOL1     H 2992   3.186   5.016   3.217
    2MOL1    Cl 2993   4.967   3.779   3.547
    2MOL1     C 2994   5.040   3.886   3.667
    2MOL1    Cl 2995   4.928   4.017   3.710
    2MOL1    Cl 2996   5.088   3.795   3.811
    2MOL1     H 2997   5.129   3.931   3.623
    2MOL1    Cl 2998   1.719   1.103   3.134
    2MOL1     C 2999   1.796   0.966   3.216
    2MOL1    Cl 3000   1.802   0.825   3.109
    2MOL1    Cl 3001   1.958   1.009   3.272
    2MOL1     H 3002   1.735   0.939   3.303
    2MOL1    Cl 3003   3.689   2.857   4.668
    2MOL1     C 3004   3.549   2.758   4.622
    2MOL1    Cl 3005   3.510   2.642   4.750
    2MOL1    Cl 3006   3.409   2.860   4.585
    2MOL1     H 3007   3.575   2.702   4.532
    2MOL1    Cl 3008   2.708   4.253   0.689
    2MOL1     C 3009   2.584   4.359   0.620
    2MOL1    Cl 3010   2.571   4.334   0.445
    2MOL1    Cl 3011   2.428   4.331   0.699
    2MOL1     H 3012   2.613   4.463   0.637
    2MOL1    Cl 3013   3.376   1.715   0.185
    2MOL1     C 3014   3.477   1.632   0.305
    2MOL1    Cl 3015   3.423   1.671   0.469
    2MOL1    Cl 3016   3.473   1.456   0.279
    2MOL1     H 3017   3.580   1.666   0.293
    2MOL1    Cl 3018   2.485   1.645   4.083
    2MOL1     C 3019   2.585   1.791   4.081
    2MOL1    Cl 3020   2.685   1.796   3.935
    2MOL1    Cl 3021   2.483   1.936   4.091
    2MOL1     H 3022   2.651   1.789   4.168
    2MOL1    Cl 3023   1.662   1.129   2.703
    2MOL1     C 3024   1.514   1.034   2.679
    2MOL1    Cl 3025   1.398   1.123   2.579
    2MOL1    Cl 3026   1.552   0.877   2.606
    2MOL1     H 3027   1.469   1.016   2.777
    2MOL1    Cl 3028   3.143   4.505   5.222
    2MOL1     C 3029   3.062   4.357   5.166
    2MOL1    Cl 3030   2.944   4.395   5.040
    2MOL1    Cl 3031   3.181   4.240   5.106
    2MOL1     H 3032   3.010   4.312   5.251
    2MOL1    Cl 3033   2.378   4.706   1.492
    2MOL1     C 3034   2.506   4.597   1.546
    2MOL1    Cl 3035   2.488   4.437   1.471
    2MOL1    Cl 3036   2.666   4.665   1.508
    2MOL1     H 3037   2.498   4.586   1.654
    2MOL1    Cl 3038   1.162   2.425   5.061
    2MOL1     C 3039   1.167   2.561   5.173
    2MOL1    Cl 3040   1.010   2.644   5.180
    2MOL1    Cl 3041   1.215   2.506   5.335
    2MOL1     H 3042   1.242   2.633   5.138
    2MOL1    Cl 3043   1.944   1.365   1.891
    2MOL1     C 3044   1.882   1.203   1.857
    2MOL1    Cl 3045   1.905   1.163   1.686
    2MOL1    Cl 3046   1.961   1.083   1.961
    2MOL1     H 3047   1.775   1.202   1.879
    2MOL1    Cl 3048   0.771   3.551   3.828
    2MOL1     C 3049   0.752   3.653   3.684
    2MOL1    Cl 3050   0.906   3.669   3.599
    2MOL1    Cl 3051   0.628   3.586   3.576
    2MOL1     H 3052   0.719   3.752   3.717
    2MOL1    Cl 3053   0.411   0.052   3.926
    2MOL1     C 3054   0.523   0.172   3.859
    2MOL1    Cl 3055   0.651   0.092   3.765
    2MOL1    Cl 3056   0.436   0.289   3.759
    2MOL1     H 3057   0.570   0.225   3.942
    2MOL1    Cl 3058   4.367   5.276   3.417
    2MOL1     C 3059   4.509   5.233   3.319
    2MOL1    Cl 3060   4.637   5.166   3.421
    2MOL1    Cl 3061   4.464   5.118   3.192
    2MOL1     H 3062   4.547   5.324   3.272
    2MOL1    Cl 3063   3.401   3.896   1.584
    2MOL1     C 3064   3.492   4.047   1.570
    2MOL1    Cl 3065   3.512   4.123   1.729
    2MOL1    Cl 3066   3.650   4.018   1.495
    2MOL1     H 3067   3.436   4.116   1.506
    2MOL1    Cl 3068   4.770   4.195   3.939
    2MOL1     C 3069   4.862   4.290   3.821
    2MOL1    Cl 3070   4.789   4.276   3.660
    2MOL1    Cl 3071   4.871   4.460   3.870
    2MOL1     H 3072   4.963   4.250   3.815
    2MOL1    Cl 3073   1.242   3.622   0.456
    2MOL1     C 3074   1.136   3.760   0.487
    2MOL1    Cl 3075   1.210   3.868   0.607
    2MOL1    Cl 3076   1.102   3.848   0.337
    2MOL1     H 3077   1.042   3.723   0.528
    2MOL1    Cl 3078   5.172   2.338   5.141
    2MOL1     C 3079   5.346   2.371   5.130
    2MOL1    Cl 3080   5.425   2.255   5.022
    2MOL1    Cl 3081   5.374   2.537   5.075
    2MOL1     H 3082   5.389   2.360   5.230
    2MOL1    Cl 3083   1.385   5.299   2.421
    2MOL1     C 3084   1.274   5.247   2.549
    2MOL1    Cl 3085   1.121   5.336   2.538
    2MOL1    Cl 3086   1.245   5.072   2.539
    2MOL1     H 3087   1.320   5.269   2.645
    2MOL1    Cl 3088   1.345   1.216   4.105
    2MOL1     C 3089   1.205   1.291   4.184
    2MOL1    Cl 3090   1.103   1.168   4.260
    2MOL1    Cl 3091   1.258   1.411   4.303
    2MOL1     H 3092   1.146   1.343   4.108
    2MOL1    Cl 3093   4.127   2.680   4.409
    2MOL1     C 3094   4.135   2.733   4.240
    2MOL1    Cl 3095   4.099   2.598   4.131
    2MOL1    Cl 3096   4.025   2.868   4.212
    2MOL1     H 3097   4.237   2.767   4.220
    2MOL1    Cl 3098   2.369   3.502   5.227
    2MOL1     C 3099   2.539   3.540   5.195
    2MOL1    Cl 3100   2.562   3.716   5.181
    2MOL1    Cl 3101   2.643   3.474   5.323
    2MOL1     H 3102   2.568   3.494   5.100
    2MOL1    Cl 3103   1.659   0.701   1.077
    2MOL1     C 3104   1.524   0.641   0.980
    2MOL1    Cl 3105   1.533   0.465   0.963
    2MOL1    Cl 3106   1.369   0.688   1.053
    2MOL1     H 3107   1.530   0.686   0.881
    2MOL1    Cl 3108   0.694   3.751   0.740
    2MOL1     C 3109   0.628   3.705   0.583
    2MOL1    Cl 3110   0.722   3.573   0.511
    2MOL1    Cl 3111   0.457   3.659   0.597
    2MOL1     H 3112   0.634   3.792   0.516
    2MOL1    Cl 3113   3.507   1.635   3.512
    2MOL1     C 3114   3.452   1.788   3.441
    2MOL1    Cl 3115   3.499   1.798   3.271
    2MOL1    Cl 3116   3.277   1.805   3.458
    2MOL1     H 3117   3.500   1.870   3.495
    2MOL1    Cl 3118   3.070   4.635   0.214
    2MOL1     C 3119   3.061   4.773   0.324
    2MOL1    Cl 3120   3.154   4.910   0.260
    2MOL1    Cl 3121   2.892   4.820   0.352
    2MOL1     H 3122   3.105   4.744   0.420
    2MOL1    Cl 3123   3.958   3.416   3.302
    2MOL1     C 3124   3.914   3.551   3.408
    2MOL1    Cl 3125   3.744   3.540   3.455
    2MOL1    Cl 3126   4.019   3.555   3.551
    2MOL1     H 3127   3.929   3.644   3.352
    2MOL1    Cl 3128   3.300   4.101   1.108
    2MOL1     C 3129   3.185   3.986   1.037
    2MOL1    Cl 3130   3.234   3.942   0.872
    2MOL1    Cl 3131   3.171   3.841   1.138
    2MOL1     H 3132   3.087   4.034   1.032
    2MOL1    Cl 3133   4.635   4.281   1.147
    2MOL1     C 3134   4.733   4.392   1.245
    2MOL1    Cl 3135   4.849   4.301   1.344
    2MOL1    Cl 3136   4.818   4.508   1.142
    2MOL1     H 3137   4.667   4.447   1.312
    2MOL1    Cl 3138   4.759   3.246   0.265
    2MOL1     C 3139   4.818   3.088   0.319
    2MOL1    Cl 3140   4.734   2.958   0.233
    2MOL1    Cl 3141   4.993   3.075   0.293
    2MOL1     H 3142   4.798   3.078   0.425
    2MOL1    Cl 3143   2.938   0.997   2.295
    2MOL1     C 3144   3.111   1.005   2.258
    2MOL1    Cl 3145   3.192   1.124   2.361
    2MOL1    Cl 3146   3.186   0.845   2.276
    2MOL1     H 3147   3.122   1.037   2.154
    2MOL1    Cl 3148   3.513   4.633   3.073
    2MOL1     C 3149   3.685   4.646   3.029
    2MOL1    Cl 3150   3.768   4.492   3.055
    2MOL1    Cl 3151   3.701   4.698   2.861
    2MOL1     H 3152   3.731   4.722   3.093
    2MOL1    Cl 3153   4.077   3.446   4.121
    2MOL1     C 3154   3.987   3.562   4.022
    2MOL1    Cl 3155   4.079   3.604   3.877
    2MOL1    Cl 3156   3.828   3.496   3.978
    2MOL1     H 3157   3.972   3.653   4.081
    2MOL1    Cl 3158   4.467   0.188   0.221
    2MOL1     C 3159   4.411   0.355   0.238
    2MOL1    Cl 3160   4.528   0.468   0.168
    2MOL1    Cl 3161   4.252   0.375   0.161
    2MOL1     H 3162   4.401   0.377   0.344
    2MOL1    Cl 3163   3.616   3.310   3.548
    2MOL1     C 3164   3.518   3.167   3.510
    2MOL1    Cl 3165   3.365   3.215   3.434
    2MOL1    Cl 3166   3.607   3.055   3.405
    2MOL1     H 3167   3.495   3.115   3.604
    2MOL1    Cl 3168   0.786   2.534   2.064
    2MOL1     C 3169   0.838   2.674   1.969
    2MOL1    Cl 3170   0.890   2.806   2.075
    2MOL1    Cl 3171   0.968   2.628   1.857
    2MOL1     H 3172   0.752   2.708   1.910
    2MOL1    Cl 3173   5.507   4.505   2.989
    2MOL1     C 3174   5.419   4.353   3.011
    2MOL1    Cl 3175   5.510   4.242   3.115
    2MOL1    Cl 3176   5.258   4.384   3.079
    2MOL1     H 3177   5.406   4.306   2.913
    2MOL1    Cl 3178   2.639   3.578   1.725
    2MOL1     C 3179   2.627   3.501   1.566
    2MOL1    Cl 3180   2.732   3.358   1.558
    2MOL1    Cl 3181   2.459   3.456   1.531
    2MOL1     H 3182   2.660   3.572   1.491
    2MOL1    Cl 3183   5.298   1.373   2.292
    2MOL1     C 3184   5.301   1.414   2.464
    2MOL1    Cl 3185   5.332   1.269   2.562
    2MOL1    Cl 3186   5.424   1.538   2.496
    2MOL1     H 3187   5.203   1.454   2.492
    2MOL1    Cl 3188   4.540   3.177   4.160
    2MOL1     C 3189   4.421   3.154   4.031
    2MOL1    Cl 3190   4.496   3.075   3.891
    2MOL1    Cl 3191   4.283   3.060   4.089
    2MOL1     H 3192   4.385   3.252   4.000
    2MOL1    Cl 3193   2.418   3.301   3.329
    2MOL1     C 3194   2.325   3.226   3.460
    2MOL1    Cl 3195   2.157   3.283   3.459
    2MOL1    Cl 3196   2.330   3.049   3.445
    2MOL1     H 3197   2.370   3.254   3.555
    2MOL1    Cl 3198   2.703   3.460   2.635
    2MOL1     C 3199   2.771   3.296   2.641
    2MOL1    Cl 3200   2.688   3.190   2.526
    2MOL1    Cl 3201   2.945   3.300   2.609
    2MOL1     H 3202   2.755   3.256   2.742
    2MOL1    Cl 3203   2.073   2.991   0.288
    2MOL1     C 3204   2.157   2.895   0.165
    2MOL1    Cl 3205   2.043   2.833   0.045
    2MOL1    Cl 3206   2.284   2.992   0.087
    2MOL1     H 3207   2.205   2.810   0.215
    2MOL1    Cl 3208   5.052   0.721   3.021
    2MOL1     C 3209   5.071   0.837   2.889
    2MOL1    Cl 3210   4.955   0.970   2.906
    2MOL1    Cl 3211   5.236   0.900   2.884
    2MOL1     H 3212   5.050   0.786   2.795
    2MOL1    Cl 3213   4.963   2.170   1.270
    2MOL1     C 3214   5.113   2.078   1.285
    2MOL1    Cl 3215   5.173   2.028   1.126
    2MOL1    Cl 3216   5.236   2.174   1.370
    2MOL1     H 3217   5.093   1.989   1.344
    2MOL1    Cl 3218   3.579   3.916   0.385
    2MOL1     C 3219   3.490   4.069   0.394
    2MOL1    Cl 3220   3.491   4.151   0.237
    2MOL1    Cl 3221   3.324   4.041   0.448
    2MOL1     H 3222   3.540   4.133   0.467
    2MOL1    Cl 3223   3.064   4.033   3.556
    2MOL1     C 3224   2.942   4.133   3.636
    2MOL1    Cl 3225   2.831   4.031   3.730
    2MOL1    Cl 3226   3.018   4.254   3.740
    2MOL1     H 3227   2.884   4.185   3.559
    2MOL1    Cl 3228   2.341   4.427   2.151
    2MOL1     C 3229   2.252   4.569   2.207
    2MOL1    Cl 3230   2.268   4.587   2.383
    2MOL1    Cl 3231   2.308   4.716   2.125
    2MOL1     H 3232   2.146   4.555   2.184
    2MOL1    Cl 3233   1.891   1.794   0.871
    2MOL1     C 3234   1.820   1.820   0.711
    2MOL1    Cl 3235   1.866   1.689   0.601
    2MOL1    Cl 3236   1.644   1.834   0.721
    2MOL1     H 3237   1.860   1.914   0.671
    2MOL1    Cl 3238   0.326   2.935   4.446
    2MOL1     C 3239   0.493   2.882   4.418
    2MOL1    Cl 3240   0.555   2.794   4.559
    2MOL1    Cl 3241   0.502   2.780   4.273
    2MOL1     H 3242   0.555   2.970   4.402
    2MOL1    Cl 3243   0.585   1.629   4.713
    2MOL1     C 3244   0.756   1.661   4.746
    2MOL1    Cl 3245   0.823   1.539   4.855
    2MOL1    Cl 3246   0.848   1.667   4.595
    2MOL1     H 3247   0.763   1.759   4.795
    2MOL1    Cl 3248   5.360   2.982   0.592
    2MOL1     C 3249   5.198   2.925   0.637
    2MOL1    Cl 3250   5.171   2.946   0.811
    2MOL1    Cl 3251   5.074   3.010   0.544
    2MOL1     H 3252   5.192   2.818   0.614
    2MOL1    Cl 3253   2.507   4.234   4.977
    2MOL1     C 3254   2.415   4.267   4.829
    2MOL1    Cl 3255   2.379   4.440   4.815
    2MOL1    Cl 3256   2.504   4.210   4.687
    2MOL1     H 3257   2.320   4.213   4.835
    2MOL1    Cl 3258   3.136   3.501   3.220
    2MOL1     C 3259   3.311   3.498   3.248
    2MOL1    Cl 3260   3.388   3.379   3.142
    2MOL1    Cl 3261   3.380   3.659   3.222
    2MOL1     H 3262   3.329   3.469   3.352
    2MOL1    Cl 3263   3.321   4.474   0.371
    2MOL1     C 3264   3.183   4.375   0.421
    2MOL1    Cl 3265   3.223   4.281   0.566
    2MOL1    Cl 3266   3.040   4.476   0.450
    2MOL1     H 3267   3.159   4.305   0.340
    2MOL1    Cl 3268   3.499   4.559   0.469
    2MOL1     C 3269   3.667   4.507   0.488
    2MOL1    Cl 3270   3.723   4.537   0.653
    2MOL1    Cl 3271   3.685   4.336   0.445
    2MOL1     H 3272   3.729   4.566   0.420
    2MOL1    Cl 3273   2.587   3.951   1.028
    2MOL1     C 3274   2.615   3.777   1.048
    2MOL1    Cl 3275   2.788   3.743   1.062
    2MOL1    Cl 3276   2.528   3.716   1.190
    2MOL1     H 3277   2.577   3.725   0.960
    2MOL1    Cl 3278   4.340   3.771   3.831
    2MOL1     C 3279   4.313   3.930   3.757
    2MOL1    Cl 3280   4.199   4.025   3.854
    2MOL1    Cl 3281   4.467   4.016   3.740
    2MOL1     H 3282   4.270   3.915   3.658
    2MOL1    Cl 3283   4.426   0.478   3.717
    2MOL1     C 3284   4.417   0.358   3.587
    2MOL1    Cl 3285   4.267   0.264   3.598
    2MOL1    Cl 3286   4.429   0.436   3.428
    2MOL1     H 3287   4.501   0.289   3.598
    2MOL1    Cl 3288   2.568   2.578   3.429
    2MOL1     C 3289   2.694   2.698   3.465
    2MOL1    Cl 3290   2.634   2.818   3.581
    2MOL1    Cl 3291   2.839   2.618   3.528
    2MOL1     H 3292   2.720   2.749   3.372
    2MOL1    Cl 3293   5.177   4.793   2.586
    2MOL1     C 3294   5.281   4.689   2.685
    2MOL1    Cl 3295   5.208   4.660   2.844
    2MOL1    Cl 3296   5.312   4.535   2.602
    2MOL1     H 3297   5.376   4.739   2.700
    2MOL1    Cl 3298   2.759   0.757   2.039
    2MOL1     C 3299   2.614   0.855   2.066
    2MOL1    Cl 3300   2.516   0.787   2.197
    2MOL1    Cl 3301   2.658   1.023   2.102
    2MOL1     H 3302   2.554   0.854   1.974
    2MOL1    Cl 3303   0.648   2.408   3.001
    2MOL1     C 3304   0.483   2.385   3.062
    2MOL1    Cl 3305   0.390   2.282   2.951
    2MOL1    Cl 3306   0.485   2.314   3.224
    2MOL1     H 3307   0.434   2.482   3.067
    2MOL1    Cl 3308   1.395   4.223   1.177
    2MOL1     C 3309   1.323   4.072   1.119
    2MOL1    Cl 3310   1.448   3.956   1.071
    2MOL1    Cl 3311   1.218   4.002   1.244
    2MOL1     H 3312   1.261   4.094   1.031
    2MOL1    Cl 3313   2.713   3.039   0.628
    2MOL1     C 3314   2.860   3.080   0.718
    2MOL1    Cl 3315   2.909   3.247   0.683
    2MOL1    Cl 3316   2.834   3.058   0.892
    2MOL1     H 3317   2.940   3.013   0.686
    2MOL1    Cl 3318   0.961   0.742   1.088
    2MOL1     C 3319   0.941   0.676   0.925
    2MOL1    Cl 3320   0.913   0.501   0.932
    2MOL1    Cl 3321   0.808   0.757   0.841
    2MOL1     H 3322   1.033   0.694   0.869
    2MOL1    Cl 3323   5.503   2.148   3.290
    2MOL1     C 3324   5.340   2.209   3.259
    2MOL1    Cl 3325   5.345   2.347   3.147
    2MOL1    Cl 3326   5.237   2.080   3.194
    2MOL1     H 3327   5.297   2.243   3.353
    2MOL1    Cl 3328   2.774   1.207   3.488
    2MOL1     C 3329   2.762   1.035   3.528
    2MOL1    Cl 3330   2.908   0.980   3.612
    2MOL1    Cl 3331   2.618   1.004   3.627
    2MOL1     H 3332   2.753   0.978   3.435
    2MOL1    Cl 3333   5.361   1.013   2.429
    2MOL1     C 3334   5.312   1.039   2.261
    2MOL1    Cl 3335   5.352   0.897   2.163
    2MOL1    Cl 3336   5.138   1.074   2.252
    2MOL1     H 3337   5.367   1.124   2.222
    2MOL1    Cl 3338   4.339   0.487   4.597
    2MOL1     C 3339   4.197   0.588   4.569
    2MOL1    Cl 3340   4.079   0.569   4.700
    2MOL1    Cl 3341   4.244   0.758   4.551
    2MOL1     H 3342   4.150   0.556   4.475
    2MOL1    Cl 3343   5.378   1.071   5.076
    2MOL1     C 3344   5.341   0.898   5.081
    2MOL1    Cl 3345   5.468   0.809   5.166
    2MOL1    Cl 3346   5.184   0.871   5.159
    2MOL1     H 3347   5.335   0.861   4.979
    2MOL1    Cl 3348   3.080   0.658   1.339
    2MOL1     C 3349   3.191   0.570   1.445
    2MOL1    Cl 3350   3.224   0.663   1.593
    2MOL1    Cl 3351   3.125   0.410   1.485
    2MOL1     H 3352   3.286   0.556   1.392
    2MOL1    Cl 3353   2.320   1.513   3.772
    2MOL1     C 3354   2.355   1.365   3.863
    2MOL1    Cl 3355   2.207   1.271   3.889
    2MOL1    Cl 3356   2.477   1.267   3.778
    2MOL1     H 3357   2.395   1.393   3.960
    2MOL1    Cl 3358   3.645   1.396   2.267
    2MOL1     C 3359   3.768   1.404   2.140
    2MOL1    Cl 3360   3.880   1.538   2.171
    2MOL1    Cl 3361   3.856   1.250   2.129
    2MOL1     H 3362   3.718   1.422   2.045
    2MOL1    Cl 3363   4.070   2.332   4.309
    2MOL1     C 3364   4.126   2.171   4.356
    2MOL1    Cl 3365   4.242   2.182   4.489
    2MOL1    Cl 3366   3.989   2.068   4.400
    2MOL1     H 3367   4.176   2.126   4.270
   5.54000   5.54000   5.54000
