Generated by Interchange
197
    1POM     C1    1  -0.293  -0.564  -0.076
    1POM     O2    2  -0.184  -0.476  -0.105
    1POM     C3    3  -0.200  -0.344  -0.072
    1POM     C4    4  -0.315  -0.287  -0.017
    1POM     C5    5  -0.311  -0.157   0.036
    1POM     C6    6  -0.194  -0.080   0.033
    1POM     C7    7  -0.193   0.055   0.094
    1POM     C8    8  -0.098   0.089   0.192
    1POM     C9    9  -0.080   0.222   0.231
    1POM    C10   10  -0.158   0.320   0.174
    1POM    C11   11  -0.267   0.288   0.091
    1POM    C12   12  -0.363   0.391   0.038
    1POM    O13   13  -0.438   0.370  -0.053
    1POM    C14   14  -0.282   0.154   0.049
    1POM    C15   15  -0.078  -0.135  -0.030
    1POM    C16   16   0.048  -0.058  -0.039
    1POM    C17   17   0.160  -0.093   0.037
    1POM    C18   18   0.275  -0.014   0.035
    1POM    C19   19   0.288   0.093  -0.055
    1POM    C20   20   0.421   0.163  -0.076
    1POM    C21   21   0.471   0.230   0.052
    1POM    N22   22   0.524   0.078  -0.140
    1POM    C23   23   0.174   0.131  -0.127
    1POM    C24   24   0.055   0.058  -0.117
    1POM    C25   25  -0.083  -0.267  -0.080
    1POM    H26   26  -0.262  -0.666  -0.104
    1POM    H27   27  -0.317  -0.566   0.031
    1POM    H28   28  -0.380  -0.538  -0.136
    1POM    H29   29  -0.406  -0.345  -0.002
    1POM    H30   30  -0.400  -0.119   0.087
    1POM    H31   31  -0.031   0.014   0.234
    1POM    H32   32  -0.002   0.249   0.301
    1POM    H33   33  -0.136   0.424   0.196
    1POM    H34   34  -0.358   0.129  -0.024
    1POM    H35   35   0.160  -0.184   0.096
    1POM    H36   36   0.359  -0.044   0.098
    1POM    H37   37   0.404   0.243  -0.149
    1POM    H38   38   0.560   0.290   0.031
    1POM    H39   39   0.498   0.156   0.128
    1POM    H40   40   0.394   0.295   0.094
    1POM    H41   41   0.597   0.141  -0.172
    1POM    H42   42   0.176   0.218  -0.192
    1POM    H43   43  -0.033   0.092  -0.171
    1POM    H44   44   0.008  -0.314  -0.117
    2POM    C45   45   0.842  -0.804   0.416
    2POM    O46   46   0.713  -0.745   0.435
    2POM    C47   47   0.678  -0.642   0.353
    2POM    C48   48   0.759  -0.585   0.254
    2POM    C49   49   0.703  -0.496   0.161
    2POM    C50   50   0.567  -0.459   0.163
    2POM    C51   51   0.516  -0.370   0.056
    2POM    C52   52   0.407  -0.404  -0.025
    2POM    C53   53   0.362  -0.317  -0.126
    2POM    C54   54   0.427  -0.196  -0.148
    2POM    C55   55   0.532  -0.157  -0.065
    2POM    C56   56   0.590  -0.020  -0.069
    2POM    O57   57   0.696   0.005  -0.013
    2POM    C58   58   0.577  -0.245   0.035
    2POM    C59   59   0.486  -0.511   0.266
    2POM    C60   60   0.344  -0.477   0.280
    2POM    C61   61   0.244  -0.571   0.252
    2POM    C62   62   0.110  -0.534   0.260
    2POM    C63   63   0.072  -0.413   0.317
    2POM    C64   64  -0.072  -0.378   0.348
    2POM    C65   65  -0.156  -0.392   0.224
    2POM    N66   66  -0.134  -0.451   0.458
    2POM    C67   67   0.173  -0.315   0.336
    2POM    C68   68   0.305  -0.348   0.315
    2POM    C69   69   0.543  -0.603   0.359
    2POM    H70   70   0.852  -0.886   0.488
    2POM    H71   71   0.854  -0.848   0.316
    2POM    H72   72   0.921  -0.731   0.436
    2POM    H73   73   0.862  -0.616   0.239
    2POM    H74   74   0.767  -0.460   0.080
    2POM    H75   75   0.352  -0.497  -0.010
    2POM    H76   76   0.272  -0.341  -0.183
    2POM    H77   77   0.388  -0.128  -0.223
    2POM    H78   78   0.659  -0.214   0.100
    2POM    H79   79   0.269  -0.673   0.227
    2POM    H80   80   0.035  -0.608   0.233
    2POM    H81   81  -0.077  -0.272   0.378
    2POM    H82   82  -0.258  -0.357   0.241
    2POM    H83   83  -0.161  -0.495   0.186
    2POM    H84   84  -0.106  -0.331   0.151
    2POM    H85   85  -0.221  -0.403   0.478
    2POM    H86   86   0.146  -0.213   0.364
    2POM    H87   87   0.382  -0.271   0.327
    2POM    H88   88   0.479  -0.653   0.432
    3POM    C89   89  -0.185  -1.530   0.340
    3POM    O90   90  -0.088  -1.453   0.270
    3POM    C91   91  -0.081  -1.319   0.298
    3POM    C92   92  -0.165  -1.250   0.385
    3POM    C93   93  -0.133  -1.119   0.423
    3POM    C94   94  -0.019  -1.052   0.373
    3POM    C95   95   0.009  -0.915   0.423
    3POM    C96   96   0.132  -0.880   0.482
    3POM    C97   97   0.155  -0.751   0.531
    3POM    C98   98   0.054  -0.656   0.526
    3POM    C99   99  -0.068  -0.687   0.463
    3POM   C100  100  -0.170  -0.583   0.439
    3POM   O101  101  -0.284  -0.612   0.402
    3POM   C102  102  -0.089  -0.816   0.413
    3POM   C103  103   0.063  -1.120   0.280
    3POM   C104  104   0.181  -1.057   0.221
    3POM   C105  105   0.310  -1.098   0.254
    3POM   C106  106   0.421  -1.033   0.200
    3POM   C107  107   0.407  -0.939   0.097
    3POM   C108  108   0.525  -0.886   0.019
    3POM   C109  109   0.621  -0.820   0.113
    3POM   N110  110   0.598  -0.980  -0.067
    3POM   C111  111   0.278  -0.892   0.071
    3POM   C112  112   0.167  -0.949   0.133
    3POM   C113  113   0.030  -1.253   0.244
    3POM   H114  114  -0.173  -1.635   0.311
    3POM   H115  115  -0.171  -1.525   0.449
    3POM   H116  116  -0.286  -1.499   0.312
    3POM   H117  117  -0.248  -1.298   0.436
    3POM   H118  118  -0.195  -1.070   0.499
    3POM   H119  119   0.213  -0.952   0.489
    3POM   H120  120   0.253  -0.722   0.568
    3POM   H121  121   0.074  -0.555   0.560
    3POM   H122  122  -0.183  -0.838   0.362
    3POM   H123  123   0.326  -1.182   0.322
    3POM   H124  124   0.520  -1.064   0.234
    3POM   H125  125   0.489  -0.808  -0.049
    3POM   H126  126   0.701  -0.768   0.060
    3POM   H127  127   0.667  -0.889   0.185
    3POM   H128  128   0.561  -0.749   0.168
    3POM   H129  129   0.660  -0.923  -0.124
    3POM   H130  130   0.262  -0.808   0.003
    3POM   H131  131   0.068  -0.908   0.114
    3POM   H132  132   0.098  -1.310   0.180
    4POM   C133  133   1.030  -1.852   0.422
    4POM   O134  134   0.909  -1.796   0.470
    4POM   C135  135   0.852  -1.697   0.394
    4POM   C136  136   0.898  -1.652   0.271
    4POM   C137  137   0.826  -1.554   0.202
    4POM   C138  138   0.708  -1.497   0.254
    4POM   C139  139   0.630  -1.405   0.169
    4POM   C140  140   0.496  -1.431   0.134
    4POM   C141  141   0.424  -1.346   0.049
    4POM   C142  142   0.487  -1.236  -0.006
    4POM   C143  143   0.618  -1.203   0.032
    4POM   C144  144   0.679  -1.075  -0.008
    4POM   O145  145   0.799  -1.052   0.010
    4POM   C146  146   0.689  -1.288   0.118
    4POM   C147  147   0.666  -1.537   0.383
    4POM   C148  148   0.547  -1.482   0.447
    4POM   C149  149   0.438  -1.565   0.464
    4POM   C150  150   0.319  -1.514   0.515
    4POM   C151  151   0.311  -1.388   0.574
    4POM   C152  152   0.187  -1.348   0.651
    4POM   C153  153   0.065  -1.357   0.563
    4POM   N154  154   0.158  -1.418   0.776
    4POM   C155  155   0.417  -1.301   0.549
    4POM   C156  156   0.533  -1.347   0.483
    4POM   C157  157   0.738  -1.639   0.449
    4POM   H158  158   1.062  -1.928   0.494
    4POM   H159  159   1.015  -1.902   0.326
    4POM   H160  160   1.109  -1.776   0.416
    4POM   H161  161   0.987  -1.692   0.224
    4POM   H162  162   0.861  -1.523   0.104
    4POM   H163  163   0.444  -1.518   0.175
    4POM   H164  164   0.319  -1.364   0.029
    4POM   H165  165   0.429  -1.168  -0.069
    4POM   H166  166   0.789  -1.261   0.149
    4POM   H167  167   0.442  -1.669   0.434
    4POM   H168  168   0.231  -1.576   0.508
    4POM   H169  169   0.198  -1.242   0.679
    4POM   H170  170  -0.022  -1.312   0.611
    4POM   H171  171   0.038  -1.460   0.537
    4POM   H172  172   0.090  -1.304   0.473
    4POM   H173  173   0.098  -1.362   0.835
    4POM   H174  174   0.410  -1.196   0.575
    4POM   H175  175   0.612  -1.276   0.459
    4POM   H176  176   0.702  -1.677   0.545
    5CAP   C177  177  -0.380   0.527   0.238
    5CAP   O178  178  -0.349   0.513   0.097
    5CAP   H179  179  -0.468   0.469   0.264
    5CAP   H180  180  -0.397   0.632   0.257
    5CAP   H181  181  -0.295   0.496   0.300
    6CAP   C182  182   0.259  -1.832   0.591
    6CAP   C183  183   0.145  -1.771   0.676
    6CAP   C184  184   0.018  -1.775   0.590
    6CAP   C185  185   0.134  -1.851   0.805
    6CAP   O186  186   0.184  -1.634   0.709
    6CAP   C187  187   0.107  -1.546   0.776
    6CAP   O188  188  -0.000  -1.572   0.829
    6CAP   H189  189   0.245  -1.940   0.576
    6CAP   H190  190   0.261  -1.788   0.491
    6CAP   H191  191   0.357  -1.815   0.637
    6CAP   H192  192   0.030  -1.713   0.500
    6CAP   H193  193  -0.069  -1.737   0.644
    6CAP   H194  194  -0.003  -1.877   0.557
    6CAP   H195  195   0.224  -1.834   0.866
    6CAP   H196  196   0.049  -1.818   0.865
    6CAP   H197  197   0.124  -1.958   0.785
  5.0000000  5.0000000  5.0000000
