Generated by Interchange
  197
    1POM     C1    1   1.968   2.717   2.172
    1POM     O2    2   2.077   2.805   2.143
    1POM     C3    3   2.061   2.937   2.176
    1POM     C4    4   1.946   2.994   2.231
    1POM     C5    5   1.950   3.124   2.284
    1POM     C6    6   2.067   3.201   2.281
    1POM     C7    7   2.068   3.336   2.342
    1POM     C8    8   2.163   3.370   2.440
    1POM     C9    9   2.181   3.503   2.479
    1POM    C10   10   2.103   3.601   2.422
    1POM    C11   11   1.994   3.569   2.339
    1POM    C12   12   1.898   3.672   2.286
    1POM    O13   13   1.823   3.651   2.195
    1POM    C14   14   1.979   3.435   2.297
    1POM    C15   15   2.183   3.146   2.218
    1POM    C16   16   2.309   3.223   2.209
    1POM    C17   17   2.421   3.188   2.285
    1POM    C18   18   2.536   3.267   2.283
    1POM    C19   19   2.549   3.374   2.193
    1POM    C20   20   2.682   3.444   2.172
    1POM    C21   21   2.732   3.511   2.300
    1POM    N22   22   2.785   3.359   2.108
    1POM    C23   23   2.435   3.412   2.121
    1POM    C24   24   2.316   3.339   2.131
    1POM    C25   25   2.178   3.014   2.168
    1POM    H26   26   1.999   2.615   2.144
    1POM    H27   27   1.944   2.715   2.279
    1POM    H28   28   1.881   2.743   2.112
    1POM    H29   29   1.855   2.936   2.246
    1POM    H30   30   1.861   3.162   2.335
    1POM    H31   31   2.230   3.295   2.482
    1POM    H32   32   2.259   3.530   2.549
    1POM    H33   33   2.125   3.705   2.444
    1POM    H34   34   1.903   3.410   2.224
    1POM    H35   35   2.421   3.097   2.344
    1POM    H36   36   2.620   3.237   2.346
    1POM    H37   37   2.665   3.524   2.099
    1POM    H38   38   2.821   3.571   2.279
    1POM    H39   39   2.759   3.437   2.376
    1POM    H40   40   2.655   3.576   2.342
    1POM    H41   41   2.858   3.422   2.076
    1POM    H42   42   2.437   3.499   2.056
    1POM    H43   43   2.228   3.373   2.077
    1POM    H44   44   2.269   2.967   2.131
    2POM    C45   45   3.103   2.477   2.664
    2POM    O46   46   2.974   2.536   2.683
    2POM    C47   47   2.939   2.639   2.601
    2POM    C48   48   3.020   2.696   2.502
    2POM    C49   49   2.964   2.785   2.409
    2POM    C50   50   2.828   2.822   2.411
    2POM    C51   51   2.777   2.911   2.304
    2POM    C52   52   2.668   2.877   2.223
    2POM    C53   53   2.623   2.964   2.122
    2POM    C54   54   2.688   3.085   2.100
    2POM    C55   55   2.793   3.124   2.183
    2POM    C56   56   2.851   3.261   2.179
    2POM    O57   57   2.957   3.286   2.235
    2POM    C58   58   2.838   3.036   2.283
    2POM    C59   59   2.747   2.770   2.514
    2POM    C60   60   2.605   2.804   2.528
    2POM    C61   61   2.505   2.710   2.500
    2POM    C62   62   2.371   2.747   2.508
    2POM    C63   63   2.333   2.868   2.565
    2POM    C64   64   2.189   2.903   2.596
    2POM    C65   65   2.105   2.889   2.472
    2POM    N66   66   2.127   2.830   2.706
    2POM    C67   67   2.434   2.966   2.584
    2POM    C68   68   2.566   2.933   2.563
    2POM    C69   69   2.804   2.678   2.607
    2POM    H70   70   3.113   2.395   2.736
    2POM    H71   71   3.115   2.433   2.564
    2POM    H72   72   3.182   2.550   2.684
    2POM    H73   73   3.123   2.665   2.487
    2POM    H74   74   3.028   2.821   2.328
    2POM    H75   75   2.613   2.784   2.238
    2POM    H76   76   2.533   2.940   2.065
    2POM    H77   77   2.649   3.153   2.025
    2POM    H78   78   2.920   3.067   2.348
    2POM    H79   79   2.530   2.608   2.475
    2POM    H80   80   2.296   2.673   2.481
    2POM    H81   81   2.184   3.009   2.626
    2POM    H82   82   2.003   2.924   2.489
    2POM    H83   83   2.100   2.786   2.434
    2POM    H84   84   2.155   2.950   2.399
    2POM    H85   85   2.040   2.878   2.726
    2POM    H86   86   2.407   3.068   2.612
    2POM    H87   87   2.643   3.010   2.575
    2POM    H88   88   2.740   2.628   2.680
    3POM    C89   89   2.076   1.751   2.588
    3POM    O90   90   2.173   1.828   2.518
    3POM    C91   91   2.180   1.962   2.546
    3POM    C92   92   2.096   2.031   2.633
    3POM    C93   93   2.128   2.162   2.671
    3POM    C94   94   2.242   2.229   2.621
    3POM    C95   95   2.270   2.366   2.671
    3POM    C96   96   2.393   2.401   2.730
    3POM    C97   97   2.416   2.530   2.779
    3POM    C98   98   2.315   2.625   2.774
    3POM    C99   99   2.193   2.594   2.711
    3POM   C100  100   2.091   2.698   2.687
    3POM   O101  101   1.977   2.669   2.650
    3POM   C102  102   2.172   2.465   2.661
    3POM   C103  103   2.324   2.161   2.528
    3POM   C104  104   2.442   2.224   2.469
    3POM   C105  105   2.571   2.183   2.502
    3POM   C106  106   2.682   2.248   2.448
    3POM   C107  107   2.668   2.342   2.345
    3POM   C108  108   2.786   2.395   2.267
    3POM   C109  109   2.882   2.461   2.361
    3POM   N110  110   2.859   2.301   2.181
    3POM   C111  111   2.539   2.389   2.319
    3POM   C112  112   2.428   2.332   2.381
    3POM   C113  113   2.291   2.028   2.492
    3POM   H114  114   2.088   1.646   2.559
    3POM   H115  115   2.090   1.756   2.697
    3POM   H116  116   1.975   1.782   2.560
    3POM   H117  117   2.013   1.983   2.684
    3POM   H118  118   2.066   2.211   2.747
    3POM   H119  119   2.474   2.329   2.737
    3POM   H120  120   2.514   2.559   2.816
    3POM   H121  121   2.335   2.726   2.808
    3POM   H122  122   2.078   2.443   2.610
    3POM   H123  123   2.587   2.099   2.570
    3POM   H124  124   2.781   2.217   2.482
    3POM   H125  125   2.750   2.473   2.199
    3POM   H126  126   2.962   2.513   2.308
    3POM   H127  127   2.928   2.392   2.433
    3POM   H128  128   2.822   2.532   2.416
    3POM   H129  129   2.921   2.358   2.124
    3POM   H130  130   2.523   2.473   2.251
    3POM   H131  131   2.329   2.373   2.362
    3POM   H132  132   2.359   1.971   2.428
    4POM   C133  133   3.291   1.429   2.670
    4POM   O134  134   3.170   1.485   2.718
    4POM   C135  135   3.113   1.584   2.642
    4POM   C136  136   3.159   1.629   2.519
    4POM   C137  137   3.087   1.727   2.450
    4POM   C138  138   2.969   1.784   2.502
    4POM   C139  139   2.891   1.876   2.417
    4POM   C140  140   2.757   1.850   2.382
    4POM   C141  141   2.685   1.935   2.297
    4POM   C142  142   2.748   2.045   2.242
    4POM   C143  143   2.879   2.078   2.280
    4POM   C144  144   2.940   2.206   2.240
    4POM   O145  145   3.060   2.229   2.258
    4POM   C146  146   2.950   1.993   2.366
    4POM   C147  147   2.927   1.744   2.631
    4POM   C148  148   2.808   1.799   2.695
    4POM   C149  149   2.699   1.716   2.712
    4POM   C150  150   2.580   1.767   2.763
    4POM   C151  151   2.572   1.893   2.822
    4POM   C152  152   2.448   1.933   2.899
    4POM   C153  153   2.326   1.924   2.811
    4POM   N154  154   2.419   1.863   3.024
    4POM   C155  155   2.678   1.980   2.797
    4POM   C156  156   2.794   1.934   2.731
    4POM   C157  157   2.999   1.642   2.697
    4POM   H158  158   3.323   1.353   2.742
    4POM   H159  159   3.276   1.379   2.574
    4POM   H160  160   3.370   1.505   2.664
    4POM   H161  161   3.248   1.589   2.472
    4POM   H162  162   3.122   1.758   2.352
    4POM   H163  163   2.705   1.763   2.423
    4POM   H164  164   2.580   1.917   2.277
    4POM   H165  165   2.690   2.113   2.179
    4POM   H166  166   3.050   2.020   2.397
    4POM   H167  167   2.703   1.612   2.682
    4POM   H168  168   2.492   1.705   2.756
    4POM   H169  169   2.459   2.039   2.927
    4POM   H170  170   2.239   1.969   2.859
    4POM   H171  171   2.299   1.821   2.785
    4POM   H172  172   2.351   1.977   2.721
    4POM   H173  173   2.359   1.919   3.083
    4POM   H174  174   2.671   2.085   2.823
    4POM   H175  175   2.873   2.005   2.707
    4POM   H176  176   2.963   1.604   2.793
    5CAP   C177  177   1.881   3.808   2.486
    5CAP   O178  178   1.912   3.794   2.345
    5CAP   H179  179   1.793   3.750   2.512
    5CAP   H180  180   1.864   3.913   2.505
    5CAP   H181  181   1.966   3.777   2.548
    6CAP   C182  182   2.520   1.449   2.839
    6CAP   C183  183   2.406   1.510   2.924
    6CAP   C184  184   2.279   1.506   2.838
    6CAP   C185  185   2.395   1.430   3.053
    6CAP   O186  186   2.445   1.647   2.957
    6CAP   C187  187   2.368   1.735   3.024
    6CAP   O188  188   2.261   1.709   3.077
    6CAP   H189  189   2.506   1.341   2.824
    6CAP   H190  190   2.522   1.493   2.739
    6CAP   H191  191   2.618   1.466   2.885
    6CAP   H192  192   2.291   1.568   2.748
    6CAP   H193  193   2.192   1.544   2.892
    6CAP   H194  194   2.258   1.404   2.805
    6CAP   H195  195   2.485   1.447   3.114
    6CAP   H196  196   2.310   1.463   3.113
    6CAP   H197  197   2.385   1.323   3.033
   5.00000   5.00000   5.00000
