;
;   File mom_tetramer_system_hmr.top  was generated
;   By user: tlf3 (59384)
;   On host:bb003.eth.hpc.nist.gov 
;   At date:Tue. April  2 18:19:03 2025 
;
;   This is a standalone topology file
;
;   Created by:
;   ParmEd:       hmr_topology, VERSION4.3.0 
;   Executable:   hmr_topology
;   Library dir:  /home/tlf3/miniforge3/envs/terphenyl/share/gromacs/top
;   Command line:
;     hmr_topology -t mom_tetramer_system.top -o mom_tetramer_system_hmr.top --hmr_ratio 3
;

[ defaults ]
; nbfunc        comb-rule       gen-pairs       fudgeLJ fudgeQQ
1               2               yes             0.5          0.833333    

[ atomtypes ]
; name    at.num    mass    charge ptype  sigma      epsilon
mom_tetramer.pdb_0        6  12.010780  0.00000000  A     0.33795318     0.45538912
mom_tetramer.pdb_1        8  15.999430  0.00000000  A     0.30251065     0.70485815
mom_tetramer.pdb_2        6  12.010780  0.00000000  A     0.34806469     0.36350306
mom_tetramer.pdb_3        6  12.010780  0.00000000  A     0.34806469     0.36350306
mom_tetramer.pdb_4        6  12.010780  0.00000000  A     0.34806469     0.36350306
mom_tetramer.pdb_5        6  12.010780  0.00000000  A     0.34806469     0.36350306
mom_tetramer.pdb_6        6  12.010780  0.00000000  A     0.34806469     0.36350306
mom_tetramer.pdb_7        6  12.010780  0.00000000  A     0.34806469     0.36350306
mom_tetramer.pdb_8        6  12.010780  0.00000000  A     0.34806469     0.36350306
mom_tetramer.pdb_9        6  12.010780  0.00000000  A     0.34806469     0.36350306
mom_tetramer.pdb_10        8  15.999430  0.00000000  A     0.30398122     0.87950233
mom_tetramer.pdb_11        6  12.010780  0.00000000  A     0.34806469     0.36350306
mom_tetramer.pdb_12        6  12.010780  0.00000000  A     0.34806469     0.36350306
mom_tetramer.pdb_13        6  12.010780  0.00000000  A     0.34806469     0.36350306
mom_tetramer.pdb_14        6  12.010780  0.00000000  A     0.34806469     0.36350306
mom_tetramer.pdb_15        6  12.010780  0.00000000  A     0.34806469     0.36350306
mom_tetramer.pdb_16        6  12.010780  0.00000000  A     0.34806469     0.36350306
mom_tetramer.pdb_17        6  12.010780  0.00000000  A     0.34806469     0.36350306
mom_tetramer.pdb_18        6  12.010780  0.00000000  A     0.33795318     0.45538912
mom_tetramer.pdb_19        6  12.010780  0.00000000  A     0.33795318     0.45538912
mom_tetramer.pdb_20        7  14.006720  0.00000000  A      0.3206876      0.7016213
mom_tetramer.pdb_21        6  12.010780  0.00000000  A     0.34806469     0.36350306
mom_tetramer.pdb_22        6  12.010780  0.00000000  A     0.34806469     0.36350306
mom_tetramer.pdb_23        6  12.010780  0.00000000  A     0.34806469     0.36350306
mom_tetramer.pdb_24        6  12.010780  0.00000000  A     0.34806469     0.36350306
mom_tetramer.pdb_25        1   1.007947  0.00000000  A     0.25832257    0.068656285
mom_tetramer.pdb_26        1   1.007947  0.00000000  A     0.25832257    0.068656285
mom_tetramer.pdb_27        1   1.007947  0.00000000  A     0.25832257    0.068656285
mom_tetramer.pdb_28        1   1.007947  0.00000000  A     0.25725815     0.06531786
mom_tetramer.pdb_29        1   1.007947  0.00000000  A     0.25725815     0.06531786
mom_tetramer.pdb_30        1   1.007947  0.00000000  A     0.25725815     0.06531786
mom_tetramer.pdb_31        1   1.007947  0.00000000  A     0.25725815     0.06531786
mom_tetramer.pdb_32        1   1.007947  0.00000000  A     0.25725815     0.06531786
mom_tetramer.pdb_33        1   1.007947  0.00000000  A     0.25725815     0.06531786
mom_tetramer.pdb_34        1   1.007947  0.00000000  A     0.25725815     0.06531786
mom_tetramer.pdb_35        1   1.007947  0.00000000  A     0.25832257    0.068656285
mom_tetramer.pdb_36        1   1.007947  0.00000000  A     0.26445434    0.066021356
mom_tetramer.pdb_37        1   1.007947  0.00000000  A     0.26445434    0.066021356
mom_tetramer.pdb_38        1   1.007947  0.00000000  A     0.26445434    0.066021356
mom_tetramer.pdb_39        1   1.007947  0.00000000  A     0.11034277    0.058955969
mom_tetramer.pdb_40        1   1.007947  0.00000000  A     0.25725815     0.06531786
mom_tetramer.pdb_41        1   1.007947  0.00000000  A     0.25725815     0.06531786
mom_tetramer.pdb_42        1   1.007947  0.00000000  A     0.25725815     0.06531786
mom_tetramer.pdb_43        1   1.007947  0.00000000  A     0.25725815     0.06531786
mom_tetramer.pdb_44        6  12.010780  0.00000000  A     0.33795318     0.45538912
mom_tetramer.pdb_45        8  15.999430  0.00000000  A     0.30251065     0.70485815
mom_tetramer.pdb_46        6  12.010780  0.00000000  A     0.34806469     0.36350306
mom_tetramer.pdb_47        6  12.010780  0.00000000  A     0.34806469     0.36350306
mom_tetramer.pdb_48        6  12.010780  0.00000000  A     0.34806469     0.36350306
mom_tetramer.pdb_49        6  12.010780  0.00000000  A     0.34806469     0.36350306
mom_tetramer.pdb_50        6  12.010780  0.00000000  A     0.34806469     0.36350306
mom_tetramer.pdb_51        6  12.010780  0.00000000  A     0.34806469     0.36350306
mom_tetramer.pdb_52        6  12.010780  0.00000000  A     0.34806469     0.36350306
mom_tetramer.pdb_53        6  12.010780  0.00000000  A     0.34806469     0.36350306
mom_tetramer.pdb_54        8  15.999430  0.00000000  A     0.30398122     0.87950233
mom_tetramer.pdb_55        6  12.010780  0.00000000  A     0.34806469     0.36350306
mom_tetramer.pdb_56        6  12.010780  0.00000000  A     0.34806469     0.36350306
mom_tetramer.pdb_57        6  12.010780  0.00000000  A     0.34806469     0.36350306
mom_tetramer.pdb_58        6  12.010780  0.00000000  A     0.34806469     0.36350306
mom_tetramer.pdb_59        6  12.010780  0.00000000  A     0.34806469     0.36350306
mom_tetramer.pdb_60        6  12.010780  0.00000000  A     0.34806469     0.36350306
mom_tetramer.pdb_61        6  12.010780  0.00000000  A     0.34806469     0.36350306
mom_tetramer.pdb_62        6  12.010780  0.00000000  A     0.33795318     0.45538912
mom_tetramer.pdb_63        6  12.010780  0.00000000  A     0.33795318     0.45538912
mom_tetramer.pdb_64        7  14.006720  0.00000000  A      0.3206876      0.7016213
mom_tetramer.pdb_65        6  12.010780  0.00000000  A     0.34806469     0.36350306
mom_tetramer.pdb_66        6  12.010780  0.00000000  A     0.34806469     0.36350306
mom_tetramer.pdb_67        6  12.010780  0.00000000  A     0.34806469     0.36350306
mom_tetramer.pdb_68        6  12.010780  0.00000000  A     0.34806469     0.36350306
mom_tetramer.pdb_69        1   1.007947  0.00000000  A     0.25832257    0.068656285
mom_tetramer.pdb_70        1   1.007947  0.00000000  A     0.25832257    0.068656285
mom_tetramer.pdb_71        1   1.007947  0.00000000  A     0.25832257    0.068656285
mom_tetramer.pdb_72        1   1.007947  0.00000000  A     0.25725815     0.06531786
mom_tetramer.pdb_73        1   1.007947  0.00000000  A     0.25725815     0.06531786
mom_tetramer.pdb_74        1   1.007947  0.00000000  A     0.25725815     0.06531786
mom_tetramer.pdb_75        1   1.007947  0.00000000  A     0.25725815     0.06531786
mom_tetramer.pdb_76        1   1.007947  0.00000000  A     0.25725815     0.06531786
mom_tetramer.pdb_77        1   1.007947  0.00000000  A     0.25725815     0.06531786
mom_tetramer.pdb_78        1   1.007947  0.00000000  A     0.25725815     0.06531786
mom_tetramer.pdb_79        1   1.007947  0.00000000  A     0.25832257    0.068656285
mom_tetramer.pdb_80        1   1.007947  0.00000000  A     0.26445434    0.066021356
mom_tetramer.pdb_81        1   1.007947  0.00000000  A     0.26445434    0.066021356
mom_tetramer.pdb_82        1   1.007947  0.00000000  A     0.26445434    0.066021356
mom_tetramer.pdb_83        1   1.007947  0.00000000  A     0.11034277    0.058955969
mom_tetramer.pdb_84        1   1.007947  0.00000000  A     0.25725815     0.06531786
mom_tetramer.pdb_85        1   1.007947  0.00000000  A     0.25725815     0.06531786
mom_tetramer.pdb_86        1   1.007947  0.00000000  A     0.25725815     0.06531786
mom_tetramer.pdb_87        1   1.007947  0.00000000  A     0.25725815     0.06531786
mom_tetramer.pdb_88        6  12.010780  0.00000000  A     0.33795318     0.45538912
mom_tetramer.pdb_89        8  15.999430  0.00000000  A     0.30251065     0.70485815
mom_tetramer.pdb_90        6  12.010780  0.00000000  A     0.34806469     0.36350306
mom_tetramer.pdb_91        6  12.010780  0.00000000  A     0.34806469     0.36350306
mom_tetramer.pdb_92        6  12.010780  0.00000000  A     0.34806469     0.36350306
mom_tetramer.pdb_93        6  12.010780  0.00000000  A     0.34806469     0.36350306
mom_tetramer.pdb_94        6  12.010780  0.00000000  A     0.34806469     0.36350306
mom_tetramer.pdb_95        6  12.010780  0.00000000  A     0.34806469     0.36350306
mom_tetramer.pdb_96        6  12.010780  0.00000000  A     0.34806469     0.36350306
mom_tetramer.pdb_97        6  12.010780  0.00000000  A     0.34806469     0.36350306
mom_tetramer.pdb_98        8  15.999430  0.00000000  A     0.30398122     0.87950233
mom_tetramer.pdb_99        6  12.010780  0.00000000  A     0.34806469     0.36350306
mom_tetramer.pdb_100        6  12.010780  0.00000000  A     0.34806469     0.36350306
mom_tetramer.pdb_101        6  12.010780  0.00000000  A     0.34806469     0.36350306
mom_tetramer.pdb_102        6  12.010780  0.00000000  A     0.34806469     0.36350306
mom_tetramer.pdb_103        6  12.010780  0.00000000  A     0.34806469     0.36350306
mom_tetramer.pdb_104        6  12.010780  0.00000000  A     0.34806469     0.36350306
mom_tetramer.pdb_105        6  12.010780  0.00000000  A     0.34806469     0.36350306
mom_tetramer.pdb_106        6  12.010780  0.00000000  A     0.33795318     0.45538912
mom_tetramer.pdb_107        6  12.010780  0.00000000  A     0.33795318     0.45538912
mom_tetramer.pdb_108        7  14.006720  0.00000000  A      0.3206876      0.7016213
mom_tetramer.pdb_109        6  12.010780  0.00000000  A     0.34806469     0.36350306
mom_tetramer.pdb_110        6  12.010780  0.00000000  A     0.34806469     0.36350306
mom_tetramer.pdb_111        6  12.010780  0.00000000  A     0.34806469     0.36350306
mom_tetramer.pdb_112        6  12.010780  0.00000000  A     0.34806469     0.36350306
mom_tetramer.pdb_113        1   1.007947  0.00000000  A     0.25832257    0.068656285
mom_tetramer.pdb_114        1   1.007947  0.00000000  A     0.25832257    0.068656285
mom_tetramer.pdb_115        1   1.007947  0.00000000  A     0.25832257    0.068656285
mom_tetramer.pdb_116        1   1.007947  0.00000000  A     0.25725815     0.06531786
mom_tetramer.pdb_117        1   1.007947  0.00000000  A     0.25725815     0.06531786
mom_tetramer.pdb_118        1   1.007947  0.00000000  A     0.25725815     0.06531786
mom_tetramer.pdb_119        1   1.007947  0.00000000  A     0.25725815     0.06531786
mom_tetramer.pdb_120        1   1.007947  0.00000000  A     0.25725815     0.06531786
mom_tetramer.pdb_121        1   1.007947  0.00000000  A     0.25725815     0.06531786
mom_tetramer.pdb_122        1   1.007947  0.00000000  A     0.25725815     0.06531786
mom_tetramer.pdb_123        1   1.007947  0.00000000  A     0.25832257    0.068656285
mom_tetramer.pdb_124        1   1.007947  0.00000000  A     0.26445434    0.066021356
mom_tetramer.pdb_125        1   1.007947  0.00000000  A     0.26445434    0.066021356
mom_tetramer.pdb_126        1   1.007947  0.00000000  A     0.26445434    0.066021356
mom_tetramer.pdb_127        1   1.007947  0.00000000  A     0.11034277    0.058955969
mom_tetramer.pdb_128        1   1.007947  0.00000000  A     0.25725815     0.06531786
mom_tetramer.pdb_129        1   1.007947  0.00000000  A     0.25725815     0.06531786
mom_tetramer.pdb_130        1   1.007947  0.00000000  A     0.25725815     0.06531786
mom_tetramer.pdb_131        1   1.007947  0.00000000  A     0.25725815     0.06531786
mom_tetramer.pdb_132        6  12.010780  0.00000000  A     0.33795318     0.45538912
mom_tetramer.pdb_133        8  15.999430  0.00000000  A     0.30251065     0.70485815
mom_tetramer.pdb_134        6  12.010780  0.00000000  A     0.34806469     0.36350306
mom_tetramer.pdb_135        6  12.010780  0.00000000  A     0.34806469     0.36350306
mom_tetramer.pdb_136        6  12.010780  0.00000000  A     0.34806469     0.36350306
mom_tetramer.pdb_137        6  12.010780  0.00000000  A     0.34806469     0.36350306
mom_tetramer.pdb_138        6  12.010780  0.00000000  A     0.34806469     0.36350306
mom_tetramer.pdb_139        6  12.010780  0.00000000  A     0.34806469     0.36350306
mom_tetramer.pdb_140        6  12.010780  0.00000000  A     0.34806469     0.36350306
mom_tetramer.pdb_141        6  12.010780  0.00000000  A     0.34806469     0.36350306
mom_tetramer.pdb_142        8  15.999430  0.00000000  A     0.30398122     0.87950233
mom_tetramer.pdb_143        6  12.010780  0.00000000  A     0.34806469     0.36350306
mom_tetramer.pdb_144        6  12.010780  0.00000000  A     0.34806469     0.36350306
mom_tetramer.pdb_145        6  12.010780  0.00000000  A     0.34806469     0.36350306
mom_tetramer.pdb_146        6  12.010780  0.00000000  A     0.34806469     0.36350306
mom_tetramer.pdb_147        6  12.010780  0.00000000  A     0.34806469     0.36350306
mom_tetramer.pdb_148        6  12.010780  0.00000000  A     0.34806469     0.36350306
mom_tetramer.pdb_149        6  12.010780  0.00000000  A     0.34806469     0.36350306
mom_tetramer.pdb_150        6  12.010780  0.00000000  A     0.33795318     0.45538912
mom_tetramer.pdb_151        6  12.010780  0.00000000  A     0.33795318     0.45538912
mom_tetramer.pdb_152        7  14.006720  0.00000000  A      0.3206876      0.7016213
mom_tetramer.pdb_153        6  12.010780  0.00000000  A     0.34806469     0.36350306
mom_tetramer.pdb_154        6  12.010780  0.00000000  A     0.34806469     0.36350306
mom_tetramer.pdb_155        6  12.010780  0.00000000  A     0.34806469     0.36350306
mom_tetramer.pdb_156        6  12.010780  0.00000000  A     0.34806469     0.36350306
mom_tetramer.pdb_157        1   1.007947  0.00000000  A     0.25832257    0.068656285
mom_tetramer.pdb_158        1   1.007947  0.00000000  A     0.25832257    0.068656285
mom_tetramer.pdb_159        1   1.007947  0.00000000  A     0.25832257    0.068656285
mom_tetramer.pdb_160        1   1.007947  0.00000000  A     0.25725815     0.06531786
mom_tetramer.pdb_161        1   1.007947  0.00000000  A     0.25725815     0.06531786
mom_tetramer.pdb_162        1   1.007947  0.00000000  A     0.25725815     0.06531786
mom_tetramer.pdb_163        1   1.007947  0.00000000  A     0.25725815     0.06531786
mom_tetramer.pdb_164        1   1.007947  0.00000000  A     0.25725815     0.06531786
mom_tetramer.pdb_165        1   1.007947  0.00000000  A     0.25725815     0.06531786
mom_tetramer.pdb_166        1   1.007947  0.00000000  A     0.25725815     0.06531786
mom_tetramer.pdb_167        1   1.007947  0.00000000  A     0.25832257    0.068656285
mom_tetramer.pdb_168        1   1.007947  0.00000000  A     0.26445434    0.066021356
mom_tetramer.pdb_169        1   1.007947  0.00000000  A     0.26445434    0.066021356
mom_tetramer.pdb_170        1   1.007947  0.00000000  A     0.26445434    0.066021356
mom_tetramer.pdb_171        1   1.007947  0.00000000  A     0.11034277    0.058955969
mom_tetramer.pdb_172        1   1.007947  0.00000000  A     0.25725815     0.06531786
mom_tetramer.pdb_173        1   1.007947  0.00000000  A     0.25725815     0.06531786
mom_tetramer.pdb_174        1   1.007947  0.00000000  A     0.25725815     0.06531786
mom_tetramer.pdb_175        1   1.007947  0.00000000  A     0.25725815     0.06531786
mom_tetramer.pdb_176        6  12.010780  0.00000000  A     0.33795318     0.45538912
mom_tetramer.pdb_177        8  15.999430  0.00000000  A     0.30251065     0.70485815
mom_tetramer.pdb_178        1   1.007947  0.00000000  A     0.25832257    0.068656285
mom_tetramer.pdb_179        1   1.007947  0.00000000  A     0.25832257    0.068656285
mom_tetramer.pdb_180        1   1.007947  0.00000000  A     0.25832257    0.068656285
mom_tetramer.pdb_181        6  12.010780  0.00000000  A     0.33795318     0.45538912
mom_tetramer.pdb_182        6  12.010780  0.00000000  A     0.33795318     0.45538912
mom_tetramer.pdb_183        6  12.010780  0.00000000  A     0.33795318     0.45538912
mom_tetramer.pdb_184        6  12.010780  0.00000000  A     0.33795318     0.45538912
mom_tetramer.pdb_185        8  15.999430  0.00000000  A     0.30251065     0.70485815
mom_tetramer.pdb_186        6  12.010780  0.00000000  A     0.34806469     0.36350306
mom_tetramer.pdb_187        8  15.999430  0.00000000  A     0.30398122     0.87950233
mom_tetramer.pdb_188        1   1.007947  0.00000000  A     0.26445434    0.066021356
mom_tetramer.pdb_189        1   1.007947  0.00000000  A     0.26445434    0.066021356
mom_tetramer.pdb_190        1   1.007947  0.00000000  A     0.26445434    0.066021356
mom_tetramer.pdb_191        1   1.007947  0.00000000  A     0.26445434    0.066021356
mom_tetramer.pdb_192        1   1.007947  0.00000000  A     0.26445434    0.066021356
mom_tetramer.pdb_193        1   1.007947  0.00000000  A     0.26445434    0.066021356
mom_tetramer.pdb_194        1   1.007947  0.00000000  A     0.26445434    0.066021356
mom_tetramer.pdb_195        1   1.007947  0.00000000  A     0.26445434    0.066021356
mom_tetramer.pdb_196        1   1.007947  0.00000000  A     0.26445434    0.066021356
MOL1_0        17  35.453200  0.00000000  A     0.33075278      1.1112708
MOL1_1         6  12.010780  0.00000000  A     0.33795318     0.45538912
MOL1_2        17  35.453200  0.00000000  A     0.33075278      1.1112708
MOL1_3        17  35.453200  0.00000000  A     0.33075278      1.1112708
MOL1_4         1   1.007947  0.00000000  A     0.21149936      0.0656888


[ moleculetype ]
; Name            nrexcl
mom_tetramer.pdb          3

[ atoms ]
;   nr       type  resnr residue  atom   cgnr    charge       mass  typeB    chargeB      massB
; residue    1 mom_tetramer.pdb rtp mom_tetramer.pdb q 0.0
    1 mom_tetramer.pdb_0      1 mom_tetramer.pdb      C      1 0.10715000   5.963098   ; qtot 0.107150
    2 mom_tetramer.pdb_1      1 mom_tetramer.pdb      O      2 -0.31808001  15.999430   ; qtot -0.210930
    3 mom_tetramer.pdb_2      1 mom_tetramer.pdb      C      3 0.12443000  12.010780   ; qtot -0.086500
    4 mom_tetramer.pdb_3      1 mom_tetramer.pdb      C      4 -0.20434999   9.994886   ; qtot -0.290850
    5 mom_tetramer.pdb_4      1 mom_tetramer.pdb      C      5 -0.08760000   9.994886   ; qtot -0.378450
    6 mom_tetramer.pdb_5      1 mom_tetramer.pdb      C      6 -0.06892000  12.010780   ; qtot -0.447370
    7 mom_tetramer.pdb_6      1 mom_tetramer.pdb      C      7 -0.05334000  12.010780   ; qtot -0.500710
    8 mom_tetramer.pdb_7      1 mom_tetramer.pdb      C      8 -0.05014000   9.994886   ; qtot -0.550850
    9 mom_tetramer.pdb_8      1 mom_tetramer.pdb      C      9 -0.13192999  12.010780   ; qtot -0.682780
   10 mom_tetramer.pdb_9      1 mom_tetramer.pdb      C     10 0.65109003  12.010780   ; qtot -0.031690
   11 mom_tetramer.pdb_10      1 mom_tetramer.pdb      O     11 -0.56141001  15.999430   ; qtot -0.593100
   12 mom_tetramer.pdb_11      1 mom_tetramer.pdb      C     12 -0.07135000   9.994886   ; qtot -0.664450
   13 mom_tetramer.pdb_12      1 mom_tetramer.pdb      C     13 -0.15029000   9.994886   ; qtot -0.814740
   14 mom_tetramer.pdb_13      1 mom_tetramer.pdb      C     14 -0.08352000   9.994886   ; qtot -0.898260
   15 mom_tetramer.pdb_14      1 mom_tetramer.pdb      C     15 0.00915000  12.010780   ; qtot -0.889110
   16 mom_tetramer.pdb_15      1 mom_tetramer.pdb      C     16 -0.04728000  12.010780   ; qtot -0.936390
   17 mom_tetramer.pdb_16      1 mom_tetramer.pdb      C     17 -0.09117000   9.994886   ; qtot -1.027560
   18 mom_tetramer.pdb_17      1 mom_tetramer.pdb      C     18 -0.10591000  12.010780   ; qtot -1.133470
   19 mom_tetramer.pdb_18      1 mom_tetramer.pdb      C     19 0.15147001   9.994886   ; qtot -0.982000
   20 mom_tetramer.pdb_19      1 mom_tetramer.pdb      C     20 -0.10418000   5.963098   ; qtot -1.086180
   21 mom_tetramer.pdb_20      1 mom_tetramer.pdb      N     21 -0.56182998  11.990826   ; qtot -1.648010
   22 mom_tetramer.pdb_21      1 mom_tetramer.pdb      C     22 -0.11672000   9.994886   ; qtot -1.764730
   23 mom_tetramer.pdb_22      1 mom_tetramer.pdb      C     23 -0.13416000   9.994886   ; qtot -1.898890
   24 mom_tetramer.pdb_23      1 mom_tetramer.pdb      C     24 -0.11164000   9.994886   ; qtot -2.010530
   25 mom_tetramer.pdb_24      1 mom_tetramer.pdb      C     25 -0.14319000   9.994886   ; qtot -2.153720
   26 mom_tetramer.pdb_25      1 mom_tetramer.pdb      H     26 0.04435000   3.023841   ; qtot -2.109370
   27 mom_tetramer.pdb_26      1 mom_tetramer.pdb      H     27 0.04435000   3.023841   ; qtot -2.065020
   28 mom_tetramer.pdb_27      1 mom_tetramer.pdb      H     28 0.04435000   3.023841   ; qtot -2.020670
   29 mom_tetramer.pdb_28      1 mom_tetramer.pdb      H     29 0.14040001   3.023841   ; qtot -1.880270
   30 mom_tetramer.pdb_29      1 mom_tetramer.pdb      H     30 0.13903999   3.023841   ; qtot -1.741230
   31 mom_tetramer.pdb_30      1 mom_tetramer.pdb      H     31 0.16237000   3.023841   ; qtot -1.578860
   32 mom_tetramer.pdb_31      1 mom_tetramer.pdb      H     32 0.15285000   3.023841   ; qtot -1.426010
   33 mom_tetramer.pdb_32      1 mom_tetramer.pdb      H     33 0.13801999   3.023841   ; qtot -1.287990
   34 mom_tetramer.pdb_33      1 mom_tetramer.pdb      H     34 0.13847999   3.023841   ; qtot -1.149510
   35 mom_tetramer.pdb_34      1 mom_tetramer.pdb      H     35 0.14736000   3.023841   ; qtot -1.002150
   36 mom_tetramer.pdb_35      1 mom_tetramer.pdb      H     36 0.08911000   3.023841   ; qtot -0.913040
   37 mom_tetramer.pdb_36      1 mom_tetramer.pdb      H     37 0.04494000   3.023841   ; qtot -0.868100
   38 mom_tetramer.pdb_37      1 mom_tetramer.pdb      H     38 0.04494000   3.023841   ; qtot -0.823160
   39 mom_tetramer.pdb_38      1 mom_tetramer.pdb      H     39 0.04494000   3.023841   ; qtot -0.778220
   40 mom_tetramer.pdb_39      1 mom_tetramer.pdb      H     40 0.30724999   3.023841   ; qtot -0.470970
   41 mom_tetramer.pdb_40      1 mom_tetramer.pdb      H     41 0.12729999   3.023841   ; qtot -0.343670
   42 mom_tetramer.pdb_41      1 mom_tetramer.pdb      H     42 0.13043000   3.023841   ; qtot -0.213240
   43 mom_tetramer.pdb_42      1 mom_tetramer.pdb      H     43 0.13321000   3.023841   ; qtot -0.080030
   44 mom_tetramer.pdb_43      1 mom_tetramer.pdb      H     44 0.15681000   3.023841   ; qtot 0.076780
   45 mom_tetramer.pdb_44      1 mom_tetramer.pdb      C     45 0.11346000   5.963098   ; qtot 0.190240
   46 mom_tetramer.pdb_45      1 mom_tetramer.pdb      O     46 -0.32661000  15.999430   ; qtot -0.136370
   47 mom_tetramer.pdb_46      1 mom_tetramer.pdb      C     47 0.12435000  12.010780   ; qtot -0.012020
   48 mom_tetramer.pdb_47      1 mom_tetramer.pdb      C     48 -0.20480999   9.994886   ; qtot -0.216830
   49 mom_tetramer.pdb_48      1 mom_tetramer.pdb      C     49 -0.08595000   9.994886   ; qtot -0.302780
   50 mom_tetramer.pdb_49      1 mom_tetramer.pdb      C     50 -0.06323000  12.010780   ; qtot -0.366010
   51 mom_tetramer.pdb_50      1 mom_tetramer.pdb      C     51 -0.05091000  12.010780   ; qtot -0.416920
   52 mom_tetramer.pdb_51      1 mom_tetramer.pdb      C     52 -0.08520000   9.994886   ; qtot -0.502120
   53 mom_tetramer.pdb_52      1 mom_tetramer.pdb      C     53 -0.13891000  12.010780   ; qtot -0.641030
   54 mom_tetramer.pdb_53      1 mom_tetramer.pdb      C     54 0.68974000  12.010780   ; qtot 0.048710
   55 mom_tetramer.pdb_54      1 mom_tetramer.pdb      O     55 -0.61502999  15.999430   ; qtot -0.566320
   56 mom_tetramer.pdb_55      1 mom_tetramer.pdb      C     56 -0.07594000   9.994886   ; qtot -0.642260
   57 mom_tetramer.pdb_56      1 mom_tetramer.pdb      C     57 -0.13989000   9.994886   ; qtot -0.782150
   58 mom_tetramer.pdb_57      1 mom_tetramer.pdb      C     58 -0.09723000   9.994886   ; qtot -0.879380
   59 mom_tetramer.pdb_58      1 mom_tetramer.pdb      C     59 0.00545000  12.010780   ; qtot -0.873930
   60 mom_tetramer.pdb_59      1 mom_tetramer.pdb      C     60 -0.04412000  12.010780   ; qtot -0.918050
   61 mom_tetramer.pdb_60      1 mom_tetramer.pdb      C     61 -0.08931000   9.994886   ; qtot -1.007360
   62 mom_tetramer.pdb_61      1 mom_tetramer.pdb      C     62 -0.11067000  12.010780   ; qtot -1.118030
   63 mom_tetramer.pdb_62      1 mom_tetramer.pdb      C     63 0.15209000   9.994886   ; qtot -0.965940
   64 mom_tetramer.pdb_63      1 mom_tetramer.pdb      C     64 -0.10301000   5.963098   ; qtot -1.068950
   65 mom_tetramer.pdb_64      1 mom_tetramer.pdb      N     65 -0.56827998  11.990826   ; qtot -1.637230
   66 mom_tetramer.pdb_65      1 mom_tetramer.pdb      C     66 -0.11578000   9.994886   ; qtot -1.753010
   67 mom_tetramer.pdb_66      1 mom_tetramer.pdb      C     67 -0.13211000   9.994886   ; qtot -1.885120
   68 mom_tetramer.pdb_67      1 mom_tetramer.pdb      C     68 -0.10697000   9.994886   ; qtot -1.992090
   69 mom_tetramer.pdb_68      1 mom_tetramer.pdb      C     69 -0.14528000   9.994886   ; qtot -2.137370
   70 mom_tetramer.pdb_69      1 mom_tetramer.pdb      H     70 0.04458000   3.023841   ; qtot -2.092790
   71 mom_tetramer.pdb_70      1 mom_tetramer.pdb      H     71 0.04458000   3.023841   ; qtot -2.048210
   72 mom_tetramer.pdb_71      1 mom_tetramer.pdb      H     72 0.04458000   3.023841   ; qtot -2.003630
   73 mom_tetramer.pdb_72      1 mom_tetramer.pdb      H     73 0.13912000   3.023841   ; qtot -1.864510
   74 mom_tetramer.pdb_73      1 mom_tetramer.pdb      H     74 0.13883001   3.023841   ; qtot -1.725680
   75 mom_tetramer.pdb_74      1 mom_tetramer.pdb      H     75 0.14387000   3.023841   ; qtot -1.581810
   76 mom_tetramer.pdb_75      1 mom_tetramer.pdb      H     76 0.16129000   3.023841   ; qtot -1.420520
   77 mom_tetramer.pdb_76      1 mom_tetramer.pdb      H     77 0.14210001   3.023841   ; qtot -1.278420
   78 mom_tetramer.pdb_77      1 mom_tetramer.pdb      H     78 0.13525000   3.023841   ; qtot -1.143170
   79 mom_tetramer.pdb_78      1 mom_tetramer.pdb      H     79 0.14414001   3.023841   ; qtot -0.999030
   80 mom_tetramer.pdb_79      1 mom_tetramer.pdb      H     80 0.08270000   3.023841   ; qtot -0.916330
   81 mom_tetramer.pdb_80      1 mom_tetramer.pdb      H     81 0.04484000   3.023841   ; qtot -0.871490
   82 mom_tetramer.pdb_81      1 mom_tetramer.pdb      H     82 0.04484000   3.023841   ; qtot -0.826650
   83 mom_tetramer.pdb_82      1 mom_tetramer.pdb      H     83 0.04484000   3.023841   ; qtot -0.781810
   84 mom_tetramer.pdb_83      1 mom_tetramer.pdb      H     84 0.30548999   3.023841   ; qtot -0.476320
   85 mom_tetramer.pdb_84      1 mom_tetramer.pdb      H     85 0.12551001   3.023841   ; qtot -0.350810
   86 mom_tetramer.pdb_85      1 mom_tetramer.pdb      H     86 0.13246000   3.023841   ; qtot -0.218350
   87 mom_tetramer.pdb_86      1 mom_tetramer.pdb      H     87 0.13586000   3.023841   ; qtot -0.082490
   88 mom_tetramer.pdb_87      1 mom_tetramer.pdb      H     88 0.15554000   3.023841   ; qtot 0.073050
   89 mom_tetramer.pdb_88      1 mom_tetramer.pdb      C     89 0.11263000   5.963098   ; qtot 0.185680
   90 mom_tetramer.pdb_89      1 mom_tetramer.pdb      O     90 -0.32021999  15.999430   ; qtot -0.134540
   91 mom_tetramer.pdb_90      1 mom_tetramer.pdb      C     91 0.12406000  12.010780   ; qtot -0.010480
   92 mom_tetramer.pdb_91      1 mom_tetramer.pdb      C     92 -0.14955001   9.994886   ; qtot -0.160030
   93 mom_tetramer.pdb_92      1 mom_tetramer.pdb      C     93 -0.08106000   9.994886   ; qtot -0.241090
   94 mom_tetramer.pdb_93      1 mom_tetramer.pdb      C     94 -0.06582000  12.010780   ; qtot -0.306910
   95 mom_tetramer.pdb_94      1 mom_tetramer.pdb      C     95 -0.03852000  12.010780   ; qtot -0.345430
   96 mom_tetramer.pdb_95      1 mom_tetramer.pdb      C     96 -0.04625000   9.994886   ; qtot -0.391680
   97 mom_tetramer.pdb_96      1 mom_tetramer.pdb      C     97 -0.13753000  12.010780   ; qtot -0.529210
   98 mom_tetramer.pdb_97      1 mom_tetramer.pdb      C     98 0.68074000  12.010780   ; qtot 0.151530
   99 mom_tetramer.pdb_98      1 mom_tetramer.pdb      O     99 -0.60664999  15.999430   ; qtot -0.455120
  100 mom_tetramer.pdb_99      1 mom_tetramer.pdb      C    100 -0.10428000   9.994886   ; qtot -0.559400
  101 mom_tetramer.pdb_100      1 mom_tetramer.pdb      C    101 -0.14501999   9.994886   ; qtot -0.704420
  102 mom_tetramer.pdb_101      1 mom_tetramer.pdb      C    102 -0.09584000   9.994886   ; qtot -0.800260
  103 mom_tetramer.pdb_102      1 mom_tetramer.pdb      C    103 -0.00155000  12.010780   ; qtot -0.801810
  104 mom_tetramer.pdb_103      1 mom_tetramer.pdb      C    104 -0.03913000  12.010780   ; qtot -0.840940
  105 mom_tetramer.pdb_104      1 mom_tetramer.pdb      C    105 -0.11694000   9.994886   ; qtot -0.957880
  106 mom_tetramer.pdb_105      1 mom_tetramer.pdb      C    106 -0.09932000  12.010780   ; qtot -1.057200
  107 mom_tetramer.pdb_106      1 mom_tetramer.pdb      C    107 0.15233999   9.994886   ; qtot -0.904860
  108 mom_tetramer.pdb_107      1 mom_tetramer.pdb      C    108 -0.11290000   5.963098   ; qtot -1.017760
  109 mom_tetramer.pdb_108      1 mom_tetramer.pdb      N    109 -0.57094997  11.990826   ; qtot -1.588710
  110 mom_tetramer.pdb_109      1 mom_tetramer.pdb      C    110 -0.11113000   9.994886   ; qtot -1.699840
  111 mom_tetramer.pdb_110      1 mom_tetramer.pdb      C    111 -0.12978999   9.994886   ; qtot -1.829630
  112 mom_tetramer.pdb_111      1 mom_tetramer.pdb      C    112 -0.10776000   9.994886   ; qtot -1.937390
  113 mom_tetramer.pdb_112      1 mom_tetramer.pdb      C    113 -0.21037000   9.994886   ; qtot -2.147760
  114 mom_tetramer.pdb_113      1 mom_tetramer.pdb      H    114 0.04437000   3.023841   ; qtot -2.103390
  115 mom_tetramer.pdb_114      1 mom_tetramer.pdb      H    115 0.04437000   3.023841   ; qtot -2.059020
  116 mom_tetramer.pdb_115      1 mom_tetramer.pdb      H    116 0.04437000   3.023841   ; qtot -2.014650
  117 mom_tetramer.pdb_116      1 mom_tetramer.pdb      H    117 0.15617000   3.023841   ; qtot -1.858480
  118 mom_tetramer.pdb_117      1 mom_tetramer.pdb      H    118 0.16028000   3.023841   ; qtot -1.698200
  119 mom_tetramer.pdb_118      1 mom_tetramer.pdb      H    119 0.16200000   3.023841   ; qtot -1.536200
  120 mom_tetramer.pdb_119      1 mom_tetramer.pdb      H    120 0.12815000   3.023841   ; qtot -1.408050
  121 mom_tetramer.pdb_120      1 mom_tetramer.pdb      H    121 0.13412000   3.023841   ; qtot -1.273930
  122 mom_tetramer.pdb_121      1 mom_tetramer.pdb      H    122 0.13542999   3.023841   ; qtot -1.138500
  123 mom_tetramer.pdb_122      1 mom_tetramer.pdb      H    123 0.13315000   3.023841   ; qtot -1.005350
  124 mom_tetramer.pdb_123      1 mom_tetramer.pdb      H    124 0.08648000   3.023841   ; qtot -0.918870
  125 mom_tetramer.pdb_124      1 mom_tetramer.pdb      H    125 0.04501000   3.023841   ; qtot -0.873860
  126 mom_tetramer.pdb_125      1 mom_tetramer.pdb      H    126 0.04501000   3.023841   ; qtot -0.828850
  127 mom_tetramer.pdb_126      1 mom_tetramer.pdb      H    127 0.04501000   3.023841   ; qtot -0.783840
  128 mom_tetramer.pdb_127      1 mom_tetramer.pdb      H    128 0.31044999   3.023841   ; qtot -0.473390
  129 mom_tetramer.pdb_128      1 mom_tetramer.pdb      H    129 0.13819000   3.023841   ; qtot -0.335200
  130 mom_tetramer.pdb_129      1 mom_tetramer.pdb      H    130 0.13553999   3.023841   ; qtot -0.199660
  131 mom_tetramer.pdb_130      1 mom_tetramer.pdb      H    131 0.14075001   3.023841   ; qtot -0.058910
  132 mom_tetramer.pdb_131      1 mom_tetramer.pdb      H    132 0.14185999   3.023841   ; qtot 0.082950
  133 mom_tetramer.pdb_132      1 mom_tetramer.pdb      C    133 0.11222000   5.963098   ; qtot 0.195170
  134 mom_tetramer.pdb_133      1 mom_tetramer.pdb      O    134 -0.32611001  15.999430   ; qtot -0.130940
  135 mom_tetramer.pdb_134      1 mom_tetramer.pdb      C    135 0.12502000  12.010780   ; qtot -0.005920
  136 mom_tetramer.pdb_135      1 mom_tetramer.pdb      C    136 -0.20427001   9.994886   ; qtot -0.210190
  137 mom_tetramer.pdb_136      1 mom_tetramer.pdb      C    137 -0.08325000   9.994886   ; qtot -0.293440
  138 mom_tetramer.pdb_137      1 mom_tetramer.pdb      C    138 -0.07185000  12.010780   ; qtot -0.365290
  139 mom_tetramer.pdb_138      1 mom_tetramer.pdb      C    139 -0.04274000  12.010780   ; qtot -0.408030
  140 mom_tetramer.pdb_139      1 mom_tetramer.pdb      C    140 -0.09274000   9.994886   ; qtot -0.500770
  141 mom_tetramer.pdb_140      1 mom_tetramer.pdb      C    141 -0.14388999  12.010780   ; qtot -0.644660
  142 mom_tetramer.pdb_141      1 mom_tetramer.pdb      C    142 0.67436999  12.010780   ; qtot 0.029710
  143 mom_tetramer.pdb_142      1 mom_tetramer.pdb      O    143 -0.60834002  15.999430   ; qtot -0.578630
  144 mom_tetramer.pdb_143      1 mom_tetramer.pdb      C    144 -0.07404000   9.994886   ; qtot -0.652670
  145 mom_tetramer.pdb_144      1 mom_tetramer.pdb      C    145 -0.14069000   9.994886   ; qtot -0.793360
  146 mom_tetramer.pdb_145      1 mom_tetramer.pdb      C    146 -0.09096000   9.994886   ; qtot -0.884320
  147 mom_tetramer.pdb_146      1 mom_tetramer.pdb      C    147 0.00662000  12.010780   ; qtot -0.877700
  148 mom_tetramer.pdb_147      1 mom_tetramer.pdb      C    148 -0.04526000  12.010780   ; qtot -0.922960
  149 mom_tetramer.pdb_148      1 mom_tetramer.pdb      C    149 -0.10496000   9.994886   ; qtot -1.027920
  150 mom_tetramer.pdb_149      1 mom_tetramer.pdb      C    150 -0.11761000  12.010780   ; qtot -1.145530
  151 mom_tetramer.pdb_150      1 mom_tetramer.pdb      C    151 0.16049001   9.994886   ; qtot -0.985040
  152 mom_tetramer.pdb_151      1 mom_tetramer.pdb      C    152 -0.10281000   5.963098   ; qtot -1.087850
  153 mom_tetramer.pdb_152      1 mom_tetramer.pdb      N    153 -0.54876000  11.990826   ; qtot -1.636610
  154 mom_tetramer.pdb_153      1 mom_tetramer.pdb      C    154 -0.09879000   9.994886   ; qtot -1.735400
  155 mom_tetramer.pdb_154      1 mom_tetramer.pdb      C    155 -0.13084000   9.994886   ; qtot -1.866240
  156 mom_tetramer.pdb_155      1 mom_tetramer.pdb      C    156 -0.10631000   9.994886   ; qtot -1.972550
  157 mom_tetramer.pdb_156      1 mom_tetramer.pdb      C    157 -0.14708000   9.994886   ; qtot -2.119630
  158 mom_tetramer.pdb_157      1 mom_tetramer.pdb      H    158 0.04584000   3.023841   ; qtot -2.073790
  159 mom_tetramer.pdb_158      1 mom_tetramer.pdb      H    159 0.04584000   3.023841   ; qtot -2.027950
  160 mom_tetramer.pdb_159      1 mom_tetramer.pdb      H    160 0.04584000   3.023841   ; qtot -1.982110
  161 mom_tetramer.pdb_160      1 mom_tetramer.pdb      H    161 0.14134000   3.023841   ; qtot -1.840770
  162 mom_tetramer.pdb_161      1 mom_tetramer.pdb      H    162 0.14161000   3.023841   ; qtot -1.699160
  163 mom_tetramer.pdb_162      1 mom_tetramer.pdb      H    163 0.13952000   3.023841   ; qtot -1.559640
  164 mom_tetramer.pdb_163      1 mom_tetramer.pdb      H    164 0.15622000   3.023841   ; qtot -1.403420
  165 mom_tetramer.pdb_164      1 mom_tetramer.pdb      H    165 0.13888000   3.023841   ; qtot -1.264540
  166 mom_tetramer.pdb_165      1 mom_tetramer.pdb      H    166 0.13964000   3.023841   ; qtot -1.124900
  167 mom_tetramer.pdb_166      1 mom_tetramer.pdb      H    167 0.12867001   3.023841   ; qtot -0.996230
  168 mom_tetramer.pdb_167      1 mom_tetramer.pdb      H    168 0.08756000   3.023841   ; qtot -0.908670
  169 mom_tetramer.pdb_168      1 mom_tetramer.pdb      H    169 0.04565000   3.023841   ; qtot -0.863020
  170 mom_tetramer.pdb_169      1 mom_tetramer.pdb      H    170 0.04565000   3.023841   ; qtot -0.817370
  171 mom_tetramer.pdb_170      1 mom_tetramer.pdb      H    171 0.04565000   3.023841   ; qtot -0.771720
  172 mom_tetramer.pdb_171      1 mom_tetramer.pdb      H    172 0.32528999   3.023841   ; qtot -0.446430
  173 mom_tetramer.pdb_172      1 mom_tetramer.pdb      H    173 0.14300001   3.023841   ; qtot -0.303430
  174 mom_tetramer.pdb_173      1 mom_tetramer.pdb      H    174 0.13620999   3.023841   ; qtot -0.167220
  175 mom_tetramer.pdb_174      1 mom_tetramer.pdb      H    175 0.13682000   3.023841   ; qtot -0.030400
  176 mom_tetramer.pdb_175      1 mom_tetramer.pdb      H    176 0.15679000   3.023841   ; qtot 0.126390
  177 mom_tetramer.pdb_176      1 mom_tetramer.pdb      C    177 0.13060001   5.963098   ; qtot 0.256990
  178 mom_tetramer.pdb_177      1 mom_tetramer.pdb      O    178 -0.42668000  15.999430   ; qtot -0.169690
  179 mom_tetramer.pdb_178      1 mom_tetramer.pdb      H    179 0.05203000   3.023841   ; qtot -0.117660
  180 mom_tetramer.pdb_179      1 mom_tetramer.pdb      H    180 0.05203000   3.023841   ; qtot -0.065630
  181 mom_tetramer.pdb_180      1 mom_tetramer.pdb      H    181 0.05203000   3.023841   ; qtot -0.013600
  182 mom_tetramer.pdb_181      1 mom_tetramer.pdb      C    182 -0.11435000   5.963098   ; qtot -0.127950
  183 mom_tetramer.pdb_182      1 mom_tetramer.pdb      C    183 0.18911999  12.010780   ; qtot 0.061170
  184 mom_tetramer.pdb_183      1 mom_tetramer.pdb      C    184 -0.11435000   5.963098   ; qtot -0.053180
  185 mom_tetramer.pdb_184      1 mom_tetramer.pdb      C    185 -0.11435000   5.963098   ; qtot -0.167530
  186 mom_tetramer.pdb_185      1 mom_tetramer.pdb      O    186 -0.44066000  15.999430   ; qtot -0.608190
  187 mom_tetramer.pdb_186      1 mom_tetramer.pdb      C    187 0.74972999  12.010780   ; qtot 0.141540
  188 mom_tetramer.pdb_187      1 mom_tetramer.pdb      O    188 -0.60251999  15.999430   ; qtot -0.460980
  189 mom_tetramer.pdb_188      1 mom_tetramer.pdb      H    189 0.05122000   3.023841   ; qtot -0.409760
  190 mom_tetramer.pdb_189      1 mom_tetramer.pdb      H    190 0.05122000   3.023841   ; qtot -0.358540
  191 mom_tetramer.pdb_190      1 mom_tetramer.pdb      H    191 0.05122000   3.023841   ; qtot -0.307320
  192 mom_tetramer.pdb_191      1 mom_tetramer.pdb      H    192 0.05122000   3.023841   ; qtot -0.256100
  193 mom_tetramer.pdb_192      1 mom_tetramer.pdb      H    193 0.05122000   3.023841   ; qtot -0.204880
  194 mom_tetramer.pdb_193      1 mom_tetramer.pdb      H    194 0.05122000   3.023841   ; qtot -0.153660
  195 mom_tetramer.pdb_194      1 mom_tetramer.pdb      H    195 0.05122000   3.023841   ; qtot -0.102440
  196 mom_tetramer.pdb_195      1 mom_tetramer.pdb      H    196 0.05122000   3.023841   ; qtot -0.051220
  197 mom_tetramer.pdb_196      1 mom_tetramer.pdb      H    197 0.05122000   3.023841   ; qtot 0.000000

[ bonds ]
;    ai     aj funct         c0         c1         c2         c3
      1      2     1   0.14259 306888.771877
      1     26     1   0.10939 309655.084322
      1     27     1   0.10939 309655.084322
      1     28     1   0.10939 309655.084322
      2      3     1   0.13629 356218.264001
      3      4     1   0.13872 301905.092579
      3     25     1   0.13872 301905.092579
      4      5     1   0.13872 301905.092579
      4     29     1   0.10854 332422.631675
      5      6     1   0.13872 301905.092579
      5     30     1   0.10854 332422.631675
      6      7     1   0.14546 233580.248618
      6     15     1   0.13872 301905.092579
      7      8     1   0.13872 301905.092579
      7     14     1   0.13872 301905.092579
      8      9     1   0.13872 301905.092579
      8     31     1   0.10854 332422.631675
      9     10     1   0.14546 233580.248618
      9     12     1   0.13872 301905.092579
     10     11     1   0.12252 487602.327766
     10    178     1   0.13457 252005.673257
     12     13     1   0.13872 301905.092579
     12     32     1   0.10854 332422.631675
     13     14     1   0.13872 301905.092579
     13     33     1   0.10854 332422.631675
     14     34     1   0.10854 332422.631675
     15     16     1   0.14546 233580.248618
     15     25     1   0.13872 301905.092579
     16     17     1   0.13872 301905.092579
     16     24     1   0.13872 301905.092579
     17     18     1   0.13872 301905.092579
     17     35     1   0.10854 332422.631675
     18     19     1   0.14986 242452.869388
     18     22     1   0.13872 301905.092579
     19     20     1   0.15219 221435.259290
     19     21     1   0.14501 294600.927776
     19     36     1   0.10939 309655.084322
     20     37     1   0.10939 309655.084322
     20     38     1   0.10939 309655.084322
     20     39     1   0.10939 309655.084322
     21     40     1   0.10195 422704.914414
     21     54     1   0.13819 412347.817359
     22     23     1   0.13872 301905.092579
     22     41     1   0.10854 332422.631675
     23     24     1   0.13872 301905.092579
     23     42     1   0.10854 332422.631675
     24     43     1   0.10854 332422.631675
     25     44     1   0.10854 332422.631675
     45     46     1   0.14259 306888.771877
     45     70     1   0.10939 309655.084322
     45     71     1   0.10939 309655.084322
     45     72     1   0.10939 309655.084322
     46     47     1   0.13629 356218.264001
     47     48     1   0.13872 301905.092579
     47     69     1   0.13872 301905.092579
     48     49     1   0.13872 301905.092579
     48     73     1   0.10854 332422.631675
     49     50     1   0.13872 301905.092579
     49     74     1   0.10854 332422.631675
     50     51     1   0.14546 233580.248618
     50     59     1   0.13872 301905.092579
     51     52     1   0.13872 301905.092579
     51     58     1   0.13872 301905.092579
     52     53     1   0.13872 301905.092579
     52     75     1   0.10854 332422.631675
     53     54     1   0.14546 233580.248618
     53     56     1   0.13872 301905.092579
     54     55     1   0.12252 487602.327766
     56     57     1   0.13872 301905.092579
     56     76     1   0.10854 332422.631675
     57     58     1   0.13872 301905.092579
     57     77     1   0.10854 332422.631675
     58     78     1   0.10854 332422.631675
     59     60     1   0.14546 233580.248618
     59     69     1   0.13872 301905.092579
     60     61     1   0.13872 301905.092579
     60     68     1   0.13872 301905.092579
     61     62     1   0.13872 301905.092579
     61     79     1   0.10854 332422.631675
     62     63     1   0.14986 242452.869388
     62     66     1   0.13872 301905.092579
     63     64     1   0.15219 221435.259290
     63     65     1   0.14501 294600.927776
     63     80     1   0.10939 309655.084322
     64     81     1   0.10939 309655.084322
     64     82     1   0.10939 309655.084322
     64     83     1   0.10939 309655.084322
     65     84     1   0.10195 422704.914414
     65     98     1   0.13819 412347.817359
     66     67     1   0.13872 301905.092579
     66     85     1   0.10854 332422.631675
     67     68     1   0.13872 301905.092579
     67     86     1   0.10854 332422.631675
     68     87     1   0.10854 332422.631675
     69     88     1   0.10854 332422.631675
     89     90     1   0.14259 306888.771877
     89    114     1   0.10939 309655.084322
     89    115     1   0.10939 309655.084322
     89    116     1   0.10939 309655.084322
     90     91     1   0.13629 356218.264001
     91     92     1   0.13872 301905.092579
     91    113     1   0.13872 301905.092579
     92     93     1   0.13872 301905.092579
     92    117     1   0.10854 332422.631675
     93     94     1   0.13872 301905.092579
     93    118     1   0.10854 332422.631675
     94     95     1   0.14546 233580.248618
     94    103     1   0.13872 301905.092579
     95     96     1   0.13872 301905.092579
     95    102     1   0.13872 301905.092579
     96     97     1   0.13872 301905.092579
     96    119     1   0.10854 332422.631675
     97     98     1   0.14546 233580.248618
     97    100     1   0.13872 301905.092579
     98     99     1   0.12252 487602.327766
    100    101     1   0.13872 301905.092579
    100    120     1   0.10854 332422.631675
    101    102     1   0.13872 301905.092579
    101    121     1   0.10854 332422.631675
    102    122     1   0.10854 332422.631675
    103    104     1   0.14546 233580.248618
    103    113     1   0.13872 301905.092579
    104    105     1   0.13872 301905.092579
    104    112     1   0.13872 301905.092579
    105    106     1   0.13872 301905.092579
    105    123     1   0.10854 332422.631675
    106    107     1   0.14986 242452.869388
    106    110     1   0.13872 301905.092579
    107    108     1   0.15219 221435.259290
    107    109     1   0.14501 294600.927776
    107    124     1   0.10939 309655.084322
    108    125     1   0.10939 309655.084322
    108    126     1   0.10939 309655.084322
    108    127     1   0.10939 309655.084322
    109    128     1   0.10195 422704.914414
    109    142     1   0.13819 412347.817359
    110    111     1   0.13872 301905.092579
    110    129     1   0.10854 332422.631675
    111    112     1   0.13872 301905.092579
    111    130     1   0.10854 332422.631675
    112    131     1   0.10854 332422.631675
    113    132     1   0.10854 332422.631675
    133    134     1   0.14259 306888.771877
    133    158     1   0.10939 309655.084322
    133    159     1   0.10939 309655.084322
    133    160     1   0.10939 309655.084322
    134    135     1   0.13629 356218.264001
    135    136     1   0.13872 301905.092579
    135    157     1   0.13872 301905.092579
    136    137     1   0.13872 301905.092579
    136    161     1   0.10854 332422.631675
    137    138     1   0.13872 301905.092579
    137    162     1   0.10854 332422.631675
    138    139     1   0.14546 233580.248618
    138    147     1   0.13872 301905.092579
    139    140     1   0.13872 301905.092579
    139    146     1   0.13872 301905.092579
    140    141     1   0.13872 301905.092579
    140    163     1   0.10854 332422.631675
    141    142     1   0.14546 233580.248618
    141    144     1   0.13872 301905.092579
    142    143     1   0.12252 487602.327766
    144    145     1   0.13872 301905.092579
    144    164     1   0.10854 332422.631675
    145    146     1   0.13872 301905.092579
    145    165     1   0.10854 332422.631675
    146    166     1   0.10854 332422.631675
    147    148     1   0.14546 233580.248618
    147    157     1   0.13872 301905.092579
    148    149     1   0.13872 301905.092579
    148    156     1   0.13872 301905.092579
    149    150     1   0.13872 301905.092579
    149    167     1   0.10854 332422.631675
    150    151     1   0.14986 242452.869388
    150    154     1   0.13872 301905.092579
    151    152     1   0.15219 221435.259290
    151    153     1   0.14501 294600.927776
    151    168     1   0.10939 309655.084322
    152    169     1   0.10939 309655.084322
    152    170     1   0.10939 309655.084322
    152    171     1   0.10939 309655.084322
    153    172     1   0.10195 422704.914414
    153    187     1   0.13819 412347.817359
    154    155     1   0.13872 301905.092579
    154    173     1   0.10854 332422.631675
    155    156     1   0.13872 301905.092579
    155    174     1   0.10854 332422.631675
    156    175     1   0.10854 332422.631675
    157    176     1   0.10854 332422.631675
    177    178     1   0.14259 306888.771877
    177    179     1   0.10939 309655.084322
    177    180     1   0.10939 309655.084322
    177    181     1   0.10939 309655.084322
    182    183     1   0.15219 221435.259290
    182    189     1   0.10939 309655.084322
    182    190     1   0.10939 309655.084322
    182    191     1   0.10939 309655.084322
    183    184     1   0.15219 221435.259290
    183    185     1   0.15219 221435.259290
    183    186     1   0.14259 306888.771877
    184    192     1   0.10939 309655.084322
    184    193     1   0.10939 309655.084322
    184    194     1   0.10939 309655.084322
    185    195     1   0.10939 309655.084322
    185    196     1   0.10939 309655.084322
    185    197     1   0.10939 309655.084322
    186    187     1   0.13457 252005.673257
    187    188     1   0.12252 487602.327766

[ pairs ]
;    ai     aj funct         c0         c1         c2         c3
     62     86     1
     94     97     1
    109    140     1
    138    145     1
    182    192     1
    138    156     1
     80     83     1
    135    162     1
    138    176     1
    150    169     1
    147    162     1
      8     32     1
    151    167     1
     46     49     1
     36     38     1
     47     60     1
    154    167     1
     48     88     1
     60     88     1
      6     29     1
    107    143     1
     49     69     1
     61     69     1
    136    147     1
    184    190     1
      3     28     1
    182    196     1
     10     31     1
     91    114     1
    186    195     1
    150    156     1
     91     94     1
     90    103     1
     19     53     1
    144    166     1
     29     30     1
    164    165     1
     10    180     1
     36     54     1
     52     59     1
     25     29     1
    106    127     1
     65     96     1
     53     77     1
    185    194     1
    109    110     1
    168    172     1
    141    146     1
     95    121     1
     96     99     1
     84     99     1
     85     86     1
     22     36     1
    142    164     1
     18     42     1
     15     35     1
    150    187     1
     20     40     1
      9     33     1
     21     38     1
     16     19     1
    152    172     1
    156    173     1
     24     25     1
     47     74     1
    105    129     1
     98    101     1
    105    109     1
    185    187     1
    172    186     1
     54     75     1
    184    196     1
    137    148     1
     59     67     1
    186    192     1
      2     44     1
     80     82     1
    138    166     1
    139    157     1
     22     43     1
    150    170     1
    148    154     1
    124    127     1
      8     15     1
    148    174     1
    112    123     1
    165    166     1
     40     53     1
    107    111     1
    102    119     1
    103    106     1
    109    127     1
     50     57     1
     56     78     1
     65     82     1
     58     76     1
     93    102     1
    184    189     1
     59     74     1
     95    118     1
    182    195     1
     10     32     1
     64     66     1
     63     79     1
     14     31     1
    139    144     1
     95     98     1
      4      7     1
    147    150     1
    135    159     1
     24     35     1
    151    186     1
     20     54     1
    149    168     1
     21     52     1
      6     44     1
     51     69     1
    104    110     1
    128    143     1
      6     17     1
    106    126     1
    108    142     1
      8    178     1
    185    193     1
     55     56     1
     62     82     1
    109    144     1
    133    157     1
     17     41     1
      5     14     1
     76     77     1
     15     18     1
    144    163     1
     19     23     1
    149    155     1
     21     39     1
    112    129     1
     51     56     1
     46     73     1
    149    175     1
      6     13     1
     45     48     1
    103    123     1
    106    130     1
    110    131     1
     98    120     1
    105    108     1
     96    122     1
    184    195     1
    183    188     1
     95    104     1
    186    191     1
     18     39     1
     17     21     1
     80     81     1
    140    145     1
      5      8     1
     86     87     1
    124    126     1
    108    128     1
    157    161     1
      9     14     1
    112    113     1
    153    183     1
     47     71     1
    104    107     1
    110    124     1
     49     60     1
    109    126     1
     94    119     1
     50     88     1
    185    190     1
     65     81     1
     61     80     1
     50     78     1
     63     97     1
    182    194     1
      3      6     1
     68     85     1
    138    163     1
    135    160     1
     90    132     1
    139    165     1
     77     78     1
    148    151     1
    156    157     1
    113    117     1
      7     25     1
    117    118     1
      6     34     1
    161    162     1
    107    123     1
     56     75     1
    107    141     1
     61     67     1
     94    112     1
     94    132     1
    168    187     1
      1     25     1
     66     87     1
     62     81     1
      4     44     1
      3     26     1
     66     79     1
     80     98     1
     91    116     1
     92    103     1
    186    197     1
     41     42     1
    150    174     1
    147    167     1
      7     12     1
    152    187     1
    153    170     1
     21     22     1
     52     57     1
     60     63     1
     45     69     1
     50     61     1
     94    105     1
    168    170     1
     89    113     1
     96    101     1
    139    148     1
     18     40     1
     69     73     1
    134    176     1
    140    166     1
     16     44     1
    149    152     1
     36     39     1
     21     56     1
     48     59     1
     47     72     1
    154    168     1
    110    123     1
    105    131     1
     62     98     1
     61     85     1
    136    139     1
    106    142     1
     50     68     1
    105    111     1
    185    189     1
    172    188     1
     62     68     1
    100    119     1
    137    146     1
    186    194     1
     80     84     1
      2     15     1
    146    163     1
     14     15     1
    151    155     1
      7     33     1
     73     74     1
     42     43     1
     11     12     1
      7     10     1
    121    122     1
    156    167     1
      8     13     1
    104    130     1
     10    181     1
     51     60     1
     11    177     1
    154    175     1
     60     66     1
     53     58     1
     94    122     1
    105    124     1
     50     75     1
      3     16     1
     93    104     1
    184    191     1
     66     80     1
    182    197     1
    142    145     1
     91    115     1
     68     69     1
    139    142     1
     95    100     1
      5     25     1
     17     25     1
    139    162     1
     19     41     1
     12    178     1
    151    188     1
      6     31     1
    153    171     1
    124    142     1
    128    141     1
    106    128     1
      6     24     1
     52     78     1
      3     30     1
     61     64     1
    168    171     1
     62     84     1
    137    140     1
     54     76     1
     97    102     1
     59     87     1
     59     79     1
     89     92     1
     95    113     1
    141    165     1
     90    117     1
     22     35     1
     15     43     1
    150    171     1
      2     29     1
      8     34     1
    149    153     1
     21     37     1
     36     40     1
    120    121     1
    149    173     1
     51     74     1
     60     86     1
    174    175     1
    106    112     1
     99    100     1
    184    197     1
     12     34     1
     14     32     1
    186    193     1
      2      5     1
     18     37     1
     15     30     1
    140    143     1
    146    164     1
     19     35     1
     15     23     1
      7     16     1
     19     55     1
    124    128     1
    153    154     1
     46     88     1
    108    110     1
    103    118     1
    106    125     1
     49     58     1
    102    120     1
      9    177     1
    185    192     1
     65     83     1
     94    101     1
    100    122     1
     63     99     1
     59     62     1
     58     75     1
     63     67     1
    138    141     1
     92    132     1
    135    138     1
    136    176     1
     33     34     1
    182    187     1
     84     97     1
    138    161     1
     10     13     1
     68     79     1
    130    131     1
    135    158     1
      7     30     1
    152    154     1
    103    131     1
     51     77     1
    103    111     1
     98    119     1
     61     65     1
     54     57     1
     97    121     1
    133    136     1
     62     83     1
     93     96     1
      4     15     1
     91    118     1
    134    147     1
    146    147     1
    186    190     1
    143    144     1
    150    172     1
     18     24     1
     24     41     1
    124    125     1
    148    176     1
     20     22     1
    107    129     1
     40     55     1
     52     55     1
     49     52     1
     65    100     1
    109    125     1
     65     66     1
    184    187     1
     64     98     1
     63     85     1
    137    157     1
     17     36     1
     96    103     1
    182    193     1
     18     38     1
     17     20     1
    129    130     1
    140    164     1
     16     42     1
     36     37     1
     46     59     1
     47     50     1
     47     70     1
     61     87     1
    105    113     1
    185    191     1
     93    113     1
     12     31     1
      3     27     1
     17     43     1
    186    196     1
      5     16     1
    135    148     1
     91    104     1
    134    161     1
     18     54     1
     90     93     1
    151    173     1
      8     11     1
    149    157     1
     16     22     1
     10    179     1
    104    132     1
      1      4     1
     50     53     1
    102    103     1
     50     73     1
     96    120     1
    134    137     1
    173    174     1
     32     33     1
    138    149     1
     64     84     1
     92     95     1
    186    189     1
    142    163     1
     17     23     1
    147    155     1
    140    147     1
    147    175     1
     51     54     1
    153    169     1
     48     51     1
     52     76     1
      6      9     1
     94    117     1
     58     59     1
    168    169     1

[ angles ]
;    ai     aj     ak funct         c0         c1         c2         c3
      1      2      3     1   110.3538806 544.678275
      2      1     26     1   116.5475863 445.222087
      2      1     27     1   116.5475863 445.222087
      2      1     28     1   116.5475863 445.222087
      2      3      4     1   126.8062420 484.492885
      2      3     25     1   126.8062420 484.492885
      3      4      5     1   126.8062420 484.492885
      3      4     29     1   129.1835930 285.070775
      3     25     15     1   126.8062420 484.492885
      3     25     44     1   129.1835930 285.070775
      4      3     25     1   126.8062420 484.492885
      4      5      6     1   126.8062420 484.492885
      4      5     30     1   129.1835930 285.070775
      5      4     29     1   129.1835930 285.070775
      5      6      7     1   126.8062420 484.492885
      5      6     15     1   126.8062420 484.492885
      6      5     30     1   129.1835930 285.070775
      6      7      8     1   126.8062420 484.492885
      6      7     14     1   126.8062420 484.492885
      6     15     16     1   126.8062420 484.492885
      6     15     25     1   126.8062420 484.492885
      7      6     15     1   126.8062420 484.492885
      7      8      9     1   126.8062420 484.492885
      7      8     31     1   129.1835930 285.070775
      7     14     13     1   126.8062420 484.492885
      7     14     34     1   129.1835930 285.070775
      8      7     14     1   126.8062420 484.492885
      8      9     10     1   126.8062420 484.492885
      8      9     12     1   126.8062420 484.492885
      9      8     31     1   129.1835930 285.070775
      9     10     11     1   126.8062420 484.492885
      9     10    178     1   126.8062420 484.492885
      9     12     13     1   126.8062420 484.492885
      9     12     32     1   129.1835930 285.070775
     10      9     12     1   126.8062420 484.492885
     10    178    177     1   110.3538806 544.678275
     11     10    178     1   127.4691416 1685.413543
     12     13     14     1   126.8062420 484.492885
     12     13     33     1   129.1835930 285.070775
     13     12     32     1   129.1835930 285.070775
     13     14     34     1   129.1835930 285.070775
     14     13     33     1   129.1835930 285.070775
     15     16     17     1   126.8062420 484.492885
     15     16     24     1   126.8062420 484.492885
     15     25     44     1   129.1835930 285.070775
     16     15     25     1   126.8062420 484.492885
     16     17     18     1   126.8062420 484.492885
     16     17     35     1   129.1835930 285.070775
     16     24     23     1   126.8062420 484.492885
     16     24     43     1   129.1835930 285.070775
     17     16     24     1   126.8062420 484.492885
     17     18     19     1   126.8062420 484.492885
     17     18     22     1   126.8062420 484.492885
     18     17     35     1   129.1835930 285.070775
     18     19     20     1   116.5475863 445.222087
     18     19     21     1   116.5475863 445.222087
     18     19     36     1   116.5475863 445.222087
     18     22     23     1   126.8062420 484.492885
     18     22     41     1   129.1835930 285.070775
     19     18     22     1   126.8062420 484.492885
     19     20     37     1   116.5475863 445.222087
     19     20     38     1   116.5475863 445.222087
     19     20     39     1   116.5475863 445.222087
     19     21     40     1   115.5071328 530.901283
     19     21     54     1   117.3465571 463.769802
     20     19     21     1   116.5475863 445.222087
     20     19     36     1   116.5475863 445.222087
     21     19     36     1   116.5475863 445.222087
     21     54     53     1   126.8062420 484.492885
     21     54     55     1   126.8062420 484.492885
     22     23     24     1   126.8062420 484.492885
     22     23     42     1   129.1835930 285.070775
     23     22     41     1   129.1835930 285.070775
     23     24     43     1   129.1835930 285.070775
     24     23     42     1   129.1835930 285.070775
     26      1     27     1   115.6031000 408.161690
     26      1     28     1   115.6031000 408.161690
     27      1     28     1   115.6031000 408.161690
     37     20     38     1   115.6031000 408.161690
     37     20     39     1   115.6031000 408.161690
     38     20     39     1   115.6031000 408.161690
     40     21     54     1   115.5071328 530.901283
     45     46     47     1   110.3538806 544.678275
     46     45     70     1   116.5475863 445.222087
     46     45     71     1   116.5475863 445.222087
     46     45     72     1   116.5475863 445.222087
     46     47     48     1   126.8062420 484.492885
     46     47     69     1   126.8062420 484.492885
     47     48     49     1   126.8062420 484.492885
     47     48     73     1   129.1835930 285.070775
     47     69     59     1   126.8062420 484.492885
     47     69     88     1   129.1835930 285.070775
     48     47     69     1   126.8062420 484.492885
     48     49     50     1   126.8062420 484.492885
     48     49     74     1   129.1835930 285.070775
     49     48     73     1   129.1835930 285.070775
     49     50     51     1   126.8062420 484.492885
     49     50     59     1   126.8062420 484.492885
     50     49     74     1   129.1835930 285.070775
     50     51     52     1   126.8062420 484.492885
     50     51     58     1   126.8062420 484.492885
     50     59     60     1   126.8062420 484.492885
     50     59     69     1   126.8062420 484.492885
     51     50     59     1   126.8062420 484.492885
     51     52     53     1   126.8062420 484.492885
     51     52     75     1   129.1835930 285.070775
     51     58     57     1   126.8062420 484.492885
     51     58     78     1   129.1835930 285.070775
     52     51     58     1   126.8062420 484.492885
     52     53     54     1   126.8062420 484.492885
     52     53     56     1   126.8062420 484.492885
     53     52     75     1   129.1835930 285.070775
     53     54     55     1   126.8062420 484.492885
     53     56     57     1   126.8062420 484.492885
     53     56     76     1   129.1835930 285.070775
     54     53     56     1   126.8062420 484.492885
     56     57     58     1   126.8062420 484.492885
     56     57     77     1   129.1835930 285.070775
     57     56     76     1   129.1835930 285.070775
     57     58     78     1   129.1835930 285.070775
     58     57     77     1   129.1835930 285.070775
     59     60     61     1   126.8062420 484.492885
     59     60     68     1   126.8062420 484.492885
     59     69     88     1   129.1835930 285.070775
     60     59     69     1   126.8062420 484.492885
     60     61     62     1   126.8062420 484.492885
     60     61     79     1   129.1835930 285.070775
     60     68     67     1   126.8062420 484.492885
     60     68     87     1   129.1835930 285.070775
     61     60     68     1   126.8062420 484.492885
     61     62     63     1   126.8062420 484.492885
     61     62     66     1   126.8062420 484.492885
     62     61     79     1   129.1835930 285.070775
     62     63     64     1   116.5475863 445.222087
     62     63     65     1   116.5475863 445.222087
     62     63     80     1   116.5475863 445.222087
     62     66     67     1   126.8062420 484.492885
     62     66     85     1   129.1835930 285.070775
     63     62     66     1   126.8062420 484.492885
     63     64     81     1   116.5475863 445.222087
     63     64     82     1   116.5475863 445.222087
     63     64     83     1   116.5475863 445.222087
     63     65     84     1   115.5071328 530.901283
     63     65     98     1   117.3465571 463.769802
     64     63     65     1   116.5475863 445.222087
     64     63     80     1   116.5475863 445.222087
     65     63     80     1   116.5475863 445.222087
     65     98     97     1   126.8062420 484.492885
     65     98     99     1   126.8062420 484.492885
     66     67     68     1   126.8062420 484.492885
     66     67     86     1   129.1835930 285.070775
     67     66     85     1   129.1835930 285.070775
     67     68     87     1   129.1835930 285.070775
     68     67     86     1   129.1835930 285.070775
     70     45     71     1   115.6031000 408.161690
     70     45     72     1   115.6031000 408.161690
     71     45     72     1   115.6031000 408.161690
     81     64     82     1   115.6031000 408.161690
     81     64     83     1   115.6031000 408.161690
     82     64     83     1   115.6031000 408.161690
     84     65     98     1   115.5071328 530.901283
     89     90     91     1   110.3538806 544.678275
     90     89    114     1   116.5475863 445.222087
     90     89    115     1   116.5475863 445.222087
     90     89    116     1   116.5475863 445.222087
     90     91     92     1   126.8062420 484.492885
     90     91    113     1   126.8062420 484.492885
     91     92     93     1   126.8062420 484.492885
     91     92    117     1   129.1835930 285.070775
     91    113    103     1   126.8062420 484.492885
     91    113    132     1   129.1835930 285.070775
     92     91    113     1   126.8062420 484.492885
     92     93     94     1   126.8062420 484.492885
     92     93    118     1   129.1835930 285.070775
     93     92    117     1   129.1835930 285.070775
     93     94     95     1   126.8062420 484.492885
     93     94    103     1   126.8062420 484.492885
     94     93    118     1   129.1835930 285.070775
     94     95     96     1   126.8062420 484.492885
     94     95    102     1   126.8062420 484.492885
     94    103    104     1   126.8062420 484.492885
     94    103    113     1   126.8062420 484.492885
     95     94    103     1   126.8062420 484.492885
     95     96     97     1   126.8062420 484.492885
     95     96    119     1   129.1835930 285.070775
     95    102    101     1   126.8062420 484.492885
     95    102    122     1   129.1835930 285.070775
     96     95    102     1   126.8062420 484.492885
     96     97     98     1   126.8062420 484.492885
     96     97    100     1   126.8062420 484.492885
     97     96    119     1   129.1835930 285.070775
     97     98     99     1   126.8062420 484.492885
     97    100    101     1   126.8062420 484.492885
     97    100    120     1   129.1835930 285.070775
     98     97    100     1   126.8062420 484.492885
    100    101    102     1   126.8062420 484.492885
    100    101    121     1   129.1835930 285.070775
    101    100    120     1   129.1835930 285.070775
    101    102    122     1   129.1835930 285.070775
    102    101    121     1   129.1835930 285.070775
    103    104    105     1   126.8062420 484.492885
    103    104    112     1   126.8062420 484.492885
    103    113    132     1   129.1835930 285.070775
    104    103    113     1   126.8062420 484.492885
    104    105    106     1   126.8062420 484.492885
    104    105    123     1   129.1835930 285.070775
    104    112    111     1   126.8062420 484.492885
    104    112    131     1   129.1835930 285.070775
    105    104    112     1   126.8062420 484.492885
    105    106    107     1   126.8062420 484.492885
    105    106    110     1   126.8062420 484.492885
    106    105    123     1   129.1835930 285.070775
    106    107    108     1   116.5475863 445.222087
    106    107    109     1   116.5475863 445.222087
    106    107    124     1   116.5475863 445.222087
    106    110    111     1   126.8062420 484.492885
    106    110    129     1   129.1835930 285.070775
    107    106    110     1   126.8062420 484.492885
    107    108    125     1   116.5475863 445.222087
    107    108    126     1   116.5475863 445.222087
    107    108    127     1   116.5475863 445.222087
    107    109    128     1   115.5071328 530.901283
    107    109    142     1   117.3465571 463.769802
    108    107    109     1   116.5475863 445.222087
    108    107    124     1   116.5475863 445.222087
    109    107    124     1   116.5475863 445.222087
    109    142    141     1   126.8062420 484.492885
    109    142    143     1   126.8062420 484.492885
    110    111    112     1   126.8062420 484.492885
    110    111    130     1   129.1835930 285.070775
    111    110    129     1   129.1835930 285.070775
    111    112    131     1   129.1835930 285.070775
    112    111    130     1   129.1835930 285.070775
    114     89    115     1   115.6031000 408.161690
    114     89    116     1   115.6031000 408.161690
    115     89    116     1   115.6031000 408.161690
    125    108    126     1   115.6031000 408.161690
    125    108    127     1   115.6031000 408.161690
    126    108    127     1   115.6031000 408.161690
    128    109    142     1   115.5071328 530.901283
    133    134    135     1   110.3538806 544.678275
    134    133    158     1   116.5475863 445.222087
    134    133    159     1   116.5475863 445.222087
    134    133    160     1   116.5475863 445.222087
    134    135    136     1   126.8062420 484.492885
    134    135    157     1   126.8062420 484.492885
    135    136    137     1   126.8062420 484.492885
    135    136    161     1   129.1835930 285.070775
    135    157    147     1   126.8062420 484.492885
    135    157    176     1   129.1835930 285.070775
    136    135    157     1   126.8062420 484.492885
    136    137    138     1   126.8062420 484.492885
    136    137    162     1   129.1835930 285.070775
    137    136    161     1   129.1835930 285.070775
    137    138    139     1   126.8062420 484.492885
    137    138    147     1   126.8062420 484.492885
    138    137    162     1   129.1835930 285.070775
    138    139    140     1   126.8062420 484.492885
    138    139    146     1   126.8062420 484.492885
    138    147    148     1   126.8062420 484.492885
    138    147    157     1   126.8062420 484.492885
    139    138    147     1   126.8062420 484.492885
    139    140    141     1   126.8062420 484.492885
    139    140    163     1   129.1835930 285.070775
    139    146    145     1   126.8062420 484.492885
    139    146    166     1   129.1835930 285.070775
    140    139    146     1   126.8062420 484.492885
    140    141    142     1   126.8062420 484.492885
    140    141    144     1   126.8062420 484.492885
    141    140    163     1   129.1835930 285.070775
    141    142    143     1   126.8062420 484.492885
    141    144    145     1   126.8062420 484.492885
    141    144    164     1   129.1835930 285.070775
    142    141    144     1   126.8062420 484.492885
    144    145    146     1   126.8062420 484.492885
    144    145    165     1   129.1835930 285.070775
    145    144    164     1   129.1835930 285.070775
    145    146    166     1   129.1835930 285.070775
    146    145    165     1   129.1835930 285.070775
    147    148    149     1   126.8062420 484.492885
    147    148    156     1   126.8062420 484.492885
    147    157    176     1   129.1835930 285.070775
    148    147    157     1   126.8062420 484.492885
    148    149    150     1   126.8062420 484.492885
    148    149    167     1   129.1835930 285.070775
    148    156    155     1   126.8062420 484.492885
    148    156    175     1   129.1835930 285.070775
    149    148    156     1   126.8062420 484.492885
    149    150    151     1   126.8062420 484.492885
    149    150    154     1   126.8062420 484.492885
    150    149    167     1   129.1835930 285.070775
    150    151    152     1   116.5475863 445.222087
    150    151    153     1   116.5475863 445.222087
    150    151    168     1   116.5475863 445.222087
    150    154    155     1   126.8062420 484.492885
    150    154    173     1   129.1835930 285.070775
    151    150    154     1   126.8062420 484.492885
    151    152    169     1   116.5475863 445.222087
    151    152    170     1   116.5475863 445.222087
    151    152    171     1   116.5475863 445.222087
    151    153    172     1   115.5071328 530.901283
    151    153    187     1   117.3465571 463.769802
    152    151    153     1   116.5475863 445.222087
    152    151    168     1   116.5475863 445.222087
    153    151    168     1   116.5475863 445.222087
    153    187    186     1   126.8062420 484.492885
    153    187    188     1   126.8062420 484.492885
    154    155    156     1   126.8062420 484.492885
    154    155    174     1   129.1835930 285.070775
    155    154    173     1   129.1835930 285.070775
    155    156    175     1   129.1835930 285.070775
    156    155    174     1   129.1835930 285.070775
    158    133    159     1   115.6031000 408.161690
    158    133    160     1   115.6031000 408.161690
    159    133    160     1   115.6031000 408.161690
    169    152    170     1   115.6031000 408.161690
    169    152    171     1   115.6031000 408.161690
    170    152    171     1   115.6031000 408.161690
    172    153    187     1   115.5071328 530.901283
    178    177    179     1   116.5475863 445.222087
    178    177    180     1   116.5475863 445.222087
    178    177    181     1   116.5475863 445.222087
    179    177    180     1   115.6031000 408.161690
    179    177    181     1   115.6031000 408.161690
    180    177    181     1   115.6031000 408.161690
    182    183    184     1   116.5475863 445.222087
    182    183    185     1   116.5475863 445.222087
    182    183    186     1   116.5475863 445.222087
    183    182    189     1   116.5475863 445.222087
    183    182    190     1   116.5475863 445.222087
    183    182    191     1   116.5475863 445.222087
    183    184    192     1   116.5475863 445.222087
    183    184    193     1   116.5475863 445.222087
    183    184    194     1   116.5475863 445.222087
    183    185    195     1   116.5475863 445.222087
    183    185    196     1   116.5475863 445.222087
    183    185    197     1   116.5475863 445.222087
    183    186    187     1   110.3538806 544.678275
    184    183    185     1   116.5475863 445.222087
    184    183    186     1   116.5475863 445.222087
    185    183    186     1   116.5475863 445.222087
    186    187    188     1   127.4691416 1685.413543
    189    182    190     1   115.6031000 408.161690
    189    182    191     1   115.6031000 408.161690
    190    182    191     1   115.6031000 408.161690
    192    184    193     1   115.6031000 408.161690
    192    184    194     1   115.6031000 408.161690
    193    184    194     1   115.6031000 408.161690
    195    185    196     1   115.6031000 408.161690
    195    185    197     1   115.6031000 408.161690
    196    185    197     1   115.6031000 408.161690

[ dihedrals ]
;    ai     aj     ak     al funct         c0         c1         c2         c3         c4         c5
      1      2      3      4     1  180.0000000  6.4108617  2
      1      2      3     25     1  180.0000000  6.4108617  2
      2      3      4      5     1  180.0000000  15.3215155  2
      2      3      4     29     1  180.0000000  15.3215155  2
      2      3     25     15     1  180.0000000  15.3215155  2
      2      3     25     44     1  180.0000000  15.3215155  2
      3      2      1     26     1  0.0000000  0.1982205  3
      3      2      1     27     1  0.0000000  0.1982205  3
      3      2      1     28     1  0.0000000  0.1982205  3
      3      4      5      6     1  180.0000000  15.3215155  2
      3      4      5     30     1  180.0000000  15.3215155  2
      3     25     15      6     1  180.0000000  15.3215155  2
      3     25     15     16     1  180.0000000  15.3215155  2
      4      3     25     15     1  180.0000000  15.3215155  2
      4      3     25     44     1  180.0000000  15.3215155  2
      4      5      6      7     1  180.0000000  15.3215155  2
      4      5      6     15     1  180.0000000  15.3215155  2
      5      4      3     25     1  180.0000000  15.3215155  2
      5      6      7      8     1  180.0000000  4.8669776  2
      5      6      7     14     1  180.0000000  4.8669776  2
      5      6     15     16     1  180.0000000  15.3215155  2
      5      6     15     25     1  180.0000000  15.3215155  2
      6      5      4     29     1  180.0000000  15.3215155  2
      6      7      8      9     1  180.0000000  15.3215155  2
      6      7      8     31     1  180.0000000  15.3215155  2
      6      7     14     13     1  180.0000000  15.3215155  2
      6      7     14     34     1  180.0000000  15.3215155  2
      6     15     16     17     1  180.0000000  4.8669776  2
      6     15     16     24     1  180.0000000  4.8669776  2
      6     15     25     44     1  180.0000000  15.3215155  2
      7      6      5     30     1  180.0000000  15.3215155  2
      7      6     15     16     1  180.0000000  15.3215155  2
      7      6     15     25     1  180.0000000  15.3215155  2
      7      8      9     10     1  180.0000000  15.3215155  2
      7      8      9     12     1  180.0000000  15.3215155  2
      7     14     13     12     1  180.0000000  15.3215155  2
      7     14     13     33     1  180.0000000  15.3215155  2
      8      7      6     15     1  180.0000000  4.8669776  2
      8      7     14     13     1  180.0000000  15.3215155  2
      8      7     14     34     1  180.0000000  15.3215155  2
      8      9     10     11     1  180.0000000  4.1731909  2
      8      9     10    178     1  180.0000000  4.1731909  2
      8      9     12     13     1  180.0000000  15.3215155  2
      8      9     12     32     1  180.0000000  15.3215155  2
      9      8      7     14     1  180.0000000  15.3215155  2
      9     10    178    177     1  180.0000000  11.6309081  2
      9     12     13     14     1  180.0000000  15.3215155  2
      9     12     13     33     1  180.0000000  15.3215155  2
     10      9      8     31     1  180.0000000  15.3215155  2
     10      9     12     13     1  180.0000000  15.3215155  2
     10      9     12     32     1  180.0000000  15.3215155  2
     10    178    177    179     1  0.0000000  0.1982205  3
     10    178    177    180     1  0.0000000  0.1982205  3
     10    178    177    181     1  0.0000000  0.1982205  3
     11     10      9     12     1  180.0000000  4.1731909  2
     11     10    178    177     1  180.0000000  4.8693776  2
     11     10    178    177     1  180.0000000  0.7025718  1
     12      9      8     31     1  180.0000000  15.3215155  2
     12      9     10    178     1  180.0000000  4.1731909  2
     12     13     14     34     1  180.0000000  15.3215155  2
     14      7      6     15     1  180.0000000  4.8669776  2
     14      7      8     31     1  180.0000000  15.3215155  2
     14     13     12     32     1  180.0000000  15.3215155  2
     15      6      5     30     1  180.0000000  15.3215155  2
     15     16     17     18     1  180.0000000  15.3215155  2
     15     16     17     35     1  180.0000000  15.3215155  2
     15     16     24     23     1  180.0000000  15.3215155  2
     15     16     24     43     1  180.0000000  15.3215155  2
     16     15     25     44     1  180.0000000  15.3215155  2
     16     17     18     19     1  180.0000000  15.3215155  2
     16     17     18     22     1  180.0000000  15.3215155  2
     16     24     23     22     1  180.0000000  15.3215155  2
     16     24     23     42     1  180.0000000  15.3215155  2
     17     16     15     25     1  180.0000000  4.8669776  2
     17     16     24     23     1  180.0000000  15.3215155  2
     17     16     24     43     1  180.0000000  15.3215155  2
     17     18     19     20     1  0.0000000  0.1115010  3
     17     18     19     21     1  0.0000000  0.1115010  3
     17     18     19     36     1  0.0000000  0.1115010  3
     17     18     22     23     1  180.0000000  15.3215155  2
     17     18     22     41     1  180.0000000  15.3215155  2
     18     17     16     24     1  180.0000000  15.3215155  2
     18     19     20     37     1  0.0000000  0.4834079  3
     18     19     20     38     1  0.0000000  0.4834079  3
     18     19     20     39     1  0.0000000  0.4834079  3
     18     19     21     40     1  0.0000000  0.7624859  2
     18     19     21     40     1  0.0000000  0.1243628  3
     18     19     21     54     1  180.0000000  -2.8834993  2
     18     19     21     54     1  0.0000000  1.1413309  1
     18     22     23     24     1  180.0000000  15.3215155  2
     18     22     23     42     1  180.0000000  15.3215155  2
     19     18     17     35     1  180.0000000  15.3215155  2
     19     18     22     23     1  180.0000000  15.3215155  2
     19     18     22     41     1  180.0000000  15.3215155  2
     19     21     54     53     1  180.0000000  7.5690543  2
     19     21     54     53     1  0.0000000  -0.2015131  1
     19     21     54     55     1  180.0000000  12.9785537  2
     19     21     54     55     1  0.0000000  -1.7791009  1
     20     19     18     22     1  0.0000000  0.1115010  3
     20     19     21     40     1  0.0000000  0.7624859  2
     20     19     21     40     1  0.0000000  0.1243628  3
     20     19     21     54     1  180.0000000  -0.6228629  4
     20     19     21     54     1  180.0000000  -0.5147696  3
     20     19     21     54     1  0.0000000  1.2298012  2
     20     19     21     54     1  0.0000000  -1.2652947  1
     21     19     18     22     1  0.0000000  0.1115010  3
     21     19     20     37     1  0.0000000  0.4834079  3
     21     19     20     38     1  0.0000000  0.4834079  3
     21     19     20     39     1  0.0000000  0.4834079  3
     21     54     53     52     1  180.0000000  4.1731909  2
     21     54     53     56     1  180.0000000  4.1731909  2
     22     18     17     35     1  180.0000000  15.3215155  2
     22     18     19     36     1  0.0000000  0.1115010  3
     22     23     24     43     1  180.0000000  15.3215155  2
     24     16     15     25     1  180.0000000  4.8669776  2
     24     16     17     35     1  180.0000000  15.3215155  2
     24     23     22     41     1  180.0000000  15.3215155  2
     25      3      4     29     1  180.0000000  15.3215155  2
     29      4      5     30     1  180.0000000  15.3215155  2
     32     12     13     33     1  180.0000000  15.3215155  2
     33     13     14     34     1  180.0000000  15.3215155  2
     36     19     20     37     1  0.0000000  0.7999501  3
     36     19     20     38     1  0.0000000  0.7999501  3
     36     19     20     39     1  0.0000000  0.7999501  3
     36     19     21     40     1  0.0000000  0.7624859  2
     36     19     21     40     1  0.0000000  0.1243628  3
     36     19     21     54     1  0.0000000  0.7624859  2
     36     19     21     54     1  0.0000000  0.1243628  3
     40     21     54     53     1  180.0000000  7.5690543  2
     40     21     54     53     1  0.0000000  -0.2015131  1
     40     21     54     55     1  180.0000000  9.8256037  2
     40     21     54     55     1  0.0000000  5.2557574  1
     41     22     23     42     1  180.0000000  15.3215155  2
     42     23     24     43     1  180.0000000  15.3215155  2
     45     46     47     48     1  180.0000000  6.4108617  2
     45     46     47     69     1  180.0000000  6.4108617  2
     46     47     48     49     1  180.0000000  15.3215155  2
     46     47     48     73     1  180.0000000  15.3215155  2
     46     47     69     59     1  180.0000000  15.3215155  2
     46     47     69     88     1  180.0000000  15.3215155  2
     47     46     45     70     1  0.0000000  0.1982205  3
     47     46     45     71     1  0.0000000  0.1982205  3
     47     46     45     72     1  0.0000000  0.1982205  3
     47     48     49     50     1  180.0000000  15.3215155  2
     47     48     49     74     1  180.0000000  15.3215155  2
     47     69     59     50     1  180.0000000  15.3215155  2
     47     69     59     60     1  180.0000000  15.3215155  2
     48     47     69     59     1  180.0000000  15.3215155  2
     48     47     69     88     1  180.0000000  15.3215155  2
     48     49     50     51     1  180.0000000  15.3215155  2
     48     49     50     59     1  180.0000000  15.3215155  2
     49     48     47     69     1  180.0000000  15.3215155  2
     49     50     51     52     1  180.0000000  4.8669776  2
     49     50     51     58     1  180.0000000  4.8669776  2
     49     50     59     60     1  180.0000000  15.3215155  2
     49     50     59     69     1  180.0000000  15.3215155  2
     50     49     48     73     1  180.0000000  15.3215155  2
     50     51     52     53     1  180.0000000  15.3215155  2
     50     51     52     75     1  180.0000000  15.3215155  2
     50     51     58     57     1  180.0000000  15.3215155  2
     50     51     58     78     1  180.0000000  15.3215155  2
     50     59     60     61     1  180.0000000  4.8669776  2
     50     59     60     68     1  180.0000000  4.8669776  2
     50     59     69     88     1  180.0000000  15.3215155  2
     51     50     49     74     1  180.0000000  15.3215155  2
     51     50     59     60     1  180.0000000  15.3215155  2
     51     50     59     69     1  180.0000000  15.3215155  2
     51     52     53     54     1  180.0000000  15.3215155  2
     51     52     53     56     1  180.0000000  15.3215155  2
     51     58     57     56     1  180.0000000  15.3215155  2
     51     58     57     77     1  180.0000000  15.3215155  2
     52     51     50     59     1  180.0000000  4.8669776  2
     52     51     58     57     1  180.0000000  15.3215155  2
     52     51     58     78     1  180.0000000  15.3215155  2
     52     53     54     55     1  180.0000000  4.1731909  2
     52     53     56     57     1  180.0000000  15.3215155  2
     52     53     56     76     1  180.0000000  15.3215155  2
     53     52     51     58     1  180.0000000  15.3215155  2
     53     56     57     58     1  180.0000000  15.3215155  2
     53     56     57     77     1  180.0000000  15.3215155  2
     54     53     52     75     1  180.0000000  15.3215155  2
     54     53     56     57     1  180.0000000  15.3215155  2
     54     53     56     76     1  180.0000000  15.3215155  2
     55     54     53     56     1  180.0000000  4.1731909  2
     56     53     52     75     1  180.0000000  15.3215155  2
     56     57     58     78     1  180.0000000  15.3215155  2
     58     51     50     59     1  180.0000000  4.8669776  2
     58     51     52     75     1  180.0000000  15.3215155  2
     58     57     56     76     1  180.0000000  15.3215155  2
     59     50     49     74     1  180.0000000  15.3215155  2
     59     60     61     62     1  180.0000000  15.3215155  2
     59     60     61     79     1  180.0000000  15.3215155  2
     59     60     68     67     1  180.0000000  15.3215155  2
     59     60     68     87     1  180.0000000  15.3215155  2
     60     59     69     88     1  180.0000000  15.3215155  2
     60     61     62     63     1  180.0000000  15.3215155  2
     60     61     62     66     1  180.0000000  15.3215155  2
     60     68     67     66     1  180.0000000  15.3215155  2
     60     68     67     86     1  180.0000000  15.3215155  2
     61     60     59     69     1  180.0000000  4.8669776  2
     61     60     68     67     1  180.0000000  15.3215155  2
     61     60     68     87     1  180.0000000  15.3215155  2
     61     62     63     64     1  0.0000000  0.1115010  3
     61     62     63     65     1  0.0000000  0.1115010  3
     61     62     63     80     1  0.0000000  0.1115010  3
     61     62     66     67     1  180.0000000  15.3215155  2
     61     62     66     85     1  180.0000000  15.3215155  2
     62     61     60     68     1  180.0000000  15.3215155  2
     62     63     64     81     1  0.0000000  0.4834079  3
     62     63     64     82     1  0.0000000  0.4834079  3
     62     63     64     83     1  0.0000000  0.4834079  3
     62     63     65     84     1  0.0000000  0.7624859  2
     62     63     65     84     1  0.0000000  0.1243628  3
     62     63     65     98     1  180.0000000  -2.8834993  2
     62     63     65     98     1  0.0000000  1.1413309  1
     62     66     67     68     1  180.0000000  15.3215155  2
     62     66     67     86     1  180.0000000  15.3215155  2
     63     62     61     79     1  180.0000000  15.3215155  2
     63     62     66     67     1  180.0000000  15.3215155  2
     63     62     66     85     1  180.0000000  15.3215155  2
     63     65     98     97     1  180.0000000  7.5690543  2
     63     65     98     97     1  0.0000000  -0.2015131  1
     63     65     98     99     1  180.0000000  12.9785537  2
     63     65     98     99     1  0.0000000  -1.7791009  1
     64     63     62     66     1  0.0000000  0.1115010  3
     64     63     65     84     1  0.0000000  0.7624859  2
     64     63     65     84     1  0.0000000  0.1243628  3
     64     63     65     98     1  180.0000000  -0.6228629  4
     64     63     65     98     1  180.0000000  -0.5147696  3
     64     63     65     98     1  0.0000000  1.2298012  2
     64     63     65     98     1  0.0000000  -1.2652947  1
     65     63     62     66     1  0.0000000  0.1115010  3
     65     63     64     81     1  0.0000000  0.4834079  3
     65     63     64     82     1  0.0000000  0.4834079  3
     65     63     64     83     1  0.0000000  0.4834079  3
     65     98     97     96     1  180.0000000  4.1731909  2
     65     98     97    100     1  180.0000000  4.1731909  2
     66     62     61     79     1  180.0000000  15.3215155  2
     66     62     63     80     1  0.0000000  0.1115010  3
     66     67     68     87     1  180.0000000  15.3215155  2
     68     60     59     69     1  180.0000000  4.8669776  2
     68     60     61     79     1  180.0000000  15.3215155  2
     68     67     66     85     1  180.0000000  15.3215155  2
     69     47     48     73     1  180.0000000  15.3215155  2
     73     48     49     74     1  180.0000000  15.3215155  2
     76     56     57     77     1  180.0000000  15.3215155  2
     77     57     58     78     1  180.0000000  15.3215155  2
     80     63     64     81     1  0.0000000  0.7999501  3
     80     63     64     82     1  0.0000000  0.7999501  3
     80     63     64     83     1  0.0000000  0.7999501  3
     80     63     65     84     1  0.0000000  0.7624859  2
     80     63     65     84     1  0.0000000  0.1243628  3
     80     63     65     98     1  0.0000000  0.7624859  2
     80     63     65     98     1  0.0000000  0.1243628  3
     84     65     98     97     1  180.0000000  7.5690543  2
     84     65     98     97     1  0.0000000  -0.2015131  1
     84     65     98     99     1  180.0000000  9.8256037  2
     84     65     98     99     1  0.0000000  5.2557574  1
     85     66     67     86     1  180.0000000  15.3215155  2
     86     67     68     87     1  180.0000000  15.3215155  2
     89     90     91     92     1  180.0000000  6.4108617  2
     89     90     91    113     1  180.0000000  6.4108617  2
     90     91     92     93     1  180.0000000  15.3215155  2
     90     91     92    117     1  180.0000000  15.3215155  2
     90     91    113    103     1  180.0000000  15.3215155  2
     90     91    113    132     1  180.0000000  15.3215155  2
     91     90     89    114     1  0.0000000  0.1982205  3
     91     90     89    115     1  0.0000000  0.1982205  3
     91     90     89    116     1  0.0000000  0.1982205  3
     91     92     93     94     1  180.0000000  15.3215155  2
     91     92     93    118     1  180.0000000  15.3215155  2
     91    113    103     94     1  180.0000000  15.3215155  2
     91    113    103    104     1  180.0000000  15.3215155  2
     92     91    113    103     1  180.0000000  15.3215155  2
     92     91    113    132     1  180.0000000  15.3215155  2
     92     93     94     95     1  180.0000000  15.3215155  2
     92     93     94    103     1  180.0000000  15.3215155  2
     93     92     91    113     1  180.0000000  15.3215155  2
     93     94     95     96     1  180.0000000  4.8669776  2
     93     94     95    102     1  180.0000000  4.8669776  2
     93     94    103    104     1  180.0000000  15.3215155  2
     93     94    103    113     1  180.0000000  15.3215155  2
     94     93     92    117     1  180.0000000  15.3215155  2
     94     95     96     97     1  180.0000000  15.3215155  2
     94     95     96    119     1  180.0000000  15.3215155  2
     94     95    102    101     1  180.0000000  15.3215155  2
     94     95    102    122     1  180.0000000  15.3215155  2
     94    103    104    105     1  180.0000000  4.8669776  2
     94    103    104    112     1  180.0000000  4.8669776  2
     94    103    113    132     1  180.0000000  15.3215155  2
     95     94     93    118     1  180.0000000  15.3215155  2
     95     94    103    104     1  180.0000000  15.3215155  2
     95     94    103    113     1  180.0000000  15.3215155  2
     95     96     97     98     1  180.0000000  15.3215155  2
     95     96     97    100     1  180.0000000  15.3215155  2
     95    102    101    100     1  180.0000000  15.3215155  2
     95    102    101    121     1  180.0000000  15.3215155  2
     96     95     94    103     1  180.0000000  4.8669776  2
     96     95    102    101     1  180.0000000  15.3215155  2
     96     95    102    122     1  180.0000000  15.3215155  2
     96     97     98     99     1  180.0000000  4.1731909  2
     96     97    100    101     1  180.0000000  15.3215155  2
     96     97    100    120     1  180.0000000  15.3215155  2
     97     96     95    102     1  180.0000000  15.3215155  2
     97    100    101    102     1  180.0000000  15.3215155  2
     97    100    101    121     1  180.0000000  15.3215155  2
     98     97     96    119     1  180.0000000  15.3215155  2
     98     97    100    101     1  180.0000000  15.3215155  2
     98     97    100    120     1  180.0000000  15.3215155  2
     99     98     97    100     1  180.0000000  4.1731909  2
    100     97     96    119     1  180.0000000  15.3215155  2
    100    101    102    122     1  180.0000000  15.3215155  2
    102     95     94    103     1  180.0000000  4.8669776  2
    102     95     96    119     1  180.0000000  15.3215155  2
    102    101    100    120     1  180.0000000  15.3215155  2
    103     94     93    118     1  180.0000000  15.3215155  2
    103    104    105    106     1  180.0000000  15.3215155  2
    103    104    105    123     1  180.0000000  15.3215155  2
    103    104    112    111     1  180.0000000  15.3215155  2
    103    104    112    131     1  180.0000000  15.3215155  2
    104    103    113    132     1  180.0000000  15.3215155  2
    104    105    106    107     1  180.0000000  15.3215155  2
    104    105    106    110     1  180.0000000  15.3215155  2
    104    112    111    110     1  180.0000000  15.3215155  2
    104    112    111    130     1  180.0000000  15.3215155  2
    105    104    103    113     1  180.0000000  4.8669776  2
    105    104    112    111     1  180.0000000  15.3215155  2
    105    104    112    131     1  180.0000000  15.3215155  2
    105    106    107    108     1  0.0000000  0.1115010  3
    105    106    107    109     1  0.0000000  0.1115010  3
    105    106    107    124     1  0.0000000  0.1115010  3
    105    106    110    111     1  180.0000000  15.3215155  2
    105    106    110    129     1  180.0000000  15.3215155  2
    106    105    104    112     1  180.0000000  15.3215155  2
    106    107    108    125     1  0.0000000  0.4834079  3
    106    107    108    126     1  0.0000000  0.4834079  3
    106    107    108    127     1  0.0000000  0.4834079  3
    106    107    109    128     1  0.0000000  0.7624859  2
    106    107    109    128     1  0.0000000  0.1243628  3
    106    107    109    142     1  180.0000000  -2.8834993  2
    106    107    109    142     1  0.0000000  1.1413309  1
    106    110    111    112     1  180.0000000  15.3215155  2
    106    110    111    130     1  180.0000000  15.3215155  2
    107    106    105    123     1  180.0000000  15.3215155  2
    107    106    110    111     1  180.0000000  15.3215155  2
    107    106    110    129     1  180.0000000  15.3215155  2
    107    109    142    141     1  180.0000000  7.5690543  2
    107    109    142    141     1  0.0000000  -0.2015131  1
    107    109    142    143     1  180.0000000  12.9785537  2
    107    109    142    143     1  0.0000000  -1.7791009  1
    108    107    106    110     1  0.0000000  0.1115010  3
    108    107    109    128     1  0.0000000  0.7624859  2
    108    107    109    128     1  0.0000000  0.1243628  3
    108    107    109    142     1  180.0000000  -0.6228629  4
    108    107    109    142     1  180.0000000  -0.5147696  3
    108    107    109    142     1  0.0000000  1.2298012  2
    108    107    109    142     1  0.0000000  -1.2652947  1
    109    107    106    110     1  0.0000000  0.1115010  3
    109    107    108    125     1  0.0000000  0.4834079  3
    109    107    108    126     1  0.0000000  0.4834079  3
    109    107    108    127     1  0.0000000  0.4834079  3
    109    142    141    140     1  180.0000000  4.1731909  2
    109    142    141    144     1  180.0000000  4.1731909  2
    110    106    105    123     1  180.0000000  15.3215155  2
    110    106    107    124     1  0.0000000  0.1115010  3
    110    111    112    131     1  180.0000000  15.3215155  2
    112    104    103    113     1  180.0000000  4.8669776  2
    112    104    105    123     1  180.0000000  15.3215155  2
    112    111    110    129     1  180.0000000  15.3215155  2
    113     91     92    117     1  180.0000000  15.3215155  2
    117     92     93    118     1  180.0000000  15.3215155  2
    120    100    101    121     1  180.0000000  15.3215155  2
    121    101    102    122     1  180.0000000  15.3215155  2
    124    107    108    125     1  0.0000000  0.7999501  3
    124    107    108    126     1  0.0000000  0.7999501  3
    124    107    108    127     1  0.0000000  0.7999501  3
    124    107    109    128     1  0.0000000  0.7624859  2
    124    107    109    128     1  0.0000000  0.1243628  3
    124    107    109    142     1  0.0000000  0.7624859  2
    124    107    109    142     1  0.0000000  0.1243628  3
    128    109    142    141     1  180.0000000  7.5690543  2
    128    109    142    141     1  0.0000000  -0.2015131  1
    128    109    142    143     1  180.0000000  9.8256037  2
    128    109    142    143     1  0.0000000  5.2557574  1
    129    110    111    130     1  180.0000000  15.3215155  2
    130    111    112    131     1  180.0000000  15.3215155  2
    133    134    135    136     1  180.0000000  6.4108617  2
    133    134    135    157     1  180.0000000  6.4108617  2
    134    135    136    137     1  180.0000000  15.3215155  2
    134    135    136    161     1  180.0000000  15.3215155  2
    134    135    157    147     1  180.0000000  15.3215155  2
    134    135    157    176     1  180.0000000  15.3215155  2
    135    134    133    158     1  0.0000000  0.1982205  3
    135    134    133    159     1  0.0000000  0.1982205  3
    135    134    133    160     1  0.0000000  0.1982205  3
    135    136    137    138     1  180.0000000  15.3215155  2
    135    136    137    162     1  180.0000000  15.3215155  2
    135    157    147    138     1  180.0000000  15.3215155  2
    135    157    147    148     1  180.0000000  15.3215155  2
    136    135    157    147     1  180.0000000  15.3215155  2
    136    135    157    176     1  180.0000000  15.3215155  2
    136    137    138    139     1  180.0000000  15.3215155  2
    136    137    138    147     1  180.0000000  15.3215155  2
    137    136    135    157     1  180.0000000  15.3215155  2
    137    138    139    140     1  180.0000000  4.8669776  2
    137    138    139    146     1  180.0000000  4.8669776  2
    137    138    147    148     1  180.0000000  15.3215155  2
    137    138    147    157     1  180.0000000  15.3215155  2
    138    137    136    161     1  180.0000000  15.3215155  2
    138    139    140    141     1  180.0000000  15.3215155  2
    138    139    140    163     1  180.0000000  15.3215155  2
    138    139    146    145     1  180.0000000  15.3215155  2
    138    139    146    166     1  180.0000000  15.3215155  2
    138    147    148    149     1  180.0000000  4.8669776  2
    138    147    148    156     1  180.0000000  4.8669776  2
    138    147    157    176     1  180.0000000  15.3215155  2
    139    138    137    162     1  180.0000000  15.3215155  2
    139    138    147    148     1  180.0000000  15.3215155  2
    139    138    147    157     1  180.0000000  15.3215155  2
    139    140    141    142     1  180.0000000  15.3215155  2
    139    140    141    144     1  180.0000000  15.3215155  2
    139    146    145    144     1  180.0000000  15.3215155  2
    139    146    145    165     1  180.0000000  15.3215155  2
    140    139    138    147     1  180.0000000  4.8669776  2
    140    139    146    145     1  180.0000000  15.3215155  2
    140    139    146    166     1  180.0000000  15.3215155  2
    140    141    142    143     1  180.0000000  4.1731909  2
    140    141    144    145     1  180.0000000  15.3215155  2
    140    141    144    164     1  180.0000000  15.3215155  2
    141    140    139    146     1  180.0000000  15.3215155  2
    141    144    145    146     1  180.0000000  15.3215155  2
    141    144    145    165     1  180.0000000  15.3215155  2
    142    141    140    163     1  180.0000000  15.3215155  2
    142    141    144    145     1  180.0000000  15.3215155  2
    142    141    144    164     1  180.0000000  15.3215155  2
    143    142    141    144     1  180.0000000  4.1731909  2
    144    141    140    163     1  180.0000000  15.3215155  2
    144    145    146    166     1  180.0000000  15.3215155  2
    146    139    138    147     1  180.0000000  4.8669776  2
    146    139    140    163     1  180.0000000  15.3215155  2
    146    145    144    164     1  180.0000000  15.3215155  2
    147    138    137    162     1  180.0000000  15.3215155  2
    147    148    149    150     1  180.0000000  15.3215155  2
    147    148    149    167     1  180.0000000  15.3215155  2
    147    148    156    155     1  180.0000000  15.3215155  2
    147    148    156    175     1  180.0000000  15.3215155  2
    148    147    157    176     1  180.0000000  15.3215155  2
    148    149    150    151     1  180.0000000  15.3215155  2
    148    149    150    154     1  180.0000000  15.3215155  2
    148    156    155    154     1  180.0000000  15.3215155  2
    148    156    155    174     1  180.0000000  15.3215155  2
    149    148    147    157     1  180.0000000  4.8669776  2
    149    148    156    155     1  180.0000000  15.3215155  2
    149    148    156    175     1  180.0000000  15.3215155  2
    149    150    151    152     1  0.0000000  0.1115010  3
    149    150    151    153     1  0.0000000  0.1115010  3
    149    150    151    168     1  0.0000000  0.1115010  3
    149    150    154    155     1  180.0000000  15.3215155  2
    149    150    154    173     1  180.0000000  15.3215155  2
    150    149    148    156     1  180.0000000  15.3215155  2
    150    151    152    169     1  0.0000000  0.4834079  3
    150    151    152    170     1  0.0000000  0.4834079  3
    150    151    152    171     1  0.0000000  0.4834079  3
    150    151    153    172     1  0.0000000  0.7624859  2
    150    151    153    172     1  0.0000000  0.1243628  3
    150    151    153    187     1  180.0000000  -2.8834993  2
    150    151    153    187     1  0.0000000  1.1413309  1
    150    154    155    156     1  180.0000000  15.3215155  2
    150    154    155    174     1  180.0000000  15.3215155  2
    151    150    149    167     1  180.0000000  15.3215155  2
    151    150    154    155     1  180.0000000  15.3215155  2
    151    150    154    173     1  180.0000000  15.3215155  2
    151    153    187    186     1  180.0000000  7.5690543  2
    151    153    187    186     1  0.0000000  -0.2015131  1
    151    153    187    188     1  180.0000000  7.5690543  2
    151    153    187    188     1  0.0000000  -0.2015131  1
    152    151    150    154     1  0.0000000  0.1115010  3
    152    151    153    172     1  0.0000000  0.7624859  2
    152    151    153    172     1  0.0000000  0.1243628  3
    152    151    153    187     1  180.0000000  -0.6228629  4
    152    151    153    187     1  180.0000000  -0.5147696  3
    152    151    153    187     1  0.0000000  1.2298012  2
    152    151    153    187     1  0.0000000  -1.2652947  1
    153    151    150    154     1  0.0000000  0.1115010  3
    153    151    152    169     1  0.0000000  0.4834079  3
    153    151    152    170     1  0.0000000  0.4834079  3
    153    151    152    171     1  0.0000000  0.4834079  3
    153    187    186    183     1  180.0000000  11.6309081  2
    154    150    149    167     1  180.0000000  15.3215155  2
    154    150    151    168     1  0.0000000  0.1115010  3
    154    155    156    175     1  180.0000000  15.3215155  2
    156    148    147    157     1  180.0000000  4.8669776  2
    156    148    149    167     1  180.0000000  15.3215155  2
    156    155    154    173     1  180.0000000  15.3215155  2
    157    135    136    161     1  180.0000000  15.3215155  2
    161    136    137    162     1  180.0000000  15.3215155  2
    164    144    145    165     1  180.0000000  15.3215155  2
    165    145    146    166     1  180.0000000  15.3215155  2
    168    151    152    169     1  0.0000000  0.7999501  3
    168    151    152    170     1  0.0000000  0.7999501  3
    168    151    152    171     1  0.0000000  0.7999501  3
    168    151    153    172     1  0.0000000  0.7624859  2
    168    151    153    172     1  0.0000000  0.1243628  3
    168    151    153    187     1  0.0000000  0.7624859  2
    168    151    153    187     1  0.0000000  0.1243628  3
    172    153    187    186     1  180.0000000  7.5690543  2
    172    153    187    186     1  0.0000000  -0.2015131  1
    172    153    187    188     1  180.0000000  2.0338395  2
    172    153    187    188     1  0.0000000  3.7308670  1
    173    154    155    174     1  180.0000000  15.3215155  2
    174    155    156    175     1  180.0000000  15.3215155  2
    182    183    184    192     1  0.0000000  0.4354138  3
    182    183    184    193     1  0.0000000  0.4354138  3
    182    183    184    194     1  0.0000000  0.4354138  3
    182    183    185    195     1  0.0000000  0.4354138  3
    182    183    185    196     1  0.0000000  0.4354138  3
    182    183    185    197     1  0.0000000  0.4354138  3
    182    183    186    187     1  0.0000000  0.8026052  3
    182    183    186    187     1  180.0000000  3.8501921  1
    183    186    187    188     1  180.0000000  4.8693776  2
    183    186    187    188     1  180.0000000  0.7025718  1
    184    183    182    189     1  0.0000000  0.4354138  3
    184    183    182    190     1  0.0000000  0.4354138  3
    184    183    182    191     1  0.0000000  0.4354138  3
    184    183    185    195     1  0.0000000  0.4354138  3
    184    183    185    196     1  0.0000000  0.4354138  3
    184    183    185    197     1  0.0000000  0.4354138  3
    184    183    186    187     1  0.0000000  0.8026052  3
    184    183    186    187     1  180.0000000  3.8501921  1
    185    183    182    189     1  0.0000000  0.4354138  3
    185    183    182    190     1  0.0000000  0.4354138  3
    185    183    182    191     1  0.0000000  0.4354138  3
    185    183    184    192     1  0.0000000  0.4354138  3
    185    183    184    193     1  0.0000000  0.4354138  3
    185    183    184    194     1  0.0000000  0.4354138  3
    185    183    186    187     1  0.0000000  0.8026052  3
    185    183    186    187     1  180.0000000  3.8501921  1
    186    183    182    189     1  0.0000000  0.4667359  3
    186    183    182    189     1  0.0000000  1.4361539  1
    186    183    182    190     1  0.0000000  0.4667359  3
    186    183    182    190     1  0.0000000  1.4361539  1
    186    183    182    191     1  0.0000000  0.4667359  3
    186    183    182    191     1  0.0000000  1.4361539  1
    186    183    184    192     1  0.0000000  0.4667359  3
    186    183    184    192     1  0.0000000  1.4361539  1
    186    183    184    193     1  0.0000000  0.4667359  3
    186    183    184    193     1  0.0000000  1.4361539  1
    186    183    184    194     1  0.0000000  0.4667359  3
    186    183    184    194     1  0.0000000  1.4361539  1
    186    183    185    195     1  0.0000000  0.4667359  3
    186    183    185    195     1  0.0000000  1.4361539  1
    186    183    185    196     1  0.0000000  0.4667359  3
    186    183    185    196     1  0.0000000  1.4361539  1
    186    183    185    197     1  0.0000000  0.4667359  3
    186    183    185    197     1  0.0000000  1.4361539  1
     54     55     21     53     4  180.0000000  1.5341333  2
     21     54     19     40     4  180.0000000  1.3946667  2
    103     94    104    113     4  180.0000000  1.5341333  2
    154    173    150    155     4  180.0000000  1.5341333  2
      5      6     30      4     4  180.0000000  1.5341333  2
     54     21     53     55     4  180.0000000  1.5341333  2
     15      6     16     25     4  180.0000000  1.5341333  2
     52     51     53     75     4  180.0000000  1.5341333  2
    135    136    157    134     4  180.0000000  1.5341333  2
     50     49     51     59     4  180.0000000  1.5341333  2
    136    135    137    161     4  180.0000000  1.5341333  2
      3      2      4     25     4  180.0000000  1.5341333  2
     49     74     48     50     4  180.0000000  1.5341333  2
    139    138    140    146     4  180.0000000  1.5341333  2
    104    112    103    105     4  180.0000000  1.5341333  2
    138    137    139    147     4  180.0000000  1.5341333  2
      5     30      4      6     4  180.0000000  1.5341333  2
    155    154    156    174     4  180.0000000  1.5341333  2
     24     16     23     43     4  180.0000000  1.5341333  2
     95    102     94     96     4  180.0000000  1.5341333  2
    144    145    164    141     4  180.0000000  1.5341333  2
    100     97    101    120     4  180.0000000  1.5341333  2
     93     92     94    118     4  180.0000000  1.5341333  2
     53     56     52     54     4  180.0000000  1.5341333  2
     96    119     95     97     4  180.0000000  1.5341333  2
     48     73     47     49     4  180.0000000  1.5341333  2
     48     49     73     47     4  180.0000000  1.5341333  2
      4      3      5     29     4  180.0000000  1.5341333  2
     91     92    113     90     4  180.0000000  1.5341333  2
     23     22     24     42     4  180.0000000  1.5341333  2
     50     59     49     51     4  180.0000000  1.5341333  2
      6      7     15      5     4  180.0000000  1.5341333  2
     58     57     78     51     4  180.0000000  1.5341333  2
    109    107    128    142     4  180.0000000  1.3946667  2
    105    123    104    106     4  180.0000000  1.5341333  2
      9      8     10     12     4  180.0000000  1.5341333  2
    154    150    155    173     4  180.0000000  1.5341333  2
     61     62     79     60     4  180.0000000  1.5341333  2
     10     11    178      9     4  180.0000000  14.6440000  2
     56     53     57     76     4  180.0000000  1.5341333  2
    157    176    135    147     4  180.0000000  1.5341333  2
     67     66     68     86     4  180.0000000  1.5341333  2
    102     95    101    122     4  180.0000000  1.5341333  2
     47     46     48     69     4  180.0000000  1.5341333  2
      4     29      3      5     4  180.0000000  1.5341333  2
     51     50     52     58     4  180.0000000  1.5341333  2
    100    120     97    101     4  180.0000000  1.5341333  2
    104    103    105    112     4  180.0000000  1.5341333  2
    142    143    109    141     4  180.0000000  1.5341333  2
     92     91     93    117     4  180.0000000  1.5341333  2
     56     76     53     57     4  180.0000000  1.5341333  2
    111    112    130    110     4  180.0000000  1.5341333  2
     60     61     68     59     4  180.0000000  1.5341333  2
     62     63     66     61     4  180.0000000  1.5341333  2
     96     95     97    119     4  180.0000000  1.5341333  2
     52     75     51     53     4  180.0000000  1.5341333  2
    101    102    121    100     4  180.0000000  1.5341333  2
     97     98    100     96     4  180.0000000  1.5341333  2
     68     67     87     60     4  180.0000000  1.5341333  2
    140    141    163    139     4  180.0000000  1.5341333  2
     23     42     22     24     4  180.0000000  1.5341333  2
     93    118     92     94     4  180.0000000  1.5341333  2
    155    156    174    154     4  180.0000000  1.5341333  2
    141    142    144    140     4  180.0000000  1.5341333  2
    145    146    165    144     4  180.0000000  1.5341333  2
     17     35     16     18     4  180.0000000  1.5341333  2
     68     87     60     67     4  180.0000000  1.5341333  2
     62     61     63     66     4  180.0000000  1.5341333  2
     58     78     51     57     4  180.0000000  1.5341333  2
    157    135    147    176     4  180.0000000  1.5341333  2
    105    104    106    123     4  180.0000000  1.5341333  2
    106    105    107    110     4  180.0000000  1.5341333  2
    148    147    149    156     4  180.0000000  1.5341333  2
    144    164    141    145     4  180.0000000  1.5341333  2
    141    144    140    142     4  180.0000000  1.5341333  2
    149    167    148    150     4  180.0000000  1.5341333  2
     95     96    102     94     4  180.0000000  1.5341333  2
    137    138    162    136     4  180.0000000  1.5341333  2
     65     84     98     63     4  180.0000000  1.3946667  2
     21     40     54     19     4  180.0000000  1.3946667  2
     59     50     60     69     4  180.0000000  1.5341333  2
     25     44      3     15     4  180.0000000  1.5341333  2
    136    161    135    137     4  180.0000000  1.5341333  2
     17     16     18     35     4  180.0000000  1.5341333  2
    110    129    106    111     4  180.0000000  1.5341333  2
    101    121    100    102     4  180.0000000  1.5341333  2
    153    151    172    187     4  180.0000000  1.3946667  2
    147    138    148    157     4  180.0000000  1.5341333  2
    113    132     91    103     4  180.0000000  1.5341333  2
     25      3     15     44     4  180.0000000  1.5341333  2
    146    166    139    145     4  180.0000000  1.5341333  2
     13     33     12     14     4  180.0000000  1.5341333  2
     13     12     14     33     4  180.0000000  1.5341333  2
      7      8     14      6     4  180.0000000  1.5341333  2
    141    140    142    144     4  180.0000000  1.5341333  2
     15     25      6     16     4  180.0000000  1.5341333  2
      7      6      8     14     4  180.0000000  1.5341333  2
      9     12      8     10     4  180.0000000  1.5341333  2
     51     52     58     50     4  180.0000000  1.5341333  2
     57     77     56     58     4  180.0000000  1.5341333  2
     12     32      9     13     4  180.0000000  1.5341333  2
     48     47     49     73     4  180.0000000  1.5341333  2
    137    136    138    162     4  180.0000000  1.5341333  2
     14      7     13     34     4  180.0000000  1.5341333  2
    145    165    144    146     4  180.0000000  1.5341333  2
    145    144    146    165     4  180.0000000  1.5341333  2
     16     24     15     17     4  180.0000000  1.5341333  2
    144    141    145    164     4  180.0000000  1.5341333  2
    148    156    147    149     4  180.0000000  1.5341333  2
     13     14     33     12     4  180.0000000  1.5341333  2
     60     59     61     68     4  180.0000000  1.5341333  2
     95     94     96    102     4  180.0000000  1.5341333  2
    136    137    161    135     4  180.0000000  1.5341333  2
     65     98     63     84     4  180.0000000  1.3946667  2
    146    145    166    139     4  180.0000000  1.5341333  2
      7     14      6      8     4  180.0000000  1.5341333  2
     96     97    119     95     4  180.0000000  1.5341333  2
     22     23     41     18     4  180.0000000  1.5341333  2
     53     54     56     52     4  180.0000000  1.5341333  2
      4      5     29      3     4  180.0000000  1.5341333  2
    112    111    131    104     4  180.0000000  1.5341333  2
     59     69     50     60     4  180.0000000  1.5341333  2
     98     99     65     97     4  180.0000000  1.5341333  2
    135    134    136    157     4  180.0000000  1.5341333  2
    148    149    156    147     4  180.0000000  1.5341333  2
     91    113     90     92     4  180.0000000  1.5341333  2
     94    103     93     95     4  180.0000000  1.5341333  2
     91     90     92    113     4  180.0000000  1.5341333  2
     22     41     18     23     4  180.0000000  1.5341333  2
     62     66     61     63     4  180.0000000  1.5341333  2
     15     16     25      6     4  180.0000000  1.5341333  2
     25     15     44      3     4  180.0000000  1.5341333  2
    140    163    139    141     4  180.0000000  1.5341333  2
     49     50     74     48     4  180.0000000  1.5341333  2
     69     47     59     88     4  180.0000000  1.5341333  2
     93     94    118     92     4  180.0000000  1.5341333  2
    111    110    112    130     4  180.0000000  1.5341333  2
     57     58     77     56     4  180.0000000  1.5341333  2
    155    174    154    156     4  180.0000000  1.5341333  2
    187    186    188    153     4  180.0000000  14.6440000  2
      3     25      2      4     4  180.0000000  1.5341333  2
    149    148    150    167     4  180.0000000  1.5341333  2
     10    178      9     11     4  180.0000000  14.6440000  2
    110    106    111    129     4  180.0000000  1.5341333  2
    156    148    155    175     4  180.0000000  1.5341333  2
     12      9     13     32     4  180.0000000  1.5341333  2
     69     88     47     59     4  180.0000000  1.5341333  2
    103    113     94    104     4  180.0000000  1.5341333  2
     17     18     35     16     4  180.0000000  1.5341333  2
    113    103    132     91     4  180.0000000  1.5341333  2
      9     10     12      8     4  180.0000000  1.5341333  2
    187    188    153    186     4  180.0000000  14.6440000  2
     47     48     69     46     4  180.0000000  1.5341333  2
     61     60     62     79     4  180.0000000  1.5341333  2
     54     53     55     21     4  180.0000000  1.5341333  2
      8     31      7      9     4  180.0000000  1.5341333  2
     98     65     97     99     4  180.0000000  1.5341333  2
    156    175    148    155     4  180.0000000  1.5341333  2
     47     69     46     48     4  180.0000000  1.5341333  2
     14     34      7     13     4  180.0000000  1.5341333  2
     97    100     96     98     4  180.0000000  1.5341333  2
     18     19     22     17     4  180.0000000  1.5341333  2
    154    155    173    150     4  180.0000000  1.5341333  2
     22     18     23     41     4  180.0000000  1.5341333  2
     97     96     98    100     4  180.0000000  1.5341333  2
    139    146    138    140     4  180.0000000  1.5341333  2
    153    187    151    172     4  180.0000000  1.3946667  2
    147    148    157    138     4  180.0000000  1.5341333  2
     94     93     95    103     4  180.0000000  1.5341333  2
     50     51     59     49     4  180.0000000  1.5341333  2
    113     91    103    132     4  180.0000000  1.5341333  2
    105    106    123    104     4  180.0000000  1.5341333  2
     52     53     75     51     4  180.0000000  1.5341333  2
      8      9     31      7     4  180.0000000  1.5341333  2
     18     17     19     22     4  180.0000000  1.5341333  2
     92    117     91     93     4  180.0000000  1.5341333  2
    139    140    146    138     4  180.0000000  1.5341333  2
     57     56     58     77     4  180.0000000  1.5341333  2
     66     85     62     67     4  180.0000000  1.5341333  2
    150    149    151    154     4  180.0000000  1.5341333  2
     67     86     66     68     4  180.0000000  1.5341333  2
     60     68     59     61     4  180.0000000  1.5341333  2
     53     52     54     56     4  180.0000000  1.5341333  2
    150    151    154    149     4  180.0000000  1.5341333  2
     68     60     67     87     4  180.0000000  1.5341333  2
      5      4      6     30     4  180.0000000  1.5341333  2
     65     63     84     98     4  180.0000000  1.3946667  2
     59     60     69     50     4  180.0000000  1.5341333  2
     98     97     99     65     4  180.0000000  1.5341333  2
     24     23     43     16     4  180.0000000  1.5341333  2
    142    141    143    109     4  180.0000000  1.5341333  2
    138    139    147    137     4  180.0000000  1.5341333  2
     56     57     76     53     4  180.0000000  1.5341333  2
     69     59     88     47     4  180.0000000  1.5341333  2
    102    122     95    101     4  180.0000000  1.5341333  2
    153    172    187    151     4  180.0000000  1.3946667  2
    109    128    142    107     4  180.0000000  1.3946667  2
    100    101    120     97     4  180.0000000  1.5341333  2
    156    155    175    148     4  180.0000000  1.5341333  2
    111    130    110    112     4  180.0000000  1.5341333  2
    140    139    141    163     4  180.0000000  1.5341333  2
    149    150    167    148     4  180.0000000  1.5341333  2
     66     67     85     62     4  180.0000000  1.5341333  2
    106    110    105    107     4  180.0000000  1.5341333  2
    157    147    176    135     4  180.0000000  1.5341333  2
     21     19     40     54     4  180.0000000  1.3946667  2
    150    154    149    151     4  180.0000000  1.5341333  2
    106    107    110    105     4  180.0000000  1.5341333  2
     94     95    103     93     4  180.0000000  1.5341333  2
    103    104    113     94     4  180.0000000  1.5341333  2
    104    105    112    103     4  180.0000000  1.5341333  2
     14     13     34      7     4  180.0000000  1.5341333  2
    146    139    145    166     4  180.0000000  1.5341333  2
    110    111    129    106     4  180.0000000  1.5341333  2
     67     68     86     66     4  180.0000000  1.5341333  2
    109    142    107    128     4  180.0000000  1.3946667  2
      6      5      7     15     4  180.0000000  1.5341333  2
     66     62     67     85     4  180.0000000  1.5341333  2
     16     15     17     24     4  180.0000000  1.5341333  2
    112    131    104    111     4  180.0000000  1.5341333  2
     12     13     32      9     4  180.0000000  1.5341333  2
      6     15      5      7     4  180.0000000  1.5341333  2
    135    157    134    136     4  180.0000000  1.5341333  2
     58     51     57     78     4  180.0000000  1.5341333  2
     18     22     17     19     4  180.0000000  1.5341333  2
    102    101    122     95     4  180.0000000  1.5341333  2
    147    157    138    148     4  180.0000000  1.5341333  2
    137    162    136    138     4  180.0000000  1.5341333  2
     10      9     11    178     4  180.0000000  14.6440000  2
      3      4     25      2     4  180.0000000  1.5341333  2
     16     17     24     15     4  180.0000000  1.5341333  2
     92     93    117     91     4  180.0000000  1.5341333  2
    187    153    186    188     4  180.0000000  14.6440000  2
    101    100    102    121     4  180.0000000  1.5341333  2
     24     43     16     23     4  180.0000000  1.5341333  2
     49     48     50     74     4  180.0000000  1.5341333  2
     23     24     42     22     4  180.0000000  1.5341333  2
     51     58     50     52     4  180.0000000  1.5341333  2
      8      7      9     31     4  180.0000000  1.5341333  2
    142    109    141    143     4  180.0000000  1.5341333  2
    138    147    137    139     4  180.0000000  1.5341333  2
    112    104    111    131     4  180.0000000  1.5341333  2
     61     79     60     62     4  180.0000000  1.5341333  2


[ moleculetype ]
; Name            nrexcl
MOL1          3

[ atoms ]
;   nr       type  resnr residue  atom   cgnr    charge       mass  typeB    chargeB      massB
; residue    1 MOL1 rtp MOL1 q -0.0
    1     MOL1_0      1   MOL1     Cl      1 -0.11398000  35.453200   ; qtot -0.113980
    2     MOL1_1      1   MOL1      C      2 0.22337000   9.994886   ; qtot 0.109390
    3     MOL1_2      1   MOL1     Cl      3 -0.11398000  35.453200   ; qtot -0.004590
    4     MOL1_3      1   MOL1     Cl      4 -0.11398000  35.453200   ; qtot -0.118570
    5     MOL1_4      1   MOL1      H      5 0.11857000   3.023841   ; qtot -0.000000

[ bonds ]
;    ai     aj funct         c0         c1         c2         c3
      1      2     1   0.17915 144269.526419
      2      3     1   0.17915 144269.526419
      2      4     1   0.17915 144269.526419
      2      5     1   0.10939 309655.084322

[ angles ]
;    ai     aj     ak funct         c0         c1         c2         c3
      1      2      3     1   116.5475863 445.222087
      1      2      4     1   116.5475863 445.222087
      1      2      5     1   116.5475863 445.222087
      3      2      4     1   116.5475863 445.222087
      3      2      5     1   116.5475863 445.222087
      4      2      5     1   116.5475863 445.222087

[ system ]
; Name
FOO

[ molecules ]
; Compound       #mols
mom_tetramer.pdb      1
MOL1               634
